/*--------------------------------*- C++ -*----------------------------------*\
| =========                 |                                                 |
| \\      /  F ield         | OpenFOAM: The Open Source CFD Toolbox           |
|  \\    /   O peration     | Version:  v1612+                                |
|   \\  /    A nd           | Web:      www.OpenFOAM.com                      |
|    \\/     M anipulation  |                                                 |
\*---------------------------------------------------------------------------*/
FoamFile
{
    version     2.0;
    format      ascii;
    class       surfaceScalarField;
    location    "1.75";
    object      phi;
}
// * * * * * * * * * * * * * * * * * * * * * * * * * * * * * * * * * * * * * //

dimensions      [0 3 -1 0 0 0 0];

internalField   nonuniform List<scalar> 
816
(
-4.2399e-07
3.63563e-07
2.79634e-07
4.18753e-07
3.15535e-06
-3.79409e-06
6.14385e-07
4.23267e-07
-5.30741e-08
2.50965e-06
-3.89065e-06
7.55717e-07
5.96955e-07
-1.06094e-06
-5.75373e-08
1.54745e-07
-1.49953e-07
1.46431e-06
-3.836e-07
4.0351e-07
2.1796e-05
-0.00012064
7.76944e-06
-2.52757e-05
5.38468e-05
-1.06979e-05
1.40116e-05
4.07127e-05
4.03262e-05
-2.11508e-05
1.82666e-05
-1.15786e-05
-1.81734e-05
1.81402e-06
-5.59077e-06
-2.76537e-05
0.000128372
4.66187e-06
-3.75139e-06
7.99063e-05
1.83251e-05
-0.00010526
7.80484e-06
8.23554e-05
4.73129e-05
-7.47914e-05
-1.20477e-05
-1.83639e-05
0.000124792
-0.000107836
3.01773e-06
-7.36204e-05
0.000120117
4.762e-05
1.33141e-05
2.81608e-05
8.42008e-05
0.000111241
1.41705e-05
-5.75827e-05
0.000196893
2.13266e-05
5.41112e-06
-0.000107175
0.000170265
1.33276e-05
8.31444e-05
-4.97366e-05
-6.52417e-07
2.31594e-06
-9.23396e-07
5.72943e-06
8.30513e-07
3.03259e-06
-2.46196e-06
7.31576e-06
3.61353e-06
6.64558e-06
4.22526e-06
6.84914e-07
5.37664e-06
3.89511e-07
1.03158e-06
2.41032e-06
-3.92899e-06
-2.33635e-06
-1.142e-06
-9.79475e-07
-6.703e-07
2.3869e-06
-1.29546e-06
-2.87709e-06
2.4403e-06
-6.58662e-06
-3.7885e-06
-1.83463e-06
9.92043e-07
-6.42707e-06
2.56852e-06
-2.49743e-06
2.21215e-06
5.56708e-07
-4.40948e-07
2.23961e-06
4.17644e-06
2.3163e-06
5.71081e-06
3.5676e-06
4.0164e-06
2.73231e-06
2.88972e-07
4.66919e-06
1.31149e-06
9.23285e-06
7.50887e-06
4.64724e-07
4.65642e-07
-1.89709e-06
-3.99051e-08
8.27925e-07
-1.60436e-06
-6.3768e-07
6.40042e-07
1.66645e-06
2.17911e-06
-6.03712e-07
-6.21936e-07
1.63363e-06
2.09348e-07
7.9297e-07
7.90596e-07
-1.2798e-06
7.64994e-07
1.89451e-07
-7.42643e-07
-2.9409e-07
3.28856e-07
-8.75629e-07
-1.96549e-06
6.71307e-07
-1.51949e-08
9.12318e-07
1.36713e-06
-1.60964e-06
1.93851e-07
1.20233e-06
-2.50598e-07
-5.46992e-07
2.84601e-06
7.25737e-07
-1.23821e-06
6.44068e-07
7.71733e-07
3.99974e-06
1.01051e-06
1.09718e-06
2.58579e-07
9.98171e-07
3.79082e-07
6.32414e-07
9.06854e-07
7.93124e-07
2.02201e-07
1.00483e-06
7.40312e-07
9.19198e-07
9.8702e-07
-9.27653e-07
-4.49828e-08
2.17731e-07
1.07809e-06
-1.90621e-08
3.30724e-07
-8.04248e-07
8.8764e-07
-6.40809e-08
-6.34595e-07
7.25967e-07
-2.13128e-07
1.46922e-06
-5.78046e-07
6.01568e-08
5.66717e-07
1.54285e-06
8.26771e-07
2.73066e-07
6.18017e-07
1.5254e-07
-3.27906e-07
-8.4835e-08
-3.21869e-07
4.05734e-07
-1.76422e-07
-1.03813e-06
3.7944e-07
-3.59145e-07
-5.00265e-07
1.0157e-06
3.27007e-07
-6.78975e-07
9.12614e-07
-4.80508e-07
-6.5427e-08
-2.5635e-07
5.98723e-07
9.01792e-07
-2.35222e-07
9.99398e-07
2.6357e-07
9.71464e-07
6.91664e-07
1.29806e-06
0.000110201
-0.00010541
7.41846e-06
7.3282e-05
9.87821e-05
2.56518e-06
8.72517e-05
-2.79956e-05
-6.44495e-06
1.88192e-05
-6.49789e-05
1.5835e-05
-3.69025e-05
-2.16378e-05
9.97498e-06
-4.35338e-05
-7.02325e-05
5.16934e-05
1.28368e-05
-2.64571e-05
8.67825e-05
-2.61899e-06
-7.60205e-05
-5.2762e-06
-4.41722e-06
1.74225e-05
-5.72808e-05
1.03976e-05
-3.55552e-05
-0.000102072
9.90795e-06
0.000133388
1.74966e-05
-4.54671e-05
7.73488e-06
8.9361e-05
-0.000109101
-5.24495e-07
-7.17123e-05
-3.28042e-05
6.89306e-06
-4.48192e-05
0.000102252
5.19758e-06
5.70629e-05
-3.43956e-05
1.18435e-06
-5.00976e-05
7.24839e-05
-7.5167e-05
7.46344e-06
5.51186e-05
1.69409e-05
3.40659e-06
1.70893e-05
-2.07726e-05
-1.05301e-06
-3.47829e-05
4.81842e-05
6.15904e-06
8.18554e-05
1.49789e-06
0.000121301
-1.92207e-05
2.62585e-06
-4.37783e-06
7.94086e-06
7.52642e-06
-9.6061e-08
1.66544e-06
7.67506e-06
-5.1473e-06
-7.93029e-07
4.98219e-06
-2.93903e-06
7.14355e-06
6.98692e-06
5.14828e-07
6.42373e-06
2.71004e-06
-4.54803e-06
5.14391e-06
6.89311e-06
7.45756e-06
-1.01174e-06
4.38197e-06
1.40086e-07
-5.31126e-06
6.13506e-06
-2.50352e-06
-2.81937e-06
6.31447e-06
-5.22843e-06
2.3e-07
-4.30931e-06
3.74838e-06
4.67786e-06
-7.52348e-07
5.15695e-06
6.90375e-06
-6.01722e-06
1.93259e-06
4.49877e-07
-1.57613e-06
-3.13667e-07
-1.21737e-06
2.46972e-07
2.73764e-07
5.09226e-06
-2.23302e-07
1.35392e-06
2.26245e-06
-1.94274e-06
4.00663e-06
2.06753e-06
7.94864e-06
3.4732e-06
2.70481e-06
7.03816e-06
-2.67227e-06
6.25396e-06
2.74773e-06
9.23323e-07
4.37092e-06
-2.49586e-06
-2.35949e-06
5.78079e-06
-6.31364e-06
-2.69692e-07
2.84327e-06
3.41718e-06
2.96335e-06
-5.87201e-07
6.5149e-07
2.16732e-06
-1.65581e-06
-1.6462e-07
1.06755e-06
3.23426e-07
3.94465e-06
5.7251e-07
-1.2121e-06
3.43687e-06
2.21427e-06
2.31044e-06
6.14856e-07
2.92887e-06
1.49046e-06
1.06441e-06
1.75234e-06
2.95239e-06
1.95048e-06
2.65273e-06
3.33101e-06
3.58287e-06
3.10571e-06
1.25508e-06
-1.56322e-06
-1.8758e-06
-7.4016e-07
3.4458e-06
-4.14293e-07
1.98389e-06
2.2913e-06
1.81298e-07
8.65593e-07
1.11244e-06
-2.78829e-07
-2.80107e-08
1.52154e-06
-3.26256e-07
1.58032e-07
1.3644e-06
-9.70614e-07
1.40306e-06
8.6743e-07
-2.74927e-07
-8.29453e-07
1.54279e-06
1.35663e-07
-4.60689e-07
8.3508e-07
2.23811e-06
9.60679e-07
2.38787e-06
3.20828e-06
2.62832e-06
1.56924e-06
2.2289e-06
-1.43739e-06
2.16809e-06
2.37493e-06
-3.71454e-07
1.7313e-06
1.04141e-06
1.99056e-06
-4.05322e-07
2.54632e-07
1.31884e-06
-1.03123e-06
2.46902e-07
9.41989e-07
2.30144e-07
1.24325e-06
8.44833e-07
-3.97703e-07
1.11054e-06
1.78401e-06
1.16061e-06
5.25457e-07
8.8584e-07
1.14247e-06
4.46073e-07
8.21965e-07
1.8106e-06
8.94373e-07
6.95171e-07
1.65135e-06
2.15316e-06
8.84027e-07
6.05925e-07
-7.31048e-07
-5.64305e-07
-4.75129e-07
2.02055e-06
-4.08435e-07
5.16611e-07
1.49595e-06
-4.16073e-07
1.98186e-07
1.01961e-06
-8.49955e-07
9.44613e-09
1.39026e-06
-8.91438e-07
3.92058e-08
1.06555e-06
-2.14595e-07
3.93719e-07
8.80898e-07
-5.50817e-07
2.18315e-07
5.20194e-07
1.08879e-07
-6.00836e-08
3.09798e-07
1.38832e-06
6.47138e-07
7.60622e-07
1.9132e-06
1.6299e-06
4.90859e-07
7.80072e-07
-3.41199e-07
1.27337e-06
9.89306e-07
2.31185e-08
5.21762e-07
6.49771e-08
3.01096e-07
3.75945e-07
4.08938e-08
3.35967e-07
3.88312e-07
5.42751e-07
-4.56909e-07
1.51626e-07
5.69827e-07
9.07134e-08
-3.50996e-07
2.62091e-07
-3.11413e-07
2.20654e-07
6.98809e-07
-4.24507e-07
-3.47251e-08
9.59777e-07
3.22687e-07
5.76956e-07
1.81294e-07
-1.95023e-07
6.56206e-08
5.00641e-07
-4.21236e-07
4.07139e-07
-1.28174e-07
5.67305e-07
-4.37766e-07
4.56686e-07
-2.09514e-07
-1.71952e-07
1.76849e-07
-8.09048e-08
4.75609e-07
4.52074e-07
4.16369e-07
-3.06658e-07
9.46371e-07
8.54725e-07
-3.86413e-07
5.99236e-07
-4.62161e-07
5.35331e-07
8.7068e-08
2.55348e-07
-6.52729e-08
6.87534e-07
5.6412e-07
3.19507e-07
4.43555e-07
5.7375e-07
8.62955e-07
6.73708e-07
7.56109e-07
1.18175e-06
4.14865e-07
-4.81338e-07
2.10899e-08
1.05319e-06
-3.18997e-07
8.16303e-07
-3.54676e-07
6.16095e-07
-4.26558e-07
6.34856e-07
-3.99664e-07
4.66482e-07
-2.16771e-07
3.82577e-07
-1.71352e-07
-5.25479e-08
1.42373e-07
-7.07889e-08
5.00493e-07
3.07167e-07
8.58871e-07
7.4662e-07
4.70741e-07
7.06088e-07
6.53223e-07
1.18711e-05
5.46804e-05
-1.34577e-05
6.30587e-05
-1.18227e-05
-1.63888e-05
-1.32607e-05
-0.000112717
-7.77792e-06
-6.61797e-05
-8.27356e-06
-1.14851e-05
-9.50261e-06
1.17325e-05
1.28791e-05
5.59145e-06
7.39351e-06
7.01818e-05
-1.51993e-05
8.27989e-05
-2.16053e-05
5.73829e-05
-3.61918e-06
0.00010249
1.81577e-05
3.33141e-05
-3.96563e-07
-3.80802e-05
-7.29041e-06
-0.000108393
-1.50098e-05
-0.000154658
-1.71245e-05
-9.18029e-05
-2.91494e-06
-1.86819e-05
5.69523e-06
1.11869e-05
-1.12168e-05
1.27451e-06
-7.78532e-06
8.41433e-05
1.5108e-05
-3.19755e-05
3.57623e-06
-8.72274e-05
-1.21231e-05
6.46505e-06
-2.19596e-05
3.68266e-05
-1.06003e-05
5.03768e-05
9.36997e-06
0.000118627
1.25926e-05
-9.14632e-06
2.31357e-06
-4.66461e-06
-5.10782e-06
4.52888e-08
-2.95842e-06
-1.05128e-08
-6.2754e-06
-1.21443e-06
-2.03472e-06
-5.45503e-06
1.53273e-06
-9.0447e-06
-4.51104e-06
5.01387e-06
-1.87877e-06
1.01087e-05
-1.64087e-06
2.37862e-06
-6.59123e-08
-6.20305e-06
-6.38492e-06
-4.23112e-06
-1.12433e-05
8.01504e-06
-8.98772e-07
5.69247e-06
5.16473e-06
-6.62997e-07
-1.58981e-06
5.22849e-07
-1.0585e-05
-5.41584e-06
-4.71033e-06
-7.54819e-06
-1.7097e-06
1.64292e-07
-3.26739e-06
-1.64604e-06
-4.19507e-06
-6.02605e-06
-1.81392e-06
6.83063e-06
2.06415e-06
7.82311e-06
2.529e-06
3.70112e-06
1.46857e-06
-6.1653e-06
-5.91282e-06
-7.44415e-06
-7.51624e-06
-1.82839e-06
-3.29209e-07
7.38701e-06
-2.9e-06
-6.47055e-06
-1.77921e-06
1.50887e-06
-2.67207e-06
-1.90203e-07
-1.58523e-06
-1.57345e-06
-2.7274e-06
-1.29123e-06
-1.24488e-06
4.9263e-07
3.17024e-07
8.6866e-07
-2.68058e-06
-4.46567e-07
-5.67439e-07
2.94923e-07
-8.3371e-08
2.30528e-06
-6.11918e-07
1.98597e-06
-3.12974e-06
-1.35365e-06
-4.59585e-06
-8.39949e-07
-1.73156e-07
1.49022e-06
2.06958e-06
1.16108e-06
-1.26775e-06
-1.39186e-06
-4.61424e-06
-1.35689e-06
-2.47996e-06
-4.15345e-07
-1.5607e-06
-2.6125e-07
-1.9192e-06
-1.02912e-06
-2.07062e-06
-9.59722e-07
-1.01496e-06
-1.24706e-07
1.22786e-06
3.53932e-07
1.78215e-06
1.39e-06
5.72115e-07
6.28449e-07
-2.91636e-06
-1.34063e-07
-3.55393e-06
1.34095e-06
4.18485e-07
1.97033e-06
-1.15574e-06
-2.99212e-06
-9.41231e-07
4.90496e-07
-9.4867e-07
-2.2566e-07
-3.12298e-07
-7.48667e-07
-8.90505e-07
-5.59415e-07
-4.9117e-07
3.36659e-07
2.56349e-07
3.82508e-08
-6.11691e-07
-2.62982e-07
-2.64627e-07
7.95456e-07
6.40187e-09
1.40237e-06
-9.5313e-08
9.00951e-07
-8.07789e-07
-6.72684e-07
-1.39041e-06
-1.26114e-08
-2.50928e-07
1.19587e-06
3.53614e-07
5.09719e-07
-6.00559e-07
-5.72119e-07
-1.54962e-06
-7.30342e-07
-8.57914e-07
-6.95538e-07
-5.99237e-07
-7.32118e-07
-5.07762e-07
-1.17833e-06
-5.62325e-07
-1.06277e-06
-2.45497e-07
-1.01981e-07
2.62717e-07
7.35369e-07
3.94001e-07
1.29614e-06
1.01667e-07
4.01263e-07
-6.42651e-07
-2.75216e-07
-9.72266e-07
8.99177e-07
2.39963e-08
1.28178e-06
-5.44339e-07
-1.21481e-06
-7.26831e-07
4.88058e-07
-1.81339e-07
-4.78776e-07
-4.39487e-07
6.65727e-08
1.35077e-07
-1.31846e-07
4.28274e-07
7.59191e-07
8.07149e-07
1.63035e-07
3.12766e-07
6.64442e-07
5.28468e-08
-4.67167e-07
-5.2608e-07
-5.2022e-07
-3.97852e-07
-4.9497e-07
-3.54885e-07
-9.15165e-08
1.28363e-07
3.67223e-07
2.21905e-07
1.12421e-07
6.12109e-07
7.24812e-07
7.36956e-05
-6.33137e-05
1.02408e-05
-7.02161e-05
2.63744e-06
4.37993e-05
-4.78209e-06
-8.79927e-06
5.95031e-06
2.51026e-06
4.20992e-06
3.95545e-06
)
;

boundaryField
{
    top_fluid_surface
    {
        type            calculated;
        value           nonuniform List<scalar> 
64
(
6.39678e-05
-3.14637e-05
1.90937e-05
-0.000122125
-0.000140437
-3.06175e-05
-0.000128833
-6.20556e-05
-0.000281682
-0.000218458
2.20905e-05
-0.000113196
-4.15547e-06
-7.33622e-05
0.000147591
3.40372e-05
8.59027e-05
-9.24114e-05
-2.6805e-05
0.000124413
0.000160659
-0.000123835
-0.000121551
7.14836e-05
-0.000112619
-0.000171951
0.000112382
6.12774e-05
-0.000167876
-2.88736e-05
-0.000205904
-0.000165913
6.56692e-05
2.99601e-05
0.00017477
0.000115283
-5.23961e-05
-9.4388e-05
-4.00787e-05
-7.82766e-05
-7.76526e-05
-9.98142e-05
4.1392e-05
-6.12529e-05
0.000190615
7.69601e-05
9.32878e-05
0.000149009
-0.000133574
-0.000127775
3.66925e-05
-3.35994e-05
-9.88662e-05
0.000184325
0.000124133
-4.90727e-05
-9.12475e-05
5.48093e-05
-0.000102556
0.000178353
0.000234561
0.00026198
0.000214757
7.38293e-05
)
;
    }
    bottom_fluid_surface
    {
        type            calculated;
        value           uniform 0;
    }
    lateral_surface_1
    {
        type            calculated;
        value           uniform 0;
    }
    lateral_surface_2
    {
        type            calculated;
        value           uniform 0;
    }
    lateral_surface_3
    {
        type            calculated;
        value           uniform 0;
    }
    lateral_surface_4
    {
        type            calculated;
        value           uniform 0;
    }
}


// ************************************************************************* //
