/*--------------------------------*- C++ -*----------------------------------*\
| =========                 |                                                 |
| \\      /  F ield         | OpenFOAM: The Open Source CFD Toolbox           |
|  \\    /   O peration     | Version:  v1612+                                |
|   \\  /    A nd           | Web:      www.OpenFOAM.com                      |
|    \\/     M anipulation  |                                                 |
\*---------------------------------------------------------------------------*/
FoamFile
{
    version     2.0;
    format      ascii;
    class       volScalarField;
    location    "3.65";
    object      p;
}
// * * * * * * * * * * * * * * * * * * * * * * * * * * * * * * * * * * * * * //

dimensions      [1 -1 -2 0 0 0 0];

internalField   nonuniform List<scalar> 
1116
(
3551.83
3551.82
3551.83
3551.82
3551.81
3551.84
3392.88
3392.85
3392.85
3392.86
3392.86
3392.87
3496.48
3496.47
3496.47
3496.49
3496.49
3496.47
3787.83
3787.82
3787.82
3787.83
3787.84
3787.82
4169.85
4169.84
4169.85
4169.85
4169.86
4169.85
4663.68
4663.68
4663.68
4663.69
4663.69
4663.69
5413.9
5413.9
5413.9
5413.91
5413.91
5413.92
6927.69
6927.69
6927.69
6927.7
6927.69
6927.71
9648.21
9648.19
9648.19
9648.2
9648.18
9648.22
13739.7
13739.7
13739.7
13739.7
13739.7
13739.7
17049
17048.9
17048.9
17048.8
17048.8
17048.9
19291.4
19291.3
19291.3
19291.3
19291.3
19291.4
64.3493
64.3443
64.3455
64.3422
64.3411
64.3569
-2.39642
-2.39789
-2.39816
-2.39641
-2.39478
-2.39391
0.903424
0.903869
0.903509
0.905321
0.907184
0.905093
39.326
39.3272
39.3267
39.3279
39.3298
39.3277
107.55
107.553
107.551
107.553
107.556
107.553
209.713
209.715
209.715
209.717
209.721
209.717
349.164
349.171
349.171
349.174
349.18
349.175
664.097
664.089
664.09
664.09
664.091
664.105
1925.1
1925.11
1925.09
1925.09
1925.09
1925.11
5533.62
5533.54
5533.57
5533.56
5533.53
5533.55
9524.18
9523.75
9523.84
9523.8
9523.64
9523.85
12277.3
12277.2
12277.2
12277.2
12277.1
12277.1
-23.1024
-23.1021
-23.1021
-23.1018
-23.1017
-23.1021
-22.589
-22.5889
-22.5888
-22.5886
-22.5886
-22.5888
-21.0055
-21.0054
-21.0054
-21.0055
-21.0055
-21.0056
-17.6092
-17.6092
-17.6093
-17.6095
-17.6096
-17.6095
-15.7854
-15.7854
-15.7854
-15.7853
-15.7852
-15.7851
-14.6519
-14.6519
-14.6517
-14.6514
-14.651
-14.6507
-9.16477
-9.16514
-9.16564
-9.16559
-9.16524
-9.16487
9.62305
9.62288
9.62097
9.61961
9.61967
9.61852
111.731
111.721
111.723
111.722
111.721
111.727
647.335
647.203
647.285
647.276
647.25
647.32
4765.23
4763.29
4763.87
4763.84
4763.11
4764.36
7775.79
7775.79
7775.8
7775.82
7775.76
7775.75
-32.4242
-32.424
-32.424
-32.4239
-32.424
-32.4243
-31.5246
-31.5244
-31.5244
-31.5245
-31.5245
-31.5248
-30.2613
-30.2613
-30.2613
-30.2614
-30.2616
-30.2616
-27.2622
-27.2622
-27.2622
-27.2624
-27.2625
-27.2622
-24.531
-24.531
-24.531
-24.531
-24.5309
-24.5307
-23.4721
-23.4721
-23.4721
-23.4721
-23.4721
-23.4719
-22.2121
-22.2127
-22.2128
-22.2129
-22.213
-22.2124
-20.6536
-20.6586
-20.6584
-20.6587
-20.6593
-20.6567
-4.67678
-4.70183
-4.69382
-4.6943
-4.70212
-4.68479
62.0981
62.1474
62.1853
62.1459
62.1412
62.0954
2483.71
2477.2
2478.51
2478.63
2476.86
2481.06
3757.17
3756.56
3757.03
3757.17
3756.81
3757.13
-4.18102
-4.18108
-4.18108
-4.18105
-4.18101
-4.18097
-4.15532
-4.15531
-4.15527
-4.15522
-4.15516
-4.1551
-4.10427
-4.10421
-4.10416
-4.10412
-4.10408
-4.10404
-4.0295
-4.02945
-4.02942
-4.02939
-4.02937
-4.02935
-3.93407
-3.93405
-3.93403
-3.934
-3.93397
-3.93394
-3.82473
-3.82473
-3.82472
-3.82469
-3.82465
-3.82463
-3.71611
-3.71615
-3.71616
-3.71617
-3.71618
-3.71622
-3.63779
-3.63788
-3.63794
-3.63802
-3.63812
-3.63819
-3.6395
-3.63959
-3.63977
-3.63999
-3.64021
-3.64037
-3.84536
-3.84539
-3.84538
-3.84536
-3.84519
-3.84506
-4.3052
-4.30507
-4.30483
-4.30493
-4.30455
-4.30425
-5.67936
-5.67916
-5.67871
-5.6785
-5.6782
-5.67823
-14.0194
-14.0194
-14.0193
-14.0193
-14.0192
-14.0192
-13.9919
-13.9918
-13.9918
-13.9917
-13.9916
-13.9916
-13.9388
-13.9387
-13.9387
-13.9386
-13.9386
-13.9386
-13.8659
-13.8659
-13.8659
-13.8659
-13.8659
-13.8659
-13.7839
-13.7839
-13.784
-13.784
-13.784
-13.784
-13.7095
-13.7095
-13.7095
-13.7096
-13.7096
-13.7096
-13.6665
-13.6665
-13.6665
-13.6666
-13.6666
-13.6666
-13.676
-13.676
-13.676
-13.6758
-13.6757
-13.6756
-13.7161
-13.716
-13.7156
-13.715
-13.7143
-13.7139
-13.6468
-13.6465
-13.6459
-13.6457
-13.6443
-13.6439
-13.9413
-13.9409
-13.94
-13.941
-13.9399
-13.9388
-17.2627
-17.2625
-17.2609
-17.2611
-17.2609
-17.2606
-23.8893
-23.8893
-23.8892
-23.8891
-23.8891
-23.889
-23.8578
-23.8578
-23.8577
-23.8577
-23.8577
-23.8576
-23.7927
-23.7926
-23.7926
-23.7926
-23.7926
-23.7926
-23.688
-23.688
-23.6881
-23.6881
-23.6882
-23.6882
-23.5324
-23.5325
-23.5325
-23.5326
-23.5326
-23.5327
-23.3078
-23.3079
-23.3079
-23.308
-23.3081
-23.3081
-22.9975
-22.9975
-22.9975
-22.9975
-22.9975
-22.9975
-22.6235
-22.6234
-22.6232
-22.6229
-22.6225
-22.6221
-22.264
-22.2638
-22.2633
-22.2628
-22.262
-22.261
-22.2894
-22.289
-22.2879
-22.288
-22.2865
-22.2859
-22.3548
-22.3548
-22.3507
-22.3554
-22.353
-22.3483
-28.782
-28.78
-28.7749
-28.7858
-28.7744
-28.7862
-33.7937
-33.7936
-33.7936
-33.7935
-33.7935
-33.7935
-33.7622
-33.7622
-33.7621
-33.7621
-33.7621
-33.7621
-33.6984
-33.6983
-33.6984
-33.6984
-33.6984
-33.6985
-33.6042
-33.6042
-33.6043
-33.6043
-33.6044
-33.6045
-33.4884
-33.4884
-33.4885
-33.4886
-33.4886
-33.4886
-33.3702
-33.3703
-33.3703
-33.3703
-33.3703
-33.3703
-33.2832
-33.2832
-33.2831
-33.283
-33.2829
-33.2828
-33.2774
-33.2772
-33.2769
-33.2768
-33.2763
-33.2763
-33.3852
-33.3848
-33.3839
-33.3844
-33.3827
-33.3832
-31.9346
-31.9334
-31.9241
-31.9465
-31.9254
-31.9359
-28.1937
-28.1961
-28.1766
-28.229
-28.2064
-28.2041
-52.4689
-52.474
-52.485
-52.4309
-52.4819
-52.4653
-42.7438
-42.7438
-42.7439
-42.744
-42.7442
-42.7443
-53.292
-53.292
-53.2922
-53.2923
-53.2924
-53.2923
-64.501
-64.5011
-64.5011
-64.5012
-64.5011
-64.5009
-42.283
-42.283
-42.283
-42.2831
-42.2832
-42.2833
-52.9944
-52.9945
-52.9945
-52.9944
-52.9944
-52.9943
-64.4133
-64.4133
-64.4133
-64.4132
-64.4131
-64.413
-41.496
-41.4959
-41.4959
-41.4959
-41.4959
-41.496
-52.2828
-52.2828
-52.2828
-52.2827
-52.2827
-52.2826
-64.2114
-64.2115
-64.2115
-64.2114
-64.2114
-64.2114
-40.102
-40.1019
-40.102
-40.102
-40.1019
-40.1019
-51.2635
-51.2636
-51.2638
-51.2638
-51.2638
-51.2638
-63.9314
-63.9316
-63.9317
-63.9317
-63.9317
-63.9317
-38.5326
-38.5324
-38.5325
-38.5324
-38.5323
-38.5324
-50.1391
-50.1392
-50.1394
-50.1395
-50.1395
-50.1396
-63.4148
-63.4148
-63.4148
-63.4148
-63.4148
-63.4148
-36.6228
-36.6228
-36.6228
-36.6229
-36.623
-36.6232
-49.0899
-49.0899
-49.0898
-49.0899
-49.0901
-49.0904
-62.5085
-62.5084
-62.5084
-62.5084
-62.5085
-62.5086
-33.0276
-33.0278
-33.0281
-33.0285
-33.0288
-33.0289
-48.236
-48.2359
-48.236
-48.2365
-48.2367
-48.2368
-61.5552
-61.5552
-61.5553
-61.5555
-61.5555
-61.5557
-36.2324
-36.2325
-36.2329
-36.2339
-36.2345
-36.2353
-52.3475
-52.3482
-52.3503
-52.3518
-52.3507
-52.3505
-57.5503
-57.5507
-57.5516
-57.5524
-57.552
-57.552
-23.7395
-23.7505
-23.7473
-23.7478
-23.7538
-23.7471
-38.1875
-38.1723
-38.1877
-38.1924
-38.1779
-38.1932
-61.7914
-61.787
-61.7924
-61.7948
-61.7893
-61.7945
-7.91979
-7.96414
-7.93328
-7.93824
-7.97111
-7.95505
-32.4197
-32.4113
-32.4138
-32.4152
-32.408
-32.4272
-57.5525
-57.5528
-57.5522
-57.5524
-57.5505
-57.5509
-7.43147
-7.26814
-7.23078
-7.18804
-7.16067
-7.23957
-142.694
-142.686
-142.942
-143.03
-142.825
-142.947
-116.735
-116.875
-116.824
-116.809
-116.866
-116.75
80.75
86.629
85.4233
85.8236
87.4384
83.6765
329.021
329.391
329.216
329.259
329.306
329.083
-83.7862
-83.794
-83.7929
-83.7935
-83.7966
-83.7831
28.7679
28.7353
29.2027
28.4264
28.6411
29.3227
-115.006
-115.48
-115.934
-114.135
-113.131
-115.451
-198.6
-200.312
-201.312
-194.825
-192.711
-199.352
868.797
868.592
872.633
859.289
859.035
875.295
37.1004
42.1098
42.7349
33.5752
47.7366
21.1852
-195.179
-195.095
-195.035
-194.344
-192.61
-196.177
2361.67
2360.39
2362.48
2364.41
2370.58
2369.61
168.574
168.751
168.283
168.692
168.28
168.012
-125.262
-125.259
-125.217
-125.116
-124.953
-125.155
2806.56
2806.58
2807.62
2809.84
2815.03
2808.36
309.651
310.076
310.031
310.1
312.391
306.738
-91.7895
-91.7799
-91.7675
-91.7271
-91.6845
-91.7814
3126.24
3126.06
3126.72
3127.55
3128.15
3129.19
906.585
907.265
907.258
907.453
909.38
905.137
-80.9451
-80.9419
-80.9402
-80.9221
-80.9198
-80.9538
2168.37
2169.71
2169.77
2170.83
2171.24
2169.67
993.51
994.236
994.059
993.947
994.33
993.544
-77.7006
-77.6992
-77.6992
-77.6936
-77.6881
-77.7092
-43.7147
-43.7146
-43.7146
-43.7146
-43.7146
-43.7145
-53.6833
-53.6833
-53.6833
-53.6833
-53.6833
-53.6833
-63.6675
-63.6675
-63.6675
-63.6675
-63.6675
-63.6675
-43.6844
-43.6843
-43.6843
-43.6843
-43.6843
-43.6844
-53.6635
-53.6635
-53.6635
-53.6635
-53.6636
-53.6636
-63.6594
-63.6594
-63.6594
-63.6594
-63.6594
-63.6595
-43.6182
-43.6182
-43.6183
-43.6183
-43.6184
-43.6184
-53.6221
-53.6221
-53.6221
-53.6222
-53.6222
-53.6223
-63.6415
-63.6416
-63.6416
-63.6416
-63.6416
-63.6416
-43.4985
-43.4986
-43.4987
-43.4987
-43.4987
-43.4988
-53.5556
-53.5557
-53.5557
-53.5557
-53.5557
-53.5557
-63.6107
-63.6107
-63.6107
-63.6107
-63.6107
-63.6106
-43.2864
-43.2865
-43.2865
-43.2865
-43.2865
-43.2865
-53.4609
-53.4609
-53.4609
-53.4609
-53.4608
-53.4608
-63.5608
-63.5608
-63.5608
-63.5607
-63.5607
-63.5607
-42.9058
-42.9058
-42.9058
-42.9057
-42.9057
-42.9056
-53.3435
-53.3435
-53.3434
-53.3433
-53.3433
-53.3432
-63.5053
-63.5053
-63.5053
-63.5053
-63.5054
-63.5054
-42.2124
-42.2123
-42.2122
-42.2122
-42.212
-42.2117
-53.2453
-53.2451
-53.2449
-53.2446
-53.2444
-53.2441
-63.4287
-63.4286
-63.4286
-63.4286
-63.4286
-63.4287
-41.195
-41.1948
-41.1947
-41.1949
-41.1943
-41.1925
-52.7001
-52.6999
-52.6992
-52.6987
-52.6972
-52.6986
-63.0161
-63.016
-63.0151
-63.0151
-63.0137
-63.015
-38.8057
-38.8048
-38.8041
-38.8089
-38.8103
-38.7904
-56.0975
-56.0955
-56.0934
-56.0925
-56.0914
-56.0849
-64.721
-64.7192
-64.7197
-64.7247
-64.7242
-64.7302
-33.904
-33.9044
-33.903
-33.9045
-33.9285
-33.8669
-51.8504
-51.8516
-51.8451
-51.831
-51.8176
-51.8434
-60.8694
-60.8721
-60.8613
-60.8514
-60.8264
-60.8675
-53.1514
-53.1437
-53.1675
-53.1768
-53.2632
-53.1302
-83.1628
-83.1442
-83.1265
-83.1651
-83.1768
-83.1356
-62.1715
-62.1214
-62.034
-62.2512
-62.2543
-62.1758
-76.7221
-76.7115
-76.6913
-76.739
-76.7728
-76.6681
-125.178
-125.271
-125.291
-124.738
-124.503
-124.983
-124.879
-125.26
-125.307
-123.615
-123.117
-124.308
)
;

boundaryField
{
    seabed_topleft_surface
    {
        type            calculated;
        value           nonuniform List<scalar> 
72
(
6812.98
6812.94
6812.95
6812.96
6812.94
6812.96
6658.78
6658.73
6658.74
6658.76
6658.75
6658.76
6935.06
6935.03
6935.04
6935.06
6935.06
6935.03
7490.25
7490.23
7490.24
7490.25
7490.25
7490.24
8137.24
8137.22
8137.22
8137.24
8137.24
8137.23
8874.21
8874.18
8874.19
8874.2
8874.2
8874.21
9863.43
9863.38
9863.39
9863.39
9863.38
9863.42
11716.8
11716.8
11716.8
11716.8
11716.8
11716.9
14437.4
14437.4
14437.4
14437.4
14437.4
14437.4
18529
18528.9
18528.9
18528.9
18528.9
18528.9
21838.1
21838
21838
21838
21837.9
21838
24069.5
24069.4
24069.4
24069.4
24069.4
24069.4
)
;
    }
    seabed_topright_surface
    {
        type            calculated;
        value           nonuniform List<scalar> 
72
(
0.74084
0.740771
0.740773
0.740807
0.740849
0.740881
0.766539
0.766546
0.766586
0.766639
0.766697
0.766758
0.817587
0.817645
0.817692
0.817734
0.817776
0.817818
0.892353
0.892407
0.892436
0.892461
0.892488
0.892509
0.98779
0.98781
0.987827
0.987854
0.987889
0.987915
1.09713
1.09712
1.09714
1.09717
1.09721
1.09722
1.20574
1.2057
1.2057
1.20569
1.20567
1.20564
1.28406
1.28398
1.28391
1.28383
1.28374
1.28366
1.28236
1.28226
1.28209
1.28186
1.28164
1.28148
1.0765
1.07646
1.07647
1.0765
1.07666
1.0768
0.616661
0.616789
0.617029
0.616922
0.617303
0.617604
-0.757503
-0.757303
-0.756859
-0.756643
-0.756345
-0.756377
)
;
    }
    breakwater_top_surface
    {
        type            calculated;
        value           nonuniform List<scalar> 
36
(
214.254
214.752
216.6
210.12
211.601
215.291
2110.92
2110.08
2114.58
2102.9
2107.67
2119.68
4397.24
4394.93
4396.46
4406.4
4419.15
4405.55
5653.69
5653.47
5654.03
5661.75
5672.99
5651.6
6547.01
6546.83
6547.49
6548.33
6548.93
6549.99
5589.14
5590.48
5590.55
5591.61
5592.04
5590.47
)
;
    }
    breakwater_left_surface
    {
        type            calculated;
        value           nonuniform List<scalar> 
24
(
19307.8
19307.7
19307.7
19307.7
19307.7
19307.7
12293.3
12293.2
12293.2
12293.2
12293.2
12293.2
7791.54
7791.54
7791.55
7791.57
7791.51
7791.5
3772.61
3772
3772.47
3772.61
3772.25
3772.57
)
;
    }
    breakwater_right_surface
    {
        type            calculated;
        value           nonuniform List<scalar> 
24
(
-5.6625
-5.6623
-5.66186
-5.66164
-5.66134
-5.66138
-17.2462
-17.246
-17.2444
-17.2446
-17.2444
-17.2441
-28.7658
-28.7638
-28.7587
-28.7696
-28.7582
-28.77
-52.4511
-52.4562
-52.4673
-52.4132
-52.4642
-52.4476
)
;
    }
    water_front_surface
    {
        type            calculated;
        value           nonuniform List<scalar> 
186
(
3551.83
3392.88
3496.48
3787.83
4169.85
4663.68
5413.9
6927.69
9648.21
13739.7
17049
19291.4
64.3493
-2.39642
0.903424
39.326
107.55
209.713
349.164
664.097
1925.1
5533.62
9524.18
12277.3
-23.1024
-22.589
-21.0055
-17.6092
-15.7854
-14.6519
-9.16477
9.62305
111.731
647.335
4765.23
7775.79
-32.4242
-31.5246
-30.2613
-27.2622
-24.531
-23.4721
-22.2121
-20.6536
-4.67678
62.0981
2483.71
3757.17
-4.18102
-4.15532
-4.10427
-4.0295
-3.93407
-3.82473
-3.71611
-3.63779
-3.6395
-3.84536
-4.3052
-5.67936
-14.0194
-13.9919
-13.9388
-13.8659
-13.7839
-13.7095
-13.6665
-13.676
-13.7161
-13.6468
-13.9413
-17.2627
-23.8893
-23.8578
-23.7927
-23.688
-23.5324
-23.3078
-22.9975
-22.6235
-22.264
-22.2894
-22.3548
-28.782
-33.7937
-33.7622
-33.6984
-33.6042
-33.4884
-33.3702
-33.2832
-33.2774
-33.3852
-31.9346
-28.1937
-52.4689
-42.7438
-53.292
-64.501
-42.283
-52.9944
-64.4133
-41.496
-52.2828
-64.2114
-40.102
-51.2635
-63.9314
-38.5326
-50.1391
-63.4148
-36.6228
-49.0899
-62.5085
-33.0276
-48.236
-61.5552
-36.2324
-52.3475
-57.5503
-23.7395
-38.1875
-61.7914
-7.91979
-32.4197
-57.5525
-7.43147
-142.694
-116.735
80.75
329.021
-83.7862
28.7679
-115.006
-198.6
868.797
37.1004
-195.179
2361.67
168.574
-125.262
2806.56
309.651
-91.7895
3126.24
906.585
-80.9451
2168.37
993.51
-77.7006
-43.7147
-53.6833
-63.6675
-43.6844
-53.6635
-63.6594
-43.6182
-53.6221
-63.6415
-43.4985
-53.5556
-63.6107
-43.2864
-53.4609
-63.5608
-42.9058
-53.3435
-63.5053
-42.2124
-53.2453
-63.4287
-41.195
-52.7001
-63.0161
-38.8057
-56.0975
-64.721
-33.904
-51.8504
-60.8694
-53.1514
-83.1628
-62.1715
-76.7221
-125.178
-124.879
)
;
    }
    water_back_surface
    {
        type            calculated;
        value           nonuniform List<scalar> 
186
(
3551.84
3392.87
3496.47
3787.82
4169.85
4663.69
5413.92
6927.71
9648.22
13739.7
17048.9
19291.4
64.3569
-2.39391
0.905093
39.3277
107.553
209.717
349.175
664.105
1925.11
5533.55
9523.85
12277.1
-23.1021
-22.5888
-21.0056
-17.6095
-15.7851
-14.6507
-9.16487
9.61852
111.727
647.32
4764.36
7775.75
-32.4243
-31.5248
-30.2616
-27.2622
-24.5307
-23.4719
-22.2124
-20.6567
-4.68479
62.0954
2481.06
3757.13
-4.18097
-4.1551
-4.10404
-4.02935
-3.93394
-3.82463
-3.71622
-3.63819
-3.64037
-3.84506
-4.30425
-5.67823
-14.0192
-13.9916
-13.9386
-13.8659
-13.784
-13.7096
-13.6666
-13.6756
-13.7139
-13.6439
-13.9388
-17.2606
-23.889
-23.8576
-23.7926
-23.6882
-23.5327
-23.3081
-22.9975
-22.6221
-22.261
-22.2859
-22.3483
-28.7862
-33.7935
-33.7621
-33.6985
-33.6045
-33.4886
-33.3703
-33.2828
-33.2763
-33.3832
-31.9359
-28.2041
-52.4653
-42.7443
-53.2923
-64.5009
-42.2833
-52.9943
-64.413
-41.496
-52.2826
-64.2114
-40.1019
-51.2638
-63.9317
-38.5324
-50.1396
-63.4148
-36.6232
-49.0904
-62.5086
-33.0289
-48.2368
-61.5557
-36.2353
-52.3505
-57.552
-23.7471
-38.1932
-61.7945
-7.95505
-32.4272
-57.5509
-7.23957
-142.947
-116.75
83.6765
329.083
-83.7831
29.3227
-115.451
-199.352
875.295
21.1852
-196.177
2369.61
168.012
-125.155
2808.36
306.738
-91.7814
3129.19
905.137
-80.9538
2169.67
993.544
-77.7092
-43.7145
-53.6833
-63.6675
-43.6844
-53.6636
-63.6595
-43.6184
-53.6223
-63.6416
-43.4988
-53.5557
-63.6106
-43.2865
-53.4608
-63.5607
-42.9056
-53.3432
-63.5054
-42.2117
-53.2441
-63.4287
-41.1925
-52.6986
-63.015
-38.7904
-56.0849
-64.7302
-33.8669
-51.8434
-60.8675
-53.1302
-83.1356
-62.1758
-76.6681
-124.983
-124.308
)
;
    }
    water_left_surface
    {
        type            calculated;
        value           nonuniform List<scalar> 
42
(
3563
3562.98
3562.99
3562.99
3562.98
3563
64.6471
64.642
64.6433
64.64
64.6389
64.6547
-23.0862
-23.0859
-23.0859
-23.0857
-23.0855
-23.0859
-32.4083
-32.4081
-32.4081
-32.4081
-32.4082
-32.4084
-42.7438
-42.7438
-42.7439
-42.744
-42.7442
-42.7443
-53.292
-53.292
-53.2922
-53.2923
-53.2924
-53.2923
-64.501
-64.5011
-64.5011
-64.5012
-64.5011
-64.5009
)
;
    }
    water_right_surface
    {
        type            calculated;
        value           nonuniform List<scalar> 
42
(
-4.16416
-4.16423
-4.16423
-4.16419
-4.16415
-4.16412
-14.0028
-14.0029
-14.0028
-14.0028
-14.0027
-14.0027
-23.8731
-23.8731
-23.873
-23.873
-23.8729
-23.8728
-33.7778
-33.7778
-33.7777
-33.7777
-33.7776
-33.7776
-43.7147
-43.7146
-43.7146
-43.7146
-43.7146
-43.7145
-53.6833
-53.6833
-53.6833
-53.6833
-53.6833
-53.6833
-63.6675
-63.6675
-63.6675
-63.6675
-63.6675
-63.6675
)
;
    }
    water_top_surface
    {
        type            calculated;
        value           nonuniform List<scalar> 
180
(
-69.9092
-69.9095
-69.9095
-69.9095
-69.9095
-69.9092
-69.9418
-69.942
-69.942
-69.942
-69.9419
-69.9416
-69.7173
-69.7175
-69.7175
-69.7174
-69.7174
-69.7171
-69.6473
-69.6474
-69.6474
-69.6473
-69.6473
-69.6471
-69.4472
-69.4474
-69.4474
-69.4474
-69.4474
-69.4473
-69.2913
-69.2916
-69.2916
-69.2916
-69.2916
-69.2914
-69.1195
-69.1197
-69.1197
-69.1197
-69.1196
-69.1194
-69.0535
-69.0536
-69.0536
-69.0537
-69.0537
-69.0536
-68.67
-68.67
-68.67
-68.67
-68.67
-68.67
-68.6708
-68.6708
-68.6708
-68.6708
-68.6708
-68.6708
-240.973
-240.952
-240.925
-240.92
-240.742
-241.127
-97.4072
-97.4044
-97.41
-97.4003
-97.4079
-97.4076
-1750.61
-1760.18
-1773.75
-1720.18
-1688.49
-1788.55
-506.305
-503.077
-505.551
-497.093
-463.09
-544.027
-118.074
-118.09
-117.958
-118.144
-118.002
-118.302
-82.9171
-82.9266
-82.8959
-82.9226
-82.9414
-82.8368
-77.6244
-77.6276
-77.6128
-77.6491
-77.6972
-77.5535
-80.3245
-80.3294
-80.3239
-80.3236
-80.3471
-80.3113
-68.67
-68.67
-68.67
-68.67
-68.67
-68.67
-68.67
-68.67
-68.67
-68.67
-68.67
-68.67
-68.67
-68.67
-68.67
-68.67
-68.67
-68.67
-68.67
-68.67
-68.67
-68.67
-68.67
-68.67
-68.67
-68.67
-68.67
-68.67
-68.67
-68.67
-68.67
-68.67
-68.67
-68.67
-68.67
-68.67
-68.67
-68.67
-68.67
-68.67
-68.67
-68.67
-68.67
-68.67
-68.67
-68.67
-68.67
-68.67
-68.67
-68.67
-68.67
-68.67
-68.67
-68.67
-68.6706
-68.6706
-68.6706
-68.6707
-68.6707
-68.6706
-69.4687
-69.465
-69.4609
-69.4729
-69.5005
-69.4411
-116.683
-118.896
-120.627
-113.583
-112.016
-118.91
)
;
    }
}


// ************************************************************************* //
