/*--------------------------------*- C++ -*----------------------------------*\
| =========                 |                                                 |
| \\      /  F ield         | OpenFOAM: The Open Source CFD Toolbox           |
|  \\    /   O peration     | Version:  v1612+                                |
|   \\  /    A nd           | Web:      www.OpenFOAM.com                      |
|    \\/     M anipulation  |                                                 |
\*---------------------------------------------------------------------------*/
FoamFile
{
    version     2.0;
    format      ascii;
    class       surfaceScalarField;
    location    "4.25";
    object      alphaPhi;
}
// * * * * * * * * * * * * * * * * * * * * * * * * * * * * * * * * * * * * * //

dimensions      [0 3 -1 0 0 0 0];

internalField   nonuniform List<scalar> 
816
(
-2.08044e-06
-5.01971e-06
4.81834e-06
-1.52648e-06
-3.13715e-06
6.94545e-06
5.37626e-07
4.83227e-06
1.24413e-06
7.12734e-06
-1.58224e-05
-2.44368e-06
1.88308e-06
2.66707e-06
8.9169e-06
-1.60431e-05
2.9585e-07
3.86647e-06
4.91841e-06
-1.09909e-05
3.89857e-09
-3.71682e-09
3.51056e-06
-1.36009e-09
2.05784e-09
1.79175e-09
-1.6101e-06
-8.80255e-10
6.35784e-11
-2.92016e-10
-7.31979e-06
-2.3726e-09
1.90473e-09
-8.10502e-10
2.08283e-06
-4.8486e-10
1.73431e-09
-5.71875e-10
7.10491e-07
2.17896e-09
-2.66741e-10
2.63117e-09
-6.85921e-06
-9.65065e-10
3.33871e-10
1.77521e-09
-3.83084e-06
-1.08129e-09
3.21824e-09
1.13843e-09
1.4823e-07
-1.70466e-09
3.6552e-10
1.01101e-09
3.28177e-06
-9.6915e-10
1.10906e-09
6.96321e-10
3.01026e-06
-5.63389e-10
1.55409e-09
-1.46244e-09
-5.13501e-07
-7.3184e-10
-1.05167e-10
-2.9668e-06
7.93484e-10
-1.46662e-09
8.04488e-06
1.01314e-05
-1.61333e-05
3.50017e-06
7.65535e-06
1.52126e-05
-1.94629e-05
3.34384e-06
6.17523e-06
5.73032e-07
-8.78163e-06
5.63674e-07
1.0893e-05
-7.7487e-07
8.56578e-06
2.83116e-06
-1.85287e-06
-2.25803e-06
8.1889e-06
2.4219e-06
-6.13581e-06
-5.33622e-09
-1.55564e-05
1.93291e-06
3.11735e-06
-3.38396e-06
-6.73443e-06
-2.71138e-06
8.85693e-06
-4.48284e-06
5.69622e-06
-1.24246e-05
7.2442e-06
5.3844e-06
-1.97505e-05
7.52802e-06
1.3984e-05
1.78759e-05
-1.23724e-05
9.61839e-07
1.04021e-05
9.86816e-06
6.99883e-06
4.76351e-06
-4.57907e-06
-1.24762e-06
1.10784e-05
6.88847e-06
3.36435e-08
-3.58596e-06
-8.33822e-06
5.74732e-07
-4.46961e-06
-7.75002e-06
-2.38514e-06
-2.51038e-06
-3.47143e-06
-2.21206e-06
-5.05882e-06
7.75541e-08
3.24778e-06
3.96902e-06
2.01521e-06
2.73164e-06
3.81463e-06
-1.64382e-06
-7.33702e-06
-8.93007e-07
-3.6697e-06
-1.21e-06
-2.82189e-06
-4.74661e-07
4.04603e-07
2.6274e-06
3.34757e-06
-1.23321e-06
-8.68601e-06
-3.50144e-06
-5.92081e-06
-6.02246e-06
-5.55109e-06
6.33424e-07
-2.98559e-06
3.16429e-06
-7.28737e-07
-8.72667e-07
-5.06768e-06
-1.89007e-06
-8.11997e-07
-4.13934e-06
3.66674e-06
-1.11098e-06
-7.43822e-07
-5.03903e-08
2.9636e-06
1.09516e-06
2.30899e-06
-5.51819e-07
1.45354e-06
1.59677e-06
2.28344e-06
8.39556e-07
1.67191e-06
1.81023e-06
-2.80966e-07
-2.12305e-06
3.19838e-07
-2.59071e-06
-2.44498e-06
-9.65618e-07
-1.66022e-06
-1.65188e-06
-7.69041e-07
-2.56111e-06
-9.36231e-07
2.19431e-07
2.23359e-06
2.4165e-07
9.81487e-07
2.11035e-06
7.01172e-07
-1.71209e-06
6.70476e-08
-2.54091e-06
-2.16288e-06
-1.24883e-06
-8.46599e-07
-7.49368e-07
1.61239e-08
2.3036e-06
5.25694e-07
-2.06843e-07
-2.32815e-06
-3.72858e-06
-2.40519e-06
-2.78075e-06
1.00093e-07
-1.47687e-06
-1.17442e-06
-3.85798e-07
8.3703e-07
-2.65786e-06
-1.4578e-06
-5.96111e-08
4.69614e-10
-6.21795e-10
1.27096e-06
1.93388e-09
1.03319e-09
1.76415e-06
-8.61593e-10
-8.00825e-10
-1.02448e-06
-3.92897e-10
1.04391e-10
-2.50032e-06
-1.83426e-09
2.52221e-09
-6.96143e-06
-2.80561e-09
-1.11165e-09
-6.81111e-10
-2.18918e-06
-1.21888e-09
-1.36237e-09
-4.67033e-06
-1.28038e-09
-4.92948e-09
-5.8729e-06
-1.12005e-09
-3.12153e-09
1.04354e-06
-9.53742e-10
1.31529e-09
6.04416e-07
-1.8461e-09
-3.1203e-09
7.16004e-10
-6.05938e-06
5.79338e-11
-8.14993e-10
-1.00619e-05
-2.72528e-09
-2.51506e-10
2.45711e-06
-9.85003e-10
-2.94868e-10
2.14804e-11
-3.54758e-09
1.87265e-09
-4.36449e-06
-2.34998e-09
-4.91086e-10
-3.67615e-10
1.77277e-11
5.49191e-10
-3.08046e-09
1.0084e-06
-7.67062e-10
-3.4636e-09
-1.87083e-06
-6.84695e-10
-7.39922e-10
-4.6476e-06
2.48543e-10
-1.60153e-05
-6.88693e-10
-7.90811e-10
-7.43435e-06
-5.09162e-06
1.80282e-05
1.11065e-05
-7.86039e-07
-5.69309e-06
5.47273e-06
3.38689e-06
-1.05822e-05
7.85188e-06
-9.04309e-07
-7.77818e-07
2.24946e-06
9.38261e-06
1.49293e-05
-1.21819e-05
-1.54288e-05
2.63475e-06
1.8102e-05
-2.71232e-06
-3.06987e-06
8.60922e-06
-6.49947e-06
-2.01629e-05
3.06073e-05
-1.79845e-05
-1.48939e-05
6.4119e-06
-6.06159e-06
2.54848e-06
-1.70598e-05
8.00335e-06
-7.69493e-06
-3.6565e-06
5.13215e-06
8.57864e-07
-1.52511e-05
1.96148e-05
-1.08236e-05
1.32596e-06
-1.6478e-05
-2.21256e-06
2.82162e-06
1.2314e-05
-4.42765e-06
7.80917e-06
2.0689e-06
-1.02345e-05
-3.56451e-06
6.3154e-06
6.3619e-06
1.0973e-05
1.25174e-06
1.63223e-05
-6.7039e-06
-5.21868e-06
1.34029e-05
-4.80947e-06
-6.35386e-06
1.6312e-06
2.33775e-06
6.73365e-06
-8.98456e-06
-1.49459e-05
4.58382e-06
2.83189e-06
7.54345e-06
-2.00125e-06
1.55695e-06
-3.32256e-06
1.21266e-06
-1.31591e-06
-3.41488e-06
-6.71796e-06
1.1239e-06
-6.36882e-07
-4.80521e-06
-2.70179e-06
6.59668e-06
4.84012e-06
7.3201e-06
-4.72697e-08
8.41984e-06
1.97625e-06
4.37869e-07
3.50488e-06
8.58481e-06
6.52208e-06
1.37664e-05
1.45679e-05
6.73539e-06
2.67185e-06
2.6384e-06
-2.37923e-06
-8.0981e-06
-4.85162e-06
5.00431e-06
-2.03698e-06
2.66008e-06
-1.5342e-06
3.85207e-06
8.96019e-06
4.30954e-06
-1.03573e-06
-7.93289e-06
-2.64092e-07
-9.81955e-07
5.92639e-06
2.84548e-06
-2.96838e-06
1.45702e-06
1.86506e-06
7.39037e-07
-1.95515e-06
3.04382e-06
-3.61158e-06
1.3972e-06
7.34787e-06
6.25467e-06
3.8564e-06
5.69394e-06
4.51981e-06
1.97395e-06
2.7812e-07
1.3343e-06
2.77941e-06
2.43581e-06
6.30009e-06
2.71651e-06
1.01436e-06
2.46995e-06
-1.33576e-06
8.35723e-07
-1.15127e-06
-1.85949e-08
-3.80097e-07
1.85253e-08
-3.20115e-06
9.11277e-07
-3.65755e-07
-2.34155e-06
-2.10217e-06
1.73349e-06
3.55717e-06
4.32528e-06
-2.82716e-07
2.60629e-06
1.43895e-06
9.95961e-09
1.2555e-06
4.18336e-06
3.95406e-06
3.7031e-06
8.2279e-06
4.35417e-06
6.0906e-07
1.743e-06
-2.35564e-06
-1.71109e-06
-2.47597e-06
2.81149e-06
-1.7632e-06
1.09752e-06
-1.54904e-06
1.86368e-06
2.80204e-06
1.74656e-06
-1.49846e-06
-1.71634e-06
-5.40482e-07
-1.25637e-06
1.78063e-06
1.58378e-06
-1.46679e-06
5.76999e-07
1.13613e-06
-3.93227e-08
-6.7299e-07
1.39261e-06
-2.85981e-06
1.82763e-06
2.23457e-06
2.71395e-06
2.77084e-06
1.7121e-06
2.65078e-06
1.17114e-06
8.43153e-08
3.25117e-07
7.28843e-07
1.07136e-06
3.15895e-06
-9.07596e-09
-1.84382e-06
1.69347e-06
-5.80738e-07
3.90243e-07
5.94898e-07
1.32571e-06
-3.09166e-07
2.84479e-07
4.73781e-07
6.9858e-07
1.20286e-06
-1.71589e-07
-1.15056e-06
4.32655e-07
-5.30519e-07
-7.02497e-07
-7.31053e-07
-2.10897e-07
-5.29188e-07
-4.40917e-07
1.27709e-06
-8.49519e-08
1.04654e-06
-1.03566e-06
2.78537e-07
-1.48016e-06
-6.39566e-07
5.99924e-08
-3.31571e-07
5.04833e-07
-4.61663e-07
-5.81691e-07
-1.6918e-06
-1.47783e-06
2.26619e-08
-8.63264e-07
-3.5092e-07
-1.57724e-06
-5.03038e-07
1.29017e-06
4.08765e-07
-8.27233e-07
2.95319e-07
2.55866e-07
7.5712e-07
-1.1539e-06
9.79814e-07
-8.03435e-07
-8.41255e-07
1.18363e-06
2.36754e-06
1.14589e-08
1.21133e-06
1.64332e-07
2.37685e-06
1.61783e-06
3.29867e-06
1.49521e-06
1.01793e-06
-1.06589e-06
-5.39172e-07
1.40152e-06
-8.52503e-07
-5.82823e-07
7.13606e-07
1.29781e-06
-4.29777e-07
-6.44483e-08
-3.34201e-07
1.1139e-06
-6.51261e-07
6.95063e-07
2.07368e-07
-1.2609e-07
-8.0951e-07
8.79082e-07
1.25529e-06
1.31832e-06
9.17266e-07
5.87339e-07
2.92759e-07
5.53301e-07
1.15116e-06
2.31733e-09
-1.15869e-09
1.30453e-06
4.22153e-10
-1.23231e-05
1.02826e-09
-1.10364e-05
-1.09983e-09
2.31325e-06
-2.1767e-11
2.59557e-06
-1.01379e-09
1.33423e-06
2.42415e-09
-1.58187e-05
2.01194e-09
2.01104e-06
-6.49905e-10
6.20038e-07
-9.2997e-10
-1.3638e-05
-2.53457e-09
-1.21667e-05
-2.0298e-09
2.52053e-06
-5.8567e-10
1.38104e-06
5.34175e-10
-6.20912e-06
2.18445e-09
-4.15432e-06
9.48707e-10
-1.29168e-05
-5.55517e-10
2.0257e-06
-7.86904e-10
1.77948e-06
-4.66986e-10
-7.24425e-07
-2.2313e-09
1.46612e-06
5.62518e-09
1.83852e-06
1.802e-09
3.2325e-07
-2.5543e-10
1.72983e-07
-1.39296e-09
-3.8538e-06
-1.42226e-09
-4.90391e-06
-1.0074e-09
-2.34062e-05
-8.84284e-10
8.65427e-07
6.49807e-06
1.59774e-05
-1.67199e-05
-3.69645e-06
-2.12093e-06
1.23004e-05
1.59202e-06
-1.31206e-05
-1.14014e-06
1.96096e-05
-7.85477e-06
2.07279e-05
-7.96029e-06
-7.97425e-06
4.5308e-06
-2.34929e-05
1.09926e-05
-1.35201e-05
-1.54268e-06
1.19986e-05
-8.51676e-06
-1.9051e-05
2.24175e-06
-4.56823e-05
1.57659e-05
-1.04067e-05
7.91917e-06
2.33843e-05
-1.29064e-05
1.00563e-05
-3.42389e-06
-1.97811e-05
-6.87427e-06
3.4568e-06
-6.78877e-06
-9.26886e-07
-1.18765e-06
-8.58725e-07
-1.468e-07
-7.02239e-06
-5.55573e-06
7.93969e-07
1.67666e-05
-1.52814e-05
5.83768e-06
8.67429e-06
-2.93049e-06
1.99941e-05
3.82565e-06
-1.97464e-05
4.49073e-06
-1.07856e-05
-1.18063e-05
-3.85142e-07
-1.02186e-05
-1.33586e-05
-9.32265e-07
-2.08756e-06
2.42588e-06
-1.58673e-06
2.05566e-06
6.13887e-06
-4.53768e-06
-5.32741e-06
7.62574e-09
8.33176e-06
7.58018e-06
8.34353e-06
8.78023e-06
-4.33009e-06
-4.15723e-06
-1.0538e-05
-3.4082e-06
-6.94013e-06
6.09017e-06
4.46579e-06
3.3494e-06
-7.73573e-06
-8.24035e-06
-1.95279e-05
-1.08636e-05
-5.14051e-06
-1.78355e-06
9.46448e-06
4.13669e-06
4.1294e-06
-1.0207e-06
-9.61299e-06
-1.74815e-06
2.67258e-06
1.47747e-06
1.82477e-07
3.50905e-07
7.66939e-09
-1.33601e-07
-3.68716e-06
2.04173e-06
4.87801e-07
-5.65377e-06
-7.58168e-06
-8.82033e-07
4.64687e-06
5.90776e-06
9.59479e-06
3.87521e-08
-7.62813e-06
-1.04963e-06
-5.18207e-06
4.4182e-07
-5.4737e-07
-1.05275e-06
-5.5755e-06
4.1925e-07
-7.01025e-07
6.60728e-07
-4.95602e-07
1.56102e-06
2.47584e-06
-1.82778e-06
-1.97348e-06
7.13834e-07
2.58504e-06
4.68139e-06
2.03147e-06
4.70346e-06
-8.22479e-07
-2.51814e-06
-3.30999e-06
-2.62545e-06
-2.50189e-06
2.66119e-06
6.09338e-07
2.0272e-06
-2.92203e-06
-3.97107e-06
-5.29709e-06
-5.48271e-06
-1.875e-06
-1.03544e-06
2.5671e-06
1.88984e-06
1.2088e-06
-2.04294e-06
-2.86174e-06
-1.59138e-06
7.25894e-07
7.56796e-07
-4.04171e-07
3.8812e-07
-1.61763e-07
-2.0413e-07
-1.50571e-06
1.38089e-06
4.90421e-08
-4.19341e-06
-2.00127e-06
-6.75487e-07
1.10221e-06
3.8282e-06
2.23861e-06
1.14705e-06
-2.23638e-06
-1.79762e-07
-1.20926e-06
-1.27494e-07
-2.6963e-07
-1.21408e-06
-1.34756e-06
-1.56242e-07
-4.53977e-07
4.94143e-07
1.16149e-06
-5.63983e-07
8.64168e-07
2.10414e-06
2.4651e-06
-8.51582e-07
-9.94759e-07
8.24642e-07
2.86377e-07
-1.70611e-06
-2.57079e-06
-5.49246e-07
6.66597e-07
-7.81428e-07
-6.42925e-07
2.53306e-07
3.27545e-08
-3.50026e-07
4.056e-07
-1.59259e-06
-2.75007e-07
1.15612e-06
1.68656e-07
-1.34653e-07
-1.23627e-07
-3.31911e-07
-1.98206e-10
2.19473e-09
1.8756e-06
-1.526e-09
3.10977e-11
1.34068e-09
-1.70145e-06
3.38413e-08
6.3474e-06
1.06481e-05
-2.03761e-06
1.01695e-05
)
;

boundaryField
{
    top_fluid_surface
    {
        type            calculated;
        value           nonuniform List<scalar> 
64
(
0
2.41222e-09
2.39533e-09
0
0
0
0
1.61656e-09
0
0
2.36767e-09
0
0
0
1.0593e-09
0
1.14166e-09
4.84478e-09
1.6892e-09
4.59903e-09
0
0
8.65756e-10
2.56768e-09
0
1.77846e-09
6.32802e-10
2.38819e-09
2.45025e-09
0
0
2.03084e-10
0
3.28847e-09
0
8.08378e-10
0
0
0
0
1.40218e-09
0
5.51012e-10
0
0
0
0
1.00096e-09
0
0
0
0
0
1.54257e-09
2.56625e-09
3.30479e-10
0
4.84861e-11
0
0
0
2.69524e-09
2.30938e-09
2.2604e-09
)
;
    }
    bottom_fluid_surface
    {
        type            calculated;
        value           uniform 0;
    }
    lateral_surface_1
    {
        type            calculated;
        value           uniform 0;
    }
    lateral_surface_2
    {
        type            calculated;
        value           uniform 0;
    }
    lateral_surface_3
    {
        type            calculated;
        value           uniform 0;
    }
    lateral_surface_4
    {
        type            calculated;
        value           uniform 0;
    }
}


// ************************************************************************* //
