/*--------------------------------*- C++ -*----------------------------------*\
| =========                 |                                                 |
| \\      /  F ield         | OpenFOAM: The Open Source CFD Toolbox           |
|  \\    /   O peration     | Version:  v1612+                                |
|   \\  /    A nd           | Web:      www.OpenFOAM.com                      |
|    \\/     M anipulation  |                                                 |
\*---------------------------------------------------------------------------*/
FoamFile
{
    version     2.0;
    format      ascii;
    class       volScalarField;
    location    "4.25";
    object      alpha.water;
}
// * * * * * * * * * * * * * * * * * * * * * * * * * * * * * * * * * * * * * //

dimensions      [0 0 0 0 0 0 0];

internalField   nonuniform List<scalar> 
320
(
1
1
1
1
1.09522e-05
8.95229e-06
9.54592e-06
1.09429e-05
1.16412e-05
1.17823e-05
1.10681e-05
9.38143e-06
9.75452e-06
1.02291e-05
9.0526e-06
1.24949e-05
0.999987
0.999987
0.999987
0.999989
0.99999
0.999986
0.999984
0.999991
0.999984
0.999984
0.999995
0.999986
1
1
1
1
1
1
1
1
1
1
1
1
1
1
1
1
1
1
1
1
1
1
1
1
1
1
1
1
1.12469e-05
1.10423e-05
9.87748e-06
1.15055e-05
1.02813e-05
7.52342e-06
1.01517e-05
8.14984e-06
1.13477e-05
1.06249e-05
1.02713e-05
9.27064e-06
1.05435e-05
9.16977e-06
9.93857e-06
8.7626e-06
8.85902e-06
1.08311e-05
1.25631e-05
1.08659e-05
0.999994
0.999989
0.999987
0.999987
0.999995
0.999996
0.999993
0.999996
0.999987
0.999991
0.999994
0.999996
0.999987
0.999994
0.999991
0.999993
0.999995
0.999991
0.999989
0.999995
1
1
1
1
1
1
1
1
1
1
1
1
1
1
1
1
1
1
1
1
1
1
1
1
1
1
1
1
1
1
1
1
1
1
1
1
1
1
1
1
1
1
1
1
1
1
1
1
1
1
1
1
1
1
1
1
1
1
1
1
1
1
1
1
1
1
1
1
1
1
1
1
1
1
1
1
1.13998e-05
9.52179e-06
1.07203e-05
1.00137e-05
1.19385e-05
1.15777e-05
1.25292e-05
1.14149e-05
1.0173e-05
1.16423e-05
1.06305e-05
1.12585e-05
1.21644e-05
1.15769e-05
1.25362e-05
1.02016e-05
1.16482e-05
1.0455e-05
1.19115e-05
1.05154e-05
1.29917e-05
9.09974e-06
8.76455e-06
1.00453e-05
1.09042e-05
1.11804e-05
1.19253e-05
1.10182e-05
0.999987
0.999995
0.999988
0.999996
0.999992
0.999991
0.999983
0.999986
0.999993
0.99998
0.999984
0.999988
0.999994
0.999995
0.999989
0.999985
0.999982
0.999986
0.999988
0.999989
0.999986
0.999989
0.99999
0.999984
0.999991
0.99999
0.999985
0.999988
1
1
1
1
1
1
1
1
1
1
1
1
1
1
1
1
1
1
1
1
1
1
1
1
1
1
1
1
1
1
1
1
1
1
1
1
1
1
1
1
1
1
1
1
1
1
1
1
1
1
1
1
1
1
1
1
1
1
1
1
1
1
1
1
1
1
1
1
1
1
1
1
1
1
1
1
1
1
1
1
1
1
1
1
1.02701e-05
8.89061e-06
9.08214e-06
9.15762e-06
0.999986
0.999993
0.999987
0.999994
)
;

boundaryField
{
    top_fluid_surface
    {
        type            inletOutlet;
        inletValue      uniform 0;
        value           nonuniform List<scalar> 
64
(
0
8.95229e-06
9.54592e-06
0
0
0
0
9.38143e-06
0
0
9.0526e-06
0
0
0
9.87748e-06
0
1.02813e-05
7.52342e-06
1.01517e-05
8.14984e-06
0
0
1.02713e-05
9.27064e-06
0
9.16977e-06
9.93857e-06
8.7626e-06
8.85902e-06
0
0
1.08659e-05
0
9.52179e-06
0
1.00137e-05
0
0
0
0
1.0173e-05
0
1.06305e-05
0
0
0
0
1.02016e-05
0
0
0
0
0
9.09974e-06
8.76455e-06
1.00453e-05
0
1.11804e-05
0
0
0
8.89061e-06
9.08214e-06
9.15762e-06
)
;
    }
    bottom_fluid_surface
    {
        type            zeroGradient;
    }
    lateral_surface_1
    {
        type            zeroGradient;
    }
    lateral_surface_2
    {
        type            zeroGradient;
    }
    lateral_surface_3
    {
        type            zeroGradient;
    }
    lateral_surface_4
    {
        type            zeroGradient;
    }
}


// ************************************************************************* //
