/*--------------------------------*- C++ -*----------------------------------*\
| =========                 |                                                 |
| \\      /  F ield         | OpenFOAM: The Open Source CFD Toolbox           |
|  \\    /   O peration     | Version:  v1612+                                |
|   \\  /    A nd           | Web:      www.OpenFOAM.com                      |
|    \\/     M anipulation  |                                                 |
\*---------------------------------------------------------------------------*/
FoamFile
{
    version     2.0;
    format      ascii;
    class       volScalarField;
    location    "4.25";
    object      p;
}
// * * * * * * * * * * * * * * * * * * * * * * * * * * * * * * * * * * * * * //

dimensions      [1 -1 -2 0 0 0 0];

internalField   nonuniform List<scalar> 
320
(
14724.8
14724.8
14724.8
14724.8
4.95603
4.95616
4.9579
4.95705
4.95705
4.95734
4.95638
4.95569
4.95445
4.95471
4.95573
4.95697
4914.86
4914.79
4914.8
4914.86
4914.88
4914.86
4914.84
4914.82
4914.83
4914.83
4914.83
4914.87
14724.8
14724.8
14724.8
14724.8
14724.8
14724.8
14724.8
14724.8
14724.8
14724.8
14724.8
14724.8
24534.8
24534.8
24534.8
24534.8
24534.8
24534.8
24534.8
24534.8
24534.8
24534.8
24534.8
24534.8
24534.8
24534.8
24534.8
24534.8
4.95743
4.9572
4.95654
4.95825
4.95784
4.95809
4.95844
4.95775
4.95692
4.95694
4.95685
4.95564
4.95525
4.95519
4.95515
4.95491
4.9552
4.95655
4.95714
4.95777
4914.89
4914.86
4914.81
4914.86
4914.85
4914.82
4914.84
4914.82
4914.86
4914.87
4914.84
4914.83
4914.85
4914.83
4914.83
4914.82
4914.83
4914.87
4914.88
4914.86
14724.8
14724.8
14724.8
14724.8
14724.8
14724.8
14724.8
14724.8
14724.8
14724.8
14724.8
14724.8
14724.8
14724.8
14724.8
14724.8
14724.8
14724.8
14724.8
14724.8
24534.8
24534.8
24534.8
24534.8
24534.8
24534.8
24534.8
24534.8
24534.8
24534.8
24534.8
24534.8
24534.8
24534.8
24534.8
24534.8
24534.8
24534.8
24534.8
24534.8
34344.8
34344.8
34344.8
34344.8
34344.8
34344.8
34344.8
34344.8
34344.8
34344.8
34344.8
34344.8
34344.8
34344.8
34344.8
34344.8
34344.8
34344.8
34344.8
34344.8
34344.8
34344.8
34344.8
34344.8
34344.8
34344.8
34344.8
34344.8
34344.8
34344.8
34344.8
34344.8
34344.8
34344.8
34344.8
34344.8
4.95761
4.95935
4.96105
4.95596
4.95727
4.95733
4.96123
4.95477
4.95788
4.96036
4.95962
4.95732
4.95784
4.95743
4.95883
4.95604
4.95181
4.95469
4.95572
4.95454
4.95422
4.95389
4.95475
4.95561
4.95763
4.95853
4.9533
4.95662
4914.86
4914.84
4914.89
4914.85
4914.9
4914.88
4914.86
4914.84
4914.84
4914.83
4914.8
4914.86
4914.91
4914.9
4914.89
4914.8
4914.81
4914.84
4914.88
4914.86
4914.88
4914.81
4914.81
4914.79
4914.88
4914.84
4914.82
4914.86
14724.8
14724.8
14724.8
14724.8
14724.8
14724.8
14724.8
14724.8
14724.8
14724.8
14724.8
14724.8
14724.8
14724.8
14724.8
14724.8
14724.8
14724.8
14724.8
14724.8
14724.8
14724.8
14724.8
14724.8
14724.8
14724.8
14724.8
14724.8
24534.8
24534.8
24534.8
24534.8
24534.8
24534.8
24534.8
24534.8
24534.8
24534.8
24534.8
24534.8
24534.8
24534.8
24534.8
24534.8
24534.8
24534.8
24534.8
24534.8
24534.8
24534.8
24534.8
24534.8
24534.8
24534.8
24534.8
24534.8
34344.8
34344.8
34344.8
34344.8
34344.8
34344.8
34344.8
34344.8
34344.8
34344.8
34344.8
34344.8
34344.8
34344.8
34344.8
34344.8
34344.8
34344.8
34344.8
34344.8
34344.8
34344.8
34344.8
34344.8
34344.8
34344.8
34344.8
34344.8
4.95566
4.95597
4.95561
4.95595
4914.84
4914.82
4914.79
4914.83
)
;

boundaryField
{
    top_fluid_surface
    {
        type            calculated;
        value           nonuniform List<scalar> 
64
(
-5.601e-09
0
0
-8.80336e-10
-4.59684e-09
-5.89508e-09
-1.5208e-09
0
0
-1.40223e-09
0
-1.57463e-08
-9.69564e-10
-1.80495e-09
0
-1.64104e-09
0
0
0
0
-2.8217e-09
-3.69316e-10
0
0
-2.59569e-09
0
0
0
0
-4.30884e-11
-1.52596e-08
0
-3.31166e-09
0
0
0
-8.03891e-09
-5.88238e-09
-4.43814e-09
-1.50586e-08
0
-2.02323e-10
0
-4.45665e-09
-7.38208e-09
-1.672e-09
-1.40744e-08
0
-4.12833e-08
-1.18365e-09
-1.29629e-08
-1.41162e-09
-5.29326e-08
0
0
0
-1.38934e-10
0
-4.19882e-08
-5.9812e-09
-2.53911e-10
0
0
0
)
;
    }
    bottom_fluid_surface
    {
        type            calculated;
        value           nonuniform List<scalar> 
64
(
39249.8
39249.8
39249.8
39249.8
39249.8
39249.8
39249.8
39249.8
39249.8
39249.8
39249.8
39249.8
39249.8
39249.8
39249.8
39249.8
39249.8
39249.8
39249.8
39249.8
39249.8
39249.8
39249.8
39249.8
39249.8
39249.8
39249.8
39249.8
39249.8
39249.8
39249.8
39249.8
39249.8
39249.8
39249.8
39249.8
39249.8
39249.8
39249.8
39249.8
39249.8
39249.8
39249.8
39249.8
39249.8
39249.8
39249.8
39249.8
39249.8
39249.8
39249.8
39249.8
39249.8
39249.8
39249.8
39249.8
39249.8
39249.8
39249.8
39249.8
39249.8
39249.8
39249.8
39249.8
)
;
    }
    lateral_surface_1
    {
        type            calculated;
        value           nonuniform List<scalar> 
40
(
4.95761
4.95935
4.96105
4.95596
4.95727
4.95733
4.96123
4.95662
4914.86
4914.84
4914.89
4914.85
4914.9
4914.88
4914.86
4914.86
14724.8
14724.8
14724.8
14724.8
14724.8
14724.8
14724.8
14724.8
24534.8
24534.8
24534.8
24534.8
24534.8
24534.8
24534.8
24534.8
34344.8
34344.8
34344.8
34344.8
34344.8
34344.8
34344.8
34344.8
)
;
    }
    lateral_surface_2
    {
        type            calculated;
        value           nonuniform List<scalar> 
40
(
4.95743
4.95883
4.95604
4.95181
4.95469
4.95572
4.95454
4.95422
4914.9
4914.89
4914.8
4914.81
4914.84
4914.88
4914.86
4914.88
14724.8
14724.8
14724.8
14724.8
14724.8
14724.8
14724.8
14724.8
24534.8
24534.8
24534.8
24534.8
24534.8
24534.8
24534.8
24534.8
34344.8
34344.8
34344.8
34344.8
34344.8
34344.8
34344.8
34344.8
)
;
    }
    lateral_surface_3
    {
        type            calculated;
        value           nonuniform List<scalar> 
40
(
4.96123
4.95477
4.95788
4.96036
4.95962
4.95732
4.95784
4.95743
4914.86
4914.84
4914.84
4914.83
4914.8
4914.86
4914.91
4914.9
14724.8
14724.8
14724.8
14724.8
14724.8
14724.8
14724.8
14724.8
24534.8
24534.8
24534.8
24534.8
24534.8
24534.8
24534.8
24534.8
34344.8
34344.8
34344.8
34344.8
34344.8
34344.8
34344.8
34344.8
)
;
    }
    lateral_surface_4
    {
        type            calculated;
        value           nonuniform List<scalar> 
40
(
4.95422
4.95389
4.95475
4.95561
4.95763
4.95853
4.9533
4.95662
4914.88
4914.81
4914.81
4914.79
4914.88
4914.84
4914.82
4914.86
14724.8
14724.8
14724.8
14724.8
14724.8
14724.8
14724.8
14724.8
24534.8
24534.8
24534.8
24534.8
24534.8
24534.8
24534.8
24534.8
34344.8
34344.8
34344.8
34344.8
34344.8
34344.8
34344.8
34344.8
)
;
    }
}


// ************************************************************************* //
