/*--------------------------------*- C++ -*----------------------------------*\
| =========                 |                                                 |
| \\      /  F ield         | OpenFOAM: The Open Source CFD Toolbox           |
|  \\    /   O peration     | Version:  v1612+                                |
|   \\  /    A nd           | Web:      www.OpenFOAM.com                      |
|    \\/     M anipulation  |                                                 |
\*---------------------------------------------------------------------------*/
FoamFile
{
    version     2.0;
    format      ascii;
    class       volVectorField;
    location    "4.25";
    object      U;
}
// * * * * * * * * * * * * * * * * * * * * * * * * * * * * * * * * * * * * * //

dimensions      [0 1 -1 0 0 0 0];

internalField   nonuniform List<vector> 
320
(
(-2.87219e-06 -8.41798e-06 4.71555e-06)
(-6.72319e-07 -5.67434e-06 -1.13048e-05)
(-6.51704e-06 -2.07756e-06 -1.42441e-05)
(2.26736e-06 7.0111e-06 -7.44801e-06)
(0.000432516 0.000144548 -0.000105839)
(0.000273706 3.44006e-05 0.000129628)
(0.000185499 3.12349e-05 0.000132347)
(-0.000176465 -7.24213e-05 -4.19604e-05)
(0.000141378 -4.28756e-05 -9.58837e-05)
(-0.000137652 -6.32313e-05 -0.000108583)
(-0.000273392 -0.000181805 -5.51507e-05)
(-7.93436e-05 -0.000176219 9.96113e-05)
(-0.000140605 7.85101e-06 -1.59126e-05)
(1.72403e-05 -0.000219701 -5.29572e-05)
(-6.30624e-05 0.000105363 0.000134847)
(0.000130218 0.00012754 -0.000177462)
(-1.95538e-06 5.93136e-07 2.25927e-05)
(1.57596e-05 4.39051e-06 1.95879e-05)
(1.69915e-05 -1.38349e-06 7.69559e-06)
(2.68417e-06 3.17535e-06 -8.01302e-06)
(1.17799e-05 -5.32959e-06 -9.592e-06)
(4.98015e-06 -1.39242e-08 1.76061e-05)
(-5.35165e-06 -1.8176e-06 7.35725e-06)
(1.32071e-05 -1.5153e-05 -6.72964e-06)
(-5.95207e-06 8.46842e-06 2.60397e-05)
(-2.19131e-06 -2.02447e-05 1.63803e-05)
(-1.44496e-05 -1.19245e-05 -7.71551e-06)
(-1.51814e-05 -9.93825e-06 1.20021e-06)
(2.60899e-06 -1.27575e-06 1.20593e-05)
(-2.53817e-06 -3.16286e-06 1.55477e-05)
(-6.61541e-06 -8.20523e-07 7.25578e-06)
(2.99966e-06 -3.61201e-06 -7.38282e-06)
(-2.06227e-06 3.83243e-06 -4.97164e-06)
(-1.71241e-06 -6.71105e-07 1.2325e-05)
(5.23773e-06 -6.13737e-07 5.09433e-06)
(-3.20142e-06 6.14272e-06 -5.36461e-06)
(2.64378e-06 -4.86729e-06 1.32871e-05)
(6.88878e-07 7.33995e-06 8.78924e-06)
(5.52255e-06 3.44981e-06 -5.72647e-06)
(5.16383e-06 3.85628e-06 1.99008e-06)
(-1.38513e-06 -6.21063e-06 1.36212e-06)
(4.13993e-08 -3.46536e-06 -3.39825e-06)
(-3.25975e-06 -1.67139e-06 -2.38969e-06)
(2.32462e-06 3.41062e-06 -2.887e-06)
(1.45365e-06 -1.45991e-06 3.42126e-06)
(-2.02401e-06 -2.08447e-06 1.80105e-06)
(-3.478e-06 -8.91294e-07 1.26851e-06)
(2.07935e-06 -1.86201e-06 -1.15093e-09)
(-1.03768e-06 2.1626e-06 -1.25361e-06)
(-2.22845e-07 -5.63103e-07 3.12805e-06)
(3.87537e-06 -7.478e-07 1.23946e-06)
(-1.69213e-06 4.34309e-06 -1.03391e-07)
(1.68147e-06 -3.25393e-06 3.95382e-06)
(1.9181e-07 3.71757e-06 2.12104e-06)
(3.27707e-06 1.24804e-06 -1.19669e-06)
(3.19181e-06 1.6732e-06 -5.18816e-07)
(-6.43117e-05 -0.000215333 -4.40355e-05)
(0.000147629 0.000123601 -6.00825e-05)
(-3.60054e-06 0.000125213 5.51916e-05)
(-9.89751e-05 0.000348405 -5.72894e-05)
(0.000123894 0.000468362 7.91779e-05)
(0.000139607 -4.29693e-05 0.000352012)
(4.22727e-05 -5.62267e-05 9.76309e-05)
(0.000147153 -0.000316691 0.000306749)
(-6.52038e-05 -0.0005102 -7.51226e-05)
(-0.000111771 -0.000104701 -2.71778e-05)
(-0.000187189 0.000126467 4.74764e-05)
(3.56533e-05 -4.56776e-05 0.000136696)
(0.000125944 -0.000126878 -7.20513e-05)
(-7.20205e-05 -0.000222812 0.000111398)
(0.000101881 -0.000286763 4.18e-05)
(-0.000134998 -8.61403e-05 0.000140765)
(8.17646e-05 0.000190818 0.000143313)
(0.000189059 0.00039166 -9.28315e-06)
(0.000115737 0.000144575 -0.000174697)
(0.000171366 7.80704e-06 1.59631e-05)
(-8.19773e-06 -1.44776e-05 -2.10969e-05)
(-6.7555e-06 -8.20739e-06 8.4331e-06)
(4.45418e-06 -1.13867e-05 1.01531e-05)
(4.70841e-06 -2.69751e-07 1.24653e-06)
(-7.41597e-06 1.48362e-05 -1.75997e-05)
(5.85178e-06 2.36545e-06 -2.65391e-05)
(1.57182e-06 4.42698e-06 -1.34871e-05)
(-8.1953e-06 -1.2315e-05 -4.31665e-05)
(-1.07539e-06 -2.41387e-05 -6.9417e-06)
(5.35037e-06 -8.56251e-06 2.01004e-05)
(-1.0541e-05 7.6974e-06 -5.66412e-06)
(1.80696e-05 -4.18331e-06 -2.31042e-05)
(9.32181e-06 -7.58213e-06 2.18942e-05)
(-1.13041e-05 4.57779e-06 -1.28381e-05)
(4.57741e-06 -1.12281e-05 -2.37924e-06)
(-2.0306e-05 -6.04088e-06 -7.4682e-06)
(6.42998e-07 -5.99698e-06 -1.77685e-05)
(3.1406e-06 3.01489e-06 -1.6684e-05)
(-7.27561e-07 6.84418e-06 -1.82158e-06)
(2.00958e-05 7.79729e-06 -6.3893e-06)
(3.92787e-06 4.86517e-06 -1.1995e-05)
(4.14664e-06 -3.68792e-09 4.29743e-06)
(-1.12729e-06 7.79443e-06 8.76527e-06)
(-1.12871e-06 4.7504e-06 6.54785e-07)
(3.8405e-06 -6.07183e-06 -1.08356e-05)
(-2.46493e-06 9.6609e-07 -1.22603e-05)
(5.86394e-06 -1.12062e-06 -4.48129e-06)
(1.05797e-05 2.30021e-06 -2.13171e-05)
(-8.61835e-08 9.21305e-06 -4.79726e-06)
(-2.61001e-06 5.80104e-06 1.51966e-05)
(7.76437e-06 -5.30655e-06 -3.98165e-06)
(-4.54681e-06 2.56055e-07 -1.49972e-05)
(-2.26186e-06 1.13815e-06 1.28377e-05)
(3.77453e-06 -1.34125e-06 -1.07491e-05)
(-1.68196e-06 2.98347e-06 -2.29495e-06)
(7.87378e-06 3.05703e-06 -5.08117e-06)
(-2.49366e-06 8.01408e-07 -1.32398e-05)
(-3.88879e-06 -3.94269e-06 -9.13589e-06)
(-1.85549e-06 -2.87066e-06 -6.13502e-07)
(-8.83392e-06 -1.77399e-06 -5.56737e-06)
(2.60279e-06 2.99001e-06 -4.3235e-06)
(2.37254e-06 7.21772e-07 1.5584e-06)
(-5.27235e-07 3.94805e-06 -6.99462e-07)
(-2.77585e-07 2.16491e-06 5.03953e-07)
(2.43393e-06 -4.15088e-06 -2.98463e-06)
(-8.84035e-07 2.72455e-07 -4.29555e-06)
(2.86227e-06 -1.025e-06 -2.19216e-06)
(5.9229e-06 1.10842e-06 -5.48728e-06)
(3.37214e-07 5.92883e-06 -8.77088e-07)
(-7.96336e-07 3.64513e-06 1.46326e-06)
(5.63892e-06 -3.74404e-06 -1.72732e-06)
(-2.58162e-06 -3.97317e-07 -3.87864e-06)
(-7.53555e-07 6.80265e-07 2.28878e-06)
(3.24218e-06 -8.85251e-07 -1.98182e-06)
(-4.72964e-07 1.80475e-06 -3.23591e-07)
(5.36412e-06 1.29272e-06 -1.47062e-06)
(-5.54448e-07 -7.57607e-08 -2.69227e-06)
(-2.30989e-06 -3.21066e-06 -2.46253e-06)
(-6.66863e-07 -2.13423e-06 -3.33699e-07)
(-4.47314e-06 -5.15631e-07 -9.75519e-07)
(-7.97949e-07 -2.72357e-06 3.03944e-07)
(8.16774e-07 -1.01065e-06 -9.94695e-07)
(-1.44729e-06 -6.73601e-07 -1.67201e-06)
(9.11394e-07 1.9525e-06 -6.71045e-07)
(3.95247e-07 -8.86696e-07 1.87262e-06)
(-6.6521e-07 -1.81192e-07 1.77555e-06)
(-6.02138e-07 -1.87952e-07 3.63566e-07)
(1.5735e-06 -1.14697e-06 -4.22238e-07)
(2.09093e-07 3.67633e-07 -3.83527e-07)
(2.72826e-07 -6.58281e-07 1.16137e-06)
(1.858e-06 -8.9972e-10 2.37478e-07)
(-7.02542e-07 1.1013e-06 -7.41611e-07)
(1.3067e-06 -9.75243e-07 1.2985e-06)
(4.70577e-07 1.8571e-06 1.12642e-06)
(1.77018e-06 8.31899e-07 -3.63329e-07)
(1.80948e-06 1.24086e-06 6.43447e-07)
(1.63345e-06 1.58381e-06 -1.0922e-06)
(6.241e-07 2.93915e-08 6.97753e-07)
(1.18024e-07 1.58421e-06 7.40652e-07)
(1.19196e-06 5.95608e-07 1.87963e-07)
(1.07587e-06 -1.65303e-06 -6.98615e-07)
(-2.45284e-07 2.00351e-07 -1.13784e-06)
(1.28769e-06 -1.99413e-07 -6.30305e-07)
(2.20961e-06 6.51823e-07 -2.11415e-06)
(3.22676e-07 2.08004e-06 -3.54984e-07)
(-4.17517e-09 1.334e-06 1.61452e-06)
(2.29004e-06 -1.8706e-06 -5.36953e-07)
(-8.48191e-07 2.02333e-07 -1.64623e-06)
(-4.7295e-07 9.9645e-08 1.35029e-06)
(1.11133e-06 1.78799e-10 -1.29876e-06)
(-4.0548e-07 1.00744e-06 -7.30153e-07)
(1.96899e-06 4.6055e-07 -1.14826e-06)
(-5.7311e-07 -2.10121e-07 -1.48315e-06)
(-9.07547e-07 -1.38467e-06 -1.29539e-06)
(-8.30218e-07 -1.02343e-06 1.88823e-07)
(-2.25985e-06 -3.17803e-07 -3.71789e-07)
(0.000359245 0.000118534 -8.13838e-05)
(1.47124e-05 -0.000108207 0.000192861)
(9.3749e-05 3.97946e-05 0.000161662)
(4.93653e-05 -5.40121e-05 3.90145e-05)
(-0.000156429 -1.26655e-05 -0.000126798)
(0.000104662 3.46982e-06 -0.000108465)
(-0.00025668 6.4013e-06 -9.4214e-05)
(-0.000255019 0.000382028 -0.000173543)
(-0.000342826 -4.98824e-05 6.92108e-05)
(-0.00026133 -6.35911e-05 -2.01158e-05)
(-0.000350814 -0.000148856 3.12691e-05)
(-9.73203e-05 -0.00032114 -9.44103e-05)
(-0.000161596 4.60154e-05 -0.000121508)
(5.25948e-05 -0.000144203 -5.78274e-05)
(-0.000145375 -0.000358227 -0.000167776)
(-0.000196243 -0.000109912 4.03264e-05)
(-1.97804e-05 -0.000348131 -0.000287344)
(9.74253e-05 -5.5297e-05 -4.86549e-05)
(1.88656e-05 -0.000320821 -0.000161015)
(9.72745e-05 -0.000145711 -5.31341e-05)
(0.00019713 -0.000315456 -0.000325369)
(2.66132e-05 -0.000454179 9.26328e-05)
(2.96884e-05 -1.25233e-05 0.000158367)
(9.9598e-05 0.000104055 1.44321e-05)
(-5.7631e-05 0.000139614 -1.66694e-05)
(-0.000152066 0.000108579 2.46494e-05)
(-9.28318e-05 2.97487e-05 -0.000289787)
(-0.000129947 8.1702e-05 -0.000109373)
(2.84741e-05 8.24883e-06 5.76169e-06)
(8.23781e-07 -4.35414e-06 -1.95451e-05)
(-5.04684e-06 -7.72384e-07 1.54274e-05)
(7.82148e-06 -6.06329e-06 -2.25158e-05)
(-9.23212e-06 -4.14002e-06 -2.08289e-05)
(-8.14039e-06 7.87696e-06 9.8846e-06)
(-9.64869e-06 -3.41482e-06 2.46513e-05)
(-2.09398e-05 1.37216e-05 1.73619e-05)
(-1.07637e-05 7.60356e-06 -1.4685e-05)
(-1.57026e-05 -1.08717e-05 1.98839e-05)
(-2.60593e-05 -7.9788e-06 4.83972e-05)
(-1.13661e-05 1.35305e-05 1.58256e-05)
(1.16083e-05 1.68303e-05 -2.61509e-05)
(1.40269e-05 -3.34157e-06 -1.1794e-05)
(8.05559e-06 -5.75957e-06 2.56992e-05)
(5.99447e-07 -6.04739e-06 -5.15841e-06)
(9.92752e-06 -1.69017e-05 2.51906e-06)
(4.44624e-06 2.09459e-06 2.44066e-06)
(-2.30624e-06 -1.20245e-05 1.16797e-05)
(3.12048e-06 -6.90371e-06 5.56224e-07)
(6.51577e-06 -1.0568e-05 2.37085e-05)
(2.85203e-06 -1.88503e-05 -1.00771e-05)
(-1.10431e-06 4.53344e-06 -2.47431e-05)
(1.34267e-05 3.20102e-06 2.3216e-05)
(8.09415e-06 -1.32948e-05 1.15534e-05)
(-2.88383e-06 7.01954e-06 -4.80537e-07)
(8.26846e-06 1.47241e-05 1.60519e-05)
(4.04296e-06 4.02296e-06 4.06925e-06)
(-6.79946e-06 -2.4161e-06 2.17574e-06)
(3.39366e-06 2.9373e-08 -7.11501e-06)
(-3.21352e-07 -1.8823e-06 8.41786e-06)
(-7.29266e-06 4.49748e-06 -1.36714e-05)
(7.25076e-06 4.28302e-06 -1.61536e-05)
(9.27328e-06 -3.88214e-06 7.96173e-06)
(6.61924e-06 -1.14968e-06 1.88611e-05)
(9.35172e-06 -6.98698e-06 1.05402e-05)
(5.70437e-06 1.20304e-06 -8.31246e-06)
(9.5885e-06 9.43291e-06 1.38042e-05)
(1.62574e-05 -2.11765e-06 3.59599e-05)
(5.17215e-06 -1.38618e-05 6.7836e-06)
(-6.81687e-06 -6.74488e-06 -1.64076e-05)
(-7.37278e-06 2.60728e-06 -6.7486e-06)
(-1.52363e-06 3.16296e-06 1.61252e-05)
(3.8326e-06 1.52092e-06 -3.29408e-06)
(-1.20682e-06 7.09467e-06 -8.18546e-07)
(-1.60416e-06 -1.81851e-06 -6.46103e-07)
(7.98492e-07 6.43685e-06 4.15955e-06)
(-4.19192e-07 1.15765e-06 -1.76025e-06)
(-3.63128e-06 5.17422e-06 1.04548e-05)
(3.85076e-07 6.95216e-06 -8.57366e-06)
(3.3652e-07 -5.67833e-06 -1.73742e-05)
(-8.35046e-06 -4.42212e-06 1.30685e-05)
(-4.88664e-06 4.0877e-06 9.42396e-06)
(-3.1977e-07 -1.08993e-06 1.11415e-06)
(-3.10568e-06 -8.00687e-08 9.65203e-06)
(1.37412e-06 2.06367e-06 -1.64164e-06)
(-2.97777e-06 -1.28318e-06 8.23e-07)
(1.95441e-06 1.32957e-07 -4.31808e-06)
(4.95581e-07 -6.34801e-07 2.99944e-06)
(-3.46718e-06 2.00992e-06 -4.64122e-06)
(4.62092e-06 2.30514e-06 -2.89154e-06)
(5.42152e-06 -2.88856e-06 8.10034e-08)
(3.17819e-06 -6.82509e-07 4.24543e-06)
(5.38424e-06 -4.14064e-06 3.31658e-06)
(3.18842e-06 -4.62961e-07 -1.04984e-06)
(4.64883e-06 4.94476e-06 4.2958e-06)
(9.15808e-06 -3.6251e-07 6.9357e-06)
(3.17792e-06 -7.28218e-06 2.61872e-06)
(-4.05293e-06 -3.68236e-06 -4.28531e-06)
(-4.14949e-06 1.28786e-06 -2.18631e-06)
(3.98906e-07 1.38449e-06 3.35478e-06)
(3.81963e-06 9.26127e-08 -4.53324e-07)
(-5.48918e-07 3.20377e-06 1.22646e-06)
(-1.20419e-06 -1.94006e-06 7.29834e-07)
(5.56972e-07 3.6544e-06 2.4937e-06)
(-2.48242e-07 7.45128e-07 3.50502e-07)
(-2.18923e-06 3.42967e-06 3.12079e-06)
(4.9531e-07 4.72711e-06 -6.46274e-07)
(7.33109e-07 -3.33545e-06 -2.0199e-06)
(-4.13281e-06 -3.95637e-06 3.89862e-06)
(-3.14748e-06 1.1356e-06 1.26436e-06)
(2.13422e-07 -4.90117e-07 1.98687e-07)
(-1.50341e-06 6.79043e-07 1.98243e-06)
(1.40809e-06 1.62832e-06 5.07768e-07)
(-2.11578e-06 -6.00642e-07 2.79532e-07)
(1.46229e-06 3.25501e-07 -1.02539e-06)
(3.94849e-07 -4.29483e-07 9.55487e-07)
(-1.23143e-06 5.54752e-07 -6.93299e-07)
(2.6351e-06 9.19972e-07 -1.20913e-06)
(2.07046e-06 -8.88392e-07 1.32025e-06)
(2.35754e-06 -7.46309e-08 2.08108e-06)
(3.1713e-06 -1.72014e-06 1.54232e-06)
(2.29043e-06 2.38749e-08 -3.37799e-07)
(2.99482e-06 1.30791e-06 9.66313e-07)
(3.79775e-06 -5.97393e-07 3.21367e-06)
(1.74561e-06 -2.87205e-06 1.08366e-06)
(-1.15435e-06 -1.9821e-06 -1.30555e-06)
(-1.57048e-06 6.54045e-07 -5.90271e-07)
(2.11174e-07 1.07019e-06 1.87172e-06)
(1.40449e-06 4.38695e-07 -7.82085e-07)
(-1.12235e-07 1.95573e-06 -3.94293e-07)
(-5.00384e-07 -2.97256e-07 -2.88736e-07)
(3.98906e-07 1.98317e-06 3.72099e-07)
(2.13584e-07 4.15162e-07 -4.23718e-07)
(-9.50635e-07 1.3641e-06 8.37317e-07)
(-1.69281e-09 1.75558e-06 -1.21318e-06)
(-2.02488e-07 -1.14288e-06 -2.09085e-06)
(-1.60512e-06 -1.01944e-06 9.82722e-07)
(-1.0118e-06 5.74789e-07 7.56883e-07)
(3.54341e-07 -1.11453e-07 2.99138e-07)
(-9.98349e-08 2.98236e-07 1.02592e-06)
(9.70377e-07 4.69565e-07 -7.59455e-08)
(5.40368e-05 0.00027765 -2.25349e-05)
(-0.000117455 -1.29988e-05 0.000159075)
(0.000314883 0.000113342 0.0001454)
(-7.73554e-05 -0.000355656 0.000135064)
(7.57282e-06 1.60058e-05 9.55102e-06)
(2.47814e-06 9.64041e-06 -2.07298e-05)
(1.96114e-05 2.50055e-06 -2.10314e-05)
(2.9301e-06 -1.4609e-05 -1.48838e-05)
)
;

boundaryField
{
    top_fluid_surface
    {
        type            pressureInletOutletVelocity;
        value           nonuniform List<vector> 
64
(
(0 0 -0.000105839)
(0.000273706 3.44006e-05 0.000129628)
(0.000185499 3.12349e-05 0.000132347)
(0 0 -4.19604e-05)
(0 0 -9.58837e-05)
(0 0 -0.000108583)
(0 0 -5.51507e-05)
(-7.93436e-05 -0.000176219 9.96113e-05)
(-0.000140605 7.85101e-06 -1.59126e-05)
(0 0 -5.29572e-05)
(-6.30624e-05 0.000105363 0.000134847)
(0 0 -0.000177462)
(0 0 -4.40355e-05)
(0 0 -6.00825e-05)
(-3.60054e-06 0.000125213 5.51916e-05)
(0 0 -5.72894e-05)
(0.000123894 0.000468362 7.91779e-05)
(0.000139607 -4.29693e-05 0.000352012)
(4.22727e-05 -5.62267e-05 9.76309e-05)
(0.000147153 -0.000316691 0.000306749)
(0 0 -7.51226e-05)
(0 0 -2.71778e-05)
(-0.000187189 0.000126467 4.74764e-05)
(3.56533e-05 -4.56776e-05 0.000136696)
(0 0 -7.20513e-05)
(-7.20205e-05 -0.000222812 0.000111398)
(0.000101881 -0.000286763 4.18e-05)
(-0.000134998 -8.61403e-05 0.000140765)
(8.17646e-05 0.000190818 0.000143313)
(0 0 -9.28315e-06)
(0 0 -0.000174697)
(0.000171366 7.80704e-06 1.59631e-05)
(0 0 -8.13838e-05)
(1.47124e-05 -0.000108207 0.000192861)
(9.3749e-05 3.97946e-05 0.000161662)
(4.93653e-05 -5.40121e-05 3.90145e-05)
(0 0 -0.000126798)
(0 0 -0.000108465)
(0 0 -9.4214e-05)
(0 0 -0.000173543)
(-0.000342826 -4.98824e-05 6.92108e-05)
(0 0 -2.01158e-05)
(-0.000350814 -0.000148856 3.12691e-05)
(0 0 -9.44103e-05)
(0 0 -0.000121508)
(0 0 -5.78274e-05)
(0 0 -0.000167776)
(-0.000196243 -0.000109912 4.03264e-05)
(0 0 -0.000287344)
(0 0 -4.86549e-05)
(0 0 -0.000161015)
(0 0 -5.31341e-05)
(0 0 -0.000325369)
(2.66132e-05 -0.000454179 9.26328e-05)
(2.96884e-05 -1.25233e-05 0.000158367)
(9.9598e-05 0.000104055 1.44321e-05)
(0 0 -1.66694e-05)
(-0.000152066 0.000108579 2.46494e-05)
(0 0 -0.000289787)
(0 0 -0.000109373)
(0 0 -2.25349e-05)
(-0.000117455 -1.29988e-05 0.000159075)
(0.000314883 0.000113342 0.0001454)
(-7.73554e-05 -0.000355656 0.000135064)
)
;
    }
    bottom_fluid_surface
    {
        type            noSlip;
    }
    lateral_surface_1
    {
        type            noSlip;
    }
    lateral_surface_2
    {
        type            noSlip;
    }
    lateral_surface_3
    {
        type            noSlip;
    }
    lateral_surface_4
    {
        type            noSlip;
    }
}


// ************************************************************************* //
