/*--------------------------------*- C++ -*----------------------------------*\
| =========                 |                                                 |
| \\      /  F ield         | OpenFOAM: The Open Source CFD Toolbox           |
|  \\    /   O peration     | Version:  v1612+                                |
|   \\  /    A nd           | Web:      www.OpenFOAM.com                      |
|    \\/     M anipulation  |                                                 |
\*---------------------------------------------------------------------------*/
FoamFile
{
    version     2.0;
    format      ascii;
    class       volScalarField;
    location    "2.35";
    object      alpha.water;
}
// * * * * * * * * * * * * * * * * * * * * * * * * * * * * * * * * * * * * * //

dimensions      [0 0 0 0 0 0 0];

internalField   nonuniform List<scalar> 
1116
(
0.99617
0.99617
0.99617
0.99617
0.99617
0.99617
0.99617
0.99617
0.99617
0.99617
0.99617
0.99617
0.994794
0.994794
0.994794
0.994794
0.994794
0.994794
0.993543
0.993543
0.993543
0.993543
0.993543
0.993543
0.99289
0.99289
0.99289
0.99289
0.99289
0.99289
0.992294
0.992294
0.992294
0.992294
0.992294
0.992294
0.991564
0.991564
0.991564
0.991564
0.991564
0.991564
0.978474
0.978473
0.978472
0.978472
0.978471
0.978471
0.943931
0.943915
0.943925
0.943924
0.943921
0.943925
0.943929
0.943921
0.943923
0.943922
0.943921
0.943923
0.943077
0.943064
0.94307
0.943069
0.943067
0.94307
0.933892
0.933894
0.933893
0.933894
0.933897
0.933887
0.975841
0.97584
0.97584
0.975841
0.975841
0.975841
0.792162
0.792155
0.792156
0.792159
0.792159
0.79216
0.763849
0.763844
0.763845
0.763846
0.763845
0.763848
0.743731
0.743726
0.743727
0.743726
0.743725
0.743729
0.713986
0.713982
0.713983
0.713981
0.713979
0.713982
0.645055
0.645053
0.645053
0.64505
0.645048
0.645049
0.526352
0.52635
0.526349
0.526345
0.526343
0.526343
0.37649
0.376489
0.376487
0.376483
0.37648
0.376478
0.18147
0.181471
0.18147
0.181467
0.181464
0.181464
0.199135
0.199129
0.199132
0.199129
0.199126
0.199128
0.481764
0.481726
0.481736
0.481732
0.481717
0.481737
0.867014
0.867005
0.867008
0.867006
0.867002
0.867003
0.340894
0.340889
0.34089
0.340893
0.340895
0.340894
0.0687226
0.068719
0.0687196
0.0687212
0.0687212
0.0687216
0.0269497
0.0269484
0.0269484
0.0269486
0.0269486
0.0269494
0.00963267
0.00963116
0.00963085
0.00963042
0.00963059
0.00963092
6.92184e-09
6.91939e-09
6.9183e-09
6.92024e-09
6.92101e-09
6.91297e-09
2.93527e-12
2.93421e-12
2.94793e-12
2.95504e-12
2.95667e-12
2.96486e-12
1.70184e-12
1.70207e-12
1.70241e-12
1.70172e-12
1.70108e-12
1.70072e-12
3.63468e-12
3.63615e-12
3.63644e-12
3.63519e-12
3.63431e-12
3.631e-12
-3.66325e-10
-3.6684e-10
-3.66808e-10
-3.66641e-10
-3.66763e-10
-3.65754e-10
-3.67516e-06
-3.67575e-06
-3.67574e-06
-3.67571e-06
-3.67535e-06
-3.67477e-06
0.00252312
0.00252062
0.00252139
0.00252136
0.00252048
0.00252188
0.70957
0.709548
0.709553
0.709544
0.709518
0.709587
7.65022e-08
7.6475e-08
7.64676e-08
7.64294e-08
7.64095e-08
7.65037e-08
2.97434e-08
2.97195e-08
2.97264e-08
2.97069e-08
2.96929e-08
2.97602e-08
1.85995e-08
1.86002e-08
1.85968e-08
1.86075e-08
1.86142e-08
1.85792e-08
6.96282e-09
6.9604e-09
6.95931e-09
6.96122e-09
6.96195e-09
6.9539e-09
2.30388e-12
2.3027e-12
2.31651e-12
2.32354e-12
2.32525e-12
2.33555e-12
1.70725e-12
1.70749e-12
1.70783e-12
1.70715e-12
1.7065e-12
1.70614e-12
1.70689e-12
1.70713e-12
1.70715e-12
1.7065e-12
1.70613e-12
1.70578e-12
1.68677e-12
1.68699e-12
1.68733e-12
1.68666e-12
1.68602e-12
1.68575e-12
-3.39554e-10
-3.39572e-10
-3.39613e-10
-3.39603e-10
-3.39568e-10
-3.39528e-10
-2.03179e-08
-2.00399e-08
-2.00722e-08
-2.00297e-08
-2.00155e-08
-2.03404e-08
0.000126022
0.000126013
0.000126017
0.000126013
0.000125997
0.000126015
0.65067
0.650624
0.650644
0.650646
0.650617
0.650681
5.01088e-62
5.02053e-62
5.02019e-62
5.02076e-62
5.023e-62
5.01405e-62
1.09666e-57
1.09867e-57
1.09857e-57
1.0987e-57
1.0992e-57
1.09733e-57
1.31289e-53
1.3147e-53
1.31442e-53
1.31447e-53
1.31501e-53
1.31279e-53
1.0779e-49
1.07848e-49
1.07795e-49
1.07785e-49
1.07827e-49
1.07666e-49
6.20769e-46
6.20355e-46
6.19818e-46
6.19705e-46
6.20025e-46
6.19402e-46
2.3125e-42
2.30941e-42
2.30735e-42
2.3074e-42
2.30969e-42
2.30956e-42
4.68004e-39
4.6786e-39
4.67873e-39
4.68314e-39
4.6928e-39
4.69965e-39
3.80256e-36
3.81752e-36
3.82697e-36
3.83736e-36
3.85101e-36
3.86212e-36
9.12294e-34
9.24893e-34
9.30974e-34
9.35216e-34
9.3923e-34
9.40924e-34
4.94532e-33
4.94772e-33
4.94722e-33
4.95014e-33
4.9575e-33
4.95912e-33
4.10016e-30
4.10819e-30
4.10907e-30
4.1114e-30
4.11674e-30
4.11745e-30
1.96084e-27
1.96564e-27
1.96587e-27
1.96604e-27
1.96678e-27
1.96436e-27
9.72973e-59
9.74825e-59
9.7474e-59
9.74809e-59
9.752e-59
9.73359e-59
2.18234e-54
2.18638e-54
2.18618e-54
2.18633e-54
2.18719e-54
2.18323e-54
2.59238e-50
2.59657e-50
2.59612e-50
2.59614e-50
2.59705e-50
2.59241e-50
2.03733e-46
2.03973e-46
2.03907e-46
2.0389e-46
2.03954e-46
2.03614e-46
1.07907e-42
1.07973e-42
1.07918e-42
1.07902e-42
1.07941e-42
1.07792e-42
3.54533e-39
3.54649e-39
3.54472e-39
3.54465e-39
3.54691e-39
3.54412e-39
6.38758e-36
6.39461e-36
6.39533e-36
6.39894e-36
6.40731e-36
6.40804e-36
5.16961e-33
5.19049e-33
5.19925e-33
5.2078e-33
5.21986e-33
5.22287e-33
1.70772e-30
1.72616e-30
1.73324e-30
1.73744e-30
1.74342e-30
1.73886e-30
7.84662e-30
7.83818e-30
7.83458e-30
7.83885e-30
7.85161e-30
7.85833e-30
6.09757e-27
6.10724e-27
6.10781e-27
6.11045e-27
6.11747e-27
6.11805e-27
1.8904e-24
1.89439e-24
1.89442e-24
1.8944e-24
1.89491e-24
1.89244e-24
7.53093e-56
7.54534e-56
7.54466e-56
7.54506e-56
7.54787e-56
7.53317e-56
1.72585e-51
1.7291e-51
1.72895e-51
1.72904e-51
1.72967e-51
1.72642e-51
2.00602e-47
2.00953e-47
2.00926e-47
2.00928e-47
2.00994e-47
2.00622e-47
1.4847e-43
1.48696e-43
1.48664e-43
1.48657e-43
1.48701e-43
1.48438e-43
7.29715e-40
7.30636e-40
7.30421e-40
7.30358e-40
7.30577e-40
7.29402e-40
2.28911e-36
2.29184e-36
2.29123e-36
2.29118e-36
2.29214e-36
2.28907e-36
4.17791e-33
4.18451e-33
4.18459e-33
4.18556e-33
4.18883e-33
4.18428e-33
3.98166e-30
3.99286e-30
3.99555e-30
3.99859e-30
4.00844e-30
4.00006e-30
2.49711e-27
2.51156e-27
2.51566e-27
2.51903e-27
2.53833e-27
2.51667e-27
4.51628e-25
4.57715e-25
4.57753e-25
4.56201e-25
4.5882e-25
4.48258e-25
5.936e-24
5.94505e-24
5.9449e-24
5.94579e-24
5.94989e-24
5.94696e-24
8.86207e-22
8.87839e-22
8.87776e-22
8.87659e-22
8.87727e-22
8.86383e-22
2.85082e-53
2.85633e-53
2.85606e-53
2.85618e-53
2.85718e-53
2.85145e-53
6.59247e-49
6.60509e-49
6.6045e-49
6.60478e-49
6.60707e-49
6.5943e-49
7.35129e-45
7.36476e-45
7.36393e-45
7.36402e-45
7.36633e-45
7.35232e-45
5.00666e-41
5.01524e-41
5.01449e-41
5.01436e-41
5.01576e-41
5.00648e-41
2.19072e-37
2.19421e-37
2.19381e-37
2.1937e-37
2.19426e-37
2.19037e-37
5.95206e-34
5.96115e-34
5.96008e-34
5.95988e-34
5.96176e-34
5.95166e-34
9.91546e-31
9.93099e-31
9.93012e-31
9.93153e-31
9.94813e-31
9.92345e-31
1.42723e-27
1.43033e-27
1.43076e-27
1.43226e-27
1.44566e-27
1.43373e-27
2.23144e-24
2.23881e-24
2.24007e-24
2.24405e-24
2.27946e-24
2.24257e-24
1.86227e-21
1.86929e-21
1.86791e-21
1.86887e-21
1.8983e-21
1.85708e-21
1.95746e-21
1.96029e-21
1.96009e-21
1.96004e-21
1.96072e-21
1.95871e-21
9.47169e-20
9.47184e-20
9.47791e-20
9.4676e-20
9.30597e-20
9.60968e-20
1.12842e-06
1.12845e-06
1.12862e-06
1.12882e-06
1.12886e-06
1.12868e-06
1.66338e-06
1.66333e-06
1.66375e-06
1.6642e-06
1.6643e-06
1.66414e-06
-2.5226e-14
-2.76315e-14
-2.83623e-14
-2.77315e-14
-2.75681e-14
-2.82258e-14
1.74615e-05
1.74584e-05
1.74592e-05
1.74561e-05
1.74553e-05
1.74666e-05
3.14971e-05
3.14971e-05
3.14972e-05
3.14972e-05
3.14973e-05
3.14973e-05
-1.43455e-13
-1.57128e-13
-1.61292e-13
-1.57704e-13
-1.56773e-13
-1.60524e-13
7.50259e-08
7.32553e-08
7.39961e-08
7.17418e-08
7.0113e-08
7.75675e-08
1.0906e-07
1.08987e-07
1.08896e-07
1.09171e-07
1.09532e-07
1.09388e-07
-8.51398e-13
-9.32562e-13
-9.57255e-13
-9.35956e-13
-9.30445e-13
-9.52665e-13
7.07374e-07
7.07785e-07
7.07617e-07
7.08373e-07
7.0891e-07
7.06694e-07
8.44417e-07
8.44179e-07
8.44191e-07
8.43967e-07
8.43801e-07
8.44485e-07
-7.9946e-13
-8.75633e-13
-8.98787e-13
-8.78771e-13
-8.73592e-13
-8.94403e-13
6.75638e-07
6.75328e-07
6.75245e-07
6.7544e-07
6.75517e-07
6.74817e-07
8.83388e-07
8.83385e-07
8.83378e-07
8.83362e-07
8.83333e-07
8.83297e-07
-1.21169e-15
-1.34721e-15
-1.40891e-15
-1.37057e-15
-1.35102e-15
-1.1188e-15
2.20808e-12
2.20911e-12
2.20953e-12
2.2089e-12
2.20832e-12
2.20633e-12
7.29503e-10
7.29683e-10
7.29321e-10
7.28639e-10
7.27784e-10
7.27665e-10
4.10161e-20
4.10364e-20
4.10717e-20
4.11252e-20
4.12071e-20
4.11096e-20
1.5106e-12
1.51104e-12
1.51163e-12
1.51113e-12
1.51058e-12
1.50897e-12
1.06614e-14
1.06743e-14
1.0675e-14
1.06746e-14
1.06784e-14
1.06527e-14
1.38453e-17
1.38458e-17
1.38466e-17
1.3848e-17
1.38501e-17
1.38487e-17
1.94896e-11
1.95083e-11
1.95135e-11
1.95074e-11
1.95314e-11
1.94064e-11
2.93992e-12
2.94342e-12
2.94357e-12
2.94339e-12
2.94419e-12
2.93755e-12
1.54239e-17
1.53766e-17
1.53407e-17
1.53465e-17
1.52993e-17
1.54151e-17
4.36504e-11
4.37099e-11
4.37147e-11
4.37147e-11
4.37138e-11
4.36158e-11
9.63609e-12
1.00696e-11
1.0124e-11
1.0136e-11
1.04944e-11
9.09944e-12
-3.49865e-13
-3.49785e-13
-3.49614e-13
-3.49472e-13
-3.48769e-13
-3.506e-13
-1.98166e-08
-1.98598e-08
-1.98328e-08
-1.98411e-08
-1.9854e-08
-1.98015e-08
2.54123e-08
2.54105e-08
2.54132e-08
2.54093e-08
2.54015e-08
2.53946e-08
1.23893e-10
1.21026e-10
1.21295e-10
1.21566e-10
1.28721e-10
1.11482e-10
1.18728e-05
1.1876e-05
1.18761e-05
1.18748e-05
1.18669e-05
1.188e-05
5.82241e-07
5.81896e-07
5.82113e-07
5.81932e-07
5.82068e-07
5.81704e-07
4.61729e-08
4.61901e-08
4.61991e-08
4.61855e-08
4.62038e-08
4.60998e-08
0.253865
0.25384
0.253865
0.25387
0.253839
0.253905
1.18737e-05
1.18763e-05
1.18773e-05
1.18757e-05
1.1866e-05
1.18805e-05
-1.45264e-12
-1.47258e-12
-1.46656e-12
-1.47092e-12
-1.47479e-12
-1.47117e-12
3.06538e-13
3.07179e-13
3.06556e-13
3.07427e-13
3.16089e-13
2.98142e-13
1.17143e-08
1.18426e-08
1.18194e-08
1.17289e-08
1.26131e-08
1.12647e-08
1.45047e-08
1.45197e-08
1.44945e-08
1.45472e-08
1.48338e-08
1.41657e-08
9.7939e-11
9.82133e-11
9.80555e-11
9.81544e-11
1.00772e-10
9.5803e-11
1.21577e-08
1.21197e-08
1.21034e-08
1.21951e-08
1.20407e-08
1.21059e-08
1.14373e-06
1.14e-06
1.13868e-06
1.147e-06
1.1314e-06
1.13978e-06
3.24318e-06
3.2434e-06
3.24065e-06
3.24706e-06
3.24244e-06
3.23859e-06
1.14371e-06
1.14e-06
1.13867e-06
1.14699e-06
1.1314e-06
1.1397e-06
0.000898961
0.000899294
0.000898115
0.000900197
0.000912758
0.000881914
1.36995e-06
1.36915e-06
1.36867e-06
1.36748e-06
1.36631e-06
1.36631e-06
0.00661986
0.00661955
0.00661491
0.00662478
0.0066573
0.00656586
0.00970966
0.00971121
0.00970841
0.00971496
0.00974463
0.00967182
0.0163691
0.0163729
0.0163609
0.0163812
0.016462
0.0162653
0.0495355
0.0495389
0.0495303
0.049554
0.0496243
0.0494391
0.0102734
0.0102746
0.0102748
0.0102767
0.0102761
0.0102799
0.198136
0.198128
0.198119
0.198163
0.198331
0.197924
0.0494508
0.0494551
0.0494547
0.0494636
0.0494725
0.0494533
-6.30544e-11
-6.31588e-11
-6.31272e-11
-6.31812e-11
-6.31965e-11
-6.30882e-11
4.67413e-51
4.68318e-51
4.68272e-51
4.68289e-51
4.68449e-51
4.67493e-51
8.05735e-53
8.07386e-53
8.07374e-53
8.07406e-53
8.07632e-53
8.0592e-53
3.22238e-56
3.22934e-56
3.22925e-56
3.22939e-56
3.23036e-56
3.22324e-56
1.05814e-46
1.06019e-46
1.06009e-46
1.06013e-46
1.06049e-46
1.0584e-46
3.68563e-48
3.693e-48
3.69299e-48
3.69312e-48
3.69407e-48
3.68667e-48
1.69389e-51
1.69744e-51
1.6974e-51
1.69746e-51
1.69792e-51
1.69434e-51
1.09341e-42
1.09545e-42
1.09534e-42
1.09536e-42
1.0957e-42
1.09358e-42
7.94446e-44
7.95956e-44
7.95948e-44
7.9596e-44
7.96133e-44
7.94607e-44
4.56219e-47
4.57134e-47
4.57123e-47
4.57131e-47
4.5724e-47
4.56312e-47
6.59532e-39
6.60718e-39
6.60636e-39
6.60628e-39
6.60811e-39
6.59557e-39
1.01967e-39
1.0215e-39
1.02149e-39
1.02148e-39
1.02167e-39
1.01981e-39
8.05658e-43
8.0719e-43
8.07172e-43
8.07178e-43
8.07346e-43
8.05795e-43
2.48513e-35
2.4894e-35
2.48904e-35
2.48895e-35
2.48956e-35
2.48495e-35
8.26322e-36
8.27732e-36
8.27714e-36
8.27701e-36
8.27819e-36
8.26396e-36
1.02984e-38
1.0317e-38
1.03168e-38
1.03167e-38
1.03185e-38
1.02997e-38
6.09222e-32
6.10204e-32
6.10095e-32
6.10087e-32
6.10732e-32
6.09259e-32
4.37072e-30
4.37545e-30
4.37287e-30
4.37688e-30
4.45537e-30
4.3884e-30
5.01005e-27
5.01531e-27
5.01196e-27
5.01724e-27
5.10836e-27
5.0202e-27
2.01149e-28
2.01415e-28
2.01358e-28
2.01503e-28
2.03753e-28
2.01713e-28
1.29041e-25
1.2918e-25
1.29115e-25
1.29284e-25
1.31652e-25
1.29366e-25
1.00973e-22
1.01079e-22
1.01015e-22
1.01168e-22
1.0305e-22
1.00791e-22
1.01394e-24
1.01524e-24
1.01491e-24
1.01636e-24
1.03398e-24
1.01687e-24
6.89463e-22
6.9021e-22
6.89802e-22
6.90936e-22
7.03804e-22
6.88295e-22
3.38263e-19
3.38619e-19
3.38349e-19
3.3902e-19
3.45576e-19
3.352e-19
2.30638e-21
2.30946e-21
2.30828e-21
2.31232e-21
2.35464e-21
2.30306e-21
1.11096e-18
1.11215e-18
1.11122e-18
1.11356e-18
1.13501e-18
1.10085e-18
2.76348e-17
2.76596e-17
2.765e-17
2.76746e-17
2.81081e-17
2.888e-17
3.38633e-18
3.39034e-18
3.38704e-18
3.39403e-18
3.45843e-18
3.3589e-18
8.6626e-16
8.67177e-16
8.6623e-16
8.68357e-16
8.85365e-16
8.52569e-16
1.42429e-16
1.42563e-16
1.42436e-16
1.42723e-16
1.45311e-16
1.39366e-16
1.61072e-15
1.61067e-15
1.60921e-15
1.61266e-15
1.62875e-15
1.58478e-15
4.53224e-13
4.52922e-13
4.52607e-13
4.53945e-13
4.56191e-13
4.47469e-13
8.5791e-14
8.58746e-14
8.57875e-14
8.59692e-14
8.75721e-14
8.37044e-14
2.75673e-14
2.78611e-14
2.76498e-14
2.77445e-14
3.12759e-14
2.48646e-14
4.50846e-11
4.51275e-11
4.4997e-11
4.52699e-11
4.64672e-11
4.36097e-11
9.31204e-18
9.30896e-18
9.29548e-18
9.28815e-18
9.28018e-18
9.31333e-18
)
;

boundaryField
{
    seabed_topleft_surface
    {
        type            zeroGradient;
    }
    seabed_topright_surface
    {
        type            zeroGradient;
    }
    breakwater_top_surface
    {
        type            zeroGradient;
    }
    breakwater_left_surface
    {
        type            zeroGradient;
    }
    breakwater_right_surface
    {
        type            zeroGradient;
    }
    water_front_surface
    {
        type            zeroGradient;
    }
    water_back_surface
    {
        type            zeroGradient;
    }
    water_left_surface
    {
        type            zeroGradient;
    }
    water_right_surface
    {
        type            zeroGradient;
    }
    water_top_surface
    {
        type            inletOutlet;
        inletValue      uniform 0;
        value           nonuniform List<scalar> 
180
(
0
0
0
0
0
0
0
0
0
0
0
0
0
0
0
0
0
0
0
0
0
0
0
0
0
0
0
0
0
0
0
0
0
0
0
0
0
0
0
0
0
0
0
0
0
0
0
0
0
0
0
0
0
0
1.23893e-10
1.21026e-10
1.21295e-10
1.21566e-10
1.28721e-10
1.11482e-10
4.61729e-08
4.61901e-08
4.61991e-08
4.61855e-08
4.62038e-08
4.60998e-08
0
0
0
0
0
0
1.45047e-08
1.45197e-08
1.44945e-08
1.45472e-08
1.48338e-08
1.41657e-08
1.14373e-06
1.14e-06
1.13868e-06
1.147e-06
1.1314e-06
1.13978e-06
0.000898961
0.000899294
0.000898115
0.000900197
0.000912758
0.000881914
0.00970966
0.00971121
0.00970841
0.00971496
0.00974463
0.00967182
0.0102734
0.0102746
0.0102748
0.0102767
0.0102761
0.0102799
0
0
0
0
0
0
0
0
0
0
0
0
0
0
0
0
0
0
0
0
0
0
0
0
0
0
0
0
0
0
0
0
0
0
0
0
0
0
0
0
0
0
0
0
0
0
0
0
0
0
0
0
0
0
0
0
0
0
0
0
0
0
0
0
0
0
0
0
0
0
0
0
0
0
0
0
0
0
)
;
    }
}


// ************************************************************************* //
