/*--------------------------------*- C++ -*----------------------------------*\
| =========                 |                                                 |
| \\      /  F ield         | OpenFOAM: The Open Source CFD Toolbox           |
|  \\    /   O peration     | Version:  v1612+                                |
|   \\  /    A nd           | Web:      www.OpenFOAM.com                      |
|    \\/     M anipulation  |                                                 |
\*---------------------------------------------------------------------------*/
FoamFile
{
    version     2.0;
    format      ascii;
    class       surfaceScalarField;
    location    "2.35";
    object      alphaPhi;
}
// * * * * * * * * * * * * * * * * * * * * * * * * * * * * * * * * * * * * * //

dimensions      [0 3 -1 0 0 0 0];

internalField   nonuniform List<scalar> 
2916
(
-7.52015e-06
0.646087
-0.625379
-3.18877e-06
0.646089
-0.625394
-2.26673e-06
0.646089
-0.62539
-4.11897e-06
0.64609
-0.625388
-1.00508e-06
0.646091
-0.625394
0.646088
-0.625388
-8.91793e-06
1.31545
-0.648656
-4.2476e-06
1.31546
-0.648673
-4.34616e-06
1.31546
-0.648669
-3.9279e-06
1.31546
-0.648668
2.99993e-06
1.31546
-0.648674
1.31545
-0.648663
-6.03139e-06
1.74484
-0.407338
-3.27508e-06
1.74485
-0.40735
-4.82384e-06
1.74485
-0.407345
-4.88748e-06
1.74485
-0.407346
1.58766e-06
1.74485
-0.407353
1.74484
-0.40734
-4.78666e-06
2.0471
-0.278385
-4.74854e-06
2.04712
-0.278392
-7.62684e-06
2.04712
-0.278388
-7.26077e-06
2.04711
-0.278391
-1.98596e-07
2.04711
-0.278398
2.0471
-0.278386
-6.87072e-06
2.28147
-0.211032
-7.22072e-06
2.28149
-0.211039
-9.87465e-06
2.28148
-0.211036
-8.33202e-06
2.28148
-0.21104
-8.71223e-07
2.28148
-0.211047
2.28147
-0.211036
-1.10993e-05
2.48348
-0.179419
-9.92914e-06
2.4835
-0.179428
-1.13219e-05
2.48349
-0.179426
-9.41083e-06
2.48349
-0.179429
-1.7723e-06
2.4835
-0.179437
2.48347
-0.179426
-1.02834e-05
2.66663
-0.167554
-7.32159e-06
2.66664
-0.167567
-7.39189e-06
2.66664
-0.167565
-6.10773e-06
2.66664
-0.167569
7.68066e-07
2.66664
-0.167577
2.66662
-0.16757
-2.55462e-06
2.78277
-0.141633
2.44177e-06
2.78279
-0.141647
2.58881e-06
2.78278
-0.141641
3.28854e-06
2.78278
-0.141642
7.54265e-06
2.78279
-0.141646
2.78276
-0.141634
6.06122e-07
2.62411
0.064913
1.02658e-05
2.62413
0.0648944
1.03799e-05
2.62413
0.0649016
9.51131e-06
2.62412
0.0649045
1.27463e-05
2.62413
0.0649001
2.62409
0.064922
-9.99135e-08
1.98166
0.551544
8.22375e-06
1.98169
0.551526
1.07872e-05
1.98169
0.551523
1.05819e-05
1.98168
0.551527
8.42723e-06
1.9817
0.551523
1.98165
0.551538
3.87239e-06
0.861712
1.02849
7.26288e-07
0.861757
1.02847
5.00423e-06
0.861748
1.02847
3.72804e-06
0.861747
1.02848
-3.68432e-06
0.86177
1.02847
0.861705
1.02847
-3.79237e-05
0.783347
-1.91474e-05
0.78334
-1.32546e-05
0.783341
-9.57096e-06
0.783343
6.5845e-06
0.783354
0.783309
-5.86834e-06
0.668008
-1.0617
-5.73275e-06
0.668003
-1.06171
-4.73214e-06
0.668006
-1.06171
-1.28804e-05
0.66801
-1.06171
-1.67223e-05
0.668009
-1.06172
0.667999
-1.06172
5.33567e-06
1.10268
-0.533777
-5.46326e-06
1.10268
-0.533771
-7.09861e-06
1.10268
-0.533775
-7.92758e-06
1.10268
-0.533778
-9.4101e-06
1.10269
-0.533781
1.10268
-0.533782
9.3287e-06
1.42841
-0.251555
-4.37679e-06
1.42842
-0.251551
-8.7473e-06
1.42842
-0.251552
-9.64041e-06
1.42841
-0.251554
-1.65803e-05
1.42842
-0.251555
1.42841
-0.251559
1.31978e-05
1.63384
-0.162333
-5.64426e-07
1.63386
-0.162326
-6.07834e-06
1.63385
-0.162326
-7.98058e-06
1.63385
-0.162328
-1.70532e-05
1.63385
-0.162329
1.63383
-0.162333
1.51968e-05
1.68797
-0.0295393
4.64968e-06
1.688
-0.029536
5.24436e-07
1.68799
-0.0295354
-2.35018e-06
1.68798
-0.0295349
-1.20238e-05
1.68799
-0.0295355
1.68796
-0.0295369
1.50394e-05
1.60478
-0.00248843
8.94254e-06
1.60482
-0.00248822
7.41154e-06
1.60481
-0.00248821
4.62836e-06
1.6048
-0.0024882
-3.93997e-06
1.60481
-0.00248828
1.60478
-0.00248844
1.52955e-05
1.36551
-0.000279356
1.10703e-05
1.36555
-0.000279336
1.11977e-05
1.36553
-0.000279339
9.53655e-06
1.36552
-0.000279341
2.17398e-06
1.36552
-0.00027935
1.3655
-0.000279376
1.28584e-05
1.03285
-4.01983e-05
6.16748e-06
1.03289
-4.01962e-05
4.24601e-06
1.03287
-4.0197e-05
3.58039e-06
1.03286
-4.01975e-05
-1.2651e-06
1.03285
-4.01985e-05
1.03283
-4.02028e-05
9.31744e-06
0.897796
-5.29407e-06
3.83503e-06
0.897818
-5.29361e-06
2.41472e-07
0.897807
-5.29356e-06
-5.73157e-07
0.897793
-5.29361e-06
-2.83192e-06
0.897784
-5.29375e-06
0.897774
-5.29395e-06
4.8067e-06
1.19227
0.0275796
3.40928e-06
1.19228
0.0275808
-3.36291e-07
1.19226
0.0275807
-2.26871e-06
1.19225
0.0275799
-1.33852e-06
1.19224
0.0275807
1.19224
0.0275781
3.1478e-06
1.2579
0.308025
3.96207e-06
1.25793
0.308025
3.63606e-06
1.25792
0.308026
1.23724e-06
1.25791
0.308018
6.57805e-06
1.25787
0.30801
1.2579
0.308011
-3.5948e-05
1.77776
-5.81997e-06
1.77771
1.82942e-06
1.77773
1.36831e-05
1.77771
3.50758e-05
1.77765
1.77775
1.60554e-06
0.126301
-2.91124e-06
-2.79787e-06
0.126297
-2.9113e-06
-6.21175e-07
0.1263
-2.9116e-06
-1.94469e-06
0.1263
-2.91171e-06
-9.01436e-06
0.126299
-2.91161e-06
0.126303
-2.91158e-06
6.28485e-07
0.0383956
-5.69714e-05
-1.86542e-06
0.0383935
-5.69563e-05
-8.93449e-07
0.0383933
-5.69604e-05
-7.14465e-07
0.0383939
-5.69449e-05
-2.83443e-06
0.0383942
-5.69413e-05
0.0383944
-5.69962e-05
3.48768e-07
0.03521
-1.12505e-06
2.14335e-07
0.0352072
-1.1206e-06
7.40751e-07
0.0352065
-1.12238e-06
1.18012e-06
0.0352062
-1.11686e-06
5.41686e-07
0.0352069
-1.11298e-06
0.0352086
-1.13133e-06
1.11218e-06
0.0323537
-1.22845e-06
1.04719e-06
0.0323501
-1.22967e-06
1.02226e-06
0.0323495
-1.22925e-06
7.82991e-07
0.032349
-1.23132e-06
3.02968e-07
0.0323497
-1.2328e-06
0.0323512
-1.22673e-06
8.57237e-08
0.00281533
-1.00679e-06
1.32281e-07
0.00281509
-1.00618e-06
1.28278e-07
0.00281508
-1.00594e-06
1.00758e-07
0.00281507
-1.00643e-06
5.33137e-08
0.00281516
-1.00665e-06
0.00281534
-1.00482e-06
4.77948e-09
0.000326888
-1.58071e-10
1.24643e-08
0.000326866
-1.57907e-10
1.43182e-08
0.00032687
-1.5941e-10
1.29538e-08
0.000326872
-1.603e-10
1.17131e-08
0.000326882
-1.60548e-10
0.000326911
-1.61544e-10
5.80909e-10
4.75316e-05
-7.49391e-12
1.27346e-09
4.75292e-05
-7.51978e-12
1.67183e-09
4.75301e-05
-7.54033e-12
1.63081e-09
4.75306e-05
-7.52706e-12
1.56041e-09
4.75317e-05
-7.52748e-12
4.75368e-05
-7.48667e-12
9.96072e-11
7.33339e-06
-2.23341e-10
1.04376e-10
7.33317e-06
-2.2344e-10
7.32794e-11
7.33331e-06
-2.23418e-10
2.9439e-11
7.33331e-06
-2.23377e-10
-1.19434e-10
7.33354e-06
-2.23346e-10
7.33402e-06
-2.23097e-10
-1.49018e-11
1.81232e-06
2.31226e-07
-3.84128e-11
1.81256e-06
2.31232e-07
-5.56113e-11
1.81273e-06
2.31239e-07
-5.93422e-11
1.81268e-06
2.31233e-07
-6.21263e-11
1.81278e-06
2.31226e-07
1.813e-06
2.31219e-07
-3.23269e-07
0.0248745
0.00272598
-3.57711e-07
0.0248749
0.00272651
-5.40795e-07
0.0248751
0.00272639
-7.42136e-07
0.0248744
0.00272624
1.73134e-07
0.0248742
0.00272617
0.0248734
0.00272542
-2.33541e-06
0.211161
0.090384
-3.87851e-07
0.211177
0.0903837
-4.94766e-07
0.211175
0.0903839
-9.66342e-07
0.211169
0.090382
2.75522e-06
0.211163
0.0903805
0.211164
0.0903787
-4.48466e-05
1.78812
-1.62377e-06
1.78799
2.53149e-05
1.78805
4.78508e-05
1.78802
3.99157e-05
1.78792
1.78822
-2.82682e-12
4.22067e-08
-2.99088e-06
-1.20491e-12
4.21964e-08
-2.99105e-06
3.79259e-12
4.21972e-08
-2.99142e-06
8.59607e-12
4.21819e-08
-2.99167e-06
9.02771e-12
4.21732e-08
-2.99162e-06
4.22183e-08
-2.99127e-06
-9.76795e-11
8.62807e-07
-5.77794e-05
-6.34004e-11
8.62558e-07
-5.77644e-05
-1.47459e-11
8.62569e-07
-5.77685e-05
-2.14727e-11
8.62421e-07
-5.77529e-05
-4.18624e-11
8.62398e-07
-5.77493e-05
8.62951e-07
-5.78044e-05
-2.22451e-12
3.6219e-08
-3.21444e-07
1.15123e-12
3.6158e-08
-3.17182e-07
2.75423e-12
3.6176e-08
-3.18967e-07
3.85289e-12
3.61207e-08
-3.13532e-07
5.38155e-12
3.60822e-08
-3.09628e-07
3.62735e-08
-3.276e-07
1.97925e-12
1.86073e-08
-1.22647e-06
4.06919e-12
1.86105e-08
-1.22775e-06
4.01812e-12
1.8608e-08
-1.2273e-06
3.21093e-12
1.86232e-08
-1.22944e-06
2.83763e-12
1.86335e-08
-1.23097e-06
1.85922e-08
-1.22465e-06
1.4227e-12
1.08307e-10
-9.88145e-07
3.14329e-12
1.08113e-10
-9.87532e-07
3.38261e-12
1.09629e-10
-9.87302e-07
2.75173e-12
1.10547e-10
-9.87772e-07
2.2656e-12
1.10853e-10
-9.87977e-07
1.11861e-10
-9.86193e-07
-7.66794e-16
-1.70364e-12
-5.52702e-11
-5.29375e-16
-1.70437e-12
-5.52941e-11
-4.2336e-16
-1.70456e-12
-5.52706e-11
-1.31366e-16
-1.7037e-12
-5.52349e-11
6.34891e-16
-1.70321e-12
-5.51893e-11
-1.70198e-12
-5.51823e-11
-5.17925e-16
-6.41666e-12
-1.00027e-11
-7.85893e-16
-6.42501e-12
-1.00144e-11
-9.13291e-16
-6.42112e-12
-1.00121e-11
-8.106e-16
-6.41844e-12
-1.00087e-11
-3.88196e-16
-6.42509e-12
-1.00142e-11
-6.41054e-12
-9.99214e-12
-1.15709e-15
2.5924e-12
-2.39197e-10
-2.43836e-15
2.59401e-12
-2.39299e-10
-4.37745e-15
2.59543e-12
-2.39264e-10
-5.17581e-15
2.59337e-12
-2.39209e-10
-7.47738e-15
2.59241e-12
-2.39195e-10
2.58282e-12
-2.38938e-10
-3.55485e-15
2.27224e-07
2.2274e-09
-1.051e-12
2.27232e-07
2.22715e-09
-1.52405e-12
2.27237e-07
2.22797e-09
-1.7325e-12
2.27232e-07
2.2275e-09
-4.19613e-12
2.27227e-07
2.2281e-09
2.27218e-07
2.22262e-09
7.75381e-08
0.00246401
0.000262224
-5.05008e-08
0.00246463
0.000262347
-5.25265e-08
0.00246444
0.00026229
-4.10797e-08
0.00246429
0.000262276
-1.53904e-07
0.00246437
0.000262238
0.00246338
0.000262221
5.30403e-07
0.0787472
0.013765
1.53965e-07
0.0787484
0.0137652
4.81799e-08
0.0787482
0.0137651
2.12124e-07
0.0787459
0.0137651
5.37468e-07
0.0787446
0.0137648
0.0787443
0.0137631
-1.34233e-05
1.518
1.97058e-05
1.51789
4.76994e-05
1.51796
2.44914e-05
1.51801
-3.52709e-05
1.51805
1.51794
4.53611e-68
9.01614e-65
-1.75156e-61
3.0542e-69
9.03269e-65
-1.75509e-61
-1.58994e-68
9.03166e-65
-1.75501e-61
-2.19026e-68
9.03209e-65
-1.75521e-61
-1.92675e-68
9.03552e-65
-1.75597e-61
9.01834e-65
-1.75278e-61
6.17889e-64
4.0217e-60
-4.0808e-57
-2.88756e-64
4.02883e-60
-4.08827e-57
-7.59747e-64
4.02833e-60
-4.0879e-57
-1.00479e-63
4.02858e-60
-4.08834e-57
-1.05732e-63
4.0302e-60
-4.09013e-57
4.02305e-60
-4.083e-57
6.79124e-60
7.43849e-56
-5.18546e-53
-6.15125e-60
7.44825e-56
-5.19168e-53
-1.50428e-59
7.4461e-56
-5.19019e-53
-1.94719e-59
7.44574e-56
-5.19019e-53
-1.7762e-59
7.44809e-56
-5.19222e-53
7.43474e-56
-5.18336e-53
5.33595e-56
8.46886e-52
-4.46685e-49
-1.1213e-55
8.47209e-52
-4.46704e-49
-2.51042e-55
8.46658e-52
-4.46404e-49
-3.13845e-55
8.46445e-52
-4.46335e-49
-2.59645e-55
8.4663e-52
-4.46515e-49
8.45199e-52
-4.45879e-49
-1.82171e-52
6.40914e-48
-2.66313e-45
-2.01952e-51
6.40257e-48
-2.65915e-45
-3.56324e-51
6.39506e-48
-2.65614e-45
-4.12879e-51
6.392e-48
-2.65552e-45
-3.21327e-51
6.39337e-48
-2.65719e-45
6.38484e-48
-2.65529e-45
-9.49332e-48
3.04659e-44
-1.00899e-41
-2.33259e-47
3.04056e-44
-1.00687e-41
-3.24934e-47
3.03628e-44
-1.00583e-41
-3.41828e-47
3.03496e-44
-1.00595e-41
-2.52739e-47
3.03662e-44
-1.00728e-41
3.03495e-44
-1.00787e-41
-6.84754e-44
7.6748e-41
-2.05034e-38
-1.15777e-43
7.66473e-41
-2.04998e-38
-1.37558e-43
7.65956e-41
-2.05086e-38
-1.3261e-43
7.66261e-41
-2.0539e-38
-9.34748e-44
7.67454e-41
-2.05974e-38
7.68092e-41
-2.06505e-38
-1.21304e-40
7.48786e-38
-1.68559e-35
-1.68948e-40
7.50714e-38
-1.69674e-35
-1.76372e-40
7.52022e-38
-1.70373e-35
-1.55224e-40
7.53729e-38
-1.71054e-35
-1.03189e-40
7.56116e-38
-1.71904e-35
7.57836e-38
-1.72608e-35
-4.11819e-38
2.03561e-35
-4.39991e-33
-4.80222e-38
2.0605e-35
-4.49601e-33
-4.22605e-38
2.07285e-35
-4.54098e-33
-3.13846e-38
2.08191e-35
-4.56953e-33
-1.78276e-38
2.09061e-35
-4.59882e-33
2.09357e-35
-4.60065e-33
-1.55687e-37
1.08287e-34
2.21786e-36
-1.20253e-37
1.08137e-34
2.06194e-36
-4.52506e-38
1.08074e-34
2.00956e-36
1.93942e-38
1.08136e-34
2.00183e-36
4.40954e-38
1.08306e-34
2.02252e-36
1.0833e-34
2.05974e-36
8.95454e-36
7.08961e-32
1.88787e-32
8.10363e-35
7.08933e-32
1.88293e-32
1.46665e-34
7.08655e-32
1.88377e-32
1.79415e-34
7.08942e-32
1.88908e-32
1.49089e-34
7.09865e-32
1.89848e-32
7.10037e-32
1.90914e-32
5.52067e-32
3.38507e-29
5.74785e-32
3.39192e-29
4.54764e-32
3.3917e-29
3.34447e-32
3.39144e-29
2.17927e-32
3.39267e-29
3.38972e-29
2.26871e-65
1.75967e-61
-2.71907e-58
-3.4572e-65
1.76281e-61
-2.7244e-58
-5.81036e-65
1.76253e-61
-2.72417e-58
-6.9528e-65
1.76251e-61
-2.72434e-58
-7.59916e-65
1.7631e-61
-2.72534e-58
1.7596e-61
-2.72001e-58
-5.067e-61
8.08465e-57
-6.5029e-54
-1.7767e-60
8.09873e-57
-6.51497e-54
-2.29127e-60
8.09728e-57
-6.51424e-54
-2.55921e-60
8.09718e-57
-6.51453e-54
-2.65348e-60
8.09987e-57
-6.51688e-54
8.08468e-57
-6.50458e-54
-2.25772e-56
1.49583e-52
-8.15776e-50
-4.16636e-56
1.49801e-52
-8.16999e-50
-4.90468e-56
1.49756e-52
-8.16804e-50
-4.91503e-56
1.49739e-52
-8.16773e-50
-4.07367e-56
1.49776e-52
-8.17033e-50
1.49493e-52
-8.15533e-50
-4.28266e-52
1.64392e-48
-6.66687e-46
-6.86287e-52
1.64541e-48
-6.67271e-46
-7.76273e-52
1.64451e-48
-6.66963e-46
-7.28223e-52
1.64404e-48
-6.66865e-46
-5.19917e-52
1.64426e-48
-6.67071e-46
1.64122e-48
-6.6598e-46
-5.45833e-48
1.14033e-44
-3.62087e-42
-8.14549e-48
1.14046e-44
-3.62136e-42
-8.84617e-48
1.13944e-44
-3.61886e-42
-8.01103e-48
1.1389e-44
-3.61814e-42
-5.38369e-48
1.13897e-44
-3.61971e-42
1.13704e-44
-3.61545e-42
-4.0505e-44
4.63734e-41
-1.224e-38
-5.60844e-44
4.63458e-41
-1.22397e-38
-5.8015e-44
4.62942e-41
-1.22327e-38
-5.05653e-44
4.62715e-41
-1.22335e-38
-3.30959e-44
4.62816e-41
-1.22444e-38
4.62237e-41
-1.22405e-38
-1.41957e-40
9.86612e-38
-2.32003e-35
-1.76161e-40
9.86111e-38
-2.32365e-35
-1.6605e-40
9.8536e-38
-2.32479e-35
-1.33847e-40
9.8537e-38
-2.32705e-35
-8.28343e-41
9.86215e-38
-2.33158e-35
9.85785e-38
-2.33338e-35
-1.67004e-37
9.0369e-35
-2.09545e-32
-1.71666e-37
9.05006e-35
-2.10892e-32
-1.28981e-37
9.05559e-35
-2.11511e-32
-7.90197e-38
9.06633e-35
-2.12064e-32
-3.61626e-38
9.08517e-35
-2.12989e-32
9.08714e-35
-2.13047e-32
-4.69903e-35
3.23235e-32
-9.97617e-30
-2.12843e-35
3.25495e-32
-1.01425e-29
1.44058e-35
3.26467e-32
-1.0207e-29
3.8286e-35
3.2723e-32
-1.0245e-29
3.73113e-35
3.28475e-32
-1.03349e-29
3.27749e-32
-1.02506e-29
1.66166e-35
1.48361e-31
3.67101e-33
3.13916e-34
1.47586e-31
3.19978e-33
5.83153e-34
1.4739e-31
3.10652e-33
6.93651e-34
1.4753e-31
3.1789e-33
5.45666e-34
1.4793e-31
3.36349e-33
1.48287e-31
3.64757e-33
3.60416e-31
9.75225e-29
4.54905e-29
5.83989e-31
9.72728e-29
4.54976e-29
6.89932e-31
9.72123e-29
4.55942e-29
6.7385e-31
9.73169e-29
4.57844e-29
4.82924e-31
9.75905e-29
4.60764e-29
9.78797e-29
4.64215e-29
1.03068e-28
6.27676e-26
6.65038e-29
6.28998e-26
5.72458e-30
6.28969e-26
-3.97887e-29
6.28952e-26
-4.91125e-29
6.29263e-26
6.28827e-26
-2.09971e-62
1.30859e-58
-1.52491e-55
-4.02032e-62
1.31098e-58
-1.52789e-55
-4.79887e-62
1.3108e-58
-1.52774e-55
-5.06108e-62
1.3108e-58
-1.52779e-55
-4.9695e-62
1.31125e-58
-1.52832e-55
1.30868e-58
-1.52523e-55
-1.05851e-57
6.18269e-54
-3.70064e-51
-1.5195e-57
6.19387e-54
-3.70763e-51
-1.66101e-57
6.19296e-54
-3.70722e-51
-1.63908e-57
6.19297e-54
-3.70732e-51
-1.47759e-57
6.19506e-54
-3.70856e-51
6.18342e-54
-3.70133e-51
-2.2595e-53
1.1316e-49
-4.50268e-47
-3.09475e-53
1.13347e-49
-4.51026e-47
-3.23311e-53
1.13322e-49
-4.50943e-47
-2.85841e-53
1.13314e-49
-4.50931e-47
-2.04382e-53
1.13345e-49
-4.51066e-47
1.13132e-49
-4.5021e-47
-3.19466e-49
1.19351e-45
-3.4478e-43
-4.49327e-49
1.19512e-45
-3.45245e-43
-4.60031e-49
1.19469e-45
-3.45141e-43
-3.8433e-49
1.19448e-45
-3.4511e-43
-2.41473e-49
1.19471e-45
-3.45209e-43
1.19251e-45
-3.44602e-43
-3.3639e-45
8.03906e-42
-1.73848e-39
-4.52848e-45
8.0464e-42
-1.74025e-39
-4.42277e-45
8.0421e-42
-1.73957e-39
-3.53446e-45
8.03992e-42
-1.73938e-39
-2.08314e-45
8.04125e-42
-1.74e-39
8.0276e-42
-1.73743e-39
-2.19116e-41
3.44323e-38
-5.57286e-36
-2.619e-41
3.44518e-38
-5.57899e-36
-2.30537e-41
3.44311e-38
-5.57754e-36
-1.66162e-41
3.44233e-38
-5.57786e-36
-8.79549e-42
3.44338e-38
-5.58139e-36
3.43862e-38
-5.57543e-36
-6.70155e-38
8.54585e-35
-1.08577e-32
-6.44844e-38
8.55086e-35
-1.08803e-32
-4.26373e-38
8.54785e-35
-1.08841e-32
-1.90455e-38
8.54896e-35
-1.08911e-32
-3.23785e-39
8.55616e-35
-1.09167e-32
8.54816e-35
-1.09004e-32
-6.61281e-35
1.07931e-31
-1.69812e-29
-2.15215e-35
1.08089e-31
-1.70609e-29
3.70649e-35
1.08135e-31
-1.70893e-29
7.52885e-35
1.08238e-31
-1.71247e-29
7.10336e-35
1.08556e-31
-1.73006e-29
1.08399e-31
-1.71729e-29
1.56388e-32
8.60692e-29
-2.5351e-26
9.78801e-32
8.6445e-29
-2.55619e-26
1.67714e-31
8.65894e-29
-2.56263e-26
1.93131e-31
8.67612e-29
-2.56916e-26
1.50053e-31
8.75154e-29
-2.60961e-26
8.68864e-29
-2.56509e-26
2.81683e-29
1.75538e-26
-7.43697e-24
5.08241e-29
1.77673e-26
-7.54772e-24
6.26366e-29
1.77754e-26
-7.54602e-24
6.10207e-29
1.77349e-26
-7.51885e-24
4.25122e-29
1.78664e-26
-7.57789e-24
1.74936e-26
-7.32553e-24
4.94635e-28
2.22491e-25
5.20242e-26
6.57653e-28
2.22684e-25
5.22152e-26
6.59164e-28
2.22814e-25
5.24127e-26
5.38623e-28
2.23126e-25
5.26885e-26
3.10873e-28
2.2368e-25
5.30513e-26
2.24089e-25
5.34231e-26
-1.04201e-26
6.26524e-23
-5.83831e-26
6.27826e-23
-1.01806e-25
6.27918e-23
-1.17724e-25
6.27967e-23
-9.59228e-26
6.28304e-23
6.27557e-23
-2.06331e-59
4.4906e-56
-3.23639e-53
-1.71882e-59
4.49893e-56
-3.24268e-53
-1.49573e-59
4.49837e-56
-3.24234e-53
-1.24127e-59
4.49846e-56
-3.24242e-53
-9.34605e-60
4.50008e-56
-3.2435e-53
4.49116e-56
-3.23681e-53
-6.01451e-55
2.16232e-51
-7.74295e-49
-5.25175e-55
2.16628e-51
-7.75779e-49
-4.36451e-55
2.16598e-51
-7.75693e-49
-3.18569e-55
2.16602e-51
-7.7571e-49
-1.80239e-55
2.16677e-51
-7.75963e-49
2.16262e-51
-7.7442e-49
-9.84818e-51
3.86969e-47
-8.86486e-45
-9.35957e-51
3.8763e-47
-8.88084e-45
-7.33226e-51
3.87559e-47
-8.87953e-45
-4.51428e-51
3.87547e-47
-8.87941e-45
-1.65377e-51
3.87664e-47
-8.88203e-45
3.86929e-47
-8.86478e-45
-1.05467e-46
3.86128e-43
-6.15505e-41
-1.10062e-46
3.86708e-43
-6.16518e-41
-8.23083e-47
3.86612e-43
-6.16395e-41
-4.47158e-47
3.86582e-43
-6.16364e-41
-1.28006e-47
3.86684e-43
-6.16533e-41
3.85972e-43
-6.15387e-41
-7.00558e-43
2.35935e-39
-2.73118e-37
-6.96294e-43
2.36239e-39
-2.7353e-37
-4.34542e-43
2.3617e-39
-2.73468e-37
-1.42107e-43
2.36151e-39
-2.73453e-37
2.81127e-44
2.36216e-39
-2.73533e-37
2.35803e-39
-2.73062e-37
-2.06254e-39
8.51914e-36
-7.86097e-34
-1.06998e-39
8.52838e-36
-7.8729e-34
5.96936e-40
8.52618e-36
-7.87165e-34
1.86232e-39
8.52639e-36
-7.8723e-34
1.90028e-39
8.53017e-36
-7.88213e-34
8.5169e-36
-7.86542e-34
1.84981e-36
1.8264e-32
-3.0292e-30
8.76939e-36
1.82815e-32
-3.0344e-30
1.47027e-35
1.82801e-32
-3.03454e-30
1.6977e-35
1.82872e-32
-3.03782e-30
1.31705e-35
1.83246e-32
-3.073e-30
1.82869e-32
-3.04364e-30
2.81066e-32
3.32535e-29
-1.70312e-26
5.35806e-32
3.33018e-29
-1.70755e-26
6.835e-32
3.33189e-29
-1.70838e-26
6.88552e-32
3.33736e-29
-1.71197e-26
4.98499e-32
3.3714e-29
-1.74262e-26
3.34703e-29
-1.71443e-26
1.11623e-28
6.55794e-26
-4.03603e-23
1.77434e-28
6.57622e-26
-4.05016e-23
2.03686e-28
6.58401e-26
-4.05228e-23
1.90268e-28
6.60309e-26
-4.0617e-23
1.30466e-28
6.71716e-26
-4.13658e-23
6.62064e-26
-4.04394e-23
1.21161e-25
6.80846e-23
-3.80306e-20
1.70784e-25
6.83541e-23
-3.81726e-20
1.75633e-25
6.83788e-23
-3.8138e-20
1.44132e-25
6.85194e-23
-3.8174e-20
8.26271e-26
6.97239e-23
-3.88118e-20
6.83462e-23
-3.75684e-20
2.30741e-26
7.04957e-23
2.15414e-23
-7.82513e-27
7.0655e-23
2.16241e-23
-5.62903e-26
7.07518e-23
2.16877e-23
-9.67366e-26
7.08759e-23
2.17689e-23
-1.06931e-25
7.10268e-23
2.19068e-23
7.10542e-23
2.18616e-23
-1.62349e-23
2.79597e-18
-2.74214e-23
2.80286e-18
-3.36544e-23
2.79872e-18
-2.96382e-23
2.80626e-18
-2.21529e-23
2.85189e-18
2.74595e-18
-6.5621e-11
-3.35634e-06
-1.41984e-06
-2.96208e-11
-3.35633e-06
-1.42041e-06
-2.9366e-11
-3.35722e-06
-1.42041e-06
2.00086e-11
-3.35808e-06
-1.42048e-06
1.13471e-10
-3.35826e-06
-1.42036e-06
-3.35797e-06
-1.41937e-06
2.22713e-11
4.94623e-14
-2.32498e-06
7.7557e-11
5.41809e-14
-2.32538e-06
6.63884e-11
5.56136e-14
-2.32563e-06
6.61748e-11
5.43759e-14
-2.32604e-06
1.01813e-10
5.40555e-14
-2.32621e-06
5.53435e-14
-2.32586e-06
-3.31101e-20
2.77761e-15
5.20195e-19
3.0427e-15
8.67017e-19
3.1232e-15
9.74183e-19
3.05281e-15
8.61474e-19
3.03428e-15
3.10857e-15
-6.46259e-10
-7.59066e-05
-3.00335e-06
4.5505e-10
-7.59056e-05
-3.00158e-06
9.82167e-10
-7.59049e-05
-3.00247e-06
9.24821e-10
-7.59046e-05
-2.99971e-06
7.50105e-10
-7.59052e-05
-2.99806e-06
-7.59055e-05
-3.00693e-06
-1.3001e-09
3.10597e-13
-3.4204e-08
-1.51538e-09
3.40212e-13
-3.43711e-08
-1.12937e-09
3.49223e-13
-3.43081e-08
-4.52741e-10
3.41453e-13
-3.43874e-08
-1.72994e-10
3.3944e-13
-3.45209e-08
3.47548e-13
-3.42467e-08
-3.17433e-18
1.03242e-13
-1.67967e-18
1.13081e-13
-6.81681e-19
1.16078e-13
6.73642e-20
1.13494e-13
2.08927e-18
1.12823e-13
1.15532e-13
-2.38082e-12
-1.4608e-07
-1.1516e-06
-2.3046e-12
-1.45167e-07
-1.15145e-06
-3.62805e-12
-1.45456e-07
-1.1516e-06
-2.82248e-12
-1.44551e-07
-1.1516e-06
1.16646e-12
-1.43991e-07
-1.15159e-06
-1.47548e-07
-1.15196e-06
-5.18064e-13
1.12754e-12
-3.37059e-07
-1.8411e-12
1.23508e-12
-3.36912e-07
-2.076e-12
1.26776e-12
-3.36933e-07
-2.10863e-12
1.23955e-12
-3.36858e-07
-2.53258e-12
1.23226e-12
-3.36822e-07
1.26162e-12
-3.3722e-07
-1.01244e-17
5.13776e-15
-9.11611e-18
5.62087e-15
-9.61562e-18
5.77137e-15
-7.31684e-18
5.64182e-15
3.58902e-18
5.6074e-15
5.75198e-15
-1.58553e-11
-1.30967e-06
-4.57432e-07
-2.4465e-11
-1.31012e-06
-4.57448e-07
-3.33857e-11
-1.30989e-06
-4.57518e-07
-2.78526e-11
-1.31063e-06
-4.57609e-07
4.73297e-12
-1.31115e-06
-4.5767e-07
-1.30873e-06
-4.57662e-07
6.09231e-12
1.45953e-12
-1.12182e-07
-2.29798e-11
1.59868e-12
-1.12152e-07
-3.7694e-11
1.64095e-12
-1.12162e-07
-4.48724e-11
1.60442e-12
-1.12173e-07
-4.91955e-11
1.59498e-12
-1.12192e-07
1.63287e-12
-1.12254e-07
-2.07419e-17
-1.56408e-14
-2.16291e-17
-1.71342e-14
-1.59685e-17
-1.75867e-14
-4.24401e-18
-1.7195e-14
1.66522e-17
-1.70934e-14
-1.7497e-14
-5.38883e-11
-1.31734e-06
-1.34156e-09
-5.92097e-11
-1.31742e-06
-1.34213e-09
-4.51848e-11
-1.31732e-06
-1.34159e-09
-2.43197e-11
-1.3171e-06
-1.34068e-09
1.50595e-11
-1.31684e-06
-1.33956e-09
-1.31654e-06
-1.33941e-09
7.58255e-12
1.98506e-15
2.14584e-08
-3.74178e-11
2.2072e-15
2.14615e-08
-6.51356e-11
2.3083e-15
2.14543e-08
-6.81299e-11
2.2455e-15
2.1439e-08
-5.8253e-11
2.21349e-15
2.14181e-08
1.83291e-15
2.14129e-08
-1.86956e-20
-1.03909e-18
-1.24089e-20
-1.04042e-18
-3.03053e-21
-1.04062e-18
1.03973e-20
-1.04068e-18
2.89797e-20
-1.04115e-18
-1.03863e-18
-2.90231e-15
-1.40877e-09
-4.17619e-12
-3.67114e-15
-1.40936e-09
-4.18131e-12
-3.43967e-15
-1.4088e-09
-4.18064e-12
-2.57497e-15
-1.40784e-09
-4.18063e-12
-7.76874e-16
-1.40669e-09
-4.1785e-12
-1.40652e-09
-4.17021e-12
1.83774e-14
-2.74531e-15
-1.01694e-11
-6.83854e-15
-2.7487e-15
-1.01703e-11
-2.37678e-14
-2.74891e-15
-1.01694e-11
-3.35946e-14
-2.74882e-15
-1.01626e-11
-3.62558e-14
-2.74988e-15
-1.01576e-11
-2.74315e-15
-1.01488e-11
-1.02813e-22
-2.74012e-15
-6.06174e-22
-2.7435e-15
-7.64568e-22
-2.74371e-15
-8.04187e-22
-2.74361e-15
-1.12666e-21
-2.74465e-15
-2.73794e-15
-3.4933e-16
-8.19106e-12
-2.03855e-11
-3.7111e-16
-8.19305e-12
-2.03988e-11
-4.82831e-16
-8.19462e-12
-2.04017e-11
-4.48116e-16
-8.19299e-12
-2.03842e-11
-2.91367e-16
-8.19458e-12
-2.03946e-11
-8.1823e-12
-2.03551e-11
-2.73615e-16
-7.55045e-14
-1.83725e-11
-4.83816e-16
-7.55932e-14
-1.83754e-11
-4.61891e-16
-7.55939e-14
-1.83763e-11
-3.69135e-16
-7.55811e-14
-1.83678e-11
-1.36351e-16
-7.5595e-14
-1.83643e-11
-7.54196e-14
-1.83437e-11
-2.2533e-19
-7.81914e-14
-3.04621e-19
-7.82836e-14
-3.12549e-19
-7.82846e-14
-2.71441e-19
-7.82717e-14
-9.25772e-20
-7.82868e-14
-7.81046e-14
-3.42079e-15
-1.20959e-09
6.69683e-10
-5.47175e-15
-1.20971e-09
6.69904e-10
-1.22238e-14
-1.20981e-09
6.69732e-10
-1.43507e-14
-1.20956e-09
6.69639e-10
-2.27318e-14
-1.20955e-09
6.69176e-10
-1.20839e-09
6.70132e-10
-2.06812e-14
-1.56141e-11
-1.23565e-09
-5.11605e-14
-1.56289e-11
-1.23574e-09
-4.29453e-14
-1.56303e-11
-1.23589e-09
-1.86933e-14
-1.56283e-11
-1.2356e-09
7.61742e-14
-1.56305e-11
-1.23559e-09
-1.55998e-11
-1.2344e-09
-1.32518e-16
-1.56922e-11
-1.29915e-16
-1.57072e-11
-1.48492e-16
-1.57086e-11
-1.06533e-16
-1.57066e-11
2.42599e-16
-1.57092e-11
-1.56776e-11
5.75132e-13
-5.18802e-08
5.45634e-08
2.58011e-13
-5.18804e-08
5.45644e-08
2.00871e-13
-5.18734e-08
5.45576e-08
6.82193e-14
-5.1865e-08
5.45487e-08
-6.48154e-13
-5.18275e-08
5.4512e-08
-5.1904e-08
5.45837e-08
1.44884e-11
-1.6401e-09
-5.3293e-08
8.34706e-12
-1.64073e-09
-5.32692e-08
1.09915e-11
-1.64077e-09
-5.32739e-08
1.08936e-11
-1.64042e-09
-5.3255e-08
1.76697e-11
-1.64005e-09
-5.32165e-08
-1.63901e-09
-5.32871e-08
-8.03645e-14
-1.65125e-09
-7.2098e-14
-1.65201e-09
-6.70157e-14
-1.65204e-09
-1.99993e-14
-1.65173e-09
2.02715e-13
-1.65154e-09
-1.65001e-09
3.10444e-08
5.33734e-06
0.000256938
8.31101e-09
5.34575e-06
0.000257107
4.78999e-09
5.34179e-06
0.000257034
1.62938e-10
5.34263e-06
0.000257021
-2.58888e-08
5.34476e-06
0.000257002
5.33438e-06
0.000256943
1.02845e-09
2.87323e-07
4.94153e-06
1.10782e-09
2.87664e-07
4.95054e-06
1.375e-09
2.87668e-07
4.94635e-06
1.17885e-09
2.87589e-07
4.94775e-06
6.15022e-10
2.87354e-07
4.95075e-06
2.87524e-07
4.93993e-06
-1.05814e-12
2.2818e-07
1.1758e-11
2.28493e-07
2.04398e-11
2.28479e-07
2.27074e-11
2.2844e-07
2.68749e-11
2.2813e-07
2.28569e-07
4.26975e-07
0.000749426
0.0132251
2.48704e-07
0.000749858
0.0132257
1.96951e-07
0.000749687
0.0132255
9.69722e-08
0.000749699
0.0132255
1.36362e-07
0.00074954
0.0132253
0.000749716
0.0132235
2.31186e-08
2.01562e-05
0.000730834
2.80443e-08
2.02566e-05
0.000731212
2.74525e-08
2.02393e-05
0.000731055
1.99558e-08
2.02452e-05
0.000731071
4.68891e-08
2.01284e-05
0.000730976
2.03572e-05
0.000731028
-4.45043e-10
1.85169e-05
1.59232e-10
1.86136e-05
4.35944e-10
1.8596e-05
3.59317e-10
1.86027e-05
7.76865e-10
1.84897e-05
1.87104e-05
0.000100389
0.0731348
0.809122
8.50849e-05
0.0731771
0.809125
4.89422e-05
0.0731565
0.809151
8.04071e-05
0.0731751
0.809219
9.05549e-05
0.0732625
0.809661
0.0730695
0.808633
1.23302e-05
0.00128697
0.0725194
9.96919e-06
0.00129418
0.0725696
4.03689e-06
0.00129264
0.0725539
3.96922e-06
0.00129315
0.0725662
4.01703e-05
0.00128645
0.0726239
0.00129951
0.0724942
-7.09672e-08
0.00130556
2.10322e-08
0.0013127
1.021e-08
0.00131124
5.67529e-08
0.0013117
3.13372e-08
0.00130497
0.00131825
-8.37668e-15
-3.15456e-09
3.16561e-09
-1.28096e-11
-8.89346e-15
-3.15304e-09
3.16411e-09
-1.28212e-11
-1.75803e-14
-3.1488e-09
3.15986e-09
-1.27955e-11
-4.68642e-15
-3.16237e-09
3.17344e-09
-1.28514e-11
-7.62513e-15
-3.17641e-09
3.18771e-09
-1.30904e-11
-3.1182e-09
3.12901e-09
-1.25265e-11
3.41946e-12
-4.58763e-07
4.50233e-07
-4.2223e-09
1.52521e-12
-4.59094e-07
4.49354e-07
-4.23369e-09
3.28284e-12
-4.58438e-07
4.48816e-07
-4.22823e-09
3.78897e-12
-4.59793e-07
4.51524e-07
-4.23166e-09
-5.82801e-11
-4.66753e-07
4.50957e-07
-4.34698e-09
-4.5015e-07
4.44407e-07
-4.12054e-09
-2.51609e-10
-6.45135e-07
2.13404e-08
-1.36121e-10
-6.46251e-07
2.13721e-08
-1.01287e-09
-6.4395e-07
2.13376e-08
-4.06302e-11
-6.48426e-07
2.14069e-08
5.96445e-09
-6.6761e-07
2.18188e-08
-6.22741e-07
2.08707e-08
-8.22613e-13
-1.02481e-07
1.0509e-07
-1.04819e-12
-1.02402e-07
1.05011e-07
-2.68387e-12
-1.02261e-07
1.04869e-07
-1.08649e-12
-1.02709e-07
1.05322e-07
1.39476e-12
-1.02277e-07
1.04908e-07
-1.02212e-07
1.04784e-07
6.70917e-10
1.30788e-06
-1.0368e-06
2.95157e-10
1.30793e-06
-1.03637e-06
1.02198e-09
1.30334e-06
-1.03316e-06
6.39309e-10
1.31493e-06
-1.04209e-06
-8.76076e-09
1.34222e-06
-1.05956e-06
1.26194e-06
-1.00413e-06
1.3964e-08
-8.69126e-05
1.01915e-08
-8.6975e-05
-3.72235e-09
-8.67862e-05
2.31005e-09
-8.71671e-05
-7.50574e-09
-8.88254e-05
-8.47795e-05
-8.06273e-10
-2.45677e-05
1.32348e-05
-6.4089e-10
-2.45943e-05
1.32472e-05
-2.34911e-09
-2.45693e-05
1.32359e-05
-9.76775e-10
-2.46067e-05
1.32484e-05
3.8436e-09
-2.46587e-05
1.33083e-05
-2.45688e-05
1.31881e-05
1.38718e-07
0.00097907
-0.00101182
2.38214e-08
0.000979223
-0.00101172
1.67771e-07
0.000978351
-0.00101107
5.60632e-08
0.000980206
-0.00101278
-2.30295e-06
0.000988444
-0.00101874
0.00096687
-0.00100172
6.03362e-07
-0.015659
3.22867e-07
-0.0156648
1.48319e-06
-0.0156477
3.16952e-07
-0.0156786
-1.19327e-05
-0.0158668
-0.0154084
-2.0633e-10
2.11123e-06
4.41085e-06
-1.19445e-10
2.11294e-06
4.42281e-06
-7.27611e-10
2.1097e-06
4.41558e-06
3.34243e-11
2.113e-06
4.42131e-06
3.87506e-09
2.13061e-06
4.45888e-06
2.08979e-06
4.3872e-06
-1.36787e-06
0.0352084
-0.0859466
-1.25856e-06
0.0352118
-0.0859495
-1.50923e-06
0.0351934
-0.0859008
-2.32508e-06
0.0352324
-0.0860112
-3.29892e-06
0.0353999
-0.0864055
0.03497
-0.0853582
2.3764e-06
-0.0650037
7.15741e-07
-0.0650177
8.12495e-06
-0.0650058
1.49364e-06
-0.0650384
-6.65478e-05
-0.065224
-0.0647921
-1.99301e-06
0.0465211
-0.121646
-1.60656e-06
0.0465302
-0.121663
4.13602e-06
0.0465016
-0.121595
-5.99502e-06
0.0465511
-0.121724
-2.0691e-05
0.0467713
-0.122269
0.0462507
-0.120979
-3.71891e-06
0.0856314
-0.265606
-2.23023e-06
0.0856411
-0.265635
1.25167e-05
0.0856413
-0.265605
-2.26144e-05
0.0856563
-0.265699
-5.65077e-05
0.0856914
-0.26607
0.0856338
-0.265173
1.79003e-06
-0.0157907
1.13637e-06
-0.0157982
4.03496e-06
-0.0157951
-1.44359e-06
-0.0158023
-3.2266e-05
-0.0158248
-0.0157771
-5.74894e-06
0.274596
-8.57358e-06
0.274605
9.4989e-05
0.2746
1.91485e-05
0.274637
-0.000623217
0.274862
0.274384
3.60394e-06
0.0144854
9.54526e-06
0.0144856
2.70877e-05
0.014484
-2.79987e-06
0.0144906
-8.45176e-05
0.0145163
0.014462
2.79601e-07
3.76542e-07
4.598e-07
4.15941e-07
-3.1047e-06
-3.49818e-57
-6.49466e-55
5.3163e-54
-2.00251e-57
-6.50798e-55
5.32659e-54
-1.26994e-57
-6.50782e-55
5.32611e-54
-6.01005e-58
-6.50803e-55
5.32636e-54
4.43238e-59
-6.5098e-55
5.32836e-54
-6.49588e-55
5.31776e-54
-3.42861e-59
-2.82793e-58
5.77278e-56
-1.22141e-59
-2.83403e-58
5.78488e-56
-9.25335e-61
-2.83394e-58
5.78501e-56
8.67768e-60
-2.83405e-58
5.78549e-56
1.91948e-59
-2.8349e-58
5.78745e-56
-2.82862e-58
5.77563e-56
-1.73551e-63
7.65354e-60
1.10596e-63
7.67067e-60
2.74805e-63
7.6709e-60
4.93897e-63
7.67179e-60
7.97188e-63
7.67476e-60
7.65858e-60
-7.90989e-53
-3.15249e-50
2.51305e-49
-4.23403e-53
-3.15878e-50
2.5179e-49
-1.95819e-53
-3.15874e-50
2.51767e-49
4.39511e-54
-3.15882e-50
2.51779e-49
2.9103e-53
-3.15961e-50
2.5187e-49
-3.15323e-50
2.51377e-49
-1.09925e-54