/*--------------------------------*- C++ -*----------------------------------*\
| =========                 |                                                 |
| \\      /  F ield         | OpenFOAM: The Open Source CFD Toolbox           |
|  \\    /   O peration     | Version:  v1612+                                |
|   \\  /    A nd           | Web:      www.OpenFOAM.com                      |
|    \\/     M anipulation  |                                                 |
\*---------------------------------------------------------------------------*/
FoamFile
{
    version     2.0;
    format      ascii;
    class       volScalarField;
    location    "2.35";
    object      p_rgh;
}
// * * * * * * * * * * * * * * * * * * * * * * * * * * * * * * * * * * * * * //

dimensions      [1 -1 -2 0 0 0 0];

internalField   nonuniform List<scalar> 
1116
(
25457.5
25457.5
25457.5
25457.5
25457.5
25457.5
24234.4
24234.5
24234.5
24234.5
24234.5
24234.5
21612.1
21612.1
21612.1
21612.1
21612.1
21612.1
19549.9
19549.9
19549.9
19549.9
19549.9
19549.9
18290.4
18290.4
18290.4
18290.3
18290.3
18290.3
17309
17309
17309
17309
17309
17309
16278.8
16278.8
16278.7
16278.7
16278.7
16278.7
15402
15402
15402
15402
15402
15402
15426.8
15426.7
15426.8
15426.8
15426.7
15426.8
18210.1
18210
18210
18210
18210
18210.1
22960.7
22960.6
22960.7
22960.7
22960.7
22960.7
29620.4
29620.4
29620.4
29620.4
29620.4
29620.3
24088.6
24088.6
24088.6
24088.6
24088.6
24088.6
18573.7
18573.6
18573.6
18573.7
18573.7
18573.7
16028.4
16028.3
16028.4
16028.4
16028.4
16028.4
14990.4
14990.3
14990.3
14990.3
14990.3
14990.4
14064
14063.9
14063.9
14063.9
14063.9
14063.9
12687
12686.9
12686.9
12686.9
12686.8
12686.8
10342.4
10342.3
10342.3
10342.2
10342.1
10342.1
7374.82
7374.8
7374.75
7374.66
7374.6
7374.56
3576.24
3576.24
3576.23
3576.17
3576.13
3576.12
4216.15
4216.05
4216.11
4216.05
4216.01
4216.03
11867.6
11867
11867.1
11867
11866.8
11867.1
30476.6
30476.4
30476.4
30476.4
30476.2
30476.3
10020.4
10020.3
10020.3
10020.4
10020.5
10020.5
2026.75
2026.65
2026.67
2026.72
2026.72
2026.73
794.299
794.263
794.262
794.269
794.27
794.293
249.368
249.326
249.316
249.304
249.309
249.318
-61.8669
-61.8667
-61.8677
-61.869
-61.8702
-61.8711
-53.6881
-53.6871
-53.6875
-53.6887
-53.69
-53.6921
-41.3609
-41.3601
-41.3605
-41.3622
-41.3641
-41.3672
-32.126
-32.1249
-32.1239
-32.1236
-32.1247
-32.1246
34.4612
34.4638
34.464
34.4637
34.4615
34.4583
219.333
219.333
219.329
219.323
219.32
219.306
829.968
829.934
829.944
829.937
829.934
829.93
21961
21960.3
21960.5
21960.3
21959.5
21961.5
-7.56007
-7.55934
-7.5593
-7.55931
-7.55922
-7.55979
-10.555
-10.5547
-10.5547
-10.5547
-10.5545
-10.5544
-10.6845
-10.6843
-10.6843
-10.6842
-10.6841
-10.6842
-17.5348
-17.535
-17.5355
-17.5361
-17.5366
-17.537
-18.2169
-18.2172
-18.2189
-18.2205
-18.2217
-18.2232
-15.3153
-15.3145
-15.3132
-15.3126
-15.3123
-15.3128
-27.3031
-27.3029
-27.3034
-27.3044
-27.3062
-27.3093
-53.7866
-53.787
-53.7876
-53.787
-53.7873
-53.785
-58.3017
-58.3028
-58.304
-58.3026
-58.3019
-58.2953
-28.9118
-28.915
-28.9154
-28.915
-28.9144
-28.9115
-26.1566
-26.1681
-26.1703
-26.1721
-26.1708
-26.176
22915.6
22913.9
22914.7
22914.8
22913.8
22916
-0.549282
-0.549294
-0.549272
-0.549242
-0.549213
-0.549194
-0.576182
-0.576151
-0.576115
-0.576081
-0.576055
-0.576037
-0.63099
-0.630928
-0.630894
-0.630876
-0.630869
-0.630871
-0.715874
-0.715812
-0.715794
-0.715796
-0.715809
-0.71583
-0.833748
-0.833708
-0.833702
-0.833706
-0.833719
-0.83374
-0.988011
-0.987993
-0.987975
-0.987956
-0.987941
-0.987939
-1.18173
-1.18172
-1.18167
-1.18162
-1.18158
-1.18155
-1.41603
-1.41601
-1.41596
-1.41591
-1.41588
-1.41587
-1.68702
-1.68701
-1.68702
-1.68706
-1.68712
-1.68717
-1.98289
-1.98293
-1.98304
-1.98318
-1.98334
-1.98346
-2.26768
-2.26779
-2.26794
-2.26808
-2.26822
-2.26833
-2.49839
-2.49843
-2.49841
-2.49837
-2.49832
-2.49828
-0.523037
-0.523043
-0.523019
-0.522986
-0.522955
-0.52293
-0.550084
-0.550056
-0.550025
-0.549996
-0.549973
-0.549958
-0.60545
-0.605406
-0.605386
-0.605378
-0.605382
-0.605397
-0.691811
-0.691773
-0.69177
-0.691783
-0.691809
-0.69185
-0.812763
-0.81274
-0.812743
-0.81276
-0.812788
-0.81283
-0.972265
-0.972253
-0.972248
-0.97225
-0.972262
-0.972285
-1.17523
-1.17522
-1.17521
-1.17521
-1.17522
-1.17523
-1.42657
-1.42658
-1.42661
-1.42665
-1.4267
-1.42673
-1.7267
-1.72675
-1.72685
-1.72697
-1.72708
-1.72716
-2.06782
-2.06794
-2.06808
-2.06818
-2.06825
-2.0683
-2.4108
-2.41089
-2.41091
-2.41087
-2.41077
-2.41067
-2.7127
-2.71264
-2.71245
-2.71222
-2.712
-2.71183
-0.471197
-0.471205
-0.471187
-0.471161
-0.471135
-0.471114
-0.497216
-0.497203
-0.497184
-0.497164
-0.497148
-0.497136
-0.550817
-0.5508
-0.550795
-0.550796
-0.550802
-0.550815
-0.635411
-0.6354
-0.635409
-0.635428
-0.635455
-0.635489
-0.756223
-0.756219
-0.756233
-0.756259
-0.756293
-0.756334
-0.920686
-0.920687
-0.920703
-0.92073
-0.920766
-0.920804
-1.13799
-1.13799
-1.13803
-1.13807
-1.13813
-1.13817
-1.41711
-1.41714
-1.41722
-1.41732
-1.41741
-1.41748
-1.76499
-1.76505
-1.76516
-1.76526
-1.76535
-1.7654
-2.18677
-2.18682
-2.18682
-2.18676
-2.18666
-2.18656
-2.6653
-2.6652
-2.66497
-2.66467
-2.66435
-2.66409
-3.20069
-3.20052
-3.20025
-3.19998
-3.19977
-3.1996
-0.395646
-0.395658
-0.395648
-0.395631
-0.395612
-0.395595
-0.419091
-0.419093
-0.419086
-0.419074
-0.419061
-0.419047
-0.467734
-0.467738
-0.467741
-0.467743
-0.467745
-0.467746
-0.545493
-0.5455
-0.545513
-0.545529
-0.545547
-0.545565
-0.658774
-0.658787
-0.65881
-0.65884
-0.658873
-0.658904
-0.817079
-0.817103
-0.817142
-0.817189
-0.817236
-0.817275
-1.03433
-1.03437
-1.03443
-1.0345
-1.03456
-1.03461
-1.33367
-1.33373
-1.3338
-1.33387
-1.33392
-1.33395
-1.74549
-1.7455
-1.74551
-1.74549
-1.74545
-1.74541
-2.31719
-2.31708
-2.31692
-2.31673
-2.31655
-2.31643
-3.04612
-3.04586
-3.0455
-3.04512
-3.04483
-3.04464
-4.02355
-4.0234
-4.0233
-4.0232
-4.02321
-4.02312
-5.25195
-5.25176
-5.25156
-5.25135
-5.25119
-5.25115
-6.13435
-6.13432
-6.13432
-6.13431
-6.13428
-6.13427
-6.51838
-6.5185
-6.51861
-6.51874
-6.51884
-6.51887
-6.38153
-6.38131
-6.38131
-6.38142
-6.38141
-6.38085
-5.45736
-5.45716
-5.4571
-5.45709
-5.45712
-5.45717
-7.24893
-7.24901
-7.24907
-7.24914
-7.24923
-7.2492
-11.4804
-11.4803
-11.4802
-11.4803
-11.4803
-11.48
-8.76985
-8.76984
-8.76984
-8.76986
-8.76989
-8.76991
-5.74239
-5.74249
-5.74257
-5.74264
-5.74268
-5.74261
-16.4873
-16.4872
-16.4874
-16.4875
-16.4876
-16.488
-10.9083
-10.9084
-10.9084
-10.9085
-10.9086
-10.9086
-8.97342
-8.97351
-8.97359
-8.97366
-8.97372
-8.97361
-21.439
-21.4392
-21.4395
-21.4399
-21.4402
-21.4406
-11.8294
-11.8295
-11.8295
-11.8296
-11.8297
-11.8297
-8.78879
-8.78884
-8.78887
-8.78887
-8.7889
-8.78877
-24.1676
-24.1674
-24.167
-24.1668
-24.1667
-24.1667
-14.093
-14.0931
-14.0931
-14.0932
-14.0932
-14.0931
-9.76775
-9.76779
-9.76776
-9.76771
-9.76768
-9.7676
-24.2267
-24.2265
-24.2266
-24.2266
-24.2267
-24.2266
-15.5543
-15.5543
-15.5542
-15.5542
-15.5541
-15.5541
-8.33117
-8.33118
-8.33116
-8.3311
-8.33102
-8.33103
-34.2722
-34.2715
-34.2713
-34.2704
-34.2697
-34.2665
-19.6567
-19.6565
-19.6562
-19.6563
-19.6559
-19.6562
-6.1888
-6.18873
-6.18867
-6.18863
-6.18824
-6.18881
-44.3461
-44.3466
-44.3455
-44.3432
-44.3433
-44.3361
-23.5385
-23.5402
-23.5393
-23.5394
-23.5388
-23.5389
-0.554481
-0.554571
-0.554491
-0.554796
-0.55361
-0.555606
-40.447
-40.4523
-40.4522
-40.4494
-40.4474
-40.4393
-1.39883
-1.40067
-1.40152
-1.4029
-1.40357
-1.40254
5.11147
5.11302
5.113
5.112
5.1115
5.11158
-35.9238
-35.9371
-35.9381
-35.9441
-35.9441
-35.9392
13.7715
13.7741
13.7783
13.778
13.785
13.7659
8.2233
8.22367
8.22355
8.22403
8.22812
8.22088
11176
11174.7
11175.9
11176.1
11174.3
11178
-81.9019
-81.9395
-81.9416
-81.9529
-81.8863
-82.0209
-15.9135
-15.9018
-15.9037
-15.9021
-15.9014
-15.8994
-9.8734
-9.87305
-9.87333
-9.87268
-9.87287
-9.87401
-14.4132
-14.4138
-14.4158
-14.4116
-14.4302
-14.3893
2.55914
2.56001
2.55988
2.56342
2.57863
2.54149
-12.5166
-12.5153
-12.5162
-12.515
-12.5097
-12.5255
-21.6884
-21.6889
-21.6924
-21.6833
-21.7125
-21.6581
3.68328
3.68375
3.68143
3.69161
3.68827
3.68024
-19.5942
-19.592
-19.5941
-19.5901
-19.5794
-19.6111
-29.8605
-29.8597
-29.8631
-29.8542
-29.8701
-29.8434
21.6748
21.6879
21.6096
21.7618
22.4177
20.7815
-9.50367
-9.50465
-9.50508
-9.50752
-9.48993
-9.53334
318.891
318.878
318.626
319.155
320.921
315.998
465.942
466.002
465.834
466.223
467.466
464.461
721.141
721.305
720.742
721.724
725.408
716.354
2685.36
2685.56
2685
2686.49
2690.72
2679.38
411.326
411.358
411.351
411.507
411.29
411.889
7121.53
7120.84
7120.61
7122.22
7125.55
7116.81
2623.95
2624.22
2624.12
2624.74
2625.2
2624.03
-107.085
-107.095
-107.1
-107.088
-107.127
-107.038
-0.299548
-0.29956
-0.299556
-0.299546
-0.299532
-0.299517
-0.187116
-0.187123
-0.187122
-0.187116
-0.187106
-0.187093
-0.064508
-0.0645095
-0.064509
-0.0645068
-0.0645023
-0.0644953
-0.318103
-0.318113
-0.318112
-0.318103
-0.31809
-0.318072
-0.198902
-0.19891
-0.198909
-0.198902
-0.198888
-0.198868
-0.0685283
-0.06853
-0.0685286
-0.0685249
-0.0685178
-0.0685068
-0.35683
-0.356845
-0.356848
-0.356845
-0.356837
-0.356824
-0.223533
-0.223541
-0.223539
-0.22353
-0.223515
-0.223496
-0.0767567
-0.076757
-0.0767537
-0.0767482
-0.0767395
-0.0767275
-0.419517
-0.419532
-0.41954
-0.419545
-0.419547
-0.419545
-0.263596
-0.263602
-0.2636
-0.263593
-0.263583
-0.263569
-0.0894917
-0.0894903
-0.0894866
-0.0894815
-0.0894745
-0.0894651
-0.512846
-0.512863
-0.51288
-0.512897
-0.512912
-0.512921
-0.323991
-0.323997
-0.323999
-0.323999
-0.323995
-0.323987
-0.106483
-0.106482
-0.10648
-0.106477
-0.106473
-0.106466
-0.648328
-0.648351
-0.648376
-0.648401
-0.64842
-0.64843
-0.414267
-0.414271
-0.414274
-0.414275
-0.414273
-0.414266
-0.126287
-0.126285
-0.126283
-0.12628
-0.126275
-0.126269
-0.845046
-0.845066
-0.845085
-0.845099
-0.845104
-0.845102
-0.553478
-0.55347
-0.553465
-0.553458
-0.553452
-0.553445
-0.141328
-0.141323
-0.141318
-0.141315
-0.141312
-0.141311
-1.13456
-1.13454
-1.13452
-1.13449
-1.13446
-1.13443
-0.78344
-0.783418
-0.783401
-0.783386
-0.783377
-0.783374
-0.134664
-0.134657
-0.13465
-0.134652
-0.134649
-0.134662
-1.56565
-1.56557
-1.56549
-1.5654
-1.56533
-1.56528
-1.20542
-1.20539
-1.20537
-1.20534
-1.20534
-1.20532
-0.0588768
-0.0588759
-0.0588535
-0.0588826
-0.0588564
-0.058913
-2.27796
-2.27784
-2.27772
-2.27762
-2.27756
-2.27754
-2.00161
-2.00156
-2.00157
-2.00146
-2.00153
-2.00139
0.151645
0.151637
0.151712
0.151602
0.151732
0.151509
-3.4497
-3.44957
-3.44949
-3.44941
-3.4494
-3.4494
-3.6109
-3.61077
-3.61099
-3.61048
-3.61095
-3.60995
0.623372
0.623364
0.623597
0.623375
0.623927
0.622947
-5.94877
-5.94867
-5.94878
-5.94866
-5.94879
-5.94901
-6.87964
-6.87937
-6.88023
-6.87863
-6.88118
-6.87564
0.915783
0.915833
0.916215
0.916335
0.91801
0.914949
)
;

boundaryField
{
    seabed_topleft_surface
    {
        type            fixedFluxPressure;
        gradient        uniform 0;
        value           nonuniform List<scalar> 
72
(
25457.5
25457.5
25457.5
25457.5
25457.5
25457.5
24234.4
24234.5
24234.5
24234.5
24234.5
24234.5
21612.1
21612.1
21612.1
21612.1
21612.1
21612.1
19549.9
19549.9
19549.9
19549.9
19549.9
19549.9
18290.4
18290.4
18290.4
18290.3
18290.3
18290.3
17309
17309
17309
17309
17309
17309
16278.8
16278.8
16278.7
16278.7
16278.7
16278.7
15402
15402
15402
15402
15402
15402
15426.8
15426.7
15426.8
15426.8
15426.7
15426.8
18210.1
18210
18210
18210
18210
18210.1
22960.7
22960.6
22960.7
22960.7
22960.7
22960.7
29620.4
29620.4
29620.4
29620.4
29620.4
29620.3
)
;
    }
    seabed_topright_surface
    {
        type            fixedFluxPressure;
        gradient        uniform 0;
        value           nonuniform List<scalar> 
72
(
-0.549282
-0.549294
-0.549272
-0.549242
-0.549213
-0.549194
-0.576182
-0.576151
-0.576115
-0.576081
-0.576055
-0.576037
-0.63099
-0.630928
-0.630894
-0.630876
-0.630869
-0.630871
-0.715874
-0.715812
-0.715794
-0.715796
-0.715809
-0.71583
-0.833748
-0.833708
-0.833702
-0.833706
-0.833719
-0.83374
-0.988011
-0.987993
-0.987975
-0.987956
-0.987941
-0.987939
-1.18173
-1.18172
-1.18167
-1.18162
-1.18158
-1.18155
-1.41603
-1.41601
-1.41596
-1.41591
-1.41588
-1.41587
-1.68702
-1.68701
-1.68702
-1.68706
-1.68712
-1.68717
-1.98289
-1.98293
-1.98304
-1.98318
-1.98334
-1.98346
-2.26768
-2.26779
-2.26794
-2.26808
-2.26822
-2.26833
-2.49839
-2.49843
-2.49841
-2.49837
-2.49832
-2.49828
)
;
    }
    breakwater_top_surface
    {
        type            fixedFluxPressure;
        gradient        uniform 0;
        value           nonuniform List<scalar> 
36
(
-9.8734
-9.87305
-9.87333
-9.87268
-9.87287
-9.87401
-12.5166
-12.5153
-12.5162
-12.515
-12.5097
-12.5255
-19.5942
-19.592
-19.5941
-19.5901
-19.5794
-19.6111
-9.50367
-9.50465
-9.50508
-9.50752
-9.48993
-9.53334
721.141
721.305
720.742
721.724
725.408
716.354
7121.53
7120.84
7120.61
7122.22
7125.55
7116.81
)
;
    }
    breakwater_left_surface
    {
        type            fixedFluxPressure;
        gradient        uniform 0;
        value           nonuniform List<scalar> 
24
(
29620.4
29620.4
29620.4
29620.4
29620.4
29620.3
30476.6
30476.4
30476.4
30476.4
30476.2
30476.3
21961
21960.3
21960.5
21960.3
21959.5
21961.5
22915.6
22913.9
22914.7
22914.8
22913.8
22916
)
;
    }
    breakwater_right_surface
    {
        type            fixedFluxPressure;
        gradient        uniform 0;
        value           nonuniform List<scalar> 
24
(
-2.49839
-2.49843
-2.49841
-2.49837
-2.49832
-2.49828
-2.7127
-2.71264
-2.71245
-2.71222
-2.712
-2.71183
-3.20069
-3.20052
-3.20025
-3.19998
-3.19977
-3.1996
-4.02355
-4.0234
-4.0233
-4.0232
-4.02321
-4.02312
)
;
    }
    water_front_surface
    {
        type            fixedFluxPressure;
        gradient        uniform 0;
        value           nonuniform List<scalar> 
186
(
25457.5
24234.4
21612.1
19549.9
18290.4
17309
16278.8
15402
15426.8
18210.1
22960.7
29620.4
24088.6
18573.7
16028.4
14990.4
14064
12687
10342.4
7374.82
3576.24
4216.15
11867.6
30476.6
10020.4
2026.75
794.299
249.368
-61.8669
-53.6881
-41.3609
-32.126
34.4612
219.333
829.968
21961
-7.56007
-10.555
-10.6845
-17.5348
-18.2169
-15.3153
-27.3031
-53.7866
-58.3017
-28.9118
-26.1566
22915.6
-0.549282
-0.576182
-0.63099
-0.715874
-0.833748
-0.988011
-1.18173
-1.41603
-1.68702
-1.98289
-2.26768
-2.49839
-0.523037
-0.550084
-0.60545
-0.691811
-0.812763
-0.972265
-1.17523
-1.42657
-1.7267
-2.06782
-2.4108
-2.7127
-0.471197
-0.497216
-0.550817
-0.635411
-0.756223
-0.920686
-1.13799
-1.41711
-1.76499
-2.18677
-2.6653
-3.20069
-0.395646
-0.419091
-0.467734
-0.545493
-0.658774
-0.817079
-1.03433
-1.33367
-1.74549
-2.31719
-3.04612
-4.02355
-5.25195
-6.13435
-6.51838
-6.38153
-5.45736
-7.24893
-11.4804
-8.76985
-5.74239
-16.4873
-10.9083
-8.97342
-21.439
-11.8294
-8.78879
-24.1676
-14.093
-9.76775
-24.2267
-15.5543
-8.33117
-34.2722
-19.6567
-6.1888
-44.3461
-23.5385
-0.554481
-40.447
-1.39883
5.11147
-35.9238
13.7715
8.2233
11176
-81.9019
-15.9135
-9.8734
-14.4132
2.55914
-12.5166
-21.6884
3.68328
-19.5942
-29.8605
21.6748
-9.50367
318.891
465.942
721.141
2685.36
411.326
7121.53
2623.95
-107.085
-0.299548
-0.187116
-0.064508
-0.318103
-0.198902
-0.0685283
-0.35683
-0.223533
-0.0767567
-0.419517
-0.263596
-0.0894917
-0.512846
-0.323991
-0.106483
-0.648328
-0.414267
-0.126287
-0.845046
-0.553478
-0.141328
-1.13456
-0.78344
-0.134664
-1.56565
-1.20542
-0.0588768
-2.27796
-2.00161
0.151645
-3.4497
-3.6109
0.623372
-5.94877
-6.87964
0.915783
)
;
    }
    water_back_surface
    {
        type            fixedFluxPressure;
        gradient        uniform 0;
        value           nonuniform List<scalar> 
186
(
25457.5
24234.5
21612.1
19549.9
18290.3
17309
16278.7
15402
15426.8
18210.1
22960.7
29620.3
24088.6
18573.7
16028.4
14990.4
14063.9
12686.8
10342.1
7374.56
3576.12
4216.03
11867.1
30476.3
10020.5
2026.73
794.293
249.318
-61.8711
-53.6921
-41.3672
-32.1246
34.4583
219.306
829.93
21961.5
-7.55979
-10.5544
-10.6842
-17.537
-18.2232
-15.3128
-27.3093
-53.785
-58.2953
-28.9115
-26.176
22916
-0.549194
-0.576037
-0.630871
-0.71583
-0.83374
-0.987939
-1.18155
-1.41587
-1.68717
-1.98346
-2.26833
-2.49828
-0.52293
-0.549958
-0.605397
-0.69185
-0.81283
-0.972285
-1.17523
-1.42673
-1.72716
-2.0683
-2.41067
-2.71183
-0.471114
-0.497136
-0.550815
-0.635489
-0.756334
-0.920804
-1.13817
-1.41748
-1.7654
-2.18656
-2.66409
-3.1996
-0.395595
-0.419047
-0.467746
-0.545565
-0.658904
-0.817275
-1.03461
-1.33395
-1.74541
-2.31643
-3.04464
-4.02312
-5.25115
-6.13427
-6.51887
-6.38085
-5.45717
-7.2492
-11.48
-8.76991
-5.74261
-16.488
-10.9086
-8.97361
-21.4406
-11.8297
-8.78877
-24.1667
-14.0931
-9.7676
-24.2266
-15.5541
-8.33103
-34.2665
-19.6562
-6.18881
-44.3361
-23.5389
-0.555606
-40.4393
-1.40254
5.11158
-35.9392
13.7659
8.22088
11178
-82.0209
-15.8994
-9.87401
-14.3893
2.54149
-12.5255
-21.6581
3.68024
-19.6111
-29.8434
20.7815
-9.53334
315.998
464.461
716.354
2679.38
411.889
7116.81
2624.03
-107.038
-0.299517
-0.187093
-0.0644953
-0.318072
-0.198868
-0.0685068
-0.356824
-0.223496
-0.0767275
-0.419545
-0.263569
-0.0894651
-0.512921
-0.323987
-0.106466
-0.64843
-0.414266
-0.126269
-0.845102
-0.553445
-0.141311
-1.13443
-0.783374
-0.134662
-1.56528
-1.20532
-0.058913
-2.27754
-2.00139
0.151509
-3.4494
-3.60995
0.622947
-5.94901
-6.87564
0.914949
)
;
    }
    water_left_surface
    {
        type            fixedFluxPressure;
        gradient        uniform 0;
        value           nonuniform List<scalar> 
42
(
25457.5
25457.5
25457.5
25457.5
25457.5
25457.5
24088.6
24088.6
24088.6
24088.6
24088.6
24088.6
10020.4
10020.3
10020.3
10020.4
10020.5
10020.5
-7.56007
-7.55934
-7.5593
-7.55931
-7.55922
-7.55979
-5.25195
-5.25176
-5.25156
-5.25135
-5.25119
-5.25115
-6.13435
-6.13432
-6.13432
-6.13431
-6.13428
-6.13427
-6.51838
-6.5185
-6.51861
-6.51874
-6.51884
-6.51887
)
;
    }
    water_right_surface
    {
        type            fixedFluxPressure;
        gradient        uniform 0;
        value           nonuniform List<scalar> 
42
(
-0.549282
-0.549294
-0.549272
-0.549242
-0.549213
-0.549194
-0.523037
-0.523043
-0.523019
-0.522986
-0.522955
-0.52293
-0.471197
-0.471205
-0.471187
-0.471161
-0.471135
-0.471114
-0.395646
-0.395658
-0.395648
-0.395631
-0.395612
-0.395595
-0.299548
-0.29956
-0.299556
-0.299546
-0.299532
-0.299517
-0.187116
-0.187123
-0.187122
-0.187116
-0.187106
-0.187093
-0.064508
-0.0645095
-0.064509
-0.0645068
-0.0645023
-0.0644953
)
;
    }
    water_top_surface
    {
        type            totalPressure;
        rho             rho;
        psi             none;
        gamma           1;
        p0              uniform 0;
        value           nonuniform List<scalar> 
180
(
-6.41042
-6.41067
-6.41087
-6.411
-6.41126
-6.41111
-7.23459
-7.23501
-7.235
-7.23507
-7.2352
-7.23479
-3.61442
-3.61478
-3.61485
-3.61493
-3.61501
-3.61479
-5.8976
-5.89811
-5.8981
-5.89815
-5.89827
-5.89785
-4.42689
-4.42722
-4.42718
-4.42716
-4.42722
-4.42682
-5.40787
-5.4082
-5.40814
-5.40809
-5.40812
-5.40776
-5.22378
-5.22422
-5.22417
-5.22405
-5.22387
-5.22342
-3.96825
-3.9686
-3.96847
-3.96829
-3.96797
-3.96749
-1.58788
-1.58777
-1.58761
-1.58754
-1.5874
-1.58783
0
0
0
0
0
0
0
0
0
0
0
0
-5.68496
-5.66552
-5.66599
-5.66681
-5.71019
-5.61931
0
0
0
0
0
0
0
0
0
0
0
0
0
0
0
0
0
0
0
0
0
0
0
0
0
0
0
0
0
0
-3.32495
-3.31867
-3.323
-3.31456
-3.30705
-3.32721
-0.000158587
-0.000158585
-0.000158585
-0.000158586
-0.000158589
-0.000158591
-0.000178948
-0.000178942
-0.000178942
-0.000178944
-0.00017895
-0.000178958
-0.000224888
-0.000224874
-0.000224873
-0.000224881
-0.000224895
-0.000224916
-0.000308891
-0.000308868
-0.000308875
-0.000308899
-0.000308941
-0.000308999
-0.000452846
-0.000452841
-0.000452889
-0.000452966
-0.000453076
-0.000453219
-0.000694927
-0.00069506
-0.000695229
-0.00069543
-0.000695664
-0.000695925
-0.00107498
-0.00107548
-0.00107586
-0.00107621
-0.0010765
-0.00107671
-0.00165217
-0.00165313
-0.00165355
-0.00165371
-0.00165353
-0.00165294
-0.00223472
-0.00223535
-0.00223495
-0.00223421
-0.00223264
-0.00223069
-0.00262704
-0.00262608
-0.00262426
-0.0026231
-0.00262024
-0.00261952
-0.00138929
-0.00138767
-0.0013858
-0.00138667
-0.0013888
-0.00138193
-0.0107681
-0.0107803
-0.0107789
-0.0107821
-0.0109151
-0.0106445
)
;
    }
}


// ************************************************************************* //
