/*--------------------------------*- C++ -*----------------------------------*\
| =========                 |                                                 |
| \\      /  F ield         | OpenFOAM: The Open Source CFD Toolbox           |
|  \\    /   O peration     | Version:  v1612+                                |
|   \\  /    A nd           | Web:      www.OpenFOAM.com                      |
|    \\/     M anipulation  |                                                 |
\*---------------------------------------------------------------------------*/
FoamFile
{
    version     2.0;
    format      ascii;
    class       surfaceScalarField;
    location    "2.35";
    object      phi;
}
// * * * * * * * * * * * * * * * * * * * * * * * * * * * * * * * * * * * * * //

dimensions      [0 3 -1 0 0 0 0];

internalField   nonuniform List<scalar> 
2916
(
-7.67327e-06
0.648204
-0.648196
-3.29983e-06
0.648206
-0.648211
-2.39609e-06
0.648206
-0.648207
-4.35987e-06
0.648207
-0.648205
-1.09937e-06
0.648208
-0.648211
0.648204
-0.648206
-8.97834e-06
1.31925
-0.671035
-4.34816e-06
1.31925
-0.671053
-4.48123e-06
1.31926
-0.671049
-4.05985e-06
1.31925
-0.671048
3.0851e-06
1.31926
-0.671054
1.31925
-0.671043
-6.11573e-06
1.75304
-0.433784
-3.35631e-06
1.75305
-0.433797
-4.91962e-06
1.75305
-0.433793
-4.99566e-06
1.75305
-0.433794
1.56449e-06
1.75305
-0.4338
1.75304
-0.433787
-4.79014e-06
2.05716
-0.304113
-4.68835e-06
2.05717
-0.30412
-7.56421e-06
2.05717
-0.304116
-7.23776e-06
2.05717
-0.304119
-1.58825e-07
2.05717
-0.304126
2.05715
-0.304114
-6.8667e-06
2.2929
-0.235739
-7.2181e-06
2.29292
-0.235746
-9.90499e-06
2.29291
-0.235743
-8.38839e-06
2.29291
-0.235747
-8.17406e-07
2.29291
-0.235754
2.29289
-0.235742
-1.10697e-05
2.4957
-0.202788
-9.94564e-06
2.49571
-0.202798
-1.13958e-05
2.49571
-0.202795
-9.49618e-06
2.49571
-0.202799
-1.7423e-06
2.49571
-0.202807
2.49569
-0.202796
-1.05001e-05
2.67993
-0.184216
-7.50026e-06
2.67994
-0.184229
-7.59438e-06
2.67994
-0.184226
-6.31465e-06
2.67994
-0.184229
6.33201e-07
2.67994
-0.184236
2.67992
-0.184227
-2.93738e-06
2.84834
-0.168414
2.1902e-06
2.84836
-0.168431
2.40849e-06
2.84836
-0.168425
3.11402e-06
2.84836
-0.168426
7.44454e-06
2.84837
-0.168432
2.84834
-0.168419
4.9227e-07
2.75092
0.0974194
1.07351e-05
2.75096
0.0973945
1.10167e-05
2.75096
0.0974035
1.00817e-05
2.75096
0.0974079
1.32446e-05
2.75096
0.0974022
2.75092
0.0974326
5.89753e-08
2.07512
0.675799
8.76686e-06
2.07517
0.67578
1.16734e-05
2.07517
0.675788
1.14996e-05
2.07516
0.675793
8.93468e-06
2.07518
0.675789
2.07512
0.675808
4.38579e-06
0.890644
1.18448
8.87636e-07
0.890696
1.18448
5.67698e-06
0.890686
1.18448
4.70056e-06
0.890685
1.18448
-3.32865e-06
0.890711
1.18448
0.890642
1.18448
-4.00687e-05
0.890684
-2.04592e-05
0.890677
-1.38296e-05
0.890679
-9.73164e-06
0.890681
7.39314e-06
0.890693
0.890649
-5.93548e-06
0.699289
-1.34748
-6.05121e-06
0.699286
-1.3475
-5.09739e-06
0.699289
-1.3475
-1.35325e-05
0.699292
-1.34749
-1.74687e-05
0.699291
-1.3475
0.69928
-1.3475
7.43688e-06
1.46336
-1.43511
-7.24293e-06
1.46337
-1.43512
-9.42391e-06
1.46337
-1.43513
-1.04203e-05
1.46337
-1.43513
-1.24764e-05
1.46338
-1.43514
1.46336
-1.43514
1.29381e-05
1.88844
-0.858875
-5.578e-06
1.88846
-0.858871
-1.13341e-05
1.88846
-0.858874
-1.24079e-05
1.88846
-0.858878
-2.19397e-05
1.88847
-0.858882
1.88844
-0.858889
1.88621e-05
2.22302
-0.638716
1.10238e-07
2.22306
-0.638697
-7.71692e-06
2.22305
-0.6387
-1.05337e-05
2.22305
-0.638708
-2.33042e-05
2.22306
-0.63871
2.22303
-0.638725
2.18081e-05
2.45783
-0.470567
6.88626e-06
2.45788
-0.470552
1.11252e-06
2.45787
-0.470555
-3.18095e-06
2.45787
-0.470563
-1.70455e-05
2.45789
-0.470563
2.45785
-0.470578
2.36068e-05
2.7781
-0.523085
1.42314e-05
2.77818
-0.523085
1.19602e-05
2.77816
-0.523086
7.37194e-06
2.77817
-0.52309
-6.13087e-06
2.77818
-0.523089
2.77815
-0.523101
2.9296e-05
3.23684
-0.642983
2.18351e-05
3.23695
-0.642995
2.24018e-05
3.23693
-0.642993
1.89361e-05
3.23693
-0.642992
4.73538e-06
3.23695
-0.642992
3.23691
-0.642983
3.41613e-05
3.77036
-0.701968
1.78387e-05
3.77051
-0.701972
1.3485e-05
3.77047
-0.701964
1.11849e-05
3.77047
-0.701964
-2.42719e-06
3.7705
-0.701964
3.77043
-0.701944
4.78266e-05
3.99028
-0.122546
2.0799e-05
3.99043
-0.122502
3.74363e-06
3.99038
-0.122488
-9.54126e-07
3.99038
-0.122492
-1.43671e-05
3.9904
-0.122487
3.99033
-0.12248
2.68773e-05
3.42661
1.23944
1.57287e-05
3.42674
1.23948
-9.45198e-07
3.42669
1.23949
-9.18548e-06
3.42669
1.23949
-6.61198e-06
3.4267
1.23948
3.42664
1.23949
9.77711e-06
1.55789
3.05318
7.90819e-06
1.55801
3.05322
8.86368e-06
1.55797
3.0532
4.73363e-06
1.55797
3.0532
1.09386e-05
1.55796
3.05322
1.55793
3.05319
-4.03624e-05
2.44862
-6.39019e-06
2.44865
2.83894e-06
2.44864
1.61975e-05
2.44863
3.9233e-05
2.44863
2.44862
5.10625e-06
0.422657
-1.77014
-8.09507e-06
0.422651
-1.77013
-1.9024e-06
0.422658
-1.77016
-4.64456e-06
0.422654
-1.77014
-2.44958e-05
0.422649
-1.77013
0.422664
-1.77019
7.53078e-06
1.46344
-2.4759
-2.77767e-05
1.46343
-2.47587
-1.37957e-05
1.46342
-2.4759
-1.06435e-05
1.46343
-2.4759
-4.05465e-05
1.46345
-2.4759
1.46341
-2.47592
1.08798e-05
2.08536
-1.48081
7.74791e-06
2.08533
-1.48077
2.68019e-05
2.08532
-1.48079
4.2613e-05
2.08533
-1.4808
2.14897e-05
2.08536
-1.48077
2.08538
-1.48084
0.000101816
2.92724
-1.48071
0.000100095
2.92727
-1.48063
9.84974e-05
2.92727
-1.48065
7.58808e-05
2.9273
-1.48066
3.28069e-05
2.92733
-1.48064
2.92739
-1.4807
0.00014009
4.41871
-1.96217
0.000215078
4.41884
-1.96219
0.000208742
4.41891
-1.96219
0.000164522
4.41897
-1.96219
9.02784e-05
4.419
-1.96216
4.41907
-1.96217
9.81178e-05
6.93295
-3.03742
0.000258195
6.93308
-3.0375
0.000299709
6.9332
-3.03742
0.000274221
6.93327
-3.03736
0.000250468
6.93327
-3.03733
6.93344
-3.03722
0.000103746
9.12228
-2.83243
0.000235409
9.12246
-2.83251
0.000312224
9.12254
-2.83241
0.000306541
9.12256
-2.83228
0.000309458
9.12249
-2.83222
9.12266
-2.8319
0.000116772
9.80227
-1.38207
0.000137176
9.80248
-1.38201
0.000112509
9.80248
-1.38188
6.4314e-05
9.8024
-1.38175
-0.000116906
9.80247
-1.38176
9.80212
-1.38152
-0.000138817
7.44772
2.23214
-0.000315379
7.4479
2.23225
-0.000438901
7.44784
2.23228
-0.000454268
7.4477
2.23223
-0.000465685
7.4479
2.23209
7.44725
2.23192
-8.21059e-05
3.30722
5.38003
-9.67419e-05
3.30751
5.37989
-0.000137922
3.30743
5.37995
-0.000182746
3.30736
5.37987
6.97242e-05
3.3075
5.37963
3.30716
5.37966
-0.000139106
0.879019
5.48152
-3.04455e-05
0.879166
5.48145
-3.16535e-05
0.879139
5.48148
-6.25234e-05
0.87912
5.48148
0.000163901
0.87913
5.48136
0.879048
5.48146
-5.65359e-05
3.32769
-1.98109e-06
3.32776
3.56753e-05
3.32774
6.8804e-05
3.32772
5.42589e-05
3.32777
3.32773
-3.11532e-05
0.366058
-2.13617
-1.47691e-05
0.366051
-2.13619
2.79676e-05
0.366059
-2.13626
7.07219e-05
0.366029
-2.13621
7.87951e-05
0.366015
-2.13615
0.366119
-2.13623
-9.77741e-05
0.881393
-2.99114
-5.67181e-05
0.881304
-2.99117
-3.24246e-06
0.881268
-2.99117
-1.25443e-05
0.881292
-2.99116
-3.90476e-05
0.881317
-2.99118
0.881275
-2.99112
-6.20993e-05
0.97085
-1.5702
2.95415e-05
0.970656
-1.57021
7.23717e-05
0.970649
-1.57022
0.000102507
0.970679
-1.57021
0.000145395
0.970718
-1.57022
0.970797
-1.57022
8.73849e-05
0.771668
-1.28161
0.000181923
0.771592
-1.28167
0.000181835
0.771646
-1.28165
0.000147948
0.771698
-1.28165
0.000131633
0.771734
-1.28165
0.771817
-1.28159
0.000105661
-0.0287254
-1.16189
0.000254765
-0.0287507
-1.16201
0.000269091
-0.0285898
-1.16197
0.000217163
-0.0285046
-1.16194
0.00018851
-0.0284831
-1.16191
-0.028355
-1.16181
-0.000194843
-1.01251
-2.05344
-0.000163756
-1.01267
-2.0536
-0.000130916
-1.01249
-2.05355
-5.20181e-05
-1.01244
-2.0535
0.000122084
-1.0125
-2.05349
-1.01217
-2.05328
-0.000308317
-1.09892
-2.74571
-0.000458879
-1.09912
-2.74591
-0.000528934
-1.09899
-2.74584
-0.000470213
-1.09902
-2.74575
-0.000221919
-1.09922
-2.74574
-1.0989
-2.74539
-0.000190306
0.526494
-3.0073
-0.000416962
0.526556
-3.00746
-0.000758197
0.526778
-3.00731
-0.000904423
0.526554
-3.00719
-0.00130666
0.526471
-3.00705
0.525332
-3.00707
-1.93666e-06
2.16127
0.597376
-0.000278817
2.16182
0.59726
-0.000445158
2.16177
0.597452
-0.000519064
2.16151
0.597342
-0.00119748
2.16169
0.597544
2.15988
0.596166
0.000163584
1.87093
5.6702
-0.00018373
1.87161
5.67045
-0.000198311
1.87139
5.67034
-0.000156541
1.8713
5.67004
-0.000422186
1.8715
5.67009
1.87058
5.66854
0.000205602
1.13551
6.21674
3.32105e-05
1.13588
6.21735
5.91754e-06
1.13577
6.21714
6.6807e-05
1.1357
6.21701
0.000191654
1.13584
6.21689
1.13553
6.21671
-2.32797e-05
4.46322
2.49072e-05
4.4636
7.19504e-05
4.46346
3.99054e-05
4.46345
-5.53236e-05
4.4637
4.4632
1.04331e-06
0.00193389
-0.00193494
-3.19538e-07
0.00193352
-0.00193517
-9.13186e-07
0.00193336
-0.00193525
-1.01741e-06
0.00193322
-0.00193534
-7.66874e-07
0.00193311
-0.00193541
0.0019329
-0.00193556
-1.54282e-07
0.00394172
-0.00200994
-9.86648e-07
0.00394136
-0.00200985
-1.36174e-06
0.00394121
-0.00200983
-1.44656e-06
0.00394108
-0.00200988
-1.29756e-06
0.00394097
-0.00200994
0.00394079
-0.00201006
-8.27685e-07
0.00609168
-0.00215044
-1.14169e-06
0.00609123
-0.00214941
-1.512e-06
0.00609087
-0.00214907
-1.61853e-06
0.00609047
-0.00214899
-1.28866e-06
0.00609002
-0.00214903
0.00608948
-0.00214914
-8.40933e-07
0.00844976
-0.00235707
-1.38245e-06
0.00844855
-0.00235425
-2.29668e-06
0.00844732
-0.00235335
-2.64473e-06
0.00844601
-0.00235313
-1.94978e-06
0.00844459
-0.00235329
0.00844299
-0.0023538
-1.11693e-06
0.0111027
-0.00265043
-3.37246e-06
0.0110989
-0.00264489
-5.65055e-06
0.0110955
-0.00264327
-6.39698e-06
0.0110922
-0.00264308
-4.70587e-06
0.0110889
-0.00264379
0.0110852
-0.00264551
-4.47231e-06
0.0141536
-0.00304484
-1.04613e-05
0.0141448
-0.00303793
-1.44614e-05
0.0141376
-0.00303649
-1.50666e-05
0.0141313
-0.00303705
-1.09015e-05
0.0141251
-0.00303919
0.014118
-0.00304338
-1.48883e-05
0.0175841
-0.0034146
-2.56479e-05
0.0175669
-0.00341121
-3.04043e-05
0.017555
-0.00341266
-2.9114e-05
0.0175458
-0.00341596
-2.03307e-05
0.0175373
-0.00342122
0.0175267
-0.00342951
-3.19919e-05
0.0210604
-0.00344436
-4.51215e-05
0.0210329
-0.00345429
-4.6842e-05
0.0210184
-0.0034629
-4.08423e-05
0.0210097
-0.003471
-2.69299e-05
0.0210023
-0.00347992
0.0209904
-0.00349157
-4.41382e-05
0.0237887
-0.00268484
-5.13702e-05
0.0237531
-0.00271486
-4.44354e-05
0.0237404
-0.00273063
-3.22091e-05
0.0237368
-0.00274074
-1.79115e-05
0.0237349
-0.00274817
0.0237269
-0.00275529
-2.99137e-05
0.0233073
0.000510318
-2.2231e-05
0.0232663
0.000477382
-6.30794e-06
0.023256
0.000466991
7.03252e-06
0.0232563
0.000465808
1.12145e-05
0.0232589
0.000470474
0.0232576
0.000479769
4.81821e-06
0.0183078
0.00499386
2.2525e-05
0.0182736
0.00497388
3.86028e-05
0.0182634
0.00497577
4.63369e-05
0.0182608
0.0049869
3.80383e-05
0.0182613
0.00500488
0.0182635
0.00503184
2.84225e-05
0.0182787
2.88983e-05
0.0182724
2.23879e-05
0.0182694
1.60843e-05
0.0182668
1.01831e-05
0.0182669
0.0182741
2.93727e-07
0.0019438
-0.00388123
-8.53571e-07
0.00194341
-0.0038814
-1.26914e-06
0.00194324
-0.00388139
-1.35492e-06
0.0019431
-0.00388138
-1.26243e-06
0.00194302
-0.00388134
0.0019429
-0.00388128
-8.19405e-07
0.00398177
-0.00405
-1.45985e-06
0.00398125
-0.00404979
-1.65184e-06
0.00398098
-0.00404963
-1.63464e-06
0.00398077
-0.00404956
-1.47351e-06
0.00398066
-0.00404951
0.00398056
-0.00404947
-1.77359e-06
0.00620319
-0.00437066
-2.01821e-06
0.00620223
-0.00436942
-2.05518e-06
0.00620154
-0.00436889
-1.81863e-06
0.00620094
-0.00436865
-1.21595e-06
0.00620042
-0.0043686
0.00619994
-0.00436871
-2.88784e-06
0.00867645
-0.00482574
-3.42068e-06
0.00867417
-0.00482256
-3.53776e-06
0.00867233
-0.00482135
-3.02567e-06
0.00867067
-0.0048209
-1.68654e-06
0.00866914
-0.00482103
0.0086676
-0.00482179
-5.51234e-06
0.0113693
-0.00533513
-7.46456e-06
0.0113638
-0.00532935
-7.85549e-06
0.0113595
-0.00532738
-6.83284e-06
0.0113558
-0.0053269
-4.08969e-06
0.0113524
-0.00532773
0.0113489
-0.00533017
-1.15873e-05
0.0140986
-0.00576054
-1.5903e-05
0.0140858
-0.0057542
-1.63056e-05
0.0140774
-0.00575282
-1.39991e-05
0.0140709
-0.00575351
-8.81667e-06
0.0140651
-0.00575637
0.0140587
-0.00576224
-2.21077e-05
0.0166997
-0.00599318
-2.76903e-05
0.0166736
-0.00599405
-2.59627e-05
0.0166596
-0.00599726
-2.07207e-05
0.0166509
-0.00600182
-1.26475e-05
0.0166439
-0.00600869
0.0166352
-0.00601942
-3.14931e-05
0.0189608
-0.00567488
-3.24353e-05
0.0189141
-0.00569568
-2.39036e-05
0.0188951
-0.00570841
-1.41114e-05
0.0188873
-0.00571859
-6.22033e-06
0.0188835
-0.00572874
0.0188777
-0.00574101
-2.54059e-05
0.0205629
-0.00426319
-1.02314e-05
0.0204906
-0.00430821
1.06482e-05
0.0204698
-0.00432766
2.43002e-05
0.0204687
-0.00433708
2.27341e-05
0.0204765
-0.00434083
0.0204856
-0.00434073
4.67127e-06
0.0204889
0.000578221
4.25943e-05
0.0204099
0.000519016
7.65272e-05
0.020394
0.000508007
8.98143e-05
0.0204028
0.000517798
6.97676e-05
0.0204246
0.000541751
0.020456
0.000579441
6.05036e-05
0.0171687
0.00825259
9.59947e-05
0.017104
0.00824368
0.000111997
0.0170938
0.00825967
0.00010818
0.0171053
0.00828826
7.64464e-05
0.0171331
0.00832828
0.0171798
0.00838524
5.18853e-05
0.0353951
3.13713e-05
0.0353969
-1.40361e-06
0.0353958
-2.53137e-05
0.035396
-2.89742e-05
0.0354044
0.0354252
-1.0601e-07
0.00186791
-0.00575094
-9.15778e-07
0.00186766
-0.00575104
-1.18729e-06
0.00186757
-0.00575098
-1.21107e-06
0.00186751
-0.00575091
-1.08177e-06
0.0018675
-0.00575081
0.00186752
-0.00575071
-8.6913e-07
0.00385138
-0.00603469
-1.28632e-06
0.00385107
-0.00603447
-1.37447e-06
0.00385093
-0.00603428
-1.28977e-06
0.00385084
-0.00603415
-1.08988e-06
0.00385084
-0.00603406
0.00385096
-0.00603398
-1.46613e-06
0.00606678
-0.00658476
-1.65194e-06
0.0060662
-0.00658366
-1.59341e-06
0.00606577
-0.00658317
-1.27645e-06
0.0060654
-0.00658293
-7.37852e-07
0.00606517
-0.00658289
0.00606513
-0.00658301
-2.36845e-06
0.0086489
-0.00740403
-2.82836e-06
0.00864739
-0.00740133
-2.69766e-06
0.00864617
-0.00740028
-2.01667e-06
0.00864513
-0.00739989
-9.01791e-07
0.00864435
-0.00740009
0.00864382
-0.00740091
-4.65416e-06
0.0118492
-0.00852889
-5.8806e-06
0.0118451
-0.00852428
-5.51042e-06
0.0118423
-0.00852269
-4.10866e-06
0.0118401
-0.00852239
-1.99002e-06
0.0118386
-0.00852342
0.0118376
-0.0085261
-9.43814e-06
0.0161384
-0.0100394
-1.10815e-05
0.0161283
-0.0100358
-9.47226e-06
0.016123
-0.0100353
-6.48822e-06
0.0161199
-0.0100365
-3.03778e-06
0.0161183
-0.0100398
0.0161178
-0.0100461
-1.55591e-05
0.0218499
-0.0116895
-1.47252e-05
0.0218286
-0.0116963
-9.19091e-06
0.021821
-0.0117017
-3.40889e-06
0.021819
-0.0117077
1.63507e-07
0.0218206
-0.0117155
0.0218244
-0.0117265
-1.53639e-05
0.0288209
-0.0126316
-3.75364e-06
0.0287834
-0.0126632
1.12813e-05
0.0287767
-0.0126801
2.08104e-05
0.0287827
-0.0126925
1.89765e-05
0.0287964
-0.0127032
0.0288154
-0.012713
8.05139e-06
0.036466
-0.0119174
4.11483e-05
0.0364171
-0.0119752
6.87877e-05
0.0364189
-0.0119975
7.82894e-05
0.0364419
-0.0120056
5.97256e-05
0.0364785
-0.0120041
0.0365272
-0.0119919
6.31066e-05
0.0410394
-0.0040587
0.000110959
0.0409902
-0.00410124
0.000135546
0.0410055
-0.0041024
0.000131395
0.0410501
-0.00408504
9.00695e-05
0.041116
-0.00405298
0.0412031
-0.00400511
8.04873e-05
0.0393734
0.00983829
0.000105883
0.0393506
0.00985916
0.000104549
0.0393743
0.0098932
8.37785e-05
0.0394219
0.00993837
4.67746e-05
0.0394897
0.00999337
0.039576
0.0100599
-1.62069e-05
0.0747854
-7.10024e-05
0.0748036
-0.000120066
0.0748202
-0.000136769
0.0748355
-0.000110525
0.0748688
0.0748906
-4.25028e-07
0.00169343
-0.00744533
-8.15503e-07
0.00169326
-0.00744541
-8.97625e-07
0.00169322
-0.0074453
-8.35585e-07
0.00169321
-0.00744521
-6.8987e-07
0.00169325
-0.00744511
0.00169331
-0.00744494
-8.17325e-07
0.00352617
-0.00786776
-9.70543e-07
0.00352589
-0.00786762
-9.13241e-07
0.00352579
-0.00786743
-7.5981e-07
0.00352577
-0.00786729
-5.75467e-07
0.00352584
-0.0078672
0.00352597
-0.00786706
-1.19945e-06
0.00565953
-0.00871675
-1.20951e-06
0.00565884
-0.00871613
-9.48619e-07
0.0056585
-0.00871578
-5.70314e-07
0.00565834
-0.00871557
-2.03653e-07
0.00565835
-0.00871552
0.00565846
-0.00871555
-1.90185e-06
0.00829146
-0.0100331
-1.91498e-06
0.00828977
-0.0100316
-1.29487e-06
0.00828898
-0.010031
-5.03509e-07
0.00828863
-0.0100307
1.24114e-07
0.00828858
-0.0100308
0.00828871
-0.0100313
-2.88412e-06
0.0115824
-0.0118162
-2.67141e-06
0.0115789
-0.0118139
-1.33467e-06
0.0115777
-0.0118131
6.15638e-08
0.0115774
-0.0118131
7.77002e-07
0.0115777
-0.0118138
0.0115781
-0.0118155
-2.87546e-06
0.0154316
-0.0138859
-9.52153e-07
0.015425
-0.013885
2.00728e-06
0.0154238
-0.0138855
4.13434e-06
0.0154248
-0.0138871
3.98681e-06
0.0154268
-0.0138899
0.0154291
-0.0138939
2.8391e-06
0.0199562
-0.0162179
1.01373e-05
0.0199447
-0.0162247
1.62392e-05
0.019945
-0.0162301
1.84093e-05
0.0199499
-0.0162359
1.41081e-05
0.0199573
-0.0162424
0.0199659
-0.0162494
2.07999e-05
0.0253951
-0.0180921
3.8938e-05
0.0253784
-0.0181151
4.91952e-05
0.0253838
-0.0181291
4.91625e-05
0.0253984
-0.0181406
3.49145e-05
0.0254188
-0.01815
0.0254443
-0.0181557
5.01252e-05
0.0321941
-0.0187666
7.93039e-05
0.0321801
-0.0188047
9.04382e-05
0.0321993
-0.0188226
8.37618e-05
0.0322331
-0.0188321
5.60479e-05
0.0322776
-0.0188335
0.0323334
-0.0188235
6.23107e-05
0.0399096
-0.0118356
8.79042e-05
0.0399186
-0.011863
8.99073e-05
0.0399596
-0.0118626
7.3146e-05
0.0400159
-0.011849
4.08093e-05
0.0400821
-0.0118228
0.0401549
-0.0117846
5.88258e-06
0.0392229
0.0105207
-1.15567e-05
0.0392531
0.0105445
-3.67473e-05
0.0393048
0.0105751
-5.55531e-05
0.0393668
0.0106082
-5.7625e-05
0.039429
0.0106503
0.0394786
0.0106795
-0.000113661
0.114123
-0.000188908
0.114132
-0.000230902
0.114168
-0.000202921
0.114175
-0.000151532
0.114246
0.114219
-5.59035e-05
-2.02852
-0.107596
-2.16587e-05
-2.02858
-0.107649
-2.00588e-05
-2.02862
-0.107646
2.16053e-05
-2.02859
-0.107661
9.97959e-05
-2.02858
-0.107654
-2.02859
-0.107544
1.34423e-05
-1.95869
-0.0698385
4.51642e-05
-1.95876
-0.069852
3.85143e-05
-1.95875
-0.0698596
3.7678e-05
-1.95872
-0.0698717
5.71544e-05
-1.95872
-0.0698767
-1.95867
-0.0698652
2.37731e-06
-0.017813
-1.5538e-05
-0.0178153
-2.79872e-05
-0.0178147
-3.25319e-05
-0.0178094
-2.91861e-05
-0.0178064
-0.0178168
-3.70361e-05
-2.39087
-0.707816
2.46062e-05
-2.39092
-0.707947
5.50743e-05
-2.39088
-0.707957
5.2754e-05
-2.39087
-0.707953
4.2434e-05
-2.39089
-0.707936
-2.39079
-0.707828
-3.82377e-05
-2.15608
-0.304598
-4.3916e-05
-2.15616
-0.304616
-3.25654e-05
-2.15613
-0.304625
-1.25514e-05
-2.15612
-0.304638
-5.14441e-06
-2.15614
-0.304641
-2.15604
-0.304616
2.16784e-05
-0.113534
1.14628e-05
-0.11353
5.44062e-06
-0.113533
6.70925e-07
-0.11353
-1.23733e-05
-0.113528
-0.113544
-2.17158e-05
-1.28199
-0.996001
-2.05525e-05
-1.28204
-0.996123
-3.49041e-05
-1.28202
-0.996142
-2.89939e-05
-1.28202
-0.996157
1.09823e-05
-1.28204
-0.99616
-1.28195
-0.99608
-3.19736e-06
-1.34576
-0.240821
-1.46746e-05
-1.34581
-0.240826
-1.65901e-05
-1.34579
-0.240845
-1.74365e-05
-1.34579
-0.240859
-2.31627e-05
-1.3458
-0.240866
-1.34573
-0.240865
1.28974e-05
3.81323e-05
1.09758e-05
4.53263e-05
1.10027e-05
4.33219e-05
8.20058e-06
4.44499e-05
-4.33289e-06
4.56802e-05
3.34014e-05
-2.08081e-05
-1.71124
-0.566349
-3.2214e-05
-1.71137
-0.566405
-4.4301e-05
-1.71135
-0.566438
-3.64697e-05
-1.71134
-0.566471
7.55897e-06
-1.71136
-0.566487
-1.7112
-0.566461
9.58184e-06
-1.8474
-0.104671
-2.39529e-05
-1.8475
-0.104661
-4.11766e-05
-1.8475
-0.104677
-5.06926e-05
-1.8475
-0.104688
-5.83142e-05
-1.84753
-0.104698
-1.84741
-0.104719
2.6355e-05
0.0228983
2.56775e-05
0.0229014
1.89008e-05
0.0229008
5.75999e-06
0.0229005
-1.85038e-05
0.0229002
0.0228966
-7.65458e-05
-1.53126
-0.196906
-8.30004e-05
-1.53142
-0.196989
-6.25924e-05
-1.53139
-0.197039
-3.29369e-05
-1.53136
-0.197077
2.34432e-05
-1.53137
-0.197085
-1.53119
-0.197056
9.81981e-06
-1.66833
0.032394
-3.94785e-05
-1.66843
0.0324021
-7.02791e-05
-1.66844
0.0323986
-7.48107e-05
-1.66844
0.0323933
-6.59082e-05
-1.66847
0.032386
-1.66836
0.0323863
1.57358e-05
-0.020179
1.0062e-05
-0.02018
3.07513e-06
-0.0201823
-7.13638e-06
-0.020184
-2.5729e-05
-0.0201854
-0.0201859
-0.000111858
-1.95987
-0.290367
-0.000142952
-1.96002
-0.290545
-0.000134878
-1.96002
-0.29058
-0.000102668
-1.96001
-0.290603
-3.5699e-05
-1.96002
-0.290615
-1.95985
-0.29052
2.44081e-05
-1.90064
-0.0268667
-9.46953e-06
-1.90072
-0.0268575
-3.1795e-05
-1.90072
-0.0268685
-4.54489e-05
-1.90073
-0.0268688
-4.86757e-05
-1.90075
-0.0268815
-1.90066
-0.0268528
-1.2355e-06
-0.129252
-1.18011e-05
-0.129255
-1.53535e-05
-0.129256
-1.62587e-05
-0.129258
-2.26368e-05
-0.129262
-0.129256
-0.000158212
-2.20195
-0.833973
-0.000166419
-2.20207
-0.834383
-0.000216186
-2.20205
-0.834323
-0.000200705
-2.20203
-0.834342
-0.000133128
-2.20202
-0.834403
-2.20184
-0.834209
-5.21698e-05
-1.82227
-0.406485
-9.18518e-05
-1.82233
-0.406546
-8.73929e-05
-1.82233
-0.406585
-6.95924e-05
-1.82232
-0.406584
-2.40669e-05
-1.82231
-0.406636
-1.82223
-0.406482
-1.30692e-05
-0.204107
-1.93846e-05
-0.204113
-2.09233e-05
-0.204115
-1.86108e-05
-0.204119
-6.7296e-06
-0.204137
-0.204103
-5.29061e-05
-2.41911
-1.42211
-8.71721e-05
-2.41924
-1.42256
-0.000200478
-2.41917
-1.42235
-0.000236414
-2.41912
-1.42238
-0.000386792
-2.4189
-1.4224
-2.41917
-1.42248
-3.56599e-05
-1.68917
-1.13639
-9.24967e-05
-1.68921
-1.13652
-7.90159e-05
-1.68921
-1.13655
-3.20753e-05
-1.6892
-1.13655
0.000152579
-1.68911
-1.13661
-1.68918
-1.13632
-4.31542e-05
-0.390829
-4.2982e-05
-0.390889
-4.9977e-05
-0.390903
-3.63199e-05
-0.390918
8.12701e-05
-0.390959
-0.390831
0.000572997
-1.11052
0.285203
0.000236598
-1.11058
0.285621
0.000153124
-1.11034
0.285519
4.20175e-06
-1.11034
0.285457
-0.000725684
-1.10954
0.285421
-1.11201
0.284971
0.000481559
-1.0538
-1.19358
0.000269268
-1.05372
-1.19318
0.000344625
-1.05368
-1.19329
0.000341762
-1.05364
-1.19325
0.000544859
-1.05317
-1.19319
-1.05434
-1.19345
-0.00014043
-0.544528
-0.000128408
-0.544715
-0.000118394
-0.544724
-2.96575e-05
-0.544773
0.00038323
-0.54468
-0.54476
0.000947508
4.08736
1.86709
0.000216079
4.08834
1.86847
6.34927e-05
4.08814
1.86787
-0.000104936
4.08781
1.86785
-0.000894797
4.0884
1.8679
4.08516
1.86746
0.000811783
2.30183
0.591139
0.000811394
2.30298
0.592181
0.000979645
2.30297
0.591707
0.000818176
2.3028
0.591923
0.000359434
2.30332
0.592357
2.30091
0.591158
1.49484e-05
0.439255
0.000291298
0.439234
0.000485147
0.439208
0.000517219
0.439221
0.000576145
0.439476
0.438727
0.00164995
5.69499
2.38719
0.000878807
5.69715
2.38943
0.000697957
5.69675
2.38843
0.000326632
5.69632
2.38892
0.000245559
5.69399
2.39088
5.69853
2.38588
0.0014749
3.81438
2.47027
0.00171678
3.81722
2.47187
0.00165156
3.81743
2.47109
0.00115776
3.81717
2.47156
0.00276512
3.81293
2.47181
3.8215
2.47095
-0.000330232
2.03434
0.000218085
2.03421
0.000429737
2.03432
0.000352511
2.03436
0.000826829
2.03342
2.03512
0.000392273
2.61354
4.23648
0.000324569
2.61613
4.23697
0.000183761
2.6152
4.23684
0.000314983
2.61533
4.23691
0.000338073
2.61578
4.23878
2.61479
4.23463
0.00150949
0.727466
4.35483
0.00123101
0.732595
4.35568
0.000493988
0.731596
4.35543
0.000561052
0.731655
4.35517
0.00482818
0.72617
4.35715
0.737081
4.35348
-0.000695817
4.4806
0.000154629
4.48084
5.79963e-05
4.48097
0.000393801
4.48077
0.00062914
4.4813
4.48032
-4.32439e-05
-0.171609
0.651718
-0.480066
-4.51622e-05
-0.1716
0.651646
-0.480045
-9.02513e-05
-0.171586
0.651732
-0.480101
-2.17753e-05
-0.171615
0.651556
-0.48001
-3.63532e-05
-0.171477
0.651605
-0.480113
-0.17177
0.651786
-0.480051
0.00012425
-0.344932
0.546559
-0.37336
5.15983e-05
-0.344839
0.546761
-0.37345
0.000129704
-0.345004
0.546899
-0.37356
0.000133564
-0.344737
0.546434
-0.373317
-0.00223741
-0.343499
0.548934
-0.374541
-0.346271
0.544515
-0.372251
-0.000146322
-0.959892
0.58759
-7.59323e-05
-0.960257
0.587646
-0.000629258
-0.959616
0.587706
-3.10317e-05
-0.960966
0.587733
0.00358844
-0.966368
0.5886
-0.953837
0.586718
-3.6113e-05
-0.363532
1.01528
-4.15712e-05
-0.363556
1.01521
-0.000110421
-0.363484
1.01528
-4.34783e-05
-0.363629
1.01512
0.000115389
-0.363845
1.01529
-0.363277
1.01518
0.00041542
0.300583
-0.117972
0.000175148
0.301034
-0.117591
0.000644551
0.300452
-0.117509
0.000373639
0.301328
-0.118255
-0.00561661
0.3073
-0.116223
0.293878
-0.118257
0.000190138
-2.36559
0.000131571
-2.36644
6.46658e-05
-2.36498
6.42951e-05
-2.36766
-0.000704365
-2.38167
-2.34953
-0.000150536
-0.154964
1.1704
-0.000121802
-0.155334
1.17051
-0.000462254
-0.155168
1.1708
-0.000168936
-0.155182
1.17001
0.000907348
-0.156242
1.17046
-0.155194
1.17128
0.000212208
2.0783
-2.35145
1.22857e-05
2.07848
-2.35121
0.000233926
2.07809
-2.35099
3.84853e-05
2.07872
-2.35196
-0.00382739
2.08417
-2.35277
2.071
-2.34827
0.000517046
-4.81439
0.000264834
-4.81523
0.00135263
-4.81423
0.000175898
-4.81577
-0.0110765
-4.82895
-4.79939
-0.00012603
0.898143
0.272382
-8.08683e-05
0.898048
0.272412
-0.000544487
0.898162
0.273095
4.69252e-05
0.897972
0.271443
0.00305494
0.898096
0.269356
0.898195
0.276135
-0.000176502
3.43406
-4.88719
-0.000160075
3.43417
-4.88734
-0.000157877
3.43408
-4.88691
-0.00028326
3.43417
-4.88803
-0.000474727
3.43708
-4.89156
3.43131
-4.88186
0.000236249
-6.34374
6.05948e-05
-6.3443
0.000852647
-6.34417
0.000147593
-6.34433
-0.0071239
-6.35102
-6.3363
-9.39865e-05
2.15334
-1.88086
-7.63989e-05
2.15339
-1.881
0.000231495
2.15325
-1.88046
-0.000292845
2.1534
-1.88143
-0.00109354
2.15546
-1.88531
2.15129
-1.87624
-7.89033e-05
2.85487
-5.58864
-4.33698e-05
2.85502
-5.58901
0.000276626
2.85493
-5.58891
-0.000460859
2.85505
-5.58895
-0.00118543
2.85635
-5.59172
2.85419
-5.58595
0.000172506
-6.49139
0.000107233
-6.49172
0.000364872
-6.49191
-0.000130109
-6.49146
-0.00285218
-6.49454
-6.4886
-2.31339e-05
2.35565
-2.72478e-05
2.35597
0.00049312
2.35585
0.000103138
2.35587
-0.00314234
2.35672
2.35524
8.8086e-05
1.12175
0.000214299
1.12252
0.000546728
1.12204
-3.10655e-05
1.12267
-0.00160106
1.12372
1.12117
0.00018962
0.000275921
0.00033515
0.000295457
-0.00216759
-4.1802e-07
-0.00866877
0.00122314
-5.09e-07
-0.00866882
0.00122313
-4.96899e-07
-0.00866873
0.00122315
-4.21859e-07
-0.00866865
0.00122317
-3.24088e-07
-0.00866857
0.00122321
-0.0086684
0.00122325
-2.1153e-07
-0.00943954
0.000770875
-1.80724e-07
-0.00943955
0.000770911
-1.45439e-07
-0.00943951
0.000770939
-1.06845e-07
-0.00943946
0.000770962
-5.92124e-08
-0.00943942
0.000770986
-0.00943931
0.000771008
-6.54329e-09
0.000255973
2.02177e-08
0.000255992
3.74415e-08
0.000256002
5.8067e-08
0.000256012
7.33299e-08
0.000256021
0.000256025
-4.57864e-07
-0.00919842
0.00255398
-4.44839e-07
-0.00919843
0.002554
-3.63648e-07
-0.00919832
0.00255402
-2.4475e-07
-0.00919824
0.00255407
-1.48122e-07
-0.00919818
0.00255414
-0.00919802
0.00255419
-7.92423e-08
-0.0100374
0.00161011
-6.9835e-08
-0.0100374
0.00161017
-3.25401e-08
-0.0100374
0.00161019
1.31612e-09
-0.0100373
0.00161021
2.7527e-08
-0.0100373
0.00161024
-0.0100372
0.00161023
6.2861e-08
0.000515202
7.89046e-08
0.000515222
8.64147e-08
0.000515227
9.63155e-08
0.000515231
9.2262e-08
0.00051523
0.000515213
-4.02512e-07
-0.010292
0.00412985
-3.52618e-07
-0.0102919
0.0041299
-1.53989e-07
-0.0102918
0.00412994
5.19127e-08
-0.0102918
0.00413003
1.65604e-07
-0.0102917
0.00413016
-0.0102916
0.00413024
1.47519e-07
-0.0112916
0.00260979
9.28553e-08
-0.0112916
0.00260986
9.31386e-08
-0.0112916
0.00260988
8.81674e-08
-0.0112916
0.00260991
4.25237e-08
-0.0112916
0.00260994
-0.0112916
0.00260991
1.08717e-07
0.000757556
1.03634e-07
0.000757557
9.96505e-08
0.000757556
8.47671e-08
0.000757554
4.29516e-08
0.000757548
0.000757523
-3.33492e-07
-0.0120603
0.00615763
-2.26022e-07
-0.0120601
0.00615778
2.006e-07
-0.01206
0.00615802
5.55379e-07
-0.01206
0.00615836
5.88909e-07
-0.0120601
0.00615871
-0.0120601
0.00615895
2.35089e-07
-0.0133699
0.00391896
1.7519e-07
-0.0133701
0.00391903
2.10777e-07
-0.0133701
0.00391912
2.03866e-07
-0.0133701
0.00391922
7.81122e-08
-0.0133701
0.00391932
-0.0133701
0.00391933
1.2149e-07
0.000880437
9.16359e-08
0.000880426
7.68418e-08
0.000880439
3.36537e-08
0.000880459
-5.28406e-08
0.000880476
0.000880481
1.40527e-07
-0.0146855
0.00902645
7.02334e-07
-0.0146853
0.00902715
1.56979e-06
-0.0146853
0.00902802
2.06067e-06
-0.0146855
0.00902897
1.66077e-06
-0.0146859
0.00902984
-0.0146862
0.00903037
4.43586e-07
-0.0165859
0.00581808
5.15295e-07
-0.0165861
0.00581825
6.54795e-07
-0.0165862
0.00581851
6.00342e-07
-0.0165863
0.00581881
2.43312e-07
-0.0165865
0.00581908
-0.0165865
0.00581921
1.0362e-07
0.000567484
1.20083e-07
0.000567475
1.36345e-07
0.000567545
7.62943e-08
0.000567643
-6.47619e-08
0.000567725
0.000567836
2.4879e-06
-0.0184583
0.0135953
4.45643e-06
-0.0184587
0.013597
5.88204e-06
-0.0184594
0.0135989
6.10437e-06
-0.0184603
0.0136005
4.37873e-06
-0.0184614
0.0136018
-0.0184623
0.0136025
1.09488e-06
-0.0214983
0.00885564
1.70827e-06
-0.0214986
0.00885603
2.01598e-06
-0.021499
0.00885654
1.78127e-06
-0.0214995
0.00885705
9.13483e-07
-0.0214999
0.00885746
-0.0215001
0.00885768
1.71979e-07
-0.000920723
3.55784e-07
-0.000920734
4.66976e-07
-0.000920614
3.87989e-07
-0.000920404
1.77049e-07
-0.000920296
-0.000920002
9.2802e-06
-0.0238692
0.0212361
1.32317e-05
-0.0238713
0.0212388
1.42815e-05
-0.0238737
0.0212406
1.27582e-05
-0.0238762
0.0212419
8.21935e-06
-0.0238787
0.0212423
-0.0238804
0.0212419
2.58192e-06
-0.0292344
0.0142174
4.14324e-06
-0.0292353
0.014218
4.58562e-06
-0.0292364
0.0142185
3.92859e-06
-0.0292375
0.0142188
2.25023e-06
-0.0292385
0.0142189
-0.0292389
0.0142187
6.20994e-07
-0.00560614
1.10447e-06
-0.00560624
1.46458e-06
-0.00560631
1.18988e-06
-0.00560576
9.36541e-07
-0.00560602
-0.00560506
1.83449e-05
-0.0313515
0.0344769
2.25112e-05
-0.0313579
0.0344782
2.0667e-05
-0.0313628
0.0344769
1.54959e-05
-0.0313672
0.0344745
8.13934e-06
-0.0313707
0.0344713
-0.0313723
0.0344676
5.16179e-06
-0.0422162
0.025077
7.07346e-06
-0.0422182
0.0250775
6.82012e-06
-0.0422201
0.025077
5.24754e-06
-0.0422218
0.0250759
2.43312e-06
-0.0422232
0.0250752
-0.0422234
0.0250728
1.32187e-06
-0.0181085
1.80473e-06
-0.0181088
2.80667e-06
-0.0181103
1.74666e-06
-0.0181081
2.22321e-06
-0.0181106
-0.0181065
1.98079e-05
-0.0417834