/*--------------------------------*- C++ -*----------------------------------*\
| =========                 |                                                 |
| \\      /  F ield         | OpenFOAM: The Open Source CFD Toolbox           |
|  \\    /   O peration     | Version:  v1612+                                |
|   \\  /    A nd           | Web:      www.OpenFOAM.com                      |
|    \\/     M anipulation  |                                                 |
\*---------------------------------------------------------------------------*/
FoamFile
{
    version     2.0;
    format      ascii;
    class       surfaceScalarField;
    location    "8.2";
    object      alphaPhi;
}
// * * * * * * * * * * * * * * * * * * * * * * * * * * * * * * * * * * * * * //

dimensions      [0 3 -1 0 0 0 0];

internalField   nonuniform List<scalar> 
2916
(
0.000758152
0.323118
-0.351256
0.000929649
0.318129
-0.344935
0.00540248
0.314155
-0.346362
0.00226137
0.326254
-0.349459
-0.00532838
0.336641
-0.354775
0.313344
-0.346688
-0.000182041
0.578584
-0.230646
-0.00133774
0.573834
-0.230111
-0.00301794
0.571746
-0.231803
-0.00265719
0.579511
-0.228736
5.63808e-05
0.585856
-0.22646
0.56998
-0.23279
0.00231054
0.672009
-0.0801307
-0.000354232
0.669829
-0.0777822
-0.00476555
0.669597
-0.0776288
-0.00208643
0.672054
-0.0797916
0.00544253
0.67438
-0.080899
0.668653
-0.0773478
0.00140434
0.621567
0.049079
4.7243e-06
0.61943
0.0518399
-0.00250293
0.62002
0.0521256
-0.000827828
0.620962
0.0494574
0.00349448
0.622245
0.0478535
0.619527
0.0526616
-0.000351236
0.507583
0.114375
4.86518e-05
0.502741
0.11633
-0.000196639
0.504279
0.116027
-0.000303319
0.505966
0.115144
-1.37363e-05
0.507662
0.114334
0.503373
0.116181
-0.000865817
0.351358
0.129871
0.000115408
0.344257
0.129804
0.0012598
0.346035
0.129572
-0.000112218
0.349422
0.130495
-0.00249002
0.351367
0.130988
0.344955
0.128743
0.000389555
0.175923
0.134374
-0.000117472
0.172701
0.132335
-7.70776e-05
0.173622
0.13263
-0.000423701
0.175149
0.133862
0.000629573
0.174877
0.134512
0.173364
0.132433
-0.000132892
-0.0144635
0.148981
0.000169748
-0.0126616
0.14588
0.000403205
-0.012603
0.146331
0.000398238
-0.0140301
0.148243
-0.000342675
-0.0172884
0.150742
-0.0109295
0.145375
0.000271342
-0.163449
0.105025
0.000793761
-0.163138
0.106035
0.000993693
-0.162414
0.105769
0.00202618
-0.164085
0.105245
0.00315701
-0.167292
0.105154
-0.162617
0.109621
-0.000336458
-0.18549
0.0191268
0.000974373
-0.190036
0.0215476
0.00237214
-0.189038
0.0213532
0.00136174
-0.187143
0.0201582
-0.000945741
-0.186813
0.018589
-0.192223
0.0237847
0.000801348
-0.113554
-0.0438342
0.000355158
-0.123363
-0.0391174
0.000768506
-0.12266
-0.0394731
0.000216393
-0.11489
-0.042755
-0.00222988
-0.109945
-0.0445843
-0.127409
-0.0395801
0.00719503
-0.0660424
-0.0022796
-0.0638183
-0.0107662
-0.0640289
-0.00403987
-0.066227
0.0113659
-0.0675338
-0.0655778
-0.00345181
0.331712
-0.41356
0.00446645
0.320473
-0.415326
0.01191
0.314967
-0.412585
0.00638393
0.337585
-0.415112
-0.0109825
0.355632
-0.421681
0.313504
-0.412285
-0.0145847
0.579417
-0.155877
-0.00172591
0.574402
-0.174246
0.0206774
0.570673
-0.181021
0.00797591
0.581511
-0.154047
-0.0307018
0.591737
-0.134177
0.56497
-0.183817
-0.00507581
0.867032
-0.0728416
-0.000407839
0.861752
-0.075712
0.00537476
0.861256
-0.0768472
0.000612095
0.867349
-0.0727332
-0.00950985
0.873556
-0.0696027
0.85536
-0.0786642
0.00151676
1.12847
-0.0320013
0.000741031
1.12349
-0.0305039
-0.00181241
1.12396
-0.0296298
0.000475989
1.12824
-0.0321945
0.00412963
1.13305
-0.0322432
1.12065
-0.0307737
0.0011231
1.24533
0.00554159
0.000499161
1.24254
0.00635896
-0.00163646
1.24219
0.00778066
0.000464568
1.24533
0.00527601
0.00528524
1.24762
0.0048898
1.24146
0.00798765
0.00241824
1.26429
0.00887118
0.00032373
1.26871
0.00948198
-0.00057558
1.26447
0.0104294
0.000240621
1.2676
0.00907395
0.00190367
1.26903
0.00936585
1.26395
0.0101529
0.00683667
0.837051
-0.0128993
-0.000121393
0.8552
-0.00715834
-0.00524002
0.847179
-0.00650805
-0.00263087
0.846149
-0.0126152
0.00544657
0.842898
-0.017656
0.848789
-0.0032495
0.00385762
0.306282
0.00396666
8.67846e-05
0.302975
0.00359931
-0.00412838
0.302695
0.0040357
-0.00010556
0.308488
0.00353531
0.00596782
0.312048
0.00351618
0.301852
0.00518342
-0.00376529
0.33776
0.00266204
0.000834812
0.330855
0.00395668
0.00335393
0.332514
0.00373974
-0.000536831
0.337475
0.00274732
-0.00573693
0.344593
0.0020742
0.319902
0.00438495
-0.00548195
0.250812
-0.0202689
0.000501624
0.25303
-0.0196557
0.00506215
0.252702
-0.0196017
-0.00154813
0.250846
-0.0207892
-0.0112735
0.250413
-0.0208805
0.251778
-0.0186109
-0.00199003
0.0749875
-0.0158319
-0.000781131
0.0719788
-0.0184647
0.000185326
0.0724284
-0.0181619
-0.000296352
0.0744554
-0.0157097
-0.00289292
0.0754997
-0.0145374
0.0736637
-0.0188604
0.00584886
-0.00554702
-0.00239322
-0.00904897
-0.00990138
-0.00901133
-0.00285023
-0.00512058
0.0100046
-0.00381368
-0.0097291
0.00801072
0.0478384
-0.000286097
-0.00537808
0.0726791
-0.000198279
-0.0271007
0.0828548
-0.000162578
-0.0136479
0.0427135
-0.000316157
0.0218243
0.0167163
-0.000500424
0.0834847
-0.000187793
0.000329498
0.0164624
-0.00052978
0.000964389
0.0240006
-0.000401459
0.0034557
0.0262094
-0.000394656
0.00216859
0.016993
-0.000404741
0.000744461
0.0116409
-0.000398503
0.0290857
-0.000282296
-0.000610648
0.0730213
-5.42754e-05
0.000176214
0.0778381
-6.57974e-05
0.00252142
0.0776769
-0.00010574
0.00194188
0.0747135
-4.95055e-05
0.000916053
0.0723948
-2.73643e-07
0.0835766
-8.39403e-05
-6.15914e-05
0.315862
-1.0091e-06
-0.000266636
0.320745
-1.28327e-06
0.000246721
0.319112
-2.05381e-06
0.000312991
0.317091
-9.4727e-07
0.00175337
0.314276
-1.25783e-08
0.327956
-1.99377e-06
-0.000237342
0.720945
-1.2232e-07
-0.000205675
0.725254
-1.34696e-07
-0.000453295
0.723816
-1.76844e-07
-0.000518455
0.720235
-1.09888e-07
0.000167588
0.717225
-7.21907e-08
0.726656
-1.79383e-07
-0.00226661
0.847961
-1.76077e-06
0.000301482
0.847041
-2.5819e-06
0.00427533
0.846283
-2.35624e-06
0.000255832
0.847131
-1.72897e-06
-0.00729546
0.849056
-1.70647e-06
0.843739
-2.5888e-06
0.0056019
0.857955
-6.01102e-07
-2.96835e-05
0.872124
-4.78568e-07
-0.0033357
0.868787
-4.38935e-07
-0.00217281
0.863258
-5.7261e-07
0.00155009
0.866933
-1.07825e-06
0.855044
-3.45513e-07
0.0152938
0.509834
-0.0269144
-0.000619616
0.583136
-0.00313731
-0.0135678
0.569448
-0.0222309
0.00963941
0.513598
-0.0283318
0.030849
0.510865
-0.0286059
0.580384
-0.000778424
-0.0185416
0.0354142
0.0379214
0.000921518
0.0480526
0.0434448
0.0169617
0.0433904
0.0421117
0.00218163
0.0352791
0.038573
-0.0215937
0.0340239
0.0347733
0.0562509
0.0426427
-0.00474561
-0.00311039
-0.0119082
-0.000241388
-0.00272873
-0.0172828
0.00257894
-0.00357915
-0.0170887
-0.00118089
-0.0038804
-0.0121654
-0.00925464
-0.00413873
-0.00923641
0.000803832
-0.0162479
-7.55641e-05
-0.0141742
-0.00419309
-0.000390859
-0.0134282
-0.0078293
-0.00062068
-0.013176
-0.00726454
-0.000918913
-0.0150035
-0.00357281
-0.000351702
-0.0158405
-0.00333158
-0.0127085
-0.00848927
0.000187637
-0.00820331
-0.000398176
-0.00610435
-0.000594106
-0.00615598
-0.000802089
-0.00873648
-0.000323087
-0.00987809
-0.00576091
2.54035e-06
-2.70317e-06
-0.000270586
-4.45473e-07
1.96522e-06
-0.000182244
-6.7378e-06
3.2475e-06
-0.000142305
-3.59528e-06
-2.57148e-06
-0.000302525
7.0189e-06
-5.39998e-06
-0.000494544
3.61137e-06
-0.000172179
2.86968e-07
-5.73817e-08
-0.000526471
1.37877e-06
1.60642e-06
-0.000395585
2.85957e-06
2.4428e-06
-0.00038719
1.79015e-06
3.37117e-07
-0.000401322
6.8456e-07
-1.88077e-10
-0.000402754
3.35839e-06
-0.00027571
-1.55199e-07
1.08265e-06
-5.50795e-05
-3.92314e-08
1.38311e-06
-6.54858e-05
3.30093e-07
2.21455e-06
-0.000105628
1.28562e-07
1.01762e-06
-4.99416e-05
-1.84337e-08
8.96371e-09
-1.33692e-07
2.15998e-06
-8.27178e-05
-3.65214e-09
7.93252e-08
-6.0386e-10
-1.84755e-09
1.00155e-07
-5.56056e-10
2.72969e-09
1.58323e-07
-5.00911e-10
5.47851e-10
7.49206e-08
-7.29146e-10
-2.40111e-09
2.12635e-09
-1.3435e-09
1.66092e-07
-6.84591e-10
-8.41552e-10
3.29825e-08
-4.94935e-08
-9.20818e-11
3.32653e-08
-4.29625e-08
8.10714e-10
3.29527e-08
-4.21308e-08
1.27188e-10
2.1754e-08
-5.61861e-08
-8.9974e-10
1.26411e-08
-7.8861e-08
3.06558e-08
-4.54158e-08
-5.19637e-09
3.39804e-07
-2.0127e-06
1.14654e-09
4.76429e-07
-2.97947e-06
1.15302e-08
4.25478e-07
-2.72628e-06
1.14925e-09
3.1732e-07
-2.00572e-06
-1.46867e-08
3.06857e-07
-1.98372e-06
4.6385e-07
-3.02223e-06
4.4672e-09
1.12635e-07
-3.63314e-07
4.83092e-10
1.31921e-07
-1.21939e-07
-7.86222e-10
1.08024e-07
-1.28884e-07
1.94936e-10
8.68809e-08
-3.72883e-07
2.98121e-09
9.16871e-08
-8.98958e-07
1.12824e-07
-1.51983e-08
0.000566286
0.0173181
-5.38456e-05
1.95619e-07
0.00076107
1.40948e-05
-0.000280318
0.00470697
3.47489e-06
9.83424e-05
0.0155209
-5.79841e-05
0.000975057
0.0174285
-0.000135856
0.000193136
3.56162e-06
0.000429165
0.0122606
0.000139154
-0.000140266
0.0221341
-0.000703818
-0.000734264
0.0203597
-0.000805257
0.000656334
0.0126436
0.000214054
0.00127111
0.00948281
0.000185033
0.0243113
-0.000157732
-0.00018912
1.43281e-05
0.000134855
-1.54146e-05
0.000435049
1.63282e-05
8.44441e-05
0.000301122
6.88972e-05
-2.14353e-05
4.42834e-05
0.000142056
-0.000270729
-7.44476e-05
0.000152494
0.000722824
-0.00011301
-0.000211996
-0.00205034
6.29048e-05
3.8746e-05
-0.00303875
4.55445e-05
0.000240309
-0.00312051
3.23497e-05
-2.71625e-05
-0.00177578
6.44266e-05
-0.000411333
-0.00153682
6.57349e-05
-0.00305576
5.18456e-05
-6.39444e-05
-0.0127309
0.000119189
-0.0133789
0.000145176
-0.0133236
0.000124652
-0.0125606
-0.000404494
-0.0121227
-0.0131384
-0.00151255
0.0623822
-0.0640919
-0.01175
0.0165612
-0.00976172
0.0229259
0.016592
-0.0546862
0.0168986
0.0259986
-0.0199892
0.006938
0.0108724
-0.000929754
0.0523546
-0.0483872
0.0134626
0.112313
-0.0668326
0.0144256
0.0143316
-0.00204628
0.0675309
-0.00417737
-0.0356973
0.0500806
0.0325043
0.00807776
-0.00283685
0.0420738
0.0189466
0.0974381
-0.0507459
0.0546064
0.0833605
-0.0288663
0.0720557
-0.0171759
0.00811711
0.0506088
0.0138753
0.009163
-0.0228135
0.0717149
0.031452
-0.0461997
0.0440768
0.0187266
0.0823701
-0.0338963
0.0842461
-0.0146191
0.0107574
0.045411
-0.0555616
0.034656
0.0074881
-0.0328528
0.035684
-0.00207041
0.00501963
0.0539169
-0.0190178
0.000920168
0.0491088
0.00381545
0.0162424
0.0101729
-0.0911393
0.0304192
0.00100374
-0.0833912
0.0258551
0.0153178
-0.0810272
0.0353045
0.0142625
-0.0810932
0.0341149
0.000610596
-0.063182
0.0389835
-0.0544286
0.0325055
-0.00165108
-0.094759
0.0164247
-0.00517608
-0.0928688
0.0147271
-0.00776191
-0.0886423
0.0116835
-0.00596612
-0.0964462
0.0150527
0.00080384
-0.0987481
0.030799
-0.0791178
0.0150732
-0.000533506
-0.0961495
0.00205661
0.00292995
-0.0875824
-0.00230159
0.0040988
-0.0722936
-0.00073992
-0.0048057
-0.0494614
0.00283745
-0.0047264
-0.0807048
0.00367937
-0.0748967
-0.00120563
-0.00480153
-0.0911742
-4.11064e-05
0.00233738
-0.0871176
-0.000360344
0.0014941
-0.0643873
-0.000438975
-0.00169325
-0.0182243
0.00520967
-0.00748133
-0.0424063
0.00522555
-0.0719855
-0.001061
-0.0191634
-0.0738271
0.00307124
-0.00515608
-0.0949667
-0.00486231
0.000490835
-0.0638171
-0.000926043
0.000316212
-0.0122125
0.00411164
-0.0119484
-0.030966
0.00219094
-0.0711031
-6.60365e-05
-0.0159576
-0.0435912
0.00572684
-0.0229817
-0.081961
-0.00456415
-0.0128266
-0.060857
-0.000934113
-0.00660136
-0.0234264
0.00130713
-0.00272403
-0.0272861
-0.00155818
-0.0606013
-0.000522256
-0.00354833
-0.0226489
-0.00643459
-0.0128822
-0.033409
-0.00371723
-0.0253748
-0.03568
-0.000577275
-0.0104179
-0.0248788
-0.0103205
0.0168792
-0.0239668
-0.019079
-0.0304639
-0.000554724
-0.00268839
-0.00750572
-0.000488457
-0.0138934
-0.00199368
-0.0134931
0.00294788
-0.0212304
0.0156322
-0.0238984
-0.00212823
0.0183065
0.0737922
-0.15903
-0.0112666
0.06268
-0.0457311
0.0154866
0.0735392
-0.158006
0.0302839
0.037875
-0.0755504
-0.00232674
0.0410058
-0.0121753
0.0782341
-0.131848
0.0191985
0.13588
-0.15162
0.0128999
0.116086
-0.0523843
0.0411109
0.0999935
-0.093684
0.0203214
0.0650141
-0.00110146
-0.0195348
0.101417
-0.00432123
0.135418
-0.130288
0.0449678
0.164103
-0.105176
0.0241452
0.0781493
-0.0206486
0.00501834
0.0619813
0.0117135
-0.0742071
0.0403046
0.0497028
-0.0401871
0.10577
-0.0222521
0.125942
-0.0673116
0.0497951
0.168188
-0.0465177
0.0109539
0.0149233
0.0408759
-0.00391284
0.00408725
0.0591477
-0.0186934
0.00900835
0.0736323
-0.0194688
0.0163744
0.0207763
0.039395
-0.00590474
0.0187736
0.0019882
0.00488437
0.00449568
0.00545245
0.0276975
-0.0128058
0.00171397
0.00563482
-0.016038
-0.00256521
0.00867317
-0.00677309
-0.00375499
0.0293492
-0.000300143
0.0264353
0.00385207
4.65626e-05
-6.64534e-05
0.00179489
0.00244639
-0.000122508
-0.00308165
0.000508201
-0.000268018
-0.00352553
-0.000426916
7.49469e-06
0.000843247
-0.00242879
5.07241e-05
0.000576793
-0.00178303
0.000117976
0.000205874
-0.000110911
-3.45046e-05
0.00027882
-3.21877e-05
-0.000246632
2.29139e-05
-2.0336e-05
-0.00033985
-0.00321871
-6.79047e-05
0.00111608
-0.00540828
-0.000153036
8.15274e-05
-3.04058e-05
0.000160952
0.000255428
-6.20202e-06
1.37402e-05
3.78417e-05
-7.10879e-06
-0.000541793
6.51555e-05
-2.82929e-07
-0.000147295
-0.00404281
1.62942e-05
0.00103452
-0.00448945
-6.36325e-06
4.46308e-05
-6.10911e-07
0.00851497
-0.0151104
9.0387e-05
0.00114351
0.000449235
4.52542e-06
0.00016301
0.000137733
-1.73191e-05
0.000272084
-0.00141521
2.00663e-05
-5.09582e-06
-0.000474009
3.60574e-05
7.98463e-07
-2.17499e-05
0.00313776
-0.0128635
0.000244326
0.000860177
7.27081e-05
0.00025725
1.56219e-05
1.18006e-05
3.79697e-05
8.00177e-06
-5.22891e-05
-0.000172736
1.99059e-05
-0.000486952
-0.00128295
-0.00227721
-0.000232788
-0.000963643
-0.0106062
-0.000533258
-1.98979e-05
-0.00444632
-0.000139093
-3.33971e-05
-0.000250566
-0.000296614
2.75454e-05
-0.000344883
-0.0100828
0.000748658
-0.000558601
-0.0196558
-0.00236401
-0.000584717
0.00126166
-0.0182838
7.72464e-05
-0.0169566
9.86044e-06
-0.013673
-5.02914e-05
-0.0214425
-0.00202187
-0.0221725
-0.00898054
-0.00894107
0.0303127
-0.129207
-0.0253746
0.0406952
-0.0346592
-0.0144773
0.033966
-0.205832
0.0346885
0.0435714
-0.171246
0.0338127
0.0459624
-0.0602061
0.0385401
-0.139517
-0.0492545
0.0558177
-0.00252904
-0.00887015
0.106477
-0.000564592
0.0334416
0.0800605
-0.0228783
0.0906332
0.0759805
-0.0936008
0.08686
0.123827
-0.081253
0.0541001
-0.0483753
-0.0356754
0.104917
-0.0109485
0.0278113
0.115521
-0.0893966
0.0688555
0.112699
-0.0649622
0.0585695
0.129696
0.00388504
0.0649324
0.159826
-0.0673928
0.0452307
-0.0050043
0.00183973
0.0997852
-0.0247455
0.0214412
0.0829705
-0.0392598
-0.000443001
0.00981298
0.0529196
-0.0326502
0.0202091
0.0630434
0.0140699
0.0556969
-0.0310537
0.0317415
0.00013052
0.00350121
0.00319397
-0.00718664
0.000323852
0.00105961
0.0165111
-0.000641919
0.000851112
0.00880082
-0.00640455
0.000414297
0.00900089
-0.0017434
0.000396379
0.0186847
0.0021542
0.0109762
0.000657316
0.000126115
0.000111038
9.68019e-05
0.000168466
0.00101822
-9.98026e-06
5.92267e-05
0.000540204
-3.30551e-05
0.000115493
0.000254092
-0.000119508
0.000187855
0.000266637
8.12544e-05
9.19286e-05
-1.46116e-05
1.85398e-05
6.45277e-08
-8.27088e-06
3.99233e-05
5.43659e-05
-3.24418e-07
-6.59851e-06
7.16922e-06
2.20484e-06
5.64576e-06
8.21736e-09
5.19536e-06
9.69012e-06
1.21721e-07
1.0937e-05
7.77914e-07
-4.9857e-06
1.49749e-05
-7.4414e-08
-4.18312e-06
1.76301e-05
5.91229e-07
-3.66041e-05
8.90834e-06
9.6023e-07
-1.65404e-05
-9.79922e-06
-4.69665e-07
6.55518e-06
-1.70498e-05
-1.1014e-05
-4.63995e-06
7.08083e-06
-2.85918e-07
0.00010343
2.78975e-06
2.3935e-07
2.13429e-05
-3.16717e-08
-2.91278e-05
2.04283e-05
1.74472e-06
-1.50056e-05
-4.95174e-06
-1.02788e-06
1.28453e-05
-9.51121e-05
-1.93588e-06
-0.000265068
0.000195627
-2.52794e-06
0.000150831
4.8751e-06
9.93654e-06
0.000256383
1.11983e-05
1.63969e-06
6.42636e-05
2.8995e-06
5.17912e-05
-0.000247752
2.15348e-05
0.00035566
-5.71601e-05
-0.000165297
9.81025e-05
-1.60581e-05
-0.000434139
0.000181065
1.86445e-05
-0.000248157
-0.000671504
0.000988418
0.00086556
-0.00133055
0.00114286
0.00158139
-0.00350607
-0.00539518
0.000627989
-0.00537079
-0.0110744
7.11754e-05
7.47269e-05
0.00417648
-0.0181172
0.00439801
-0.0158833
0.00372937
-0.0142617
-0.00126302
-0.0188889
-0.00767241
-0.0196
-0.0135155
-0.00107321
0.00254588
-1.40145e-06
-0.00458289
0.000398492
-9.53893e-08
-0.0343841
0.00383762
-9.12721e-05
-0.00641488
-0.000357046
-4.80238e-08
0.0158604
0.0168585
-1.24596e-06
0.00622688
-3.76961e-06
-1.02032e-05
3.68074e-05
-2.45234e-05
-0.000172266
1.02507e-05
-1.41488e-05
-0.0199237
0.000710801
-1.39887e-07
0.0329898
0.039441
-2.8163e-06
0.0505373
0.0340104
-5.8625e-05
0.00281144
-2.5192e-05
-0.0108672
0.000335483
-0.000104832
-0.00152352
0.0392699
-0.000174314
0.0126416
0.0730984
-5.1798e-06
0.0760767
0.108011
-2.50853e-05
0.00534875
0.042967
-0.000200521
0.000536418
4.10479e-05
-0.0248816
0.00108578
-0.000280967
0.00271877
0.0862377
-0.00158485
0.0224337
0.0616081
-0.00682901
0.0313296
0.0481091
0.0125734
-0.000625658
0.0152083
-0.000953438
0.000518955
-8.00562e-06
-0.00707103
0.00219241
-1.70378e-05
-0.005955
0.019271
0.000616119
0.000884341
0.00244608
0.0301765
0.00124795
0.000143392
0.0128444
0.00154478
-4.13477e-05
0.00120685
0.00241019
0.000100583
-0.00101408
1.50284e-06
0.000469653
-0.000866175
0.000139385
0.00223384
-0.000117294
0.000100631
0.00204667
-6.41344e-05
2.12258e-05
0.000282502
1.70013e-05
6.61715e-06
0.000115086
1.47823e-05
0.000430409
-6.35682e-05
-2.18989e-06
1.12137e-05
-4.86847e-05
3.19961e-06
0.000157154
-3.83802e-06
-2.11643e-06
6.38428e-05
-1.40076e-06
1.14574e-07
6.39448e-06
-2.34971e-08
3.25924e-08
3.52895e-06
-2.63686e-06
6.41485e-06
-3.54538e-06
5.92034e-07
3.1195e-07
-1.9606e-06
3.43713e-08
2.64311e-06
-1.32828e-06
1.70803e-07
3.49226e-07
-1.67966e-06
-4.31361e-07
1.36856e-07
-2.64635e-05
-1.22522e-05
6.50434e-06
-0.000112403
3.77816e-05
-5.81132e-08
2.35897e-06
6.37595e-07
-8.85877e-07
9.64563e-07
4.77345e-08
4.96592e-07
2.42804e-06
3.33942e-07
-1.20069e-06
-2.3963e-07
3.75476e-07
-8.38771e-05
2.1393e-06
-4.78037e-07
-0.000117036
5.2804e-06
1.34295e-06
6.88425e-06
1.71471e-06
-8.10256e-09
1.2534e-05
1.10529e-06
-4.35848e-06
8.92872e-06
8.77958e-07
1.90717e-06
1.38137e-05
1.55511e-06
6.0919e-06
-0.000158949
-8.85325e-06
4.41826e-05
-3.68878e-05
2.03615e-06
3.82108e-05
-4.50709e-06
3.20646e-05
0.000953978
1.84323e-05
0.000112259
0.00104278
2.92648e-05
0.00115809
-0.0050221
-0.000204363
-6.40209e-06
-0.0080192
-0.000815966
0.000128777
-1.39631e-05
0.00197909
-0.0174603
0.00520075
-0.0152618
0.00878138
-0.0152718
0.00251719
-0.0161493
-0.00706516
-0.0165393
-0.0175537
3.19702e-05
4.7934e-05
-0.000528591
9.30297e-06
8.03321e-05
-0.000321436
-1.85305e-05
6.36869e-05
-0.000222471
-1.29941e-05
4.04529e-05
-0.000483224
7.54352e-05
-3.50303e-05
-0.000654417
9.92041e-05
-0.000228272
-5.62194e-06
0.000688339
-0.000446383
9.10222e-06
0.000502832
-0.000345581
4.16448e-05
0.000366867
-0.000284883
3.41693e-05
0.000653035
-0.000331107
-4.78448e-05
0.000607233
-0.00028625
0.000569708
-0.000478906
-8.07344e-05
-7.98848e-14
1.93283e-05
-1.10886e-10
0.00013824
-1.60015e-07
4.11334e-05
-3.60901e-10
-0.000124736
-7.09758e-06
-0.000308316
-3.02561e-05
-0.000368321
-0.000231183
1.2541e-05
-0.000237798
-0.000236791
5.50614e-05
-0.000189648
-0.000276229
2.23669e-05
-0.000266525
-0.000177986
-5.99239e-05
-0.000309794
-3.12881e-06
-0.000125509
-0.000255292
-1.94805e-05
-8.48502e-14
-7.28185e-12
1.67966e-06
-9.27019e-11
-1.66654e-11
5.20961e-05
-3.42361e-08
-7.48615e-11
1.83696e-05
-1.536e-10
-2.97e-12
-4.80528e-05
-4.55026e-06
-1.25842e-11
-0.000188143
-3.98745e-05
-1.62272e-13
-2.46353e-15
-2.03612e-10
-1.38187e-13
5.14992e-10
-1.29466e-12
6.2197e-13
-1.31498e-13
-1.16478e-05
-3.4573e-12
-1.02233e-12
-7.87648e-07
-5.54769e-13
-6.15338e-09
-2.80411e-06
-1.40956e-12
-5.48194e-09
-4.18082e-06
-2.48528e-11
-4.63722e-09
-1.24475e-08
-2.148e-13
-7.9419e-09
-3.27222e-06
-1.05786e-13
-2.7278e-09
-2.16642e-05
-7.26213e-09
1.54577e-14
-2.63065e-13
-7.50466e-12
-6.61987e-15
-2.19569e-13
-1.77513e-11
-3.07302e-15
-8.40945e-14
-1.38647e-11
-1.2437e-15
-1.455e-13
-3.00752e-12
2.49518e-14
-2.15878e-13
-1.11971e-11
-1.3089e-13
-1.11354e-08
1.75653e-15
-2.67303e-13
4.60057e-16
-3.56529e-13
-7.53709e-16
-1.37754e-12
1.54435e-15
-2.79398e-13
8.34206e-15
-3.67998e-12
-1.14489e-12
3.53352e-13
-1.11413e-09
-4.88892e-09
-5.7347e-12
-7.69941e-10
-4.41943e-09
-3.37131e-11
-6.04137e-10
-3.66178e-09
-1.8873e-11
-1.36539e-09
-6.48091e-09
2.67156e-11
-1.22669e-09
-2.13521e-09
-7.22527e-10
-5.95421e-09
2.78391e-11
-2.0424e-10
-9.36855e-10
-2.6865e-12
-1.33964e-10
-6.14946e-10
-3.80677e-11
-1.09411e-10
-4.63305e-10
-5.6157e-12
-2.19629e-10
-1.17594e-09
1.41624e-10
-1.80679e-10
-1.20457e-09
-8.31792e-11
-1.15969e-08
6.47169e-13
-2.05263e-10
1.43322e-16
-1.33676e-10
4.81097e-14
-1.10846e-10
1.85586e-13
-2.20376e-10
1.13806e-12
-1.89528e-10
-8.31867e-11
-6.0105e-10
-1.26225e-07
4.05799e-08
5.01945e-11
-1.0122e-07
-2.22175e-08
7.06361e-10
-8.84664e-08
-9.52297e-09
7.4377e-10
-1.37962e-07
2.96011e-08
-1.39535e-09
-1.93267e-07
6.11759e-08
-8.22311e-08
-4.42211e-08
3.9069e-09
-5.41898e-08
-7.55304e-08
-6.91027e-10
-3.88426e-08
-5.69317e-08
-7.14594e-09
-3.53636e-08
-4.58918e-08
-3.35567e-09
-5.69574e-08
-8.45982e-08
1.14276e-08
-7.19246e-08
-1.35457e-07
-2.28179e-08
-5.82708e-08
3.19738e-10
-5.47212e-08
-3.52459e-11
-3.86295e-08
-4.61688e-10
-3.50566e-08
-2.05151e-10
-5.74401e-08
1.0364e-09
-7.33564e-08
-2.18653e-08
4.377e-09
-1.31307e-05
3.23128e-06
9.20329e-08
-1.20492e-05
2.38181e-06
1.85964e-07
-1.12596e-05
2.24295e-06
3.13561e-08
-1.33173e-05
3.43481e-06
-3.16028e-07
-1.57899e-05
5.25613e-06
-1.09113e-05
1.57809e-06
2.9172e-07
-5.26588e-06
-2.24009e-05
-3.00786e-08
-4.31808e-06
-1.332e-05
-2.2739e-07
-4.02599e-06
-1.34213e-05
7.52896e-08
-5.2343e-06
-2.48272e-05
7.0949e-07
-6.32018e-06
-2.9774e-05
-3.61794e-06
-1.27147e-05
1.85806e-08
-6.16386e-06
-4.32394e-09
-4.44444e-06
-2.85529e-08
-4.37775e-06
9.37913e-09
-6.31565e-06
1.11461e-07
-7.61571e-06
-2.99813e-06
4.87851e-07
8.14438e-07
2.5188e-05
2.10634e-08
1.03648e-07
6.21724e-06
-1.88917e-07
2.20901e-07
1.04126e-05
-1.30656e-07
1.18814e-06
2.87292e-05
7.55747e-07
2.52798e-06
3.44111e-05
-2.36743e-06
3.04785e-06
2.12251e-06
5.51052e-06
-9.68749e-06
-3.52133e-07
2.11415e-06
2.81041e-06
-9.76429e-07
1.90759e-06
-9.9753e-06
5.7626e-07
6.54897e-06
-6.87003e-06
3.24778e-06
1.00481e-05
-1.51051e-05
-3.46901e-07
-4.29661e-06
4.92468e-08
-7.84336e-06
-1.36282e-07
-6.18019e-06
-1.28491e-07
-5.81777e-06
1.88128e-07
-7.90979e-06
6.80365e-07
-7.74316e-06
-3.94218e-06
8.77061e-06
-8.16873e-05
6.84565e-05
-2.0252e-07
1.48269e-05
2.42452e-05
-6.45124e-06
2.55239e-06
5.42739e-05
3.23884e-06
-9.37346e-05
7.95242e-05
2.1873e-05
-0.000110622
4.89172e-05
8.29384e-06
2.07262e-05
1.03784e-06
1.13771e-05
-9.04465e-05
-1.72492e-07
1.87787e-05
-5.85022e-05
-9.52045e-07
1.26442e-05
-6.10572e-05
3.99956e-07
7.87048e-06
-9.49936e-05
2.14996e-06
1.17984e-05
-0.000116638
1.39491e-05
-3.70026e-05
6.93535e-08
-8.99762e-06
-1.12021e-07
-7.87165e-06
-2.53989e-07
-7.79636e-06
-7.04954e-08
-8.95771e-06
1.56474e-07
-9.45622e-06
-6.2408e-06
0.000101069
0.000127291
-8.32102e-05
-2.27688e-05
0.000113779
7.40358e-05
-0.000116722
0.000101368
1.6207e-05
6.25454e-05
0.000136045
-8.2028e-05
0.000210284
0.00015658
-0.000103723
6.92701e-05
0.000216884
6.77066e-07
3.16248e-05
-1.2633e-05
-1.72532e-07
3.26997e-05
-1.09776e-05
-1.35778e-07
2.68772e-05
-1.12203e-05
2.20886e-06
3.30755e-05
-1.28569e-05
1.68851e-07
3.5337e-05
-1.37876e-05
3.05802e-05
-8.93798e-06
-4.61837e-08
-1.52693e-06
1.27474e-08
-1.48956e-06
7.91456e-08
-1.40174e-06
-1.13845e-07
-1.50072e-06
-4.61287e-07
-1.61573e-06
-1.41514e-06
-1.78434e-05
2.90731e-05
-9.2282e-06
-1.02895e-06
2.78981e-05
-7.31983e-06
1.54189e-05
2.61884e-05
-8.56979e-06
1.02602e-06
3.22184e-05
-9.15279e-06
-2.72056e-05
3.22444e-05
-9.67997e-06
2.81528e-05
-1.10138e-06
-1.473e-06
1.28763e-05
-5.93404e-06
3.04317e-07
9.28134e-06
-3.03123e-06
1.20054e-06
8.85182e-06
-3.46828e-06
-4.65744e-07
1.46856e-05
-6.33786e-06
-3.23501e-06
1.56205e-05
-7.96832e-06
9.05682e-06
-1.59637e-06
-4.69188e-08
3.64585e-07
8.11641e-09
2.06865e-07
1.86406e-08
2.02118e-07
-6.88827e-08
4.04368e-07
-1.2926e-07
4.58742e-07
1.81909e-07
-3.12442e-05
0.000135937
-0.000149079
7.80282e-06
9.28423e-05
-0.000182689
1.80334e-05
8.7636e-05
-0.000160064
-1.50378e-05
0.000141076
-0.000154447
-7.44886e-05
0.000161964
-0.000157301
8.64726e-05
-0.000189433
-5.40521e-07
3.42821e-06
2.87222e-05
-7.08492e-09
1.6444e-06
2.0817e-05
-3.77682e-07
1.57526e-06
2.06014e-05
-1.80704e-06
4.11914e-06
3.05392e-05
-3.11544e-06
4.94806e-06
3.64528e-05
1.78251e-06
1.91757e-05
4.13879e-09
4.99333e-07
-2.01311e-09
2.14481e-07
-1.43239e-08
2.22921e-07
-1.00554e-08
6.12273e-07
1.31231e-08
8.11246e-07
1.93346e-07
1.65846e-05
-2.85976e-05
-0.0160108
-1.54084e-05
-2.07217e-05
-0.0159521
-0.000118588
-2.05178e-05
-0.0159868
-2.7406e-05
-3.03911e-05
-0.0160656
-0.000130922
-3.62463e-05
-0.0161532
-1.90733e-05
-0.0158856
4.62975e-09
-1.98475e-07
3.01941e-07
-8.5786e-09
-1.28947e-07
2.24127e-07
-3.15985e-08
-1.28123e-07
2.21792e-07
-2.03296e-08
-2.10944e-07
3.29252e-07
1.01915e-08
-2.44819e-07
4.00105e-07
-1.10856e-07
2.11113e-07
2.333e-10
4.7456e-09
-9.02864e-11
1.66671e-09
-7.34417e-10
1.85601e-09
-8.69502e-10
6.30156e-09
5.76907e-10
8.88523e-09
1.63201e-09
0.0010964
-6.0887e-09
-0.0112894
0.0154172
0.000821259
-5.33011e-09
-0.0112036
0.0163829
0.000177917
-3.65936e-08
-0.010711
0.0162667
-0.000400009
-2.06725e-08
-0.0109781
0.016372
-0.000944636
-6.55177e-10
-0.0111602
0.0164784
-6.01564e-12
-0.011021
0.015151
-1.56309e-13
-1.06681e-09
-4.24876e-15
-5.02179e-09
-3.73811e-11
-5.43773e-10
-2.29683e-15
-4.74915e-09
-3.87049e-11
-4.42191e-09
-1.28395e-14
-3.21707e-08
-5.90863e-13
-3.6286e-10
-8.04724e-17
-2.03478e-08
-1.05518e-15
-4.91481e-12
4.78653e-17
-6.50852e-10
-1.56046e-13
4.03567e-18
-5.86065e-12
3.87571e-11
6.94197e-13
-1.10626e-09
5.44012e-11
6.3883e-13
-5.60046e-10
8.75169e-10
6.86215e-12
-5.24945e-09
2.56936e-12
-6.42055e-14
5.09771e-10
4.067e-15
-1.07155e-16
-2.38912e-12
-1.8808e-19
-2.08594e-14
-0.000270227
-6.3294e-13
-0.00565849
-0.000361772
-6.03202e-13
-0.00559426
-0.00013755
-6.20911e-12
-0.00556432
-7.42343e-05
-7.46975e-14
-0.00565367
-0.000113099
6.45351e-16
-0.00569561
2.79764e-17
-0.00561952
-6.40792e-16
-6.65034e-13
-2.97128e-15
-9.41152e-15
-5.99089e-13
-2.84556e-16
-7.33694e-17
-6.23343e-12
-2.33218e-16
3.11161e-17
-7.4614e-14
-2.68465e-16
-4.40407e-18
-2.64371e-16
-2.8826e-16
-1.0502e-18
-1.44315e-16
2.18701e-14
1.52789e-28
4.3307e-14
1.66963e-28
6.90012e-13
2.2121e-28
3.90365e-15
3.05697e-28
2.43535e-17
6.69608e-28
2.69117e-28
-5.92832e-05
-2.04025e-15
-0.00028991
-2.94744e-05
-4.22508e-14
-0.000302455
5.0123e-05
-3.86589e-14
-0.000300217
1.99069e-05
-5.19922e-14
-0.00026763
-5.19699e-05
-6.10408e-14
-0.000261322
-3.21105e-14
-0.000284319
-2.23815e-17
8.56764e-28
-5.77107e-14
-3.97258e-17
8.37147e-28
-4.2518e-14
-6.86467e-17
9.08399e-28
-3.88632e-14
-6.53724e-17
8.14319e-28
-5.2264e-14
-1.9842e-17
1.42616e-27
-6.13746e-14
5.39243e-28
-3.22747e-14
-7.21543e-29
-2.21403e-28
-1.27244e-28
-1.98597e-28
-1.61143e-28
-1.84798e-28
-1.15007e-28
-1.09753e-28
-8.87883e-29
-1.13453e-28
-3.3926e-29
-7.98806e-05
-1.00369e-11
0.00503369
-0.000133154
-7.60513e-12
0.00503036
-0.000152378
-7.39125e-12
0.00505625
-0.000137683
-1.05703e-11
0.00507772
-9.41258e-05
-1.29219e-11
0.00508506
-6.81712e-12
0.00503418
-2.99238e-15
8.33561e-28
-1.00916e-11
-4.30402e-15
9.37886e-28
-7.64633e-12
-6.19366e-15
1.02275e-27
-7.42822e-12
-5.80652e-15
9.73619e-28
-1.0623e-11
-1.31798e-15
1.1238e-27
-1.29878e-11
7.35714e-28
-6.85071e-12
-3.0093e-29
-4.82303e-28
-7.23839e-29
-5.33479e-28
-1.02309e-28
-5.64345e-28
-8.36829e-29
-5.09827e-28
-4.83986e-29
-5.61593e-28
-3.64887e-28
-6.5447e-05
-2.34514e-09
0.0113179
-0.000140541
-1.77331e-09
0.0112737
-0.000167311
-1.75351e-09
0.0113102
-0.000143827
-2.61012e-09
0.0113762
-7.71555e-05
-3.24214e-09
0.0114288
-1.71288e-09
0.0112247
-4.02677e-13
-9.89541e-12
-2.34549e-09
-4.5037e-13
-6.03065e-12
-1.77533e-09
-8.1532e-13
-6.35113e-12
-1.75465e-09
-1.03665e-12
-1.20128e-11
-2.6091e-09
-3.2048e-13
-1.54274e-11
-3.2411e-09
-6.48865e-12
-1.71396e-09
9.60827e-15
-9.90503e-12
5.23253e-15
-6.02634e-12
7.79133e-15
-6.35377e-12
3.07452e-14
-1.20359e-11
1.57529e-14
-1.54125e-11
-6.47297e-12
-7.83902e-05
-3.02092e-07
7.93194e-06
-2.23492e-07
9.86493e-05
-2.21259e-07
2.93567e-05
-3.29569e-07
-0.00014667
-4.00452e-07
-2.10453e-07
-4.66757e-11
-2.55576e-09
-3.11703e-11
-1.24442e-09
-4.3001e-11
-1.29887e-09
-6.00349e-11
-3.03103e-09
-2.38765e-11
-3.76188e-09
-1.16043e-09
2.97166e-12
6.11643e-13
-8.12325e-13
1.28029e-12
3.70353e-12
-1.8442e-09
-1.26418e-06
2.02695e-09
2.13621e-09
-2.4816e-08
1.95134e-09
-1.06746e-09
-9.1246e-05
-7.3118e-09
-7.34281e-09
-2.07284e-08
-1.24449e-08
3.56317e-09
-1.2127e-06
-2.86019e-08
-3.81279e-06
2.25557e-08
5.95298e-08
-2.08594e-13
-4.0218e-06
5.53164e-07
-5.42889e-08
-3.26709e-07
-4.18335e-07
-1.04875e-07
-1.46119e-06
-2.73619e-07
-1.55712e-09
-1.62033e-07
-1.25964e-06
-4.73956e-08
-2.5025e-06
-8.55052e-08
-1.54126e-05
5.19115e-14
-2.60505e-13
1.26746e-09
-8.48429e-13
-5.78058e-10
-2.95974e-08
-5.05105e-09
2.91587e-09
-1.50968e-09
-3.77988e-08
-8.70149e-08
9.20408e-07
-7.57795e-05
1.77606e-05
7.07392e-08
-1.32137e-05
5.38998e-08
1.71436e-09
-1.8972e-07
3.47649e-08
-6.84937e-07
-2.1403e-06
1.37597e-08
-2.94502e-07
-5.70476e-05
-2.02064e-06
-2.56229e-05
1.84875e-08
1.88175e-05
-6.54287e-11
-6.72065e-05
1.19738e-06
-9.00202e-10
-3.38165e-06
-9.82276e-08
-2.24273e-07
-1.96255e-07
-2.60195e-06
-4.09385e-07
5.98632e-07
-2.24658e-05
-6.38963e-06
-3.12554e-05
-1.52065e-05
-3.62147e-05
1.70547e-13
-6.58598e-11
2.06505e-12
-9.02948e-10
-4.44659e-09
-2.2861e-07
-9.31821e-08
-3.3707e-07
-4.06651e-07
-7.75657e-07
-6.44738e-06
6.3564e-05
-9.35913e-05
-9.85438e-06
1.23611e-06
-0.000112107
2.57544e-07
-8.07577e-08
-4.42327e-06
5.15591e-07
-3.52946e-06
-2.24557e-05
8.58359e-07
-6.73999e-05
-6.22454e-05