/*--------------------------------*- C++ -*----------------------------------*\
| =========                 |                                                 |
| \\      /  F ield         | OpenFOAM: The Open Source CFD Toolbox           |
|  \\    /   O peration     | Version:  v1612+                                |
|   \\  /    A nd           | Web:      www.OpenFOAM.com                      |
|    \\/     M anipulation  |                                                 |
\*---------------------------------------------------------------------------*/
FoamFile
{
    version     2.0;
    format      ascii;
    class       volScalarField;
    location    "8.2";
    object      alpha.water;
}
// * * * * * * * * * * * * * * * * * * * * * * * * * * * * * * * * * * * * * //

dimensions      [0 0 0 0 0 0 0];

internalField   nonuniform List<scalar> 
1116
(
0.730917
0.730314
0.730792
0.730498
0.730337
0.730998
0.825743
0.825475
0.82543
0.825697
0.826061
0.82527
0.971061
0.971032
0.970939
0.971104
0.971237
0.970883
0.974096
0.974096
0.974096
0.974096
0.974096
0.974096
0.974096
0.974096
0.974096
0.974096
0.974096
0.974096
0.973001
0.972543
0.972619
0.972968
0.972993
0.972608
0.89289
0.89223
0.892694
0.892213
0.891213
0.89381
0.820584
0.820398
0.821037
0.819682
0.819665
0.821627
0.771587
0.770757
0.77112
0.771195
0.772192
0.771027
0.746401
0.744592
0.744627
0.74669
0.748251
0.74374
0.723806
0.721437
0.721216
0.724512
0.725753
0.720663
0.679076
0.678731
0.678623
0.678948
0.678702
0.679481
0.667074
0.669509
0.669772
0.66716
0.666275
0.669055
0.60598
0.604807
0.602462
0.607654
0.611037
0.602067
0.700818
0.701262
0.700114
0.701652
0.702447
0.700802
0.877693
0.878248
0.878653
0.877452
0.876763
0.879903
0.965879
0.965535
0.966019
0.965542
0.965437
0.966342
0.953364
0.953398
0.953609
0.953253
0.953522
0.953351
0.801189
0.806534
0.805003
0.803066
0.801685
0.805011
0.395618
0.404687
0.402361
0.398758
0.393417
0.41264
0.190914
0.180331
0.182648
0.189987
0.195816
0.174674
0.21534
0.207697
0.208284
0.214455
0.219556
0.200841
0.162186
0.164618
0.163974
0.161108
0.160019
0.163807
0.0771023
0.0787728
0.0790234
0.0766568
0.0762632
0.0800968
0.130724
0.134252
0.13481
0.130588
0.130242
0.133387
0.0211475
0.0237883
0.0244634
0.0208732
0.0170525
0.0249524
0.0372974
0.0371114
0.037189
0.037503
0.0367723
0.0376987
0.111843
0.110298
0.110342
0.111965
0.112057
0.112255
0.27794
0.2775
0.27712
0.278038
0.277507
0.280357
0.327976
0.328495
0.328535
0.327296
0.326225
0.330472
0.316768
0.312657
0.314772
0.315161
0.315846
0.311926
0.279692
0.283331
0.284192
0.278665
0.278102
0.281269
0.110385
0.122361
0.119553
0.110395
0.107123
0.126705
0.0107739
0.0155884
0.0148
0.0105566
0.00931885
0.0180832
0.0178389
0.016095
0.0161746
0.0182503
0.0188382
0.0160543
0.025151
0.0211542
0.0213341
0.0259806
0.0283778
0.0207787
3.30223e-06
3.05839e-06
3.35762e-06
2.91141e-06
2.48983e-06
2.66034e-06
3.41095e-07
4.18666e-07
6.71617e-07
3.03145e-07
2.86083e-09
5.19856e-07
9.51527e-09
1.20469e-08
1.91663e-08
2.72836e-09
2.46691e-10
2.73465e-09
1.92085e-10
1.75086e-10
1.68033e-10
1.98222e-10
2.71106e-10
2.26363e-10
2.36201e-09
2.35207e-09
1.5765e-09
9.63703e-10
4.03572e-10
9.69996e-10
4.522e-09
4.59107e-09
3.81991e-09
2.34198e-09
1.09617e-09
2.95924e-09
8.87646e-09
8.7481e-09
7.21799e-09
6.10618e-09
5.74005e-09
6.72344e-09
0.00143179
1.40133e-08
1.13086e-08
0.00109294
0.00158751
1.06485e-08
0.00580675
0.00603328
0.00612309
0.00571323
0.00494916
0.00566427
5.72342e-05
0.000200927
0.000144607
5.71691e-05
5.50785e-05
0.000360431
0.000144839
0.000270103
0.000345898
0.000128594
0.000139579
0.000192145
0.00359662
0.00496859
0.00497509
0.0033623
0.00260907
0.00525383
0.0939883
0.0940349
0.0940476
0.0925621
0.0925621
0.094079
0.0940351
0.0940706
0.0941389
0.0941409
0.0941951
0.0941625
0.0939802
0.0929166
0.0828848
0.0942038
0.0942414
0.0942009
0.093932
0.0496815
0.0209341
0.0531449
0.0664289
0.0751647
0.0643654
0.0478601
0.0542925
0.0534665
0.0227345
0.0230113
0.0524663
0.0542142
0.0543005
0.0540406
0.0537485
0.0503968
0.055102
0.0511375
0.0393787
0.0446263
0.0513784
0.0509771
0.055102
0.0495623
0.0352228
0.00648513
0.0176455
0.0433449
0.0550367
0.0543368
0.0367436
0.00636652
0.0141224
0.047487
0.0253525
0.0541243
0.0371568
0.0167889
0.0176962
0.0477249
0.0225477
0.0322784
0.0371357
0.0353381
0.0327224
0.0477249
0.0250984
0.0174599
0.0332312
0.0456946
0.0476768
0.0477249
0.0939705
0.0940553
0.094147
0.09416
0.094196
0.0941621
0.09401
0.0941041
0.0941991
0.0941996
0.0942411
0.0941993
0.0939461
0.0871037
0.0568017
0.0739871
0.094283
0.0942423
0.0938378
0.0366327
0.0207796
0.0347131
0.0682936
0.0779693
0.0386827
0.0166001
0.0211955
0.0219198
0.0125944
0.0150223
0.00317219
0.00496139
0.00352797
0.003304
0.00562088
0.00654016
0.000144003
1.06707e-05
1.31713e-05
0.000312932
0.00130116
2.67288e-05
0.000120874
5.77817e-06
8.18886e-06
0.00273077
0.00247313
9.55648e-06
0.00713978
0.000654729
3.52284e-06
0.00236415
0.00102054
1.02195e-05
0.0123495
0.00104717
9.29175e-07
0.000541968
0.000182109
0.00148918
0.00807886
2.06317e-05
1.35478e-05
2.14208e-05
8.44354e-05
0.00532215
0.0102784
0.00284685
1.95219e-05
8.44354e-05
0.00028043
0.00636395
0.0909644
0.0855672
0.094086
0.0941215
0.0941652
0.0941354
0.0487545
0.0836446
0.0788637
0.0941635
0.0942067
0.0618772
0.0575702
0.092025
0.0930721
0.0934749
0.0942483
0.0317321
0.0612531
0.0767862
0.0447812
0.0542989
0.0757731
0.0246339
0.0284628
0.0160546
0.000429192
0.00162778
0.0100278
0.0122251
8.45275e-05
5.77505e-05
1.68724e-05
7.9857e-06
1.15809e-05
1.20393e-05
1.80416e-06
5.77039e-06
6.56533e-06
3.5537e-06
2.75533e-06
5.92185e-06
3.0144e-07
2.22225e-06
5.47713e-06
1.27429e-06
5.78655e-06
9.39856e-06
7.00187e-07
2.02886e-07
3.71363e-06
1.96505e-06
2.03609e-05
0.00025199
2.50359e-05
4.43953e-07
2.57194e-07
9.24419e-07
0.000403194
0.000558738
1.80579e-06
0.000826483
0.000770829
0.00291069
0.00354505
4.87763e-06
0.00225081
0.00526696
0.0052511
0.00755786
0.00730127
0.0029009
0.00985933
0.00334178
0.036116
0.0717006
0.0515774
0.0244889
1.49305e-06
1.2551e-07
3.41226e-08
0.0283452
0.034073
0.00797876
2.50302e-05
0.00974669
0.0173851
0.0570432
0.0268106
8.14389e-05
0.000113858
0.0350173
0.0432007
0.0455556
0.0139108
0.000144996
0.00160815
0.0245704
0.015549
0.00291228
0.00402813
0.00175044
0.000699201
0.000691279
2.18377e-05
3.53322e-06
2.75472e-06
0.000296467
2.25125e-06
1.99129e-06
9.09497e-07
9.72328e-07
1.7803e-07
1.08644e-06
3.8229e-08
2.18637e-07
5.1017e-07
1.44879e-07
1.164e-05
5.24904e-05
6.37066e-08
1.26882e-07
9.94854e-07
7.57919e-08
2.67195e-05
0.000188379
4.0235e-07
1.36908e-07
1.55663e-07
2.31235e-07
1.3823e-06
7.64292e-05
1.27421e-06
4.44931e-07
2.52274e-07
0.00119476
0.00153793
2.4394e-06
0.00784519
0.00761835
0.0084324
0.00847761
0.00847761
0.00815291
0.000206487
0.000113563
7.82903e-05
0.00021693
0.000291044
0.000115711
0.000377804
0.00015836
8.242e-05
0.000376329
0.000376329
0.000188387
0.000375122
0.000318165
0.000290322
0.000372795
0.000373073
0.000372315
0.000271385
0.000217021
0.000213471
0.000199395
0.000164365
0.000193363
0.000258286
0.000204576
0.000212213
0.000128993
0.000185957
0.000223738
4.25101e-27
5.729e-24
1.04023e-09
1.94175e-23
3.85061e-19
8.06627e-05
1.30049e-05
1.65123e-05
2.91946e-05
1.19837e-05
2.77347e-14
2.71511e-05
1.85946e-14
1.17727e-14
1.41718e-12
1.78697e-14
9.88891e-15
3.52816e-06
7.63274e-18
6.53509e-18
4.59987e-20
1.05094e-17
1.03101e-19
7.29143e-25
9.11478e-11
8.41753e-11
8.55474e-11
8.40243e-11
1.14225e-10
1.11993e-10
7.58464e-14
1.60919e-13
1.52868e-12
8.46641e-15
1.06654e-14
6.13044e-12
-4.87935e-14
4.7968e-18
-4.52548e-15
-4.57576e-14
-2.06985e-13
5.81437e-18
1.02502e-08
7.07362e-09
7.1787e-09
1.34391e-08
1.83159e-08
1.03614e-08
1.65145e-10
1.09197e-10
8.68742e-11
1.98277e-10
3.29639e-10
1.05862e-10
-2.19126e-12
-1.43979e-12
-1.03335e-12
-2.39326e-12
-5.09976e-13
-6.94901e-15
8.59255e-07
1.1561e-06
1.04009e-06
8.67299e-07
8.67605e-07
1.15706e-06
4.05141e-06
3.19981e-06
2.94601e-06
4.12661e-06
5.41261e-06
2.99848e-06
4.93407e-07
3.69685e-07
3.53456e-07
5.00978e-07
5.75861e-07
2.20847e-07
1.30083e-06
1.54295e-06
1.13803e-06
1.2713e-06
2.91125e-06
9.27229e-07
1.76493e-05
1.75139e-05
1.72626e-05
1.89296e-05
1.8926e-05
1.05388e-05
4.07034e-06
3.26343e-06
3.15993e-06
3.98787e-06
4.48637e-06
2.58112e-06
1.50532e-06
1.06063e-06
8.1023e-07
1.50397e-06
1.43285e-06
4.89966e-07
3.00074e-06
4.5145e-06
3.3386e-06
3.00285e-06
2.67244e-06
3.2683e-06
3.47586e-06
3.45653e-06
3.24261e-06
3.37896e-06
2.7035e-06
2.77062e-06
2.89311e-05
2.96838e-06
1.11337e-05
2.87779e-05
2.87489e-05
1.41697e-06
3.59989e-06
3.60384e-06
3.34945e-06
3.56936e-06
3.7511e-06
3.01422e-06
1.4047e-06
1.21535e-06
1.07268e-06
1.4376e-06
1.52141e-06
1.21542e-06
5.89003e-06
7.4184e-06
6.86517e-06
5.86981e-06
5.88491e-06
7.61833e-06
1.39726e-06
1.1202e-06
1.07249e-06
1.42732e-06
1.49955e-06
1.10252e-06
1.08323e-06
6.57368e-07
6.54637e-07
1.11858e-06
1.20072e-06
6.23055e-07
2.14525e-05
1.82335e-05
1.76229e-05
2.21787e-05
2.51584e-05
1.72928e-05
2.59988e-05
1.47683e-05
1.45771e-05
2.77881e-05
3.41171e-05
1.26963e-05
3.27271e-07
1.29278e-07
1.33488e-07
4.11757e-07
5.01882e-07
1.49709e-07
0.00799024
0.00800036
0.0079692
0.0079373
0.00786195
0.00784054
4.44844e-09
3.29788e-09
3.26391e-09
4.85179e-09
5.89562e-09
3.10642e-09
3.1111e-08
6.68025e-09
7.82505e-09
3.97387e-08
5.17803e-08
5.98007e-09
0.03108
0.0306411
0.0301748
0.0302788
0.0302111
0.0301542
9.86551e-15
6.67518e-15
6.81441e-14
7.34308e-16
8.87151e-25
8.20718e-27
-5.3977e-16
-3.61225e-15
-3.70443e-14
1.41849e-17
3.2805e-16
1.41108e-13
0.033053
0.0327926
0.0324474
0.0322657
0.0323163
0.0324857
6.43617e-15
6.30658e-16
5.76953e-16
1.53355e-28
-1.34643e-15
-5.95526e-17
-8.124e-18
1.22472e-17
-6.22285e-15
8.55645e-14
4.84444e-16
2.70284e-18
0.0333924
0.0333688
0.0333251
0.0332884
0.0332506
0.0332333
1.28499e-14
2.3426e-28
2.09521e-28
2.82475e-28
3.30186e-28
1.77967e-28
-4.77136e-27
-4.50935e-27
-4.90062e-27
-4.43633e-27
-7.79543e-27
-3.03921e-27
0.0325841
0.0326214
0.0326185
0.032571
0.032511
0.032581
5.19573e-26
3.9178e-26
3.77886e-26
5.37667e-26
6.53667e-26
3.43312e-26
-3.89762e-27
-4.34507e-27
-4.75955e-27
-4.51447e-27
-5.18497e-27
-3.42354e-27
0.0317136
0.0317555
0.0317727
0.0316809
0.0316011
0.0316832
1.49745e-13
1.13462e-13
1.10266e-13
1.57688e-13
1.9276e-13
1.01692e-13
1.02053e-17
9.13798e-18
9.39357e-18
1.01016e-17
1.0503e-17
1.0077e-17
0.0302971
0.0302382
0.0302407
0.0302757
0.0302415
0.0301019
3.47746e-11
2.63134e-11
2.60093e-11
3.86722e-11
4.8019e-11
2.53901e-11
3.63014e-10
3.43972e-11
5.43428e-11
5.23038e-10
6.95924e-10
3.15895e-11
5.46534e-09
3.76014e-09
2.05494e-09
1.28181e-09
2.05494e-09
9.39366e-09
1.67986e-07
5.46534e-09
5.53992e-05
4.9021e-10
1.82873e-07
2.00383e-06
4.70946e-22
2.82056e-08
2.93149e-07
8.08914e-18
5.7205e-09
8.24438e-18
1.96258e-06
5.46532e-09
3.07406e-08
2.05494e-09
9.39367e-09
3.54567e-08
4.57564e-05
3.47689e-06
3.20624e-08
4.51211e-09
1.25826e-05
3.12615e-05
2.89303e-23
3.53423e-20
8.05494e-08
5.92334e-08
5.15456e-07
1.15505e-06
5.93e-05
5.38543e-08
3.40141e-08
2.04596e-08
1.73965e-07
1.96982e-07
7.98765e-05
2.08559e-05
2.71893e-07
4.15118e-06
2.44907e-05
3.20407e-05
3.21484e-21
3.77032e-19
6.59688e-07
7.96537e-07
1.46429e-06
1.12283e-05
0.000177355
1.23523e-06
0.00663801
0.00968985
0.000157341
1.3893e-07
9.51973e-06
5.05651e-05
0.000211876
0.000655338
6.04421e-08
8.1587e-10
1.174e-18
1.57956e-07
1.56505e-18
1.88916e-18
1.10687e-07
-5.03063e-18
0.000333154
0.00458238
0.0100299
0.00420651
0.000171926
1.88846e-06
3.05141e-05
0.000813378
0.00157728
0.00152774
7.69627e-06
5.59179e-08
1.59583e-08
1.8031e-07
2.62709e-07
2.50384e-07
8.17016e-07
2.24576e-09
0.000204574
0.00138065
0.000979526
3.76914e-05
2.08478e-05
4.04341e-05
1.83273e-05
0.000222511
0.000177222
2.65561e-05
1.77081e-06
2.87634e-08
1.58585e-08
4.42051e-08
1.49783e-08
2.06728e-06
1.01498e-08
3.10812e-09
3.02931e-06
3.14265e-07
2.74048e-07
2.77007e-08
6.14383e-09
1.60378e-06
2.51742e-07
2.22154e-08
1.42321e-08
2.17704e-09
1.10032e-09
8.39265e-08
1.11011e-08
1.13137e-08
2.12605e-09
1.10032e-09
9.34381e-10
1.10032e-09
1.19443e-08
1.11833e-07
4.71628e-07
1.00252e-07
2.52124e-06
9.59277e-06
1.11021e-08
1.19466e-08
2.16273e-08
1.41268e-07
1.07838e-09
3.50274e-09
1.11021e-08
1.10994e-08
1.49247e-08
4.32004e-08
4.53367e-10
1.47775e-09
5.14815e-08
1.10222e-07
1.06186e-06
3.29678e-08
8.58886e-09
1.22253e-07
1.19358e-08
2.22884e-08
1.06323e-06
6.33007e-07
4.19101e-09
5.65326e-09
2.42321e-07
6.64097e-07
5.6637e-07
1.04835e-07
1.4847e-10
4.6917e-09
6.44207e-08
9.38879e-08
1.31726e-07
8.32788e-08
1.02595e-08
2.3617e-10
1.87232e-05
1.13452e-05
5.46282e-06
6.01145e-07
7.21543e-11
3.01663e-11
2.62966e-06
4.39995e-06
2.55694e-06
4.06153e-08
-2.41922e-13
6.10727e-11
9.27165e-07
1.22863e-07
1.55122e-07
7.07841e-07
5.702e-08
-1.72032e-09
6.52137e-05
3.96053e-05
2.72978e-05
2.80643e-06
1.44037e-10
4.04188e-13
1.70952e-06
1.63724e-06
3.71347e-06
9.1416e-08
-9.92401e-13
-5.68452e-16
0.00784543
0.00682749
0.0064949
0.00750226
0.00707728
0.00765945
8.51444e-11
7.58168e-11
5.17447e-10
2.98583e-10
9.5282e-12
4.96816e-14
8.24371e-08
2.0926e-08
2.89713e-07
7.2828e-09
5.07517e-18
2.70674e-18
)
;

boundaryField
{
    seabed_topleft_surface
    {
        type            zeroGradient;
    }
    seabed_topright_surface
    {
        type            zeroGradient;
    }
    breakwater_top_surface
    {
        type            zeroGradient;
    }
    breakwater_left_surface
    {
        type            zeroGradient;
    }
    breakwater_right_surface
    {
        type            zeroGradient;
    }
    water_front_surface
    {
        type            zeroGradient;
    }
    water_back_surface
    {
        type            zeroGradient;
    }
    water_left_surface
    {
        type            zeroGradient;
    }
    water_right_surface
    {
        type            zeroGradient;
    }
    water_top_surface
    {
        type            inletOutlet;
        inletValue      uniform 0;
        value           nonuniform List<scalar> 
180
(
0.000375122
0.000318165
0.000290322
0.000372795
0.000373073
0.000372315
0
0
0
0
0
0
0
0
0
0
0
0
0
0
0
0
0
0
0
0
0
0
0
0
0
0
0
0
0
0
4.07034e-06
3.26343e-06
3.15993e-06
3.98787e-06
4.48637e-06
2.58112e-06
3.47586e-06
3.45653e-06
3.24261e-06
3.37896e-06
2.7035e-06
2.77062e-06
1.4047e-06
1.21535e-06
1.07268e-06
1.4376e-06
1.52141e-06
1.21542e-06
1.08323e-06
6.57368e-07
6.54637e-07
1.11858e-06
1.20072e-06
6.23055e-07
3.27271e-07
1.29278e-07
1.33488e-07
4.11757e-07
5.01882e-07
1.49709e-07
0
0
0
0
0
0
0
0
0
0
3.2805e-16
1.41108e-13
0
0
0
0
0
0
0
0
0
0
0
0
0
0
0
0
0
0
0
0
0
0
0
0
3.63014e-10
3.43972e-11
5.43428e-11
5.23038e-10
6.95924e-10
3.15895e-11
0
0
2.93149e-07
0
0
0
0
0
0
0
0
0
0
0
0
0
0
0
0
0
0
0
0
0
1.59583e-08
1.8031e-07
2.62709e-07
2.50384e-07
8.17016e-07
2.24576e-09
1.58585e-08
4.42051e-08
1.49783e-08
2.06728e-06
1.01498e-08
3.10812e-09
1.11011e-08
1.13137e-08
2.12605e-09
1.10032e-09
9.34381e-10
1.10032e-09
1.11021e-08
1.10994e-08
1.49247e-08
4.32004e-08
4.53367e-10
1.47775e-09
2.42321e-07
6.64097e-07
5.6637e-07
1.04835e-07
1.4847e-10
4.6917e-09
2.62966e-06
4.39995e-06
2.55694e-06
4.06153e-08
0
0
0
0
3.71347e-06
0
0
0
0
0
0
0
0
0
)
;
    }
}


// ************************************************************************* //
