/*--------------------------------*- C++ -*----------------------------------*\
| =========                 |                                                 |
| \\      /  F ield         | OpenFOAM: The Open Source CFD Toolbox           |
|  \\    /   O peration     | Version:  v1612+                                |
|   \\  /    A nd           | Web:      www.OpenFOAM.com                      |
|    \\/     M anipulation  |                                                 |
\*---------------------------------------------------------------------------*/
FoamFile
{
    version     2.0;
    format      ascii;
    class       volScalarField;
    location    "8.2";
    object      p_rgh;
}
// * * * * * * * * * * * * * * * * * * * * * * * * * * * * * * * * * * * * * //

dimensions      [1 -1 -2 0 0 0 0];

internalField   nonuniform List<scalar> 
1116
(
16456.2
16449.5
16451.6
16452.2
16457.4
16447
16772
16771.3
16772.2
16776
16790.1
16761.7
17994
17990.6
17990.4
17994.3
17999.9
17987.9
19080
19079.1
19080.1
19081.5
19083.6
19081.9
19851.7
19851.1
19852.1
19854.8
19856.9
19855.2
19765.4
19762
19763.7
19767.3
19768.6
19768
18324.2
18314.6
18317.7
18320.2
18315.5
18327.2
15725
15739.9
15740.1
15730.8
15714.6
15773.2
12024.8
12014.9
12018.2
12025.8
12038.9
12018.1
10033.2
10021.6
10022.1
10035.4
10055.4
10019.6
8888.02
8875.32
8872.65
8888.58
8897.3
8863.22
7924.4
7907.58
7909.39
7923.97
7932.76
7914.23
15097.6
15146.8
15133.3
15108.3
15096.6
15117.8
12706.6
12778.4
12757.7
12726
12658.3
12750.6
14495.3
14522
14508.7
14511.8
14505.3
14520.5
18350.3
18361.7
18370
18348.7
18336.8
18394.4
20429.7
20419.4
20429.2
20431.8
20434.2
20439.7
20074.6
20069
20078.1
20078.6
20086.7
20079.2
16908.8
16931.1
16911.2
16933.2
16917.1
16914.5
9405.22
9539.51
9501.39
9454.09
9377.6
9660.94
5160.77
4999.95
5031.32
5154.73
5245.34
4921.49
4469.11
4371.73
4369.88
4457.71
4545.98
4316.13
3562.27
3586.71
3578.34
3549.08
3540.58
3560.14
2265.6
2276.65
2284.35
2265.62
2271.33
2298.74
3857.45
3963.02
3975.21
3855.23
3846.06
3934.41
648.201
726.318
743.54
637.426
527.655
759.128
1126.35
1124.35
1127.8
1135.31
1115.71
1141.53
3327.9
3290.79
3291.35
3334.58
3337.22
3343.45
8200.26
8195.84
8184.92
8204.3
8188.29
8270.69
9605.39
9629.4
9631.99
9584.68
9550.79
9686.94
9187.47
9066.67
9130.95
9140.11
9161.43
9050.48
8048.43
8210.6
8176.57
8006.13
7985.38
8174.08
3560.6
3896.38
3815.05
3568.03
3444.89
4020.59
504.816
652.396
625.685
504.884
469.371
737.935
746.195
706.252
707.675
754.325
767.866
689.438
871.432
777.367
781.266
890.499
947.753
767.687
11.352
11.563
10.8134
11.2471
11.7763
11.2269
8.25477
8.0434
7.20173
6.5803
6.63609
6.77179
6.27821
7.12174
7.52205
7.62575
7.27473
7.87178
-12.0493
-11.9227
-12.0766
-11.9973
-11.9459
-11.3375
-45.0543
-44.6942
-44.8353
-45.3877
-46.0063
-44.6118
-99.6113
-100.619
-100.153
-99.9446
-100.356
-99.9099
-97.8953
-106.078
-103.554
-97.9684
-95.9166
-106.302
42.0976
-9.85478
-9.16633
30.6297
49.5763
-8.34119
265.403
279.728
275.202
264.025
237.47
271.74
101.394
109.921
106.978
101.837
100.289
117.29
133.366
140.181
142.042
133.348
131.306
134.861
191.869
239.27
238.402
185.251
158.249
251.988
3179.96
3068.4
3147.01
3073.45
3057.19
3109.7
3060.14
2956.15
3051.79
2980.94
2920.25
3009.96
2846.88
2757.22
2728.4
2760.52
2729.28
2728.3
2567.63
2198.01
1983.21
2166.13
2188.17
2222.25
1758.48
1548.72
1584.41
1540.19
1336.11
1372.2
894.163
896.888
912.848
943.853
1032.2
961.737
611.946
544.933
472.786
527.25
612.206
560.954
567.476
517.706
391.606
245.898
302.935
429.26
560.065
536.407
381.965
216.252
249.514
471.649
377.854
513.273
384.481
257.344
267.88
477.271
390.004
417.135
412.728
461.455
494.155
550.876
419.697
384.691
465.186
568.635
601.247
581.096
3072.9
2978.44
3062.23
3020.01
2986.88
3038.2
2824.4
2748.35
2853.33
2802.27
2697.72
2756.36
2668.98
2507.05
2118.64
2241.78
2475.51
2469.01
2324.48
1485.97
1312.05
1489.35
1953.16
2018.01
962.544
616.672
631.139
694.062
664.681
675.796
99.2816
102.444
73.4279
90.6649
148.508
146.102
14.9605
8.38416
11.1175
25.1983
42.93
19.4725
39.1286
34.7714
21.3018
68.2037
52.1069
13.2467
162.808
45.4625
19.5858
58.527
28.6412
17.5116
220.254
31.7817
25.0244
35.0184
28.8185
61.4487
165.127
50.7113
51.2761
57.9593
65.3541
132.5
201.949
105.422
68.2763
79.6355
78.9774
153.005
2860.01
2667.69
3048.56
3087.45
3010.68
3060.79
1480.24
2492.89
2339.67
2811.56
2803.39
1972.38
1788.45
2805.21
2846.75
2667.42
2585.05
1016.51
1814.24
2266.74
1456.05
1612.89
2058.76
740.482
762.665
486.422
119.706
137.979
335.416
359.539
28.9935
28.4359
27.1854
26.8719
25.5279
25.1557
28.048
31.1197
36.462
36.7016
34.772
32.8465
29.9156
30.7724
30.7821
31.2276
30.4204
29.4628
16.5134
17.3572
10.9092
15.5162
17.4329
23.2183
6.59429
7.57852
9.04128
10.8767
22.6657
27.991
13.3606
33.9613
34.586
84.4188
98.7415
11.116
50.6058
107.651
112.271
184.516
172.253
67.2919
401.259
157.771
1367.52
2770.01
1993.71
982.653
6.36444
12.5959
13.9328
1043.98
1257.98
284.498
2.57053
364.084
661.48
2157.33
940.989
14.7803
-12.2171
1252.11
1578.46
1573.96
455.595
-10.4207
25.4716
817.953
540.956
109.672
136.416
57.6113
27.9716
31.4027
19.2869
19.4611
19.5813
30.0315
16.5162
19.2896
22.2327
20.3181
20.2271
18.9253
17.5658
17.5654
16.2594
16.9146
16.9632
19.4312
9.33585
6.9726
3.21345
7.94688
7.59086
18.0452
1.2621
-0.208009
-5.48465
-1.19178
-0.299021
2.24318
15.2117
10.9893
4.0316
38.2652
57.6083
8.94815
261.738
242.94
262.115
245.513
233.949
261.703
23.9219
19.642
17.1262
24.6386
28.0653
19.6961
16.4778
5.34589
1.11081
16.6359
16.0046
8.24171
8.61851
5.22456
3.73115
9.15347
9.18061
9.03547
15.5903
12.9004
12.3746
11.7412
10.1782
11.6743
5.1881
2.55514
3.04928
-1.47315
1.56069
4.39064
-15.9257
-15.6734
-15.0618
-15.7031
-16.12
-9.44003
-1.62589
-0.923824
-0.191315
-0.881681
-1.33245
0.827404
-14.0593
-13.9681
-13.8895
-13.1725
-12.8232
-12.703
-14.9056
-15.1127
-15.1213
-14.8901
-14.8327
-15.3942
-12.2133
-11.4226
-11.546
-11.8039
-11.8249
-10.9424
-16.8296
-16.9713
-17.0591
-17.258
-17.2173
-17.2341
-14.3433
-14.5102
-14.3962
-14.4663
-14.3895
-14.4506
-35.1269
-33.606
-33.5894
-34.9055
-35.6491
-33.0764
-29.8885
-29.6656
-29.7127
-30.1019
-30.2117
-29.6593
-14.2464
-14.4587
-14.4195
-14.2758
-14.0004
-14.6711
-99.8353
-99.5121
-99.6059
-100.221
-101.105
-97.4176
-60.6364
-60.7096
-60.7268
-61.2614
-61.3777
-60.2836
-11.79
-12.0973
-12.0385
-11.7714
-11.3694
-12.6579
-152.725
-152.721
-152.09
-152.794
-151.185
-148.305
-74.1944
-75.3946
-75.3026
-75.0755
-75.7902
-77.4647
-10.0957
-10.4068
-10.259
-10.0538
-9.999
-11.3871
-103.979
-102.557
-102.038
-103.934
-104.28
-103.822
-63.661
-63.6095
-63.7311
-64.4139
-64.9361
-64.5326
-11.5873
-11.7126
-11.7274
-11.6411
-11.7247
-12.1052
-38.5692
-39.2658
-39.5656
-38.2024
-38.4652
-38.9856
-27.3732
-26.944
-27.3348
-27.1416
-27.8887
-27.8427
-8.06541
-8.135
-8.28147
-7.91304
-8.03737
-8.24742
43.2361
41.2938
41.9399
43.859
42.3249
39.9029
15.2173
14.5253
14.377
15.4859
15.1156
13.6987
-0.791946
-0.722807
-0.767502
-0.666294
-0.613829
-0.857916
54.5128
55.2671
54.5131
55.5255
55.4761
56.3959
11.1779
11.0874
10.8481
11.6159
12.1863
11.9066
3.51383
3.53134
3.54771
3.57907
3.62166
3.6145
396.08
395.807
393.723
394.309
389.452
388.743
1.47149
1.49118
1.48781
1.51568
1.45235
1.56506
0.475014
0.489694
0.499325
0.531602
0.562336
0.585065
1506.68
1485.14
1464.22
1470.19
1466.55
1463.23
6.31274
6.28406
6.56017
7.08804
7.37826
7.42821
-4.83173
-4.87338
-4.78229
-4.92389
-5.01424
-5.02747
1612.58
1600.18
1584.22
1575.44
1577.37
1585.43
5.21113
5.34227
5.5649
5.73113
5.85741
5.89641
-3.42356
-3.38741
-3.32964
-3.37722
-3.48884
-3.52519
1632.2
1630.92
1628.72
1627.05
1625.31
1624.42
5.87248
5.89772
5.96512
6.06325
6.13269
6.16834
-3.88434
-3.88489
-3.88958
-3.90605
-3.91018
-3.90797
1594.73
1596.45
1596.25
1593.93
1591.03
1594.3
5.8594
5.89539
5.94563
5.99294
6.03128
6.05393
-3.44539
-3.44662
-3.45232
-3.4658
-3.4885
-3.50358
1553.59
1555.55
1556.29
1551.9
1548.08
1551.89
7.219
7.24944
7.27621
7.31212
7.35025
7.37185
-2.34834
-2.35492
-2.35822
-2.35213
-2.35105
-2.35576
1475.74
1473.3
1473.2
1474.49
1472.39
1466.35
7.60754
7.67424
7.67015
7.61853
7.5887
7.68205
-2.26122
-2.2488
-2.24554
-2.22935
-2.21985
-2.19731
-4.1927
-6.24118
-8.62559
-10.7635
-12.2598
-10.8928
-3.77177
-3.30618
-2.32248
-6.51931
-7.32516
-6.61525
-5.26669
-5.77328
-6.1294
-6.23036
-6.00081
-5.0982
-11.8635
-10.998
-10.9332
-17.9078
-23.5662
-26.0182
-3.68732
-6.12352
-7.2352
-11.2681
-11.0448
-8.60069
-6.50801
-7.0042
-7.58431
-6.53877
-5.33188
-4.47225
-21.9129
-25.4981
-24.3812
-29.3845
-35.4483
-27.535
-6.47492
-12.7743
-15.1371
-19.0768
-14.9807
-10.2357
-4.07224
-4.82591
-5.09963
-4.67948
-2.41407
-1.28959
-39.2246
-53.0394
247.627
381
-42.3983
-39.3446
-22.7958
-27.7748
-20.8465
2.76502
-26.503
-19.9404
-4.53376
-5.98392
-6.72182
-5.86013
-3.2412
-2.00487
-36.821
131.695
381.021
159.259
-15.4939
-17.0654
-17.4237
15.7847
54.2097
61.4819
-15.2332
-10.7523
-2.61659
-3.71705
-3.93294
-3.61279
-2.1315
-1.06013
4.79268
56.3106
49.655
11.3531
9.61022
10.9971
0.0808842
10.1892
10.5189
4.69598
1.96933
2.70044
-0.468406
-1.37928
-0.747772
0.0127337
-0.033261
0.178764
15.2637
15.7442
18.0453
17.3133
16.0992
15.6246
6.58116
6.22722
7.64593
6.98641
5.98548
5.8585
0.165279
-0.318098
0.273253
0.336078
0.508557
0.627046
15.6543
15.139
12.9181
12.1526
11.9473
11.8999
7.2924
6.81303
5.97099
5.71975
5.81286
4.35561
1.03712
0.869189
1.17393
1.2198
1.40228
1.4548
9.57698
8.50703
4.42518
4.56038
4.71286
4.82417
4.10079
3.68338
2.52004
1.93245
1.85224
1.16222
0.925866
0.762918
1.41972
1.91743
2.11587
2.53788
3.92804
3.70759
-0.532348
-1.98192
1.1761
2.79505
3.26484
3.11984
2.47208
1.31871
1.68172
2.40173
0.833596
0.518782
1.68
2.73919
2.68973
2.44192
12.9164
13.6094
12.2232
6.00248
7.06714
9.53563
3.5404
2.51431
3.93901
2.94706
2.159
2.04562
1.78847
1.92459
2.75703
3.38017
3.20457
3.21511
375.475
333.36
322.889
352.975
325.151
350.97
-0.774737
-0.617671
-0.0245069
0.0749188
1.26089
1.58029
-2.95825
-2.53416
-2.05079
-2.44565
-2.72325
-2.85611
)
;

boundaryField
{
    seabed_topleft_surface
    {
        type            fixedFluxPressure;
        gradient        uniform 0;
        value           nonuniform List<scalar> 
72
(
16456.2
16449.5
16451.6
16452.2
16457.4
16447
16772
16771.3
16772.2
16776
16790.1
16761.7
17994
17990.6
17990.4
17994.3
17999.9
17987.9
19080
19079.1
19080.1
19081.5
19083.6
19081.9
19851.7
19851.1
19852.1
19854.8
19856.9
19855.2
19765.4
19762
19763.7
19767.3
19768.6
19768
18324.2
18314.6
18317.7
18320.2
18315.5
18327.2
15725
15739.9
15740.1
15730.8
15714.6
15773.2
12024.8
12014.9
12018.2
12025.8
12038.9
12018.1
10033.2
10021.6
10022.1
10035.4
10055.4
10019.6
8888.02
8875.32
8872.65
8888.58
8897.3
8863.22
7924.4
7907.58
7909.39
7923.97
7932.76
7914.23
)
;
    }
    seabed_topright_surface
    {
        type            fixedFluxPressure;
        gradient        uniform 0;
        value           nonuniform List<scalar> 
72
(
3179.96
3068.4
3147.01
3073.45
3057.19
3109.7
3060.14
2956.15
3051.79
2980.94
2920.25
3009.96
2846.88
2757.22
2728.4
2760.52
2729.28
2728.3
2567.63
2198.01
1983.21
2166.13
2188.17
2222.25
1758.48
1548.72
1584.41
1540.19
1336.11
1372.2
894.163
896.888
912.848
943.853
1032.2
961.737
611.946
544.933
472.786
527.25
612.206
560.954
567.476
517.706
391.606
245.898
302.935
429.26
560.065
536.407
381.965
216.252
249.514
471.649
377.854
513.273
384.481
257.344
267.88
477.271
390.004
417.135
412.728
461.455
494.155
550.876
419.697
384.691
465.186
568.635
601.247
581.096
)
;
    }
    breakwater_top_surface
    {
        type            fixedFluxPressure;
        gradient        uniform 0;
        value           nonuniform List<scalar> 
36
(
1506.68
1485.14
1464.22
1470.19
1466.55
1463.23
1612.58
1600.18
1584.22
1575.44
1577.37
1585.43
1632.2
1630.92
1628.72
1627.05
1625.31
1624.42
1594.73
1596.45
1596.25
1593.93
1591.03
1594.3
1553.59
1555.55
1556.29
1551.9
1548.08
1551.89
1475.74
1473.3
1473.2
1474.49
1472.39
1466.35
)
;
    }
    breakwater_left_surface
    {
        type            fixedFluxPressure;
        gradient        uniform 0;
        value           nonuniform List<scalar> 
24
(
7924.4
7907.58
7909.39
7923.97
7932.76
7914.23
2265.6
2276.65
2284.35
2265.62
2271.33
2298.74
871.432
777.367
781.266
890.499
947.753
767.687
191.869
239.27
238.402
185.251
158.249
251.988
)
;
    }
    breakwater_right_surface
    {
        type            fixedFluxPressure;
        gradient        uniform 0;
        value           nonuniform List<scalar> 
24
(
419.697
384.691
465.186
568.635
601.247
581.096
201.949
105.422
68.2763
79.6355
78.9774
153.005
50.6058
107.651
112.271
184.516
172.253
67.2919
261.738
242.94
262.115
245.513
233.949
261.703
)
;
    }
    water_front_surface
    {
        type            fixedFluxPressure;
        gradient        uniform 0;
        value           nonuniform List<scalar> 
186
(
16456.2
16772
17994
19080
19851.7
19765.4
18324.2
15725
12024.8
10033.2
8888.02
7924.4
15097.6
12706.6
14495.3
18350.3
20429.7
20074.6
16908.8
9405.22
5160.77
4469.11
3562.27
2265.6
3857.45
648.201
1126.35
3327.9
8200.26
9605.39
9187.47
8048.43
3560.6
504.816
746.195
871.432
11.352
8.25477
6.27821
-12.0493
-45.0543
-99.6113
-97.8953
42.0976
265.403
101.394
133.366
191.869
3179.96
3060.14
2846.88
2567.63
1758.48
894.163
611.946
567.476
560.065
377.854
390.004
419.697
3072.9
2824.4
2668.98
2324.48
962.544
99.2816
14.9605
39.1286
162.808
220.254
165.127
201.949
2860.01
1480.24
1788.45
1814.24
762.665
28.9935
28.048
29.9156
16.5134
6.59429
13.3606
50.6058
401.259
6.36444
2.57053
-12.2171
25.4716
27.9716
16.5162
17.5658
9.33585
1.2621
15.2117
261.738
23.9219
16.4778
8.61851
15.5903
5.1881
-15.9257
-1.62589
-14.0593
-14.9056
-12.2133
-16.8296
-14.3433
-35.1269
-29.8885
-14.2464
-99.8353
-60.6364
-11.79
-152.725
-74.1944
-10.0957
-103.979
-63.661
-11.5873
-38.5692
-27.3732
-8.06541
43.2361
15.2173
-0.791946
54.5128
11.1779
3.51383
396.08
1.47149
0.475014
1506.68
6.31274
-4.83173
1612.58
5.21113
-3.42356
1632.2
5.87248
-3.88434
1594.73
5.8594
-3.44539
1553.59
7.219
-2.34834
1475.74
7.60754
-2.26122
-4.1927
-3.77177
-5.26669
-11.8635
-3.68732
-6.50801
-21.9129
-6.47492
-4.07224
-39.2246
-22.7958
-4.53376
-36.821
-17.4237
-2.61659
4.79268
0.0808842
-0.468406
15.2637
6.58116
0.165279
15.6543
7.2924
1.03712
9.57698
4.10079
0.925866
3.92804
3.26484
0.833596
12.9164
3.5404
1.78847
375.475
-0.774737
-2.95825
)
;
    }
    water_back_surface
    {
        type            fixedFluxPressure;
        gradient        uniform 0;
        value           nonuniform List<scalar> 
186
(
16447
16761.7
17987.9
19081.9
19855.2
19768
18327.2
15773.2
12018.1
10019.6
8863.22
7914.23
15117.8
12750.6
14520.5
18394.4
20439.7
20079.2
16914.5
9660.94
4921.49
4316.13
3560.14
2298.74
3934.41
759.128
1141.53
3343.45
8270.69
9686.94
9050.48
8174.08
4020.59
737.935
689.438
767.687
11.2269
6.77179
7.87178
-11.3375
-44.6118
-99.9099
-106.302
-8.34119
271.74
117.29
134.861
251.988
3109.7
3009.96
2728.3
2222.25
1372.2
961.737
560.954
429.26
471.649
477.271
550.876
581.096
3038.2
2756.36
2469.01
2018.01
675.796
146.102
19.4725
13.2467
17.5116
61.4487
132.5
153.005
3060.79
1972.38
1016.51
740.482
359.539
25.1557
32.8465
29.4628
23.2183
27.991
11.116
67.2919
982.653
284.498
14.7803
-10.4207
57.6113
30.0315
18.9253
19.4312
18.0452
2.24318
8.94815
261.703
19.6961
8.24171
9.03547
11.6743
4.39064
-9.44003
0.827404
-12.703
-15.3942
-10.9424
-17.2341
-14.4506
-33.0764
-29.6593
-14.6711
-97.4176
-60.2836
-12.6579
-148.305
-77.4647
-11.3871
-103.822
-64.5326
-12.1052
-38.9856
-27.8427
-8.24742
39.9029
13.6987
-0.857916
56.3959
11.9066
3.6145
388.743
1.56506
0.585065
1463.23
7.42821
-5.02747
1585.43
5.89641
-3.52519
1624.42
6.16834
-3.90797
1594.3
6.05393
-3.50358
1551.89
7.37185
-2.35576
1466.35
7.68205
-2.19731
-10.8928
-6.61525
-5.0982
-26.0182
-8.60069
-4.47225
-27.535
-10.2357
-1.28959
-39.3446
-19.9404
-2.00487
-17.0654
-10.7523
-1.06013
10.9971
2.70044
0.178764
15.6246
5.8585
0.627046
11.8999
4.35561
1.4548
4.82417
1.16222
2.53788
2.79505
2.40173
2.44192
9.53563
2.04562
3.21511
350.97
1.58029
-2.85611
)
;
    }
    water_left_surface
    {
        type            fixedFluxPressure;
        gradient        uniform 0;
        value           nonuniform List<scalar> 
42
(
16456.2
16449.5
16451.6
16452.2
16457.4
16447
15097.6
15146.8
15133.3
15108.3
15096.6
15117.8
3857.45
3963.02
3975.21
3855.23
3846.06
3934.41
11.352
11.563
10.8134
11.2471
11.7763
11.2269
23.9219
19.642
17.1262
24.6386
28.0653
19.6961
16.4778
5.34589
1.11081
16.6359
16.0046
8.24171
8.61851
5.22456
3.73115
9.15347
9.18061
9.03547
)
;
    }
    water_right_surface
    {
        type            fixedFluxPressure;
        gradient        uniform 0;
        value           nonuniform List<scalar> 
42
(
3179.96
3068.4
3147.01
3073.45
3057.19
3109.7
3072.9
2978.44
3062.23
3020.01
2986.88
3038.2
2860.01
2667.69
3048.56
3087.45
3010.68
3060.79
401.259
157.771
1367.52
2770.01
1993.71
982.653
-4.1927
-6.24118
-8.62559
-10.7635
-12.2598
-10.8928
-3.77177
-3.30618
-2.32248
-6.51931
-7.32516
-6.61525
-5.26669
-5.77328
-6.1294
-6.23036
-6.00081
-5.0982
)
;
    }
    water_top_surface
    {
        type            totalPressure;
        rho             rho;
        psi             none;
        gamma           1;
        p0              uniform 0;
        value           nonuniform List<scalar> 
180
(
0
0
0
0
0
0
-15.758
-15.2357
-14.0328
-15.8991
-17.2618
-10.2354
-19.0048
-19.6439
-19.5709
-19.2565
-19.3015
-19.0228
-16.0194
-16.4356
-16.2381
-16.2125
-16.177
-16.1246
-13.3527
-13.932
-13.7806
-13.4163
-13.1612
-13.7621
-6.34326
-7.32942
-7.54987
-6.42908
-5.73892
-8.1753
0
0
0
0
0
0
0
0
0
0
0
0
0
0
0
0
0
0
0
0
0
0
0
0
0
0
0
0
0
0
-0.0632294
-0.0616378
-0.0612337
-0.0600345
-0.0603143
-0.0555887
-0.00882092
-0.0320888
-0.0249743
-0.00355304
0
0
-0.407049
-0.39755
-0.321181
-0.331351
-0.340666
-0.383607
-0.261646
-0.276495
-0.260567
-0.254061
-0.250564
-0.243704
-0.324274
-0.335408
-0.327657
-0.327901
-0.328354
-0.327251
-0.0869047
-0.0910835
-0.0862264
-0.0785402
-0.0727133
-0.075228
0
0
0
0
0
0
-1.33957
-5.38281
0
-0.870335
-6.54407
-2.11767
-7.98797
-8.50322
-9.64926
-8.63572
-8.12233
-4.8742
-3.78937
-7.17323
-5.5102
-6.05601
-5.39845
-1.89235
-0.936642
-1.91069
-1.72397
-0.686774
-0.272488
-0.313095
0
0
0
0
0
0
0
0
0
0
0
0
0
0
0
0
0
0
0
0
0
0
0
0
0
0
0
0
0
0
0
0
0
0
-0.0303553
-0.0823934
-0.0519259
-0.11042
0
-0.129635
-0.406471
-0.419953
-0.7943
-1.22693
-1.02498
-0.852435
-0.697114
-0.619883
)
;
    }
}


// ************************************************************************* //
