/*--------------------------------*- C++ -*----------------------------------*\
| =========                 |                                                 |
| \\      /  F ield         | OpenFOAM: The Open Source CFD Toolbox           |
|  \\    /   O peration     | Version:  v1612+                                |
|   \\  /    A nd           | Web:      www.OpenFOAM.com                      |
|    \\/     M anipulation  |                                                 |
\*---------------------------------------------------------------------------*/
FoamFile
{
    version     2.0;
    format      ascii;
    class       surfaceScalarField;
    location    "6.45";
    object      phi;
}
// * * * * * * * * * * * * * * * * * * * * * * * * * * * * * * * * * * * * * //

dimensions      [0 3 -1 0 0 0 0];

internalField   nonuniform List<scalar> 
816
(
-2.23528e-06
-1.00023e-05
2.78806e-06
-9.18388e-06
-1.44639e-05
3.30949e-05
3.49975e-06
5.63878e-06
-2.45227e-06
7.90074e-06
-1.68303e-05
-5.92463e-06
7.3171e-07
2.97941e-06
5.57862e-06
-1.33822e-05
-2.33399e-06
7.40919e-06
8.41799e-06
-1.58978e-05
0.00062712
-0.000588205
-0.000154688
-0.000125477
4.1416e-05
0.000549625
-3.4894e-06
3.63356e-05
-7.9474e-05
-0.000189505
-1.09953e-05
-4.15528e-05
0.000449467
-0.000138191
1.34495e-06
0.000242265
-0.000265836
-3.0622e-05
-1.84272e-06
0.000303075
-0.000287554
-7.36198e-05
-2.64579e-06
0.00012783
0.000124253
-0.000160371
-5.75725e-06
-5.30723e-05
0.000234196
-2.88098e-05
-6.71623e-06
2.76097e-05
-2.63999e-06
8.2172e-05
1.33244e-05
0.000154508
-1.43901e-05
6.12816e-05
3.35056e-06
-0.000141188
0.000282335
-0.000199862
-1.23118e-05
-9.74046e-05
4.77741e-05
-7.8455e-07
-9.77613e-05
-0.00034318
2.02467e-05
-1.00981e-06
-2.15336e-05
-1.93444e-06
1.55368e-05
2.62139e-05
-2.62776e-05
1.84731e-06
1.33824e-05
-1.76798e-06
-5.23863e-06
-2.61505e-06
1.93374e-05
-5.52836e-06
1.2745e-05
-5.45609e-06
-2.42513e-06
-1.08979e-06
-5.94976e-06
-4.84464e-07
-2.37773e-06
7.35813e-06
-2.64203e-05
3.24956e-06
1.07731e-05
5.50292e-06
-2.48813e-05
-4.76173e-06
2.19582e-05
3.90352e-06
4.00827e-06
-1.8914e-05
2.24143e-06
8.43969e-06
-3.22059e-05
1.5514e-05
2.3171e-05
2.21053e-05
-2.88864e-05
3.56032e-06
1.23411e-05
-5.21367e-06
2.78433e-05
4.04626e-06
-1.14933e-05
-1.3254e-05
4.05647e-06
5.98484e-06
-5.50766e-06
-1.46868e-06
-1.08063e-05
-9.41692e-07
-1.04608e-05
-1.15193e-05
-4.17234e-06
3.65408e-07
-2.52554e-06
-1.22509e-06
-1.23098e-05
2.16554e-06
4.41258e-06
4.09935e-06
-2.49251e-06
-3.60536e-06
-1.69829e-08
-1.28242e-06
-1.26163e-05
-3.5705e-06
-1.14378e-05
-4.11035e-06
-1.10894e-05
-3.54636e-06
-6.92478e-06
1.86734e-06
5.69493e-06
-2.76306e-06
-1.4928e-05
-6.18886e-06
-1.52171e-05
-1.02671e-05
-1.32298e-05
-5.17401e-06
-2.76221e-07
1.22248e-05
-3.55515e-06
-6.92939e-06
-4.20385e-06
-3.77982e-06
-1.29289e-06
-5.91119e-06
2.09573e-06
-4.86026e-06
-4.49705e-06
1.40908e-06
3.93341e-06
-1.50078e-06
2.76339e-06
-3.41716e-06
4.64774e-07
1.62832e-06
9.708e-07
-8.97485e-07
3.96199e-06
3.34688e-06
-3.09516e-06
-1.19913e-06
-8.16791e-07
-3.60766e-06
-6.17002e-06
-2.41703e-06
-2.07152e-06
2.38202e-07
-9.64749e-07
-7.34283e-06
-6.31259e-07
1.89287e-06
1.79546e-06
-5.40521e-07
-1.44479e-06
1.78184e-07
-1.34145e-06
-1.27569e-06
-1.95176e-06
-6.99723e-06
-3.81288e-06
-2.37212e-06
-2.02641e-06
-3.9814e-06
-3.58598e-06
3.60529e-06
-4.98003e-08
-9.53504e-07
-4.644e-06
-8.55514e-06
-4.35883e-06
-5.69908e-06
-3.04832e-06
-3.75758e-06
1.28816e-08
-2.03415e-06
3.78213e-06
-2.71534e-06
-3.07205e-06
-2.3059e-06
0.000259686
-0.000305192
7.62848e-06
-6.59857e-05
0.000516117
1.14675e-05
-3.24878e-05
0.000412063
-1.55085e-06
9.28219e-06
0.00045306
-1.31498e-05
-6.37841e-05
4.48278e-05
-4.93768e-06
-0.000260487
-7.84682e-05
-0.000241373
-1.72992e-06
-0.000163278
-0.000401278
-5.37084e-06
-0.00028518
-0.000565822
-3.44792e-06
-0.000230708
-0.000283293
3.17436e-06
-1.15128e-05
0.000164536
2.70899e-06
-0.000358485
-0.000197404
-8.33649e-05
-8.88873e-07
-2.12637e-05
-0.000360386
-1.10855e-06
-0.000346592
-0.000124475
-2.25068e-06
-1.31871e-05
-0.000177523
-1.60527e-06
-0.000177149
5.8073e-05
3.13495e-06
-0.000251475
-0.000273257
-3.69765e-05
2.39086e-06
-8.63796e-05
-0.000214438
-5.27186e-06
-0.000310138
-0.000323166
0.00015433
-0.000164752
-0.000178017
-1.71892e-05
-0.000172294
-4.28431e-06
-0.000233101
-0.00031653
-1.29348e-05
3.25526e-06
1.70039e-05
7.828e-06
9.3145e-06
-1.399e-05
1.98219e-06
1.14024e-05
-1.32341e-05
1.23193e-05
-5.63916e-07
-4.8266e-06
-8.32866e-07
1.61072e-05
3.44586e-05
-2.90334e-05
-2.72414e-05
3.41742e-07
4.39926e-05
-1.49669e-05
-1.30609e-05
3.19077e-05
-3.23083e-05
-3.88019e-05
5.71761e-05
-3.77331e-05
-2.3566e-05
-3.50554e-06
-4.37036e-06
1.57042e-05
-1.40746e-05
-6.14346e-06
-1.71248e-05
8.25292e-07
3.7382e-05
-4.82209e-06
-1.98973e-05
4.33423e-05
-2.85499e-05
4.73229e-06
-3.97483e-05
-7.24291e-06
-1.16385e-06
2.881e-05
-1.32265e-05
2.04875e-05
2.29355e-05
-2.67666e-05
-1.60757e-05
4.82808e-06
3.3058e-05
8.30953e-06
-1.35681e-05
3.97523e-05
-1.99814e-05
-1.43841e-05
5.38224e-06
-1.05669e-05
-4.61239e-06
5.78233e-07
-2.05144e-06
3.34453e-05
-1.66549e-05
-1.92066e-05
8.02484e-06
6.47752e-07
8.30157e-06
-4.1529e-06
-1.06155e-07
-7.27886e-06
4.85937e-07
-2.78445e-06
-5.10964e-06
-9.60147e-06
-8.07073e-07
-2.18173e-06
-5.82519e-06
-7.58532e-06
1.65922e-05
1.13437e-05
1.32894e-05
5.27743e-07
2.04604e-05
3.10374e-06
4.8082e-06
1.46675e-05
1.7075e-05
1.53584e-05
2.59274e-05
2.06881e-05
8.95665e-06
-2.36242e-06
1.70794e-06
-8.40692e-06
-5.37082e-06
2.87538e-06
5.78799e-06
2.06883e-06
1.66724e-05
-1.1997e-06
1.21044e-05
1.9703e-05
1.01246e-05
-4.0545e-06
-1.80911e-05
2.08414e-07
-4.41992e-06
1.38925e-05
9.08495e-06
-1.08039e-05
1.06085e-05
1.50051e-05
3.7332e-06
9.3152e-07
1.45539e-05
-8.41834e-06
1.00093e-05
1.77959e-05
7.66005e-06
5.26999e-06
2.82527e-06
3.56379e-06
1.66059e-06
2.94979e-07
1.07193e-07
1.46151e-05
7.85725e-06
1.33404e-05
4.89545e-06
3.41062e-07
2.97727e-06
-2.60621e-06
-6.75417e-08
-2.42169e-06
-6.72318e-07
-2.16041e-06
2.85921e-07
-5.72589e-06
-7.76707e-07
-9.43029e-07
-3.59476e-06
-4.03065e-06
4.87886e-06
7.17302e-06
7.79513e-06
6.43954e-08
7.29762e-06
1.74945e-06
2.81656e-06
4.6231e-06
9.10376e-06
8.89048e-06
8.25211e-06
1.17884e-05
4.87648e-06
-8.73382e-07
5.86708e-07
-4.949e-06
-1.17215e-07
1.65698e-06
2.94952e-06
1.07663e-06
4.91708e-06
-1.21277e-06
6.81264e-06
6.48477e-06
5.50035e-06
-3.14255e-06
-4.69451e-06
1.90324e-07
-2.6626e-06
4.2389e-06
4.54642e-06
-5.20336e-06
3.17388e-06
7.75152e-06
2.21829e-06
5.88235e-07
5.22915e-06
-5.036e-06
5.65114e-06
5.41865e-06
4.25382e-06
3.05202e-06
1.5845e-06
1.78799e-06
1.13432e-06
-3.82357e-09
-8.79784e-07
3.69546e-06
4.73214e-06
7.6978e-06
9.42166e-08
-2.92699e-06
1.24993e-06
-2.91428e-06
1.54117e-06
6.07819e-07
7.18164e-07
-2.46659e-06
-3.71501e-07
8.89661e-07
-5.42188e-07
2.97253e-06
-2.63822e-06
1.0675e-07
1.88488e-07
-2.60858e-06
-1.49438e-06
2.20802e-07
-8.09785e-08
-3.3847e-06
-2.99611e-07
6.90175e-07
-1.41007e-06
-7.83131e-07
-8.36073e-07
-7.09447e-07
-3.66867e-06
-1.26959e-06
-5.54372e-07
-2.52648e-06
8.52295e-07
-1.20006e-06
-1.26141e-06
-4.42203e-06
-2.85451e-06
-1.20323e-06
-2.83932e-07
-1.68388e-06
-1.81533e-06
-6.54138e-07
2.03605e-06
3.91017e-07
-1.22808e-06
-4.34279e-07
2.37849e-07
2.01219e-07
-1.82645e-06
1.21735e-07
-9.6298e-07
-1.69402e-06
2.69526e-06
4.00408e-06
6.18747e-07
1.59553e-06
1.55454e-06
4.38243e-06
4.27457e-06
4.74917e-06
1.7247e-06
9.79501e-07
-1.35388e-06
1.03596e-06
1.94977e-06
6.18275e-07
-7.13044e-07
3.40401e-06
3.16805e-06
-7.7189e-07
3.56591e-07
-8.74864e-07
3.12447e-06
-2.41148e-06
3.70271e-06
1.0262e-06
4.03565e-07
-1.98409e-06
2.77394e-06
1.83755e-06
2.2786e-06
4.02314e-07
1.18219e-06
4.05628e-07
2.22716e-06
3.07584e-06
0.000553247
-0.000546531
3.70185e-06
0.000512388
1.28581e-05
0.000609241
9.36109e-05
0.0003534
1.14458e-05
0.000299995
7.60398e-06
1.16004e-05
9.31076e-06
3.55251e-05
-2.87127e-06
-0.000133821
-1.7727e-06
-0.000360682
1.61018e-05
-0.000161095
-7.473e-06
-0.000205602
-6.92163e-06
-0.000214478
7.24947e-07
-1.68102e-05
5.70506e-06
8.00853e-05
4.96875e-06
-2.86209e-05
-1.26981e-06
-0.000173817
0.000149756
-0.000111751
1.35235e-05
-0.000131547
8.92614e-08
-0.000181714
-4.3061e-06
-0.000207675
-7.87811e-06
0.000227469
1.12477e-05
1.70913e-05
1.32427e-05
-3.78104e-05
2.52679e-05
3.24947e-06
-0.000118496
-0.000331438
-1.14746e-06
-0.000380116
3.09209e-06
-0.000416114
-1.12181e-07
-1.1012e-05
8.67557e-06
-9.39758e-06
-9.49497e-06
5.20612e-06
1.78791e-05
1.64425e-05
-1.32834e-05
-2.6719e-06
3.43641e-05
-1.91515e-05
2.85556e-05
-2.39068e-05
-1.29896e-05
2.07578e-05
-4.52116e-05
1.29196e-05
-2.10809e-05
-1.16589e-05
2.69632e-05
-8.38462e-06
-4.30344e-05
8.44364e-06
-6.2849e-05
1.35279e-05
-8.33417e-06
7.72239e-06
5.31007e-06
-1.15305e-05
2.22031e-05
-2.95954e-06
-1.84378e-05
-4.88212e-06
6.30955e-06
-3.05484e-07
-1.69044e-05
1.9278e-06
-7.37119e-06
-7.71075e-06
-1.64487e-05
-1.5921e-05
-2.29843e-05
3.08317e-05
-3.68857e-05
1.27741e-05
1.19463e-05
-5.57991e-06
4.15481e-05
4.76519e-07
-2.40201e-05
-5.03891e-06
-1.84447e-06
-7.01006e-06
7.54543e-06
-2.44425e-06
-2.95086e-05
-2.66078e-05
-6.13369e-06
9.37587e-06
-4.87352e-06
-1.23056e-06
8.81438e-06
-8.57731e-06
-5.36013e-06
6.24857e-07
1.55509e-05
1.11609e-05
1.22204e-05
1.57488e-05
-6.21457e-06
-9.75555e-06
-1.97229e-05
-7.09239e-06
-1.04649e-05
1.18419e-05
1.11781e-05
4.27703e-06
-1.83981e-05
-9.97273e-06
-2.7908e-05
-1.21869e-05
-4.4067e-06
-6.29017e-06
2.32291e-06
5.89548e-06
1.0018e-05
1.54861e-06
-8.2631e-06
3.0658e-06
3.63066e-06
4.27469e-06
-7.94691e-06
1.26494e-06
-4.12555e-06
1.70452e-06
-7.82066e-06
2.81125e-06
-9.09214e-06
-1.73132e-05
-1.6742e-05
-7.31903e-06
5.69867e-06
7.60546e-06
1.82525e-05
1.91972e-06
-1.06011e-05
3.82571e-06
-1.03354e-07
7.33721e-06
4.08732e-06
4.39115e-06
-1.32364e-05
-1.28283e-05
-3.9582e-06
5.50124e-06
-1.68829e-06
-9.67441e-07
3.20911e-06
-4.56686e-06
-2.37676e-06
5.16054e-07
4.75259e-06
6.61113e-06
2.52919e-06
8.31242e-06
-7.27795e-07
-5.398e-06
-5.99908e-06
-4.21183e-06
-3.83942e-06
6.18787e-06
2.54e-06
3.04895e-06
-6.15774e-06
-5.66448e-06
-7.41253e-06
-7.07152e-06
-2.39996e-06
-3.97026e-06
9.16901e-07
3.48004e-06
2.56563e-06
6.92044e-07
-2.47703e-06
1.97901e-06
1.18751e-06
2.17137e-06
-2.62868e-06
1.2676e-07
-1.8437e-06
4.8111e-07
-3.62516e-06
1.93068e-06
-2.76387e-06
-9.70293e-06
-5.11975e-06
-3.47374e-06
1.69286e-06
4.55043e-06
5.04412e-06
9.32857e-07
-2.72523e-06
1.76941e-06
8.41116e-07
4.95612e-06
2.20131e-08
3.03416e-06
-3.61576e-06
-4.28201e-06
-2.21877e-06
2.77221e-06
-2.79175e-07
-2.43561e-06
4.78838e-07
2.03918e-06
4.0087e-06
-1.97779e-06
-1.80622e-06
2.32933e-06
5.57541e-07
-2.1092e-06
-3.54161e-06
-1.54952e-06
1.0449e-06
5.28318e-07
1.01825e-06
1.54873e-06
7.6603e-08
-3.94186e-07
6.12067e-07
-4.49286e-06
-1.74759e-06
1.28992e-06
3.95566e-07
1.64209e-06
2.042e-06
1.47529e-06
0.0001982
0.000116965
-1.25941e-05
-0.000154526
-9.35598e-07
0.00045206
1.45029e-06
-5.76559e-06
7.74858e-06
1.89188e-05
-7.14603e-06
1.85289e-05
)
;

boundaryField
{
    top_fluid_surface
    {
        type            calculated;
        value           nonuniform List<scalar> 
64
(
-7.54507e-07
0.000126663
0.000363782
-4.80533e-05
-0.000119299
-0.000201557
-8.3714e-05
-0.000128521
-0.00028316
-0.000142453
0.000396246
-0.000321415
-6.83652e-06
-0.000365754
0.000155824
3.58916e-05
0.000742768
0.000895775
0.000702866
0.00070559
-0.000147175
9.36294e-05
0.000406258
0.000583064
-0.000190688
0.000393753
0.000277657
0.000170197
0.000327444
-0.000202438
-0.000162847
6.77573e-05
-0.00024146
-5.65474e-05
-0.000331698
0.000308893
-8.28094e-06
4.32666e-06
-2.53599e-05
8.36112e-05
3.78381e-05
-0.000416172
-0.000170616
-8.94442e-06
-0.00056319
-0.000107075
-7.20936e-05
-0.000119262
-0.000359213
4.08309e-07
-0.000112775
-0.000200712
-0.000459765
-9.97051e-05
-9.50899e-05
1.76005e-05
7.96805e-05
-0.000163404
-0.000300859
-0.000907155
-0.000172986
9.27734e-06
-8.35278e-05
0.000290623
)
;
    }
    bottom_fluid_surface
    {
        type            calculated;
        value           uniform 0;
    }
    lateral_surface_1
    {
        type            calculated;
        value           uniform 0;
    }
    lateral_surface_2
    {
        type            calculated;
        value           uniform 0;
    }
    lateral_surface_3
    {
        type            calculated;
        value           uniform 0;
    }
    lateral_surface_4
    {
        type            calculated;
        value           uniform 0;
    }
}


// ************************************************************************* //
