/*--------------------------------*- C++ -*----------------------------------*\
| =========                 |                                                 |
| \\      /  F ield         | OpenFOAM: The Open Source CFD Toolbox           |
|  \\    /   O peration     | Version:  v1612+                                |
|   \\  /    A nd           | Web:      www.OpenFOAM.com                      |
|    \\/     M anipulation  |                                                 |
\*---------------------------------------------------------------------------*/
FoamFile
{
    version     2.0;
    format      ascii;
    class       surfaceScalarField;
    location    "6.6";
    object      phi;
}
// * * * * * * * * * * * * * * * * * * * * * * * * * * * * * * * * * * * * * //

dimensions      [0 3 -1 0 0 0 0];

internalField   nonuniform List<scalar> 
2916
(
-0.000140716
-0.290219
0.29036
2.70668e-05
-0.290417
0.29025
3.4383e-05
-0.290311
0.290304
-2.43103e-06
-0.290269
0.290306
6.39439e-05
-0.290337
0.29027
-0.290272
0.290336
-1.51362e-05
-0.462876
0.172672
1.30379e-05
-0.463052
0.172606
-9.19973e-06
-0.462934
0.172646
-1.06257e-05
-0.462926
0.172658
1.25846e-05
-0.462983
0.172623
-0.462926
0.172667
0.000116339
-0.621696
0.158704
-5.77753e-06
-0.621857
0.158928
-6.71936e-05
-0.621734
0.158861
-1.30418e-05
-0.62177
0.15879
-1.34073e-05
-0.621801
0.158818
-0.621734
0.158795
0.000127907
-0.849841
0.228016
1.51255e-06
-0.850104
0.228373
-3.68372e-05
-0.849946
0.228251
-6.15869e-06
-0.849979
0.228178
-7.48543e-05
-0.850021
0.228288
-0.849882
0.228073
-0.000178644
-0.981518
0.131856
3.97266e-05
-0.982166
0.131843
0.000186749
-0.98187
0.131777
1.82385e-05
-0.981811
0.132001
-0.000226708
-0.981888
0.132113
-0.98172
0.131611
-0.000630828
-1.00594
0.0250482
7.31734e-05
-1.00761
0.0247434
0.000552782
-1.00702
0.0246671
6.85546e-05
-1.00656
0.0252337
-0.000649631
-1.00645
0.0252842
-1.00695
0.0245835
-0.000788128
-0.94385
-0.0612981
5.0903e-05
-0.946817
-0.061635
0.000822168
-0.946085
-0.0617026
0.000118263
-0.944728
-0.0611289
-0.0010729
-0.944126
-0.0611378
-0.94632
-0.0617064
0.000761279
-0.838285
-0.106326
-6.51984e-05
-0.839814
-0.106177
-0.000337163
-0.839648
-0.106165
-7.87293e-05
-0.838789
-0.106198
0.00107082
-0.838862
-0.106413
-0.839077
-0.106172
0.001752
-0.677105
-0.162932
-8.50477e-05
-0.674768
-0.163209
-0.00158949
-0.675467
-0.162677
-0.000247196
-0.67685
-0.163281
0.00259737
-0.678616
-0.16309
-0.673421
-0.163058
-0.000808827
-0.418311
-0.257984
0.000231746
-0.414631
-0.261178
0.000518374
-0.416072
-0.259682
-0.000107577
-0.417117
-0.259107
-0.00269162
-0.419832
-0.2562
-0.413876
-0.262237
0.00137202
-0.128879
-0.290805
-0.000287408
-0.12785
-0.285122
-0.00189341
-0.128325
-0.28614
-7.08924e-05
-0.128459
-0.29048
0.00460497
-0.129497
-0.29501
-0.12877
-0.280502
0.00405086
-0.13293
-0.000918381
-0.122881
-0.00510769
-0.124136
-0.00156689
-0.132
0.00959906
-0.140663
-0.119171
-0.000196641
-0.503708
0.794265
1.13343e-05
-0.503877
0.793919
1.92792e-05
-0.503775
0.79407
1.58772e-06
-0.503798
0.794122
0.00011588
-0.503841
0.793997
-0.503743
0.794194
9.28226e-05
-0.642917
0.311788
-1.56637e-05
-0.642989
0.311826
-4.54204e-05
-0.642926
0.311827
-2.0983e-06
-0.643001
0.311817
7.99293e-06
-0.643043
0.311815
-0.642896
0.311828
0.000218146
-0.469546
-0.0148848
-3.88665e-05
-0.469785
-0.0140191
-0.000121288
-0.469681
-0.0143018
3.11856e-05
-0.469726
-0.0146369
9.56082e-05
-0.469836
-0.0144533
-0.469576
-0.0144292
-0.000606856
-0.251284
0.0103607
-3.95481e-05
-0.252073
0.0100943
0.000194987
-0.251812
0.0101469
8.69232e-05
-0.251657
0.0102175
0.000101592
-0.251864
0.0103016
-0.25156
0.0101584
0.000534203
0.0925838
-0.212546
-0.000240051
0.0907068
-0.210162
-0.000624723
0.0914757
-0.211126
-6.99951e-05
0.0916693
-0.21188
0.000535445
0.0912782
-0.211635
0.0921596
-0.211573
0.000718051
0.561372
-0.444458
-0.000273082
0.560854
-0.444413
-0.000693391
0.560909
-0.444346
-0.000188769
0.560957
-0.444559
0.000642368
0.560764
-0.445033
0.56149
-0.444104
0.00102344
0.953924
-0.454873
-0.000325387
0.963281
-0.462712
-0.000915091
0.96082
-0.461023
2.70388e-06
0.955963
-0.457052
0.00107421
0.950174
-0.451619
0.964855
-0.463996
0.00126134
0.848318
-0.0019814
-0.000605273
0.86362
-0.00464987
-0.00336065
0.861027
-0.00361657
-0.00100457
0.84988
-0.00247127
0.00580602
0.839452
-0.00250125
0.868106
-0.00361633
-0.00459918
0.477945
0.21204
0.000329627
0.485216
0.210267
-0.000956121
0.48676
0.212876
-3.89129e-05
0.475328
0.210354
0.0034348
0.469236
0.203652
0.490824
0.217658
-0.0163474
0.392765
-0.156457
0.00203704
0.369336
-0.163681
0.0143707
0.375734
-0.160989
0.000405616
0.388504
-0.158318
-0.032991
0.405678
-0.159245
0.354447
-0.15885
-0.00675298
0.315412
-0.206698
0.00136657
0.252855
-0.176761
0.0118005
0.263156
-0.183996
0.00358456
0.309933
-0.203692
-0.0136776
0.355593
-0.227663
0.223577
-0.16331
0.0200144
0.162468
-0.00391197
0.153901
-0.0227825
0.15789
-0.00544701
0.160597
0.0433501
0.166132
0.147757
0.000133139
-0.163406
0.957538
6.96814e-06
-0.163487
0.957531
-4.89444e-05
-0.163436
0.957562
-1.49475e-05
-0.163491
0.957579
9.35095e-06
-0.163522
0.957495
-0.163405
0.957609
0.000480904
1.09749
-0.949588
1.03851e-05
1.09883
-0.950023
-0.000297386
1.09823
-0.949534
-7.68108e-05
1.09785
-0.949748
0.000352311
1.09798
-0.950117
1.09793
-0.94915
0.000872413
3.51054
-2.42881
-2.70099e-05
3.51321
-2.4275
-0.000354103
3.51223
-2.42797
-3.02892e-05
3.51187
-2.42897
0.000837504
3.51388
-2.43122
3.50963
-2.42529
-0.0160801
4.44942
-0.912439
2.4739e-05
4.43563
-0.92843
0.00654692
4.44012
-0.924264
2.0978e-05
4.44547
-0.916858
-0.00417115
4.44891
-0.920542
4.43633
-0.920722
0.0187498
5.63788
-1.41975
-0.00480245
5.61262
-1.36361
-0.00670327
5.61875
-1.38786
-0.00364883
5.63332
-1.40279
-0.000249945
5.63519
-1.40131
5.61993
-1.39542
0.0483025
3.72994
1.41519
-0.00482368
3.79043
1.4309
-0.00901458
3.7597
1.4189
-0.00842324
3.7612
1.42697
0.00554368
3.73809
1.4381
3.77723
1.40414
0.0822887
0.172161
3.02061
-0.00612149
0.366414
3.04971
-0.0723187
0.31368
3.05119
-0.0121888
0.219633
3.02438
0.157957
0.115983
3.00033
0.401725
3.06947
0.0215471
-1.86219
2.01083
-0.00332866
-1.70415
2.0908
-0.0669492
-1.72793
2.10162
-0.0168251
-1.84386
2.0109
0.161072
-1.98051
1.9161
-1.6175
2.17668
-0.0795693
-1.68432
0.113729
0.00862905
-1.70793
0.125846
0.0564227
-1.69744
0.134588
0.0104004
-1.69615
0.108664
-0.106284
-1.72599
0.0658225
-1.67573
0.169599
-0.024656
-0.870724
-0.945392
0.00333289
-0.945906
-0.953693
0.0249963
-0.926192
-0.953897
0.00515187
-0.888483
-0.946137
-0.0573768
-0.864974
-0.957737
-0.954417
-0.937538
-0.00605034
-0.208889
-0.862484
0.0047841
-0.291143
-0.842358
0.0194295
-0.275159
-0.849675
0.013131
-0.226264
-0.859612
-0.0228688
-0.176865
-0.879772
-0.305121
-0.835474
0.0324455
-0.0788667
-0.00483104
-0.099966
-0.0291576
-0.0929419
-0.0103298
-0.084495
0.0482934
-0.0693562
-0.109071
0.000263686
0.0147486
0.942526
6.49612e-06
0.0149629
0.942826
-0.00010588
0.0150096
0.942665
2.5262e-05
0.0147355
0.942713
0.000112698
0.0146791
0.942729
0.01512
0.942602
-0.00214929
-1.04976
0.117074
0.0026191
-1.0565
0.116671
0.00302656
-1.05483
0.119895
0.00146822
-1.04951
0.116055
0.00410514
-1.05219
0.114109
-1.05171
0.121789
-0.0578711
-0.981366
-2.43933
0.0071878
-1.11304
-2.43602
0.0252164
-1.0635
-2.43732
0.00578224
-1.01954
-2.43951
-0.0148552
-1.01833
-2.44443
-1.06098
-2.43088
-0.0161868
-0.142602
-1.73502
-0.00518259
-0.377117
-1.67535
0.00313732
-0.288431
-1.70766
-0.00246207
-0.220987
-1.70981
-0.0182418
-0.213176
-1.70992
-0.287846
-1.7121
0.137402
-0.808627
-0.891125
-0.0112131
-0.85058
-0.741526
-0.0450666
-0.829925
-0.812507
-0.0165899
-0.826767
-0.825487
0.0148832
-0.835053
-0.810905
-0.828439
-0.839949
0.126592
-2.33441
2.81438
-0.00385363
-2.17887
2.88964
-0.051868
-2.21586
2.85284
-0.0136639
-2.29183
2.85383
0.0924465
-2.36318
2.86012
-2.16574
2.83389
0.0190244
-3.71351
4.38068
5.66153e-05
-3.61392
4.50374
-0.036017
-3.63449
4.5059
-0.00206078
-3.69357
4.39217
0.0964043
-3.75369
4.29238
-3.58083
4.58096
-0.0340164
-3.5923
1.92364
0.00131534
-3.58671
2.02826
0.0214881
-3.58562
2.03258
0.00988029
-3.59883
1.92777
-0.0358019
-3.61998
1.82807
-3.55832
2.11838
-0.0059384
-2.73512
-0.737518
-0.0021968
-2.7449
-0.719707
0.00876757
-2.74192
-0.720079
0.00220674
-2.74253
-0.74107
-0.0108233
-2.74242
-0.798708
-2.73592
-0.663624
0.0107563
-2.08301
-1.60825
-0.00400564
-2.08267
-1.60116
-0.00639703
-2.0787
-1.61473
-0.00295357
-2.08991
-1.6022
0.0117682
-2.09669
-1.61819
-2.06985
-1.59184
-0.00564305
-1.18831
-1.75154
7.51723e-05
-1.1976
-1.73315
0.00900657
-1.19309
-1.74421
-0.00111769
-1.19552
-1.74388
-0.0131194
-1.19756
-1.7669
-1.19285
-1.7256
0.00989948
-1.27708
-0.00123997
-1.28643
-0.00396483
-1.28331
0.00075925
-1.28474
0.0125293
-1.27869
-1.28939
-0.653493
-0.334051
0.987544
-0.0707892
-1.47474
0.89204
-0.51284
-0.531769
0.97382
-0.154278
-1.33019
0.971631
0.797162
-1.83964
0.888199
-0.140807
0.937968
-0.302278
-1.52085
1.48907
0.0374266
-2.79037
0.975921
0.099642
-2.03493
1.44094
0.1266
-2.3646
1.00745
0.111217
-2.80462
0.980361
-1.18323
1.15364
0.0571976
-2.70731
1.12927
-0.129289
-3.24843
0.644547
-0.0211982
-3.08786
0.944838
-0.125364
-2.9142
0.653765
-0.359369
-3.24382
0.673212
-2.5242
0.981598
0.319533
-3.20228
0.175434
-0.0804761
-3.51355
0.665131
-0.115672
-3.42545
0.372791
-0.355086
-3.21481
0.540028
-0.48177
-3.48377
0.366631
-3.15265
0.146681
0.221431
-3.35647
-0.0672426
-0.102977
-3.93263
0.743482
-0.0687633
-3.64779
0.188131
-0.293887
-3.6361
0.646408
-0.395166
-3.53171
0.149222
-3.33708
-0.210736
-0.0734198
-3.35595
0.0729036
-0.0455513
-3.8032
-0.157293
-0.0286899
-3.60019
-0.0644626
-0.00255326
-3.58433
-0.0779039
-0.133087
-3.36448
-0.0366943
-3.23675
-0.23342
-0.0882172
-3.04242
-0.22531
0.0860267
-3.33314
-0.644305
0.0078848
-3.2743
-0.247753
0.114631
-3.20693
-0.484146
0.0398233
-3.02929
-0.26039
-2.9607
-0.236226
0.080854
-2.54388
-0.579394
0.12512
-2.86749
-0.509917
-0.0414273
-2.91
-0.197755
0.0703236
-2.79744
-0.521247
0.065683
-2.66008
-0.364567
-2.62962
-0.265395
0.0903988
-2.20147
-0.432815
-0.0304096
-2.49474
-0.251943
-0.141483
-2.55644
-0.242484
0.0694647
-2.42464
-0.583743
0.197256
-2.28137
-0.506498
-2.52858
0.0962183
-0.167178
-1.73395
-0.300338
-0.243646
-1.93762
-0.480654
-0.0286451
-2.04794
-0.723497
0.208973
-1.73484
-0.927418
0.18504
-1.49925
-0.758192
-2.04522
-0.298327
-0.370987
-0.400811
-0.962152
-0.329576
-0.490653
-1.48837
0.380955
-0.754516
-2.00396
0.486406
-0.469131
-1.37116
0.0463884
-0.112868
-0.946361
-0.342962
-1.65587
-0.325222
-0.0755896
-0.267115
-0.54876
0.316139
-1.33777
0.411711
-0.564704
0.188633
0.11021
-0.154329
-0.59139
-0.387001
1.96594
-0.265773
-1.56178
2.12821
-0.640244
-0.631588
1.97988
-0.259656
-1.74834
2.33938
0.618275
-2.4495
2.45977
-0.183894
1.74014
-0.0201805
-2.1837
3.30595
-0.0511484
-3.95296
3.39807
-0.020544
-2.68344
3.46219
-0.26814
-3.50582
3.01253
-0.629812
-4.0136
2.90614
-1.54302
1.88296
0.0430374
-2.75375
1.65628
-0.0965791
-3.96076
0.791959
-0.116165
-3.49196
1.77294
-0.103439
-3.5098
0.645022
-0.247483
-3.52953
0.333187
-2.48426
1.67536
-0.485022
-0.777048
-1.31625
-0.0868751
-3.29145
-0.402325
0.0585048
-2.47518
-0.789367
0.569225
-2.76037
-0.720128
0.580386
-2.01132
-1.16275
-0.362276
-1.39492
-0.61865
1.56011
-1.78575
-0.269692
-2.0401
-0.856821
0.224652
-1.7586
-1.02279
0.972514
-1.72444
-1.13738
0.691913
0.319914
-1.90141
2.1848
-2.0659
0.457596
2.28401
-1.10859
-0.586094
-0.125951
-1.02776
-0.764995
-0.922725
-0.721436
-1.12555
-0.103547
-1.33824
-0.676524
1.34091
-1.50672
1.85332
-0.578465
0.461076
1.64904
-0.051413
-0.430037
0.0266362
0.0942193
-1.77555
-0.695342
0.870376
-2.33356
0.54205
-0.571732
-1.08147
0.572791
-0.744366
-0.159706
0.695335
0.235666
0.0544757
0.779499
0.121555
-1.76787
1.3987
-1.01407
-1.6546
1.89712
-1.2522
-0.627571
0.886506
-0.349234
-0.637082
-0.0576613
-1.86988
1.09554
0.433887
-1.62998
0.817752
-0.320502
-2.76085
1.49542
-1.56827
-2.2811
1.63178
-1.32994
-1.81055
0.360909
-0.25753
-1.82577
-0.390231
-2.85594
0.824753
0.481724
-2.41532
0.00327226
-0.213913
-2.73368
0.187817
-1.16245
-2.105
0.0489376
-0.762061
-2.03472
-1.10364
0.276972
-1.98205
-1.64094
-2.51128
-0.366024
0.394412
-1.31957
-2.45231
0.233792
-1.40892
-2.65252
-0.503781
-1.30804
-2.06334
-0.329915
-1.12621
-2.45354
-0.036329
-0.675336
-2.54666
-1.22141
-2.98206
0.292836
-1.68799
0.342145
-2.00699
0.0469208
-2.35059
-0.171013
-1.47298
-0.451495
-0.284644
-1.82723
-0.257597
0.144402
2.07913
-0.412119
-0.235871
2.5186
-0.595209
-0.0942067
2.25718
-0.297845
-0.37534
2.41736
0.159434
-0.689682
2.69217
-0.084926
1.9845
-0.0481974
-0.94774
4.44629
-0.0873763
-1.12763
4.32901
-0.174296
-1.47164
4.92654
-0.30775
-0.971061
3.7417
-0.952608
-0.494574
3.35589
-0.997085
1.84251
-0.187567
-0.135227
1.03133
-0.0546073
0.248435
-0.717067
-0.150609
-0.501402
0.898707
0.122187
0.156061
-0.754897
0.317864
0.5719
-0.928965
-0.237619
1.23376
-0.332716
0.501633
-1.62039
0.214351
0.634656
-1.33561
-0.105516
0.619747
-1.59065
0.262879
0.509628
-1.44209
0.648465
0.652656
-1.62909
0.600595
-1.58467
-0.13633
0.0873513
-1.23514
0.19335
0.636204
-1.18805
0.557243
0.454109
-1.22105
0.704707
0.437223
-1.21244
0.456214
0.390626
-1.39089
0.431097
-1.44019
-0.409636
0.376503
-0.988105
-0.333482
0.493561
-0.961266
0.0281439
0.423205
-1.05216
-0.0379776
0.475747
-1.31064
-0.188864
0.0812603
-1.04647
-0.0163622
-0.319871
-0.129488
0.0715175
0.383059
0.00720203
-0.70857
1.15966
0.594236
-0.857305
1.56385
0.483232
0.146359
-0.131343
-0.154544
0.262721
-0.288053
-0.965816
1.49024
-0.420814
-0.138448
1.41028
-0.0278039
-1.9322
2.22932
0.479874
-2.09178
2.62392
0.339052
-0.040838
1.21452
-0.0314794
0.875341
-0.299752
-0.86929
0.967534
0.0297714
-0.0544605
0.70399
-0.265362
-1.5018
1.36014
-0.451559
-1.49178
1.21797
-0.531506
0.0726004
0.327415
-0.27436
0.708936
-0.480976
-0.426615
0.107721
0.431074
0.101665
-0.583926
-0.336525
-0.275922
-0.270457
-1.43698
0.316169
-0.658568
-1.16109
-0.0638439
-1.24308
-0.148695
-0.347823
-1.59658
-0.270741
-0.670598
0.0969767
-0.288598
-2.15903
-0.343642
-0.244628
-2.2432
-0.733137
0.278172
-1.63585
-0.289292
-0.460474
-2.50075
0.447523
-0.50986
-3.12144
-0.484149
-2.32113
0.192217
-2.16881
0.133646
-2.19305
-0.215788
-1.72298
-0.393088
-1.75615
0.128002
-1.3156
-2.18338
-0.187384
0.123985
2.14253
-0.226068
-0.161075
2.71836
-0.443024
0.0184707
2.45566
-0.275308
-0.188941
2.43858
0.21832
-0.649115
2.84766
0.0309837
2.17183
-0.157446
0.0245898
4.70313
-0.175691
-0.4911
4.67728
0.106793
-0.330143
4.99266
-0.162472
-0.293243
4.11527
-0.247985
-0.556029
3.34831
-0.512712
2.13822
0.391274
0.426813
0.237836
0.0263298
0.153918
-0.997141
0.725539
0.250654
-0.381299
0.651455
-0.0588318
-0.915225
-0.0888347
-0.116864
-0.62784
0.0347218
0.597487
0.130354
0.105699
-1.42963
0.217414
0.146882
-1.41563
0.168603
0.141738
-1.43292
0.20832
0.0111273
-1.55177
0.192697
-0.0046034
-1.72572
0.0112214
-1.36847
0.0375594
-0.510142
-0.656855
0.119218
-0.518551
-0.604273
0.129089
-0.462044
-0.627133
0.0787881
-0.556752
-0.594259
0.0757393
-0.677238
-0.715204
-0.66622
-0.687006
0.223928
-0.854897
-0.867277
0.0628978
-0.75434
-0.564448
-0.220843
-0.494463
-0.736
-0.472475
-0.721092
-0.894667
-0.423863
-0.954511
-0.817805
-1.06123
-0.348724
-0.184003
-0.60844
0.320605
0.0657279
-0.791227
0.946814
0.914542
-0.763162
0.983733
0.30872
-0.326084
0.0794705
-0.489911
-0.310786
-0.133148
-0.840872
0.779968
-0.299792
0.377717
0.723908
0.0354999
-0.368969
1.47177
0.752704
-0.726575
1.87013
0.733656
0.347046
0.560438
0.220558
0.454738
-0.552183
0.00678923
0.340428
-0.161236
1.2277
0.0152401
-0.0122743
0.440264
0.401943
0.257388
-0.0272472
0.248983
0.288303
0.878708
-0.235164
0.233475
0.592792
-0.564202
0.721066
-0.373081
-0.0116582
1.81359
-1.15816
-0.200086
1.63197
-1.27374
-0.684926
1.28783
-1.48881
-0.591125
0.743412
-1.20159
0.241558
-0.552723
-1.28375
1.32972
-1.03769
0.135465
0.849165
-1.33008
-0.249529
1.07666
-1.30289
-0.330229
0.969283
-1.23661
-0.0793946
-0.318655
-1.68952
0.294131
-1.18264
-2.86505
0.763076
-1.46036
-0.0712916
-1.24835
0.100568
-1.28825
0.769599
-1.42273
0.336701
-1.64191
-0.0741453
-2.0874
-1.49445
-0.000819809
0.873671
0.0696747
-0.000172137
0.872422
0.0697562
0.000137799
0.872618
0.0697379
4.1105e-05
0.873078
0.0697319
0.00019343
0.872804
0.0697734
0.873102
0.0696935
-0.00149543
0.77956
0.0956063
0.00055711
0.773523
0.0968462
0.000344686
0.776478
0.0963525
-0.000257341
0.777533
0.0961466
0.000573104
0.775499
0.0964742
0.7777
0.0959743
-0.0109646
-0.597865
0.000487491
-0.602776
0.00185152
-0.600792
7.74978e-05
-0.600251
0.00380177
-0.601036
-0.599707
-0.00222827
1.93608
-1.74711
0.00109373
1.93724
-1.75413
0.00291238
1.93722
-1.7494
0.00127478
1.93665
-1.74922
-0.00417222
1.93739
-1.74806
1.93714
-1.74983
-0.00714609
2.83211
-0.793278
0.000777866
2.82008
-0.793914
0.00193062
2.82427
-0.79185
0.000522521
2.82628
-0.79208
0.000389377
2.82301
-0.78901
2.82763
-0.79413
-0.0134218
-1.73631
-0.000548423
-1.7438
0.0019279
-1.74011
0.000563207
-1.73957
0.00333926
-1.73842
-1.73899
-0.057043
-2.11922
-2.01018
0.00642562
-2.11794
-2.13569
0.0163618
-2.11941
-2.07725
0.00570974
-2.11993
-2.05815
-0.00433473
-2.12204
-2.06041
-2.11499
-2.07006
-0.0564008
-1.15101
-1.70509
0.00702626
-1.13857
-1.83671
0.0112845
-1.14669
-1.76883
0.00468512
-1.14555
-1.75986
0.0130449
-1.14737
-1.77204
-1.1469
-1.74917
-0.0240389
-1.60966
0.00283525
-1.67753
0.0036302
-1.64194
0.00131439
-1.63817
0.00920199
-1.64585
-1.62961
0.000991942
-2.04226
-1.70392
-0.00359738
-1.88179
-1.92466
-0.00802606
-1.96285
-1.81763
-0.00127702
-1.97442
-1.80029
0.00432284
-1.95841
-1.81751
-1.98557
-1.79226
-0.0525236
-0.950443
-2.74439
0.00407215
-0.765588
-3.00951
0.00283728
-0.861209
-2.86924
0.00546875
-0.867149
-2.86976
0.0364693
-0.843931
-2.91753
-0.894779
-2.8035
-0.0820466
-1.70624
0.0036732
-1.98872
0.00525685
-1.84543
0.00349793
-1.83767
0.050145
-1.89766
-1.77311
0.112313
0.439203
-3.14656
-0.00651949
0.650546
-3.19789
-0.0349017
0.540833
-3.14259
-0.011467
0.542892
-3.19211
0.0231423
0.576782
-3.2398
0.48662
-3.09569
0.118593
1.83216
-4.25594
-0.000692849
2.13927
-4.37895
-0.0188813
1.98174
-4.29195
0.00481157
1.98477
-4.33533
0.00423297
2.06173
-4.40189
1.89548
-4.20812
0.0453535
-2.88495
0.000385037
-3.16629
-0.00684069
-3.01487
0.00864424
-3.03761
0.0135511
-3.13428
-2.90114
0.105912
3.94681
-4.3849
0.0004045
4.11103
-4.31378
-0.0403658
4.05959
-4.30856
-0.0024181
4.01106
-4.38729
0.101999
3.97847
-4.46257
4.0766
-4.2364
0.0712677
4.54571
-4.92611
-0.00164946
4.73519
-4.93019
-0.000616356
4.68007
-4.91346
0.00573301
4.61116
-4.94178
-0.00853901
4.58272
-4.99187
4.71501
-4.85507
0.0942804
-3.66352
-0.000320145
-3.75924
0.0263532
-3.70509
0.00339148
-3.72028
-0.116597
-3.77402
-3.62093
-0.0193317
4.41876
-4.40364
0.00275687
4.54398
-4.37611
0.0141555
4.55851
-4.37257
0.00859786
4.41769
-4.40725
0.0141568
4.29258
-4.46834
4.6656
-4.30688
-0.0401428
3.70014
-4.16735
-0.00594778
3.75141
-4.17181
0.0260394
3.78904
-4.17598
0.00753887
3.65724
-4.16283
-0.048121
3.54143
-4.18505
3.91664
-4.15423
0.00834101
-3.02383
-0.00627127
-3.02118
0.0283889
-3.03931
-0.00291353
-2.99882
-0.111504
-2.98075
-3.03938
-0.0404495
0.969536
-3.40909
-0.00157589
1.02896
-3.41568
0.0333136
1.04579
-3.42067
0.00506156
0.945349
-3.39658
-0.0632986
0.825693
-3.3976
1.1624
-3.4142
-0.0389808
-0.997616
-2.16122
-0.014634
-1.01775
-2.14944
-0.0086124
-0.976452
-2.15975
-0.0129971
-1.07862
-2.13448
-0.0487655
-1.20477
-2.11882
-0.874594
-2.166
-0.0159123
-1.06562
-0.0183118
-1.042
-0.0321983
-1.06011
-0.021109
-1.03159
-0.035164
-1.00039
-1.07048
-0.0194158
-1.95831
-2.16888
-0.00263064
-1.99515
-2.15702
0.0156299
-1.99478
-2.16422
-0.000850501
-1.96635
-2.15482
-0.0486821
-2.01012
-2.13835
-1.94581
-2.1807
-0.00494458
-3.0044
-1.11018
-0.00649341
-3.05521
-1.08783
-0.0167935
-3.05184
-1.09239
-0.00698362
-3.01203
-1.0986
-0.0112466
-3.02844
-1.09624
-3.03066
-1.09239
0.00412057
-0.492583
-0.00472755
-0.487648
-0.0272957
-0.48782
-0.00883679
-0.487841
0.0202278
-0.485433
-0.4866
-0.0108227
-1.64824
-2.11807
-0.000512978
-1.64805
-2.12043
-0.00710842
-1.65532
-2.11704
-0.00334059
-1.64152
-2.11926
0.0133592
-1.65894
-2.1143
-1.63753
-2.12165
-0.0165404
-2.21455
-0.527339
-0.0019882
-2.22381
-0.526623
0.00280071
-2.22529
-0.527204
-0.00115647
-2.21135
-0.52482
-0.0107201
-2.22152
-0.524098
-2.21548
-0.525155
-3.34876e-05
-0.176269
-0.00182302
-0.17578
-0.00408702
-0.175913
-0.00123289
-0.174887
-0.00240786
-0.174377
-0.174865
0.00076023
-1.36711
-2.50326
0.00203588
-1.35321
-2.50164
-0.00217086
-1.35763
-2.49942
0.00200976
-1.36316
-2.50416
0.00336282
-1.37587
-2.50667
-1.34693
-2.49696
-0.00606688
-1.6985
-0.189883
-0.000192046
-1.69559
-0.190119
0.00300058
-1.69654
-0.19148
-0.000296367
-1.69707
-0.187613
-0.00958398
-1.70378
-0.186905
-1.68988
-0.191785
-0.00143569
0.117495
-0.000665083
0.118298
-0.000242733
0.118159
-0.000600692
0.118204
-0.00296122
0.117689
0.119377
0.0076592
-2.27416
-1.51383
0.00142567
-2.26525
-1.51659
-0.00101635
-2.26464
-1.51564
-0.000715578
-2.26728
-1.52193
0.00805541
-2.27065
-1.52348
-2.2619
-1.51639
-0.00298204
-1.85923
-0.601826
-0.00140336
-1.85604
-0.600907
-0.000383732
-1.85544
-0.601707
-0.000641307
-1.85489
-0.599738
-0.00173787
-1.85709
-0.599372
-1.85341
-0.602011
-0.0026779
-0.195986
-0.00160518
-0.194722
-0.00085428
-0.194581
-0.000503629
-0.194106
-0.00223394
-0.194175
-0.193558
-0.0168592
-0.990125
-0.653789
1.66077
-0.0257199
-0.990877
-0.647683
1.64742
-0.016135
-0.98097
-0.636456
1.60784
0.000280837
-0.960171
-0.627926
1.57168
0.0149524
-0.898092
-0.604413
1.48783
-0.974994
-0.644947
1.63489
-0.0410105
-0.81956
-0.0688095
-0.0607448
-0.0504535
-0.820589
-0.0665286
-0.0943171
-0.0458776
-0.814767
-0.0784171
-0.0923619
-0.035108
-0.825869
-0.0748675
-0.0702049
0.0304461
-0.810758
-0.0850346
-0.0678533
-0.834177
-0.0810556
-0.0293162
0.021763
-0.340346
-0.119321
0.0175796
-0.359274
-0.0785449
-0.00780594
-0.383252
-0.0259184
-0.0204448
-0.37526
-0.0325473
-0.00399077
-0.37729
-0.0148084
-0.352029
-0.0789843
0.00106646
-0.473555
-0.1813
0.0044359
-0.470879
-0.180174
0.00429511
-0.459569
-0.176746
0.00201781
-0.45106
-0.174588
-0.00112644
-0.428622
-0.172648
-0.468057
-0.178017
0.0125457
-0.559278
0.00436588
0.0229075
-0.55909
0.0113203
0.022521
-0.55202
0.0144206
0.0178986
-0.544279
0.0229734
0.00450499
-0.532195
0.0319317
-0.557121
0.0125127
0.0058068
-0.240026
0.000338664
-0.243614
-0.0135265
-0.247675
-0.0120069
-0.243451
-0.00211305
-0.237742
-0.237804
-0.000904542
-0.186941
0.00654607
0.000440968
-0.187933
0.00641379
0.00291466
-0.185435
0.00621537
0.000967411
-0.17836
0.00571856
-0.00121682
-0.175687
0.00522409
-0.184496
0.00526234
-0.00891043
-0.361083
0.187418
-0.0132732
-0.360606
0.188355
-0.014045
-0.357149
0.186906
-0.00861207
-0.350043
0.189223
0.00514518
-0.346883
0.189369
-0.352247
0.185408
0.000288864
0.000130816
-0.00222483
-0.00152872
-0.00615946
-0.00260314
-0.00577289
0.00100358
0.000159166
0.00319634
0.00209057
-0.000429484
-0.186927
0.193903
-0.00066285
-0.187167
0.193814
-0.00100974
-0.187355
0.193917
-0.000645122
-0.189395
0.194749
0.000325785
-0.190707
0.19496
-0.187649
0.193237
-0.000626839
-0.394912
0.39603
-0.000897263
-0.395284
0.396743
-0.00188262
-0.395314
0.39585
0.000109111
-0.396757
0.394593
0.00361405
-0.398685
0.393843
-0.394197
0.39557
0.000664064
0.265601
0.000141838
0.26549
-0.00109917
0.265518
-0.00132569
0.266381
-0.00113935
0.267197
0.267451
-0.000784691
-0.389564
0.584251
-0.000903213
-0.391349
0.585282
-0.000943041
-0.391522
0.58548
-0.000778293
-0.395222
0.589806
-5.98312e-05
-0.396777
0.591019
-0.392853
0.586031
0.00109214
-0.549503
0.554877
0.00230696
-0.550794
0.554972
0.00232372
-0.550788
0.555098
0.0021858
-0.55381
0.553319
0.00233961
-0.556081
0.552993
-0.550649
0.555706
0.000625233
0.469689
0.000634118
0.469442
0.000948603
0.469363
-8.3611e-06
0.468526
-0.00121837
0.468281
0.469644
-0.000309553
-0.929274
0.000525827
-0.932146
0.00224961
-0.93188
-9.31007e-05
-0.929783
-0.00292999
-0.929627
-0.933291
0.000378369
-0.976602
0.000147301
-0.97785
-0.000837104
-0.977504
0.000201217
-0.97724
0.00229305
-0.978098
-0.977304
0.000997944
0.000437243
0.000145204
0.000218913
-0.000193938
-0.182549
2.25479
0.070284
-0.223004
2.64749
0.111319
-0.0788019
2.17364
0.137822
0.0791909
2.21826
0.0623251
0.201272
2.73639
-0.0108159
2.2719
0.101205
-0.0890782
2.39356
-0.0496856
-0.42025
3.32657
-0.347908
-0.104039
1.80611
0.0513163
0.177314
1.90422
0.032687
0.294575
2.67812
-0.0589894
2.54118
0.025298
-0.994021
-0.669858
-1.63198
-1.39428
-0.592412
-1.18952
0.469545
-0.945299
1.61679
-0.953888
-0.345842
-0.16213
4.82189
0.113653
0.0375148
4.63173
-0.0427812
0.813222
4.63179
-0.277013
0.861204
4.16689
-0.0372774
0.426115
3.25421
0.518377
2.73728
-0.0717387
-0.138969
4.69792
0.213259
0.26632
3.95859
-0.0800535
1.26339
3.64261
0.0434237
1.58342
3.6976
0.181947
0.900223
3.31972
0.558699
3.5892
0.0735961
-0.0716256
-0.277896
0.29604
-0.715394
1.03878
-0.68759
1.51298
-0.506474
1.38816
-0.219541
-0.440446
0.320426
0.0909823
-0.0599201
0.210928
-0.68012
-0.250305
0.180206
-0.376381
-0.25121
-0.359623
0.00514791
-0.417821
-0.283872
-0.0157876
-0.169425
0.284233
-0.0423559
0.150055
0.114039
0.0401466
-0.222971
-0.324351
-0.0627951
-0.435573
-0.066102
-0.0542538
-0.518503
0.42614
-0.156114
0.02796
0.0976071
-0.101157
0.351944
0.033845
0.114338
-0.109823
-0.383253
-0.0270982
-0.649782
-0.0535995
-0.423718
-0.131153
-0.12906
-0.170555
-0.370441
0.103989
-1.36512
-0.228416
0.127836
-1.4174
-0.272383
0.120722
-1.39488
-0.282136
-0.00222088
-1.49861
-0.348036
-0.10292
-1.52978
-0.264664
-1.34387
-0.16988
0.0936297
-1.28154
-0.137064
0.137779
-1.32308
-0.201263
0.198733
-1.30624
-0.203847
0.0958566
-1.36622
-0.185624
-0.0228466
-1.36365
-0.148589
-1.28369
-0.0491855
0.002462
-0.172373
0.0874533
-0.196573
0.162996
-0.200921
0.145682
-0.199484
0.125207
-0.204387
-0.188639
-0.00594777
-0.497939
-0.381383
0.0380869
-0.502937
-0.417753
0.0522759
-0.518683
-0.404776
-0.0169607
-0.483646
-0.389413
-0.0681432
-0.537615
-0.391071
-0.553233
-0.371797
0.0306789
-0.38312
-0.282562
0.0172307
-0.386314
-0.304438
-0.0193445
-0.395484
-0.290472
-0.0342011
-0.371014
-0.283401
-0.0492415
-0.394372
-0.276793
-0.388091
-0.263571
0.00894179
-0.133424
-0.00354247
-0.132779
-0.0168993
-0.136294
-0.00783206
-0.153481
-0.0117546
-0.158061
-0.163716
-0.0751494
-0.576788
-0.596723
0.0712641
-0.545559
-0.583056
0.0705688
-0.592413
-0.547669
-0.0934767
-0.592511
-0.527526
-0.230143
-0.585048
-0.487163
-0.470924
-0.479741
0.00572682
-0.548966
-0.316112
0.051237
-0.53524
-0.360268
0.0713211
-0.547903
-0.355067
0.0193405
-0.559397
-0.264536
-0.0440348
-0.56349
-0.234976
-0.530543
-0.247987
0.00196558
-0.159479
0.0168157
-0.160251
0.0284565
-0.16191
0.0166014
-0.157226
0.00218076
-0.154303
-0.151921
-0.106425
0.186218
-0.355912
0.079164
0.526079
-0.347912
0.355704
0.494748
-0.335225
0.174798
-0.0100848
-0.257063
-0.148049
-0.0621531
-0.23531
0.352964
-0.200786
-0.073721
0.0472004
-0.103376
0.131083
0.0731817
-0.112177
0.327967
0.0648446
-0.122049
0.115432
0.026616
-0.0887022
-0.122929
0.00992878
-0.0686972
0.0313681
-0.0493209
-0.00543451
-0.125345
-0.00951452
-0.124379
-0.00568329
-0.123078
0.00189841
-0.110535
0.00532836
-0.101714
-0.102315
-0.0456601
0.377123
0.036534
0.220172
0.758964
0.0990604
0.687192
1.01967
0.0482052
0.72838
0.226368
0.0358178
0.0598605
-0.107446
-0.0115288
0.137093
0.06241
-0.101586
0.046556
0.328775
0.107718
0.0691866
0.368296
0.506061
0.103453
0.395832
0.363002
-0.0284882
0.309214
0.0670749
-0.144019
0.263805
-0.122798
0.277648
0.00752765
-0.0531482
0.0198622
-0.0500985
0.0611301
-0.0497929
0.0684726
-0.042103
0.0261154
-0.0415407
-0.0404214
-0.121805
0.116881
0.0566985
0.179273
0.209095
-0.00917475
0.757751
0.148255
-0.429549
0.637065
-0.0440504
-0.0346119
0.011973
-0.0879822
0.137343
-0.0492945
-0.249405
0.0208049
-0.0401399
0.464992
0.134098
-0.0529519
0.51705
0.171353
-0.0424638
0.549296
0.121143
-0.152334
0.467707
0.0540624
-0.2189
0.461805
-0.197714
0.480131
0.00781958
0.0712146
0.0222846
0.0652371
0.0738487
0.0603422
0.0602299
0.0562355
0.0206249
0.0441363
0.0490192
0.0540403
-0.166342
-0.989158
0.332591
-0.218531
-1.34293
0.488115
-0.243883
-1.82999
0.513981
-0.164395
-1.09767
-0.0281457
-0.167016
-0.43727
-0.18011
-1.13514
0.0875928
-0.265196
0.476249
0.107602
-0.282719
0.561224
0.0322619
-0.257923
0.638673
0.0472538
-0.305279
0.593598
0.023983
-0.376714
0.694776
-0.30966
0.633662
-0.00417031
0.361315
-0.00264123
0.355555
0.0364976
0.360756
0.0333391
0.354047
-0.00474053
0.33568
0.339069
0.204023
-0.330248
-2.19301
0.442963
-0.374224
-2.51054
0.494488
-0.385048
-2.73309
0.459382
-0.453721
-2.29837
-0.103067
-0.90389
-1.83598
-0.541915
-2.15664
0.0880713
-0.609787
0.667717
0.125179
-0.633992
0.783882
0.144295
-0.626393
0.860901
0.206719
-0.71409
0.791544
-0.124368
-0.733106
0.855078
-0.758006
0.725385
-0.0063826
0.694076
-0.0205957
0.695005
-0.00280582
0.696794
-0.0109976
0.664291
0.0482227
0.636626
0.644335
-0.0915574
-1.68904
-0.110786
-2.13214
-0.091535
-2.56723
-0.0623064
-2.39783
0.115905
-2.61375
-1.90029
0.188435
-1.2705
0.262824
-1.51697
0.175746
-1.71161
0.101877
-1.60262
-0.139464
-1.58519
-1.34369
0.193281
0.203483
0.0257377
-0.0735882
-0.162148
)
;

boundaryField
{
    seabed_topleft_surface
    {
        type            calculated;
        value           uniform 0;
    }
    seabed_topright_surface
    {
        type            calculated;
        value           uniform 0;
    }
    breakwater_top_surface
    {
        type            calculated;
        value           uniform 0;
    }
    breakwater_left_surface
    {
        type            calculated;
        value           uniform 0;
    }
    breakwater_right_surface
    {
        type            calculated;
        value           uniform 0;
    }
    water_front_surface
    {
        type            calculated;
        value           uniform 0;
    }
    water_back_surface
    {
        type            calculated;