/*--------------------------------*- C++ -*----------------------------------*\
| =========                 |                                                 |
| \\      /  F ield         | OpenFOAM: The Open Source CFD Toolbox           |
|  \\    /   O peration     | Version:  v1612+                                |
|   \\  /    A nd           | Web:      www.OpenFOAM.com                      |
|    \\/     M anipulation  |                                                 |
\*---------------------------------------------------------------------------*/
FoamFile
{
    version     2.0;
    format      ascii;
    class       surfaceScalarField;
    location    "2.45";
    object      phi;
}
// * * * * * * * * * * * * * * * * * * * * * * * * * * * * * * * * * * * * * //

dimensions      [0 3 -1 0 0 0 0];

internalField   nonuniform List<scalar> 
2916
(
-8.50982e-06
0.6335
-0.633491
-4.12999e-06
0.633502
-0.633506
-3.55636e-06
0.633502
-0.633502
-6.49575e-06
0.633503
-0.6335
-2.11135e-06
0.633504
-0.633509
0.633499
-0.633501
-8.13193e-06
1.2767
-0.64319
-4.87065e-06
1.2767
-0.643205
-5.93698e-06
1.27671
-0.643202
-5.41914e-06
1.2767
-0.643202
3.44961e-06
1.27671
-0.64321
1.2767
-0.643199
-6.73725e-06
1.70305
-0.426342
-4.08536e-06
1.70306
-0.426356
-5.89229e-06
1.70306
-0.426351
-5.8841e-06
1.70306
-0.426352
1.61015e-06
1.70306
-0.42636
1.70305
-0.426346
-6.00332e-06
1.99631
-0.293261
-4.75757e-06
1.99633
-0.293271
-7.31389e-06
1.99633
-0.293266
-7.19989e-06
1.99633
-0.293268
2.83315e-07
1.99633
-0.293275
1.99631
-0.293262
-6.94685e-06
2.22365
-0.227329
-6.84118e-06
2.22366
-0.227336
-9.48408e-06
2.22366
-0.227333
-8.3297e-06
2.22366
-0.227336
-1.27373e-07
2.22366
-0.227343
2.22364
-0.227331
-9.64793e-06
2.41602
-0.192359
-8.86474e-06
2.41603
-0.192368
-1.06885e-05
2.41603
-0.192365
-9.17243e-06
2.41603
-0.192369
-9.57025e-07
2.41603
-0.192377
2.41601
-0.192365
-1.08553e-05
2.57767
-0.161638
-7.92461e-06
2.57768
-0.16165
-8.40469e-06
2.57768
-0.161647
-7.39678e-06
2.57768
-0.16165
-4.78698e-07
2.57768
-0.161657
2.57765
-0.161647
-5.90248e-06
2.70759
-0.129916
-1.049e-06
2.70761
-0.129933
-5.92309e-07
2.7076
-0.129927
1.28733e-08
2.7076
-0.129928
4.18366e-06
2.70761
-0.129934
2.70758
-0.129922
-2.03234e-06
2.56896
0.138633
8.35063e-06
2.56899
0.138606
8.99993e-06
2.56899
0.138615
7.68739e-06
2.56899
0.138619
9.89173e-06
2.56899
0.138614
2.56895
0.138639
-4.23721e-07
1.88369
0.685272
8.49398e-06
1.88373
0.685252
1.13685e-05
1.88373
0.685256
1.06371e-05
1.88373
0.685261
7.91577e-06
1.88374
0.685257
1.88368
0.685273
6.96936e-06
0.752057
1.13162
8.07311e-07
0.752103
1.13163
5.38453e-06
0.7521
1.13163
6.30071e-06
0.752098
1.13163
-7.95176e-07
0.752123
1.13162
0.752056
1.13163
-3.52784e-05
0.752092
-2.35405e-05
0.752092
-1.55515e-05
0.752092
-9.58339e-06
0.752092
9.36883e-06
0.752104
0.752066
-3.22322e-06
0.649138
-1.28263
-6.39588e-06
0.649136
-1.28264
-6.78115e-06
0.649139
-1.28264
-1.35676e-05
0.649142
-1.28264
-1.71975e-05
0.64914
-1.28265
0.649132
-1.28265
1.78588e-05
1.39832
-1.39239
-1.04055e-05
1.39833
-1.39237
-1.58458e-05
1.39833
-1.39239
-1.27451e-05
1.39833
-1.3924
-1.99298e-05
1.39834
-1.3924
1.39832
-1.39241
2.10894e-05
1.82246
-0.850498
-3.53182e-06
1.82248
-0.850481
-1.16487e-05
1.82248
-0.850487
-1.02232e-05
1.82248
-0.850496
-2.22515e-05
1.82249
-0.850497
1.82246
-0.850509
2.52892e-05
2.14455
-0.615376
4.51581e-06
2.14459
-0.615354
-3.78403e-06
2.14457
-0.615356
-8.17349e-06
2.14457
-0.615362
-2.34892e-05
2.14459
-0.615363
2.14455
-0.615379
2.5663e-05
2.39494
-0.477743
1.01549e-05
2.39499
-0.477726
4.41048e-06
2.39498
-0.47773
-2.19451e-06
2.39498
-0.477734
-1.86963e-05
2.395
-0.477734
2.39496
-0.477752
2.57005e-05
2.70015
-0.497602
1.63528e-05
2.70023
-0.497598
1.49909e-05
2.70021
-0.4976
8.21258e-06
2.70022
-0.497601
-6.61835e-06
2.70024
-0.497601
2.7002
-0.497615
3.05431e-05
3.12009
-0.581603
2.62443e-05
3.1202
-0.581613
2.85965e-05
3.12017
-0.58161
2.25177e-05
3.12018
-0.581606
7.72233e-06
3.1202
-0.581604
3.12016
-0.5816
3.34199e-05
3.63037
-0.640229
2.93868e-05
3.63051
-0.640239
3.05978e-05
3.63047
-0.640228
2.4485e-05
3.63048
-0.640219
6.88827e-06
3.6305
-0.640215
3.63044
-0.640199
3.42417e-05
3.79995
-0.0309855
2.57589e-05
3.80011
-0.0309911
2.14912e-05
3.80007
-0.0309773
1.54187e-05
3.80007
-0.0309657
-6.04542e-06
3.80009
-0.0309583
3.80002
-0.0309417
4.61933e-05
3.13699
1.34819
1.6595e-05
3.13717
1.34823
9.38488e-06
3.13712
1.34821
2.55411e-06
3.13712
1.34822
-1.72587e-05
3.13715
1.34822
3.13706
1.34822
5.6938e-05
1.42674
2.84181
2.38808e-05
1.42687
2.84197
1.85962e-05
1.42683
2.84192
1.24645e-05
1.42682
2.84193
-1.21105e-05
1.42683
2.84196
1.42678
2.84189
-3.60643e-05
2.17887
-3.4994e-06
2.17892
5.32446e-06
2.17891
1.31464e-05
2.17891
2.73871e-05
2.17892
2.17887
1.08651e-05
0.469801
-1.75244
-1.00053e-05
0.469797
-1.75242
-9.18021e-06
0.469805
-1.75245
4.87341e-06
0.469792
-1.75244
-3.61465e-06
0.469786
-1.75242
0.469829
-1.75248
-1.08548e-05
1.71112
-2.6337
-3.48167e-05
1.71111
-2.63366
-4.28677e-06
1.71109
-2.6337
1.10415e-06
1.71111
-2.63372
-4.14633e-05
1.71113
-2.6337
1.71108
-2.6337
1.63248e-05
3.11732
-2.25671
-2.54397e-06
3.11734
-2.25669
1.33234e-05
3.11731
-2.25673
3.99425e-05
3.11733
-2.25675
2.84107e-05
3.11737
-2.25672
3.11735
-2.25675
0.000101267
4.72534
-2.2235
0.000148184
4.72543
-2.22349
0.000168194
4.72543
-2.2235
0.000151094
4.72548
-2.2235
0.000111576
4.72552
-2.22347
4.72557
-2.22349
0.000146121
6.45316
-2.20571
0.000277774
6.45331
-2.20574
0.000295267
6.45339
-2.20571
0.000254245
6.45348
-2.20569
0.000181424
6.45352
-2.20566
6.45363
-2.20563
8.01025e-05
8.3794
-2.42393
0.000278175
8.37951
-2.42399
0.000340179
8.37965
-2.42392
0.000324415
8.37975
-2.42386
0.000313846
8.37976
-2.42383
8.38
-2.42367
4.28458e-05
10.1219
-2.32414
0.000210166
10.122
-2.32423
0.000289521
10.1221
-2.32413
0.000278047
10.1222
-2.32402
0.000371413
10.1221
-2.32402
10.1225
-2.32368
0.000104978
10.551
-1.06948
0.000170164
10.5512
-1.06954
0.000192995
10.5513
-1.06945
0.000150404
10.5514
-1.06936
0.000129237
10.5513
-1.0694
10.5516
-1.06924
-6.97387e-05
7.50542
3.0147
-0.000162109
7.50559
3.01471
-0.0001271
7.50562
3.01466
-4.49228e-05
7.50564
3.01467
-4.13598e-05
7.50563
3.01468
7.50588
3.01476
-1.71925e-05
3.29824
5.55538
-5.34418e-05
3.29826
5.55559
-4.63995e-05
3.29827
5.55556
-3.94951e-05
3.29827
5.55558
1.41987e-05
3.29824
5.55556
3.29837
5.55574
-6.89888e-06
0.772199
5.36787
-4.45616e-06
0.772201
5.36802
-3.97166e-06
0.772195
5.36799
-1.15879e-05
0.77219
5.36802
1.18888e-05
0.772157
5.36803
0.772182
5.3681
1.1968e-05
2.95106
2.12498e-05
2.95112
3.3288e-05
2.95109
5.33482e-05
2.95108
1.39571e-05
2.95112
2.95107
-5.78939e-05
0.440235
-2.19262
-3.9154e-05
0.44022
-2.19265
-4.45383e-06
0.440226
-2.19271
4.82511e-05
0.440191
-2.19268
8.91968e-05
0.440179
-2.19264
0.440293
-2.19268
-8.97414e-05
0.70251
-2.89589
-3.16775e-05
0.702419
-2.89592
3.13525e-05
0.70238
-2.89592
2.01077e-05
0.702403
-2.89591
-6.37428e-06
0.702431
-2.89592
0.702431
-2.89584
-6.01752e-05
0.329357
-1.8835
1.10386e-05
0.329196
-1.88354
4.15748e-05
0.329163
-1.88354
6.22816e-05
0.329178
-1.88354
0.00010642
0.329211
-1.88354
0.329285
-1.8835
5.75331e-05
-0.0815617
-1.81263
0.00016525
-0.0816543
-1.81275
0.000173532
-0.0816121
-1.81274
0.000152786
-0.081574
-1.81272
0.000161843
-0.0815394
-1.81273
-0.0814271
-1.81262
3.07772e-05
-0.787234
-1.50007
0.000183845
-0.787332
-1.50022
0.000222021
-0.787185
-1.50017
0.000204635
-0.787111
-1.50014
0.000213471
-0.787086
-1.50013
-0.786884
-1.49996
-0.000270978
-1.24442
-1.96648
-0.00025637
-1.24468
-1.96666
-0.000217989
-1.24452
-1.96662
-0.00012405
-1.24448
-1.96659
9.6556e-05
-1.24455
-1.9666
-1.24411
-1.96635
-0.000293979
-0.896719
-2.67155
-0.000383995
-0.897044
-2.67178
-0.000436071
-0.896905
-2.6717
-0.000399696
-0.896901
-2.67164
-0.000169985
-0.897096
-2.6717
-0.896604
-2.67136
-9.24542e-05
1.30879
-3.27489
-0.00024646
1.30867
-3.27508
-0.000495888
1.30883
-3.27493
-0.000633767
1.30873
-3.27485
-0.0010366
1.30873
-3.27481
1.30813
-3.27501
-0.000100082
3.40196
0.921625
-0.000246203
3.40205
0.921467
-0.000491965
3.40215
0.921579
-0.0006299
3.40202
0.921524
-0.00131631
3.40226
0.921841
3.40095
0.920626
-0.000167016
2.52126
6.43625
-0.000259362
2.52136
6.43638
-0.000186348
2.52144
6.43619
-5.78753e-05
2.52137
6.43609
-3.38662e-05
2.5215
6.43629
2.52098
6.43567
0.000242182
1.03645
6.85243
-4.94026e-05
1.03679
6.8529
-3.12505e-05
1.03671
6.85271
5.0425e-05
1.03665
6.85266
0.000188181
1.03669
6.85269
1.03654
6.85273
-1.01643e-05
3.98752
-2.78307e-06
3.98789
5.60475e-05
3.98775
4.88444e-05
3.98774
-8.49493e-05
3.98794
3.98753
-9.58939e-07
0.00225342
-0.00225246
-9.36768e-07
0.00225336
-0.0022524
-9.77749e-07
0.00225325
-0.00225236
-8.34727e-07
0.00225305
-0.00225236
-4.98717e-07
0.00225286
-0.00225234
0.00225262
-0.00225225
-6.98868e-07
0.00458546
-0.00233067
-1.11435e-06
0.00458508
-0.00232997
-1.48393e-06
0.0045846
-0.00232978
-1.45081e-06
0.004584
-0.00232977
-8.64339e-07
0.00458335
-0.00232984
0.00458257
-0.00232995
-4.71217e-07
0.00706448
-0.00247797
-1.88356e-06
0.00706308
-0.0024756
-3.03437e-06
0.0070616
-0.00247493
-3.30961e-06
0.00706003
-0.00247484
-2.32508e-06
0.00705836
-0.00247508
0.00705647
-0.00247564
-1.20334e-06
0.00976725
-0.00270111
-4.66155e-06
0.00976328
-0.00269629
-7.21579e-06
0.00975966
-0.00269507
-7.86539e-06
0.00975623
-0.00269511
-5.79127e-06
0.00975271
-0.002696
0.0097487
-0.00269788
-4.85769e-06
0.0128054
-0.00303302
-1.17904e-05
0.0127963
-0.00302641
-1.60825e-05
0.012789
-0.00302536
-1.66305e-05
0.0127828
-0.00302638
-1.21349e-05
0.0127769
-0.00302897
0.0127697
-0.00303361
-1.5017e-05
0.0163006
-0.00348036
-2.57943e-05
0.0162838
-0.0034781
-3.03521e-05
0.0162724
-0.00348
-2.89709e-05
0.016264
-0.00348367
-2.03001e-05
0.0162563
-0.00348917
0.0162459
-0.00349743
-3.13669e-05
0.0202192
-0.0038878
-4.33548e-05
0.0201934
-0.0038995
-4.42696e-05
0.02018
-0.00390829
-3.80046e-05
0.0201727
-0.00391649
-2.47325e-05
0.0201669
-0.00392526
0.0201562
-0.00393592
-4.51742e-05
0.0241401
-0.00387668
-4.96793e-05
0.0241079
-0.00391149
-4.0111e-05
0.0240978
-0.0039285
-2.62769e-05
0.0240972
-0.00393939
-1.26216e-05
0.0240994
-0.00394688
0.0240955
-0.00395206
-3.8663e-05
0.0270868
-0.00290882
-2.37857e-05
0.0270551
-0.00296198
3.24555e-07
0.0270531
-0.00297913
1.91074e-05
0.0270619
-0.00298301
2.27154e-05
0.0270739
-0.00297772
0.0270821
-0.00296334
1.35581e-06
0.0263427
0.000742705
3.6311e-05
0.0263181
0.000703875
6.85325e-05
0.0263206
0.000702166
8.37947e-05
0.0263332
0.000715449
6.83366e-05
0.026351
0.00074041
0.0263728
0.000778973
4.95217e-05
0.0204881
0.00580604
8.49409e-05
0.0204704
0.0058152
0.000105032
0.0204675
0.00583524
0.000107653
0.0204702
0.00586263
8.1567e-05
0.0204796
0.00589978
0.0205016
0.00595451
3.37611e-05
0.020456
3.17474e-05
0.0204754
2.2465e-05
0.020479
1.31619e-05
0.0204811
5.748e-06
0.0204887
0.0205083
-9.09187e-07
0.00229251
-0.00454335
-9.77399e-07
0.00229217
-0.00454327
-9.62134e-07
0.00229189
-0.00454315
-7.30308e-07
0.0022916
-0.00454308
-2.9291e-07
0.00229138
-0.00454302
0.00229115
-0.00454294
-1.3436e-06
0.00469321
-0.00472897
-1.72387e-06
0.00469215
-0.0047282
-1.76586e-06
0.00469127
-0.00472786
-1.42067e-06
0.00469048
-0.00472772
-6.65643e-07
0.0046898
-0.00472773
0.00468905
-0.00472788
-2.6726e-06
0.00729833
-0.00507958
-3.73601e-06
0.00729565
-0.00507704
-3.93319e-06
0.00729357
-0.0050761
-3.36879e-06
0.00729179
-0.00507577
-1.93439e-06
0.00729019
-0.00507595
0.00728852
-0.00507666
-5.56288e-06
0.0101835
-0.00558025
-7.8971e-06
0.0101774
-0.00557536
-8.29689e-06
0.0101731
-0.00557381
-7.24248e-06
0.0101696
-0.00557357
-4.58729e-06
0.0101664
-0.00557454
0.010163
-0.00557699
-1.10532e-05
0.0133193
-0.00615779
-1.50482e-05
0.0133067
-0.00615228
-1.52259e-05
0.0132987
-0.00615136
-1.304e-05
0.0132928
-0.00615241
-8.40354e-06
0.0132877
-0.00615552
0.0132816
-0.0061614
-1.88002e-05
0.0165532
-0.00669629
-2.35706e-05
0.016529
-0.00669746
-2.20518e-05
0.0165165
-0.00670091
-1.76142e-05
0.0165089
-0.00670575
-1.09523e-05
0.016503
-0.00671268
0.0164952
-0.00672294
-2.50083e-05
0.0197189
-0.00702998
-2.55653e-05
0.0196782
-0.00705045
-1.85247e-05
0.0196623
-0.00706306
-1.0474e-05
0.0196563
-0.0070737
-4.36098e-06
0.0196541
-0.00708409
0.0196496
-0.00709549
-1.84622e-05
0.0224918
-0.00663258
-5.64101e-06
0.0224333
-0.00668085
1.14054e-05
0.0224182
-0.00670256
2.2365e-05
0.0224199
-0.00671466
2.05673e-05
0.0224289
-0.00672042
0.022438
-0.00671984
1.16856e-05
0.0243453
-0.00477452
4.55143e-05
0.0242758
-0.00483809
7.36852e-05
0.0242673
-0.00485585
8.34775e-05
0.0242829
-0.00485509
6.41082e-05
0.0243117
-0.00484017
0.0243483
-0.0048089
5.1556e-05
0.0237186
0.00131894
0.000100026
0.0236613
0.00127199
0.000129193
0.0236642
0.00127782
0.000130552
0.0236924
0.00130613
9.39345e-05
0.0237371
0.00135337
0.0237986
0.00142388
7.80273e-05
0.0193441
0.010105
0.000101295
0.0193173
0.0101396
0.000100067
0.0193287
0.0101747
8.31377e-05
0.0193587
0.0102153
5.03923e-05
0.0194037
0.010268
0.0194646
0.0103402
9.9763e-06
0.0397923
-2.72026e-05
0.0398323
-6.57824e-05
0.0398486
-8.33701e-05
0.0398594
-6.75155e-05
0.0398783
0.0399059
-5.23113e-07
0.00223162
-0.00677391
-6.47875e-07
0.00223138
-0.00677386
-6.24053e-07
0.00223119
-0.00677375
-4.19247e-07
0.00223101
-0.00677368
-9.49534e-08
0.0022309
-0.00677364
0.00223086
-0.00677359
-9.78836e-07
0.00460411
-0.00709981
-1.29857e-06
0.00460339
-0.00709921
-1.23683e-06
0.00460283
-0.00709891
-8.71051e-07
0.00460236
-0.00709878
-3.03734e-07
0.00460207
-0.0070988
0.00460187
-0.00709897
-2.20805e-06
0.0072581
-0.00773083
-2.8784e-06
0.0072563
-0.00772884
-2.68638e-06
0.00725506
-0.00772806
-1.93837e-06
0.00725413
-0.0077278
-8.36721e-07
0.00725355
-0.00772804
0.00725324
-0.00772875
-4.52149e-06
0.0103604
-0.00867779
-5.58457e-06
0.0103562
-0.00867421
-4.96221e-06
0.0103538
-0.00867306
-3.48144e-06
0.0103522
-0.00867303
-1.61741e-06
0.0103513
-0.00867415
0.010351
-0.00867662
-8.03579e-06
0.0141909
-0.00998044
-8.84881e-06
0.0141816
-0.00997767
-6.91738e-06
0.0141774
-0.00997759
-4.13482e-06
0.0141754
-0.00997913
-1.56082e-06
0.0141751
-0.0099826
0.0141759
-0.00998856
-1.12756e-05
0.0191886
-0.0116835
-9.34154e-06
0.0191701
-0.0116896
-4.1548e-06
0.0191645
-0.0116946
4.82038e-07
0.0191639
-0.0117003
2.4743e-06
0.0191669
-0.0117078
0.0191721
-0.0117175
-8.69505e-06
0.0255931
-0.0134271
1.07786e-06
0.0255624
-0.0134544
1.29639e-05
0.0255576
-0.0134696
1.98365e-05
0.0255632
-0.0134811
1.72215e-05
0.0255754
-0.0134912
0.0255928
-0.0134995
1.00698e-05
0.0331421
-0.0141928
3.56291e-05
0.0331016
-0.0142467
5.61891e-05
0.0331036
-0.0142699
6.25481e-05
0.033123
-0.0142814
4.73155e-05
0.0331538
-0.014284
0.0331953
-0.014275
4.82236e-05
0.0410476
-0.0127283
8.87633e-05
0.0410119
-0.0127887
0.00011112
0.0410278
-0.0128021
0.000108903
0.041066
-0.0127957
7.54684e-05
0.0411195
-0.0127721
0.0411891
-0.0127268
8.24833e-05
0.0453773
-0.00309237
0.000112951
0.045365
-0.00311034
0.000115304
0.0453975
-0.00309336
9.45394e-05
0.0454533
-0.00305992
5.21804e-05
0.0455265
-0.00301096
0.0456123
-0.00294687
4.16809e-05
0.0421564
0.0132855
2.90771e-05
0.0421713
0.0133473
3.96039e-06
0.0422085
0.0133902
-1.84993e-05
0.0422599
0.0134326
-2.77483e-05
0.0423225
0.0134822
0.042385
0.01354
-7.64284e-05
0.0820264
-0.000145491
0.0820728
-0.000190689
0.0821027
-0.000188084
0.0821181
-0.00013702
0.0821509
0.0821543
-2.48653e-07
0.00204882
-0.00882218
-3.68247e-07
0.00204855
-0.00882223
-3.14944e-07
0.00204841
-0.00882215
-1.55093e-07
0.00204833
-0.00882211
3.85107e-08
0.00204832
-0.00882209
0.00204834
-0.00882198
-6.97886e-07
0.0042736
-0.0093237
-8.34773e-07
0.00427288
-0.00932344
-6.23199e-07
0.00427252
-0.00932324
-2.84945e-07
0.00427237
-0.00932314
3.48673e-08
0.00427241
-0.00932317
0.00427251
-0.00932319
-1.6736e-06
0.0068749
-0.0103304
-1.63313e-06
0.0068733
-0.0103294
-9.72155e-07
0.0068727
-0.0103289
-2.09791e-07
0.0068726
-0.0103288
2.81668e-07
0.00687287
-0.010329
0.00687323
-0.0103293
-2.56729e-06
0.0100924
-0.0118928
-1.85836e-06
0.0100891
-0.0118912
-3.01938e-07
0.0100884
-0.0118906
1.07121e-06
0.0100887
-0.0118908
1.48486e-06
0.0100896
-0.0118917
0.0100908
-0.0118931
-1.67508e-06
0.0141201
-0.0140069
7.79343e-07
0.0141144
-0.0140064
3.84631e-06
0.0141139
-0.0140071
5.70889e-06
0.0141156
-0.0140088
4.98256e-06
0.0141184
-0.0140116
0.0141217
-0.0140152
4.36607e-06
0.0188851
-0.0164538
1.11153e-05
0.0188761
-0.0164595
1.63001e-05
0.0188774
-0.0164646
1.78342e-05
0.0188826
-0.0164701
1.3434e-05
0.0188902
-0.0164762
0.0188991
-0.0164823
2.02931e-05
0.0245644
-0.0191278
3.44414e-05
0.0245534
-0.0191471
4.1454e-05
0.0245593
-0.0191596
4.01832e-05
0.0245719
-0.0191701
2.78532e-05
0.0245891
-0.0191787
0.0246107
-0.0191837
4.5975e-05
0.03138
-0.0210551
6.69571e-05
0.0313746
-0.0210893
7.22028e-05
0.0313907
-0.0211069
6.39628e-05
0.0314158
-0.0211175
4.08098e-05
0.0314486
-0.0211209
0.0314911
-0.0211148
6.35605e-05
0.0399741
-0.0213861
7.95506e-05
0.0399899
-0.0214198
7.41549e-05
0.0400225
-0.0214285
5.58683e-05
0.0400633
-0.0214252
2.82713e-05
0.0401137
-0.0214099
0.0401736
-0.0213814
3.44182e-05
0.0468438
-0.00999613
2.60629e-05
0.0468905
-0.0100027
6.39362e-06
0.0469308
-0.00998198
-1.00631e-05
0.0469708
-0.00995049
-1.91287e-05
0.0470152
-0.0099032
0.0470592
-0.00985192
-7.60264e-05
0.0399219
0.0202835
-0.000133969
0.0399719
0.0203225
-0.000170337
0.04
0.0203566
-0.000165387
0.0400205
0.0203779
-0.000126784
0.0400401
0.020419
0.0400472
0.0204249
-0.00014191
0.122091
-0.000199808
0.122103
-0.000231675
0.122134
-0.000186773
0.122093
-0.00016864
0.122173
0.122032
-4.83616e-05
-2.11347
-0.0790942
5.03523e-06
-2.11356
-0.0791406
1.68545e-05
-2.11357
-0.0791407
4.52408e-05
-2.11355
-0.079157
0.000106587
-2.11354
-0.0791555
-2.1135
-0.0790718
6.5868e-06
-2.097
-0.0164775
9.74517e-06
-2.09708
-0.0164832
-1.05322e-06
-2.09707
-0.0164874
-1.93358e-06
-2.09705
-0.0164915
1.55145e-05
-2.09706
-0.0164924
-2.09699
-0.0164956
1.626e-05
-0.00400806
4.11731e-06
-0.00400961
-6.50068e-06
-0.00400999
-1.29984e-05
-0.00400758
-1.82831e-05
-0.00400636
-0.00401335
-5.32901e-05
-2.4105
-0.564428
-1.28633e-05
-2.41057
-0.564533
1.63202e-05
-2.41054
-0.564546
2.40002e-05
-2.41052
-0.564552
3.22805e-05
-2.41054
-0.564542
-2.41043
-0.564445
-1.27982e-05
-2.25576
-0.171207
-2.34048e-05
-2.25583
-0.171208
-2.42006e-05
-2.25581
-0.171215
-1.42573e-05
-2.2558
-0.171225
-1.13791e-05
-2.25581
-0.171228
-2.25572
-0.171224
1.89615e-05
-0.0537151
1.09606e-05
-0.0537111
7.10475e-06
-0.0537129
1.89713e-06
-0.0537108
-1.33445e-05
-0.0537093
-0.0537236
2.84481e-06
-1.64703
-0.800898
-6.85489e-06
-1.64709
-0.800971
-2.66776e-05
-1.64707
-0.800994
-3.13758e-05
-1.64707
-0.801014
-4.77446e-06
-1.64709
-0.801022
-1.64698
-0.800973
2.43183e-06
-1.7061
-0.112141
-8.52829e-06
-1.70616
-0.112134
-1.12153e-05
-1.70614
-0.112147
-1.45558e-05
-1.70614
-0.112156
-2.71561e-05
-1.70615
-0.112159
-1.70607
-0.112171
1.854e-05
0.0399069
1.47711e-05
0.0399141
1.24367e-05
0.0399133
6.06956e-06
0.0399144
-1.10621e-05
0.0399155
0.0399039
-1.68558e-05
-2.11117
-0.502348
-4.2571e-05
-2.11132
-0.502379
-6.06144e-05
-2.1113
-0.502415
-5.41066e-05
-2.1113
-0.502448
-1.39938e-05
-2.11133
-0.502467
-2.11114
-0.502468
2.03599e-05
-2.15452
-0.0688101
-1.31461e-05
-2.15463
-0.0687923
-3.31417e-05
-2.15463
-0.0688022
-4.73401e-05
-2.15463
-0.0688072
-6.5646e-05
-2.15466
-0.0688128
-2.15453
-0.0688355
2.79367e-05
0.022394
2.341e-05
0.0223958
1.66169e-05
0.0223955
4.08492e-06
0.0223953
-2.18964e-05
0.022395
0.0223937
-7.35739e-05
-1.86467
-0.13768
-0.000110305
-1.86484
-0.137727
-0.000104326
-1.86482
-0.137778
-7.62206e-05
-1.8648
-0.137816
-2.11765e-05
-1.86482
-0.137827
-1.86462
-0.137835
2.06145e-05
-1.94528
0.0117796
-2.14811e-05
-1.94538
0.0117933
-5.0383e-05
-1.94539
0.0117953
-5.97495e-05
-1.94539
0.0117968
-6.41553e-05
-1.94542
0.0117924
-1.94531
0.0117947
2.01882e-05
-0.0282625
1.21579e-05
-0.0282646
5.41905e-06
-0.0282669
-4.30283e-06
-0.0282685
-2.50328e-05
-0.0282705
-0.02827
-9.98721e-05
-2.12167
0.01761
-0.000133104
-2.12183
0.0174765
-0.000137213
-2.12183
0.0174331
-0.000117679
-2.12182
0.0174009
-7.78449e-05
-2.12185
0.0173882
-2.12166
0.017407
3.26048e-05
-2.1154
0.00547927
4.89623e-06
-2.1155
0.00549004
-1.25556e-05
-2.1155
0.00548032
-2.85003e-05
-2.1155
0.00548494
-4.18986e-05
-2.11552
0.00546996
-2.11541
0.00550134
5.69058e-06
-0.128737
-7.11473e-06
-0.128742
-1.27724e-05
-0.128742
-1.58694e-05
-0.128743
-2.36821e-05
-0.12875
-0.128741
-0.000136565
-2.31225
-0.341553
-0.000129424
-2.31239
-0.341916
-0.00016505
-2.31238
-0.34185
-0.000144989
-2.31237
-0.341886
-0.000115477
-2.31239
-0.341947
-2.3122
-0.341863
-3.31528e-05
-2.04638
-0.260359
-6.24972e-05
-2.04645
-0.260423
-4.97776e-05
-2.04645
-0.260466
-3.18777e-05
-2.04644
-0.260462
2.24869e-05
-2.04644
-0.260541
-2.04635
-0.260338
-5.49036e-06
-0.190143
-1.31215e-05
-0.190146
-2.0889e-05
-0.190148
-2.52605e-05
-0.190149
-1.29134e-05
-0.190173
-0.190134
-3.06235e-05
-2.77373
-0.842683
-4.61588e-05
-2.77386
-0.843128
-0.000141144
-2.7738
-0.842885
-0.000162697
-2.77375
-0.842967
-0.000357304
-2.77355
-0.843019
-2.77387
-0.843358
-3.13491e-05
-2.14185
-0.892206
-5.64894e-05
-2.1419
-0.892359
-5.90506e-05
-2.14189
-0.892367
5.4305e-06
-2.14188
-0.89239
0.000223569
-2.14179
-0.89252
-2.14184
-0.892147
-3.81813e-05
-0.424538
-5.29091e-05
-0.424573
-7.1512e-05
-0.42459
-5.88081e-05
-0.424602
7.74072e-05
-0.424659
-0.424499
0.000480754
-1.24237
1.32084
0.000179105
-1.24251
1.32116
-2.75972e-05
-1.24228
1.32118
-0.000254781
-1.24225
1.32104
-0.00113742
-1.24146
1.32117
-1.24391
1.32005
0.000623553
-1.60451
-0.530694
0.000250599
-1.60448
-0.530021
0.000182064
-1.60438
-0.530193
0.000151983
-1.60434
-0.530274
0.000187408
-1.6038
-0.530219
-1.60515
-0.530723
8.78137e-06
-0.667992
-6.09296e-05
-0.667956
-8.60418e-05
-0.667989
-2.34557e-05
-0.668047
0.000338921
-0.668
-0.668105
0.00065459
4.80701
2.94943
-7.51448e-05
4.80774
2.95053
-0.000369346
4.80739
2.95029
-0.000486568
4.80709
2.95017
-0.00109565
4.80782
2.95026
4.80491
2.94971
0.00131843
2.77568
1.49931
0.000675468
2.77699
1.50137
0.000447287
2.77676
1.50066
5.0326e-05
2.7764
1.50081
-0.00066251
2.77711
1.5012
2.77379
1.49974
0.000614059
0.539732
0.000655521
0.540442
0.000757437
0.540146
0.000560446
0.540261
0.000435304
0.540442
0.539566
0.00120801
6.99541
2.80524
6.76278e-05
6.99706
2.8075
-4.36643e-05
6.99634
2.80676
-0.000146741
6.99602
2.8069
2.56587e-05
6.99517
2.8076
6.99659
2.80587
0.00192814
5.47153
3.02126
0.00146596
5.47469
3.02421
0.00105082
5.47416
3.02326
0.00049332
5.4737
3.02369
0.00231981
5.47115
3.02341
5.47542
3.02323
0.000728646
2.07983
0.00103318
2.0809
0.000955918
2.08061
0.000741025
2.08082
0.0020958
2.08036
2.08093
0.00038526
2.97284
3.81953
0.000224089
2.97552
3.82004
5.41202e-05
2.97476
3.81991
0.000196507
2.97455
3.81995
0.000422295
2.97371
3.82161
2.97583
3.818
0.00175067
2.15657
3.83578
0.000724644
2.16337
3.83739
-9.4872e-06
2.16183
3.83694
0.000273868
2.16114
3.83681
0.00337634
2.15611
3.8379
2.1664
3.83604
0.000757492
4.23629
0.000743401
4.23698
0.000462642
4.23684
0.000820169
4.23689
0.00354494
4.23715
4.23668
-3.85865e-05
-0.0694709
0.50239
-0.432881
-4.161e-05
-0.0694589
0.502314
-0.432853
-8.32788e-05
-0.0694381
0.502396
-0.432918
-6.24712e-05
-0.069507
0.502297
-0.432811
-0.00014906
-0.0693172
0.502244
-0.432841
-0.0696921
0.502416
-0.432874
0.000320049
-0.172775
0.763487
-0.660504
0.000104653
-0.172403
0.763854
-0.660696
0.000559692
-0.173069
0.763967
-0.660792
0.00022835
-0.171868
0.763191
-0.660499
-0.00561019
-0.166681
0.766298
-0.663096
-0.178617
0.761251
-0.657936
-0.000111508
-0.984423
0.528625
-0.000100421
-0.984978
0.528755
-0.000935862
-0.983573
0.528586
-3.36092e-05
-0.986752
0.529223
0.0043183
-0.995912
0.530913
-0.973823
0.526769
-6.01193e-05
-0.212804
0.715254
-2.07545e-05
-0.212943
0.715216
-0.000158565
-0.212739
0.715272
-0.00010958
-0.213119
0.715365
0.000715239
-0.214092
0.71551
-0.211902
0.715033
0.000649864
1.0211
-0.471072
0.000132148
1.02153
-0.470104
0.000744563
1.02078
-0.47017
0.000167853
1.02201
-0.471367
-0.0067406
1.02952
-0.470406
1.01235
-0.469746
0.000511862
-2.9637
0.000258121
-2.96436
0.00121866
-2.96308
4.77529e-05
-2.96594
-0.00876809
-2.97795
-2.94997
-0.00017555
0.523861
0.191568
-6.68798e-05
0.523402
0.191704
-0.000535966
0.523684
0.192059
-0.000287017
0.523776
0.191341
0.00111528
0.523537
0.19057
0.523061
0.193088
-0.000105819
2.61566
-2.56276
-0.000128178
2.61552
-2.5622
-9.60023e-05
2.61557
-2.56209
-9.23607e-06
2.61562
-2.5633
-0.000721273
2.61907
-2.56523
2.61179
-2.5592
0.000350653
-5.40804
0.000127084
-5.40867
0.00137872
-5.4083
-0.000178126
-5.40881
-0.00843281
-5.41771
-5.39916
5.93818e-06
0.412808
-0.221247
4.87749e-05
0.412542
-0.220889
-0.000373243
0.412606
-0.220125
0.000284412
0.412945
-0.222261
0.00350801
0.412595
-0.225247
0.413113
-0.216516
-0.000115211
2.70263
-4.85247
-8.31914e-05
2.70283
-4.85252
5.96656e-05
2.70284
-4.85246
1.08342e-05
2.70255
-4.85286
-0.000768488
2.70356
-4.85542
2.70254
-4.84939
0.000196179
-6.61601
9.14776e-05
-6.6164
0.00078616
-6.61659
0.000199987
-6.61613
-0.00545985
-6.62023
-6.61202
-3.44072e-05
1.75266
-1.97387
-1.91938e-06
1.75286
-1.97378
0.00061182
1.75274
-1.97347
-0.000121229
1.75279
-1.97432
-0.00203296
1.7543
-1.97763
1.75144
-1.96998
0.000114592
1.88333
-4.98326
0.00011898
1.88413
-4.9838
0.000360917
1.88373
-4.9837
-0.000228563
1.88401
-4.98349
-0.000599031
1.88478
-4.98552
1.88336
-4.98192
0.000412225
-6.03593
0.000275066
-6.03635
0.000166894
-6.03644
0.000295712
-6.03596
0.000537368
-6.03639
-6.03645
7.29871e-05
1.84559
8.13536e-05
1.84625
0.000553247
1.84596
0.000157009
1.84604
-0.00281856
1.84695
1.84519
0.000338626
0.697772
0.000352625
0.699826
0.000689186
0.698864
5.37711e-05
0.699987
-0.00128763
0.700674
0.698025
0.000741273
0.000514786
0.000531924
0.000385773
0.000855207
7.68236e-08
-0.0103088
0.00148651
-8.37752e-08
-0.010309
0.00148646
-1.12346e-07
-0.0103089
0.00148645
-7.17145e-08
-0.0103089
0.00148644
-2.32138e-08
-0.0103089
0.00148646
-0.0103088
0.00148646
1.04747e-07
-0.0112482
0.000939083
-3.06137e-08
-0.0112485
0.000939074
-8.2125e-08
-0.0112485
0.000939069
-1.11688e-07
-0.0112484
0.000939069
-1.31323e-07
-0.0112484
0.000939077
-0.0112482
0.000939064
7.55342e-09
0.000309383
-3.84471e-08
0.000309378
-5.96502e-08
0.000309376
-8.46388e-08
0.000309377
-1.10743e-07
0.00030938
0.00030938
-1.60197e-07
-0.0109497
0.00311244
-2.53468e-07
-0.0109499
0.00311242
-1.40303e-07
-0.0109498
0.00311245
2.23453e-09
-0.0109498
0.00311254
6.34772e-08
-0.0109498
0.00311268
-0.0109497
0.00311276
2.13301e-08
-0.011978
0.00196689
-7.6365e-08
-0.0119783
0.00196692
-8.50007e-08
-0.0119782
0.00196695
-9.21848e-08
-0.0119782
0.00196701
-1.2611e-07
-0.0119782
0.00196708
-0.011978
0.0019671
-2.48694e-08
0.000618169
-4.98876e-08
0.000618184
-5.59015e-08
0.000618197
-7.05105e-08
0.000618218
-9.40081e-08
0.000618243
0.000618253
-3.55011e-07
-0.0122739
0.00505607
-1.75808e-07
-0.0122739
0.00505627
2.56075e-07
-0.0122739
0.00505656
5.98591e-07
-0.0122739
0.00505696
6.10336e-07
-0.012274
0.00505739
-0.0122739
0.00505763
6.78361e-08
-0.0135159
0.00320841
8.21753e-08
-0.0135161
0.00320855
1.68652e-07
-0.0135161
0.00320868
1.96511e-07
-0.0135162
0.00320884
1.03568e-07
-0.0135162
0.003209
-0.013516
0.00320904
-1.35314e-09
0.000890221
1.58527e-08
0.000890255
3.75792e-08
0.000890291
3.32663e-08
0.000890333
-1.06766e-08
0.000890375
0.000890377
1.96401e-07
-0.0144194
0.00758225
1.0548e-06
-0.0144194
0.007583
1.9851e-06
-0.0144195
0.00758389
2.43128e-06
-0.0144197
0.00758487
1.92621e-06
-0.0144201
0.00758576
-0.0144203
0.00758624
3.74298e-07
-0.0160879
0.00487607
6.48898e-07
-0.0160882
0.00487634
8.90778e-07
-0.0160883
0.00487662
8.87619e-07
-0.0160885
0.00487694
5.31573e-07
-0.0160887
0.00487722
-0.0160885
0.0048773
1.02099e-07
0.000968805
1.75037e-07
0.000968844
2.21038e-07
0.000968912
1.81895e-07
0.000968993
5.12376e-08
0.000969063
0.000969105
2.76066e-06
-0.0175888
0.0111609
4.93077e-06
-0.0175893
0.0111626
6.32742e-06
-0.01759
0.0111643
6.40325e-06
-0.0175909
0.0111659
4.49932e-06
-0.017592
0.0111672
-0.0175927
0.0111677
1.19051e-06
-0.0201158
0.00740121
1.9205e-06
-0.0201163
0.00740166
2.31473e-06
-0.0201167
0.00740212
2.11357e-06
-0.0201172
0.00740259
1.23057e-06
-0.0201177
0.00740295
-0.0201176
0.00740303
2.47926e-07
0.000395335
4.45702e-07
0.000395381
5.48248e-07
0.00039551
4.68202e-07
0.000395676
2.21907e-07
0.000395791
0.000395938
8.78544e-06
-0.0220114
0.0167087
1.2719e-05
-0.0220134
0.0167112
1.39012e-05
-0.0220155
0.016713
1.24584e-05
-0.0220178
0.0167141
7.94737e-06
-0.0220201
0.0167145
-0.0220213
0.016714
2.65973e-06
-0.0263497
0.0117361
4.09069e-06
-0.0263508
0.0117368
4.52718e-06
-0.0263517
0.0117373
3.87176e-06
-0.0263527
0.0117376
2.15032e-06
-0.0263537
0.0117377
-0.0263538
0.0117375
5.42302e-07
-0.00184178
9.88913e-07
-0.00184178
1.20348e-06
-0.00184171
1.02613e-06
-0.00184147
6.22007e-07
-0.0018415
-0.00184114
1.7506e-05
-0.0278997
0.0254623
2.18764e-05
-0.0279049
0.025464
2.05447e-05
-0.0279092
0.0254634
1.55617e-05
-0.0279132
0.0254616
7.87697e-06
-0.0279164
0.0254591
-0.0279179
0.0254557
4.76651e-06
-0.0362832
0.0201144
6.59136e-06
-0.0362853
0.020115
6.47175e-06
-0.036287
0.0201149
4.95494e-06
-0.0362886
0.0201142
2.24849e-06
-0.0362899
0.0201135
-0.03629
0.0201118
1.13835e-06
-0.00835831
1.73877e-06
-0.00835851
2.17111e-06
-0.00835912
1.48928e-06
-0.00835842
1.20886e-06
-0.00835944
-0.00835793
2.04985e-05
-0.0354889
0.0398753
2.03796e-05
-0.0354994
0.0398741
1.35792e-05
-0.0355053
0.0398686
4.92822e-06
-0.0355094
0.039862
-1.2734e-06
-0.0355113
0.0398554
-0.0355097
0.0398494
6.70052e-06
-0.0529911
0.0376099
7.17272e-06
-0.0529942
0.0376094
4.6299e-06
-0.0529962
0.0376081
2.08533e-06
-0.0529973
0.0376041
-1.16549e-06
-0.052998
0.037603
-0.0529964
0.0375972
1.17351e-06
-0.0246366
1.21625e-06
-0.0246371
2.37534e-06
-0.0246402
7.90897e-07
-0.0246368
2.43824e-06
-0.0246417
-0.0246349
8.96029e-06
-0.0456673
0.0641475
-1.86257e-06
-0.0456784
0.0641432
-1.59081e-05
-0.045681
0.0641347
-2.52274e-05
-0.0456795