/*--------------------------------*- C++ -*----------------------------------*\
| =========                 |                                                 |
| \\      /  F ield         | OpenFOAM: The Open Source CFD Toolbox           |
|  \\    /   O peration     | Version:  v1612+                                |
|   \\  /    A nd           | Web:      www.OpenFOAM.com                      |
|    \\/     M anipulation  |                                                 |
\*---------------------------------------------------------------------------*/
FoamFile
{
    version     2.0;
    format      ascii;
    class       volVectorField;
    location    "2.45";
    object      U;
}
// * * * * * * * * * * * * * * * * * * * * * * * * * * * * * * * * * * * * * //

dimensions      [0 1 -1 0 0 0 0];

internalField   nonuniform List<vector> 
1116
(
(0.643837 -9.49483e-06 -0.541907)
(0.643838 -5.57234e-06 -0.541925)
(0.643836 -3.54234e-06 -0.541921)
(0.643842 -3.98465e-06 -0.54192)
(0.643844 -7.13263e-06 -0.541926)
(0.643825 1.90845e-06 -0.541917)
(1.91517 -9.27706e-06 -0.521204)
(1.91518 -5.36543e-06 -0.521228)
(1.91518 -5.18037e-06 -0.521222)
(1.91518 -6.62181e-06 -0.521223)
(1.91518 -2.26615e-06 -0.521231)
(1.91518 7.19532e-06 -0.521213)
(2.99792 -7.78237e-06 -0.342312)
(2.99793 -3.87685e-06 -0.342333)
(2.99793 -5.2119e-06 -0.342326)
(2.99793 -6.77403e-06 -0.342327)
(2.99793 -3.48038e-06 -0.342335)
(2.99792 5.6525e-06 -0.342315)
(3.74254 -7.73542e-06 -0.233328)
(3.74257 -3.12754e-06 -0.233341)
(3.74257 -7.16953e-06 -0.233335)
(3.74256 -7.54552e-06 -0.233337)
(3.74256 -5.36243e-06 -0.233344)
(3.74254 5.49938e-06 -0.233326)
(4.25103 -8.62241e-06 -0.158679)
(4.25106 -4.0122e-06 -0.158687)
(4.25106 -1.04547e-05 -0.158682)
(4.25106 -8.5348e-06 -0.158685)
(4.25106 -6.62614e-06 -0.158693)
(4.25102 5.99524e-06 -0.158676)
(4.64671 -1.06622e-05 -0.0799717)
(4.64674 -6.55791e-06 -0.0799784)
(4.64674 -1.24008e-05 -0.0799744)
(4.64673 -9.06546e-06 -0.0799782)
(4.64674 -7.74831e-06 -0.0799876)
(4.6467 5.07928e-06 -0.0799699)
(4.98615 -1.19416e-05 0.00930819)
(4.98618 -7.28671e-06 0.00930083)
(4.98617 -1.00395e-05 0.00930444)
(4.98617 -7.25752e-06 0.0093001)
(4.98617 -6.2258e-06 0.00928906)
(4.98612 4.9063e-06 0.00930361)
(5.26129 -8.50653e-06 0.0833626)
(5.26131 -1.53675e-06 0.0833473)
(5.26131 -9.98469e-07 0.0833537)
(5.26131 -3.84739e-07 0.0833498)
(5.26132 6.41116e-07 0.0833388)
(5.26127 7.75503e-06 0.0833542)
(5.49577 -7.24723e-06 0.311572)
(5.49582 4.11383e-06 0.311562)
(5.49581 1.07327e-05 0.311563)
(5.49581 6.42134e-06 0.31156)
(5.49583 8.63493e-06 0.31155)
(5.49575 1.19232e-05 0.311563)
(5.00572 -7.26987e-06 0.69411)
(5.0058 5.69913e-06 0.694102)
(5.0058 1.37137e-05 0.694095)
(5.00579 8.65709e-06 0.694089)
(5.0058 9.14601e-06 0.694078)
(5.00571 1.00654e-05 0.694079)
(2.97953 4.1114e-06 1.0345)
(2.97963 4.92268e-06 1.03451)
(2.97963 -1.44377e-06 1.03449)
(2.97962 9.95747e-06 1.03448)
(2.97966 9.48593e-07 1.03447)
(2.97952 -1.84931e-06 1.03445)
(0.695865 -3.15609e-05 0.486687)
(0.695972 -3.37905e-05 0.486673)
(0.695947 -1.36334e-05 0.486675)
(0.695949 -1.66464e-05 0.486671)
(0.696011 1.35413e-06 0.486665)
(0.69586 1.23369e-05 0.486665)
(0.21054 -3.5696e-06 -2.03364)
(0.21051 -2.67095e-06 -2.03368)
(0.210525 -9.30298e-06 -2.03367)
(0.210533 -2.78836e-06 -2.03367)
(0.210522 -2.33672e-05 -2.03369)
(0.21052 -1.21339e-05 -2.03367)
(2.09408 2.52399e-05 -2.26862)
(2.09409 5.22255e-07 -2.26867)
(2.09409 -1.57843e-05 -2.26866)
(2.09409 -1.21922e-05 -2.26865)
(2.0941 -1.4834e-05 -2.26868)
(2.09407 -2.32588e-05 -2.26865)
(3.27492 2.82311e-05 -1.56059)
(3.27496 6.08413e-06 -1.56063)
(3.27495 -1.08709e-05 -1.56062)
(3.27495 -1.03476e-05 -1.56062)
(3.27497 -1.27e-05 -1.56064)
(3.27492 -2.54515e-05 -1.5606)
(3.94309 3.06481e-05 -1.06311)
(3.94315 1.36318e-05 -1.06314)
(3.94313 -3.14681e-06 -1.06313)
(3.94313 -5.0231e-06 -1.06313)
(3.94317 -1.32006e-05 -1.06316)
(3.9431 -2.76198e-05 -1.06312)
(4.47178 2.94996e-05 -0.829293)
(4.47187 1.71215e-05 -0.829319)
(4.47184 4.75292e-06 -0.829308)
(4.47184 2.6348e-06 -0.829319)
(4.47188 -7.81867e-06 -0.829343)
(4.4718 -2.53974e-05 -0.829307)
(5.00398 2.81414e-05 -0.752141)
(5.00411 1.96618e-05 -0.752173)
(5.00408 1.44522e-05 -0.752165)
(5.00409 1.19941e-05 -0.752176)
(5.00413 4.49106e-06 -0.7522)
(5.00404 -1.74591e-05 -0.752168)
(5.61317 3.14153e-05 -0.729578)
(5.61334 2.56115e-05 -0.729623)
(5.6133 2.77583e-05 -0.729614)
(5.61332 2.40101e-05 -0.729622)
(5.61335 2.14644e-05 -0.729643)
(5.61329 -8.09369e-06 -0.729615)
(6.64779 3.81266e-05 -0.716126)
(6.64804 2.6873e-05 -0.716185)
(6.64798 3.07166e-05 -0.716166)
(6.648 2.49127e-05 -0.716167)
(6.64804 2.45356e-05 -0.716184)
(6.64794 -1.19028e-05 -0.716147)
(7.34563 4.44737e-05 -0.0122832)
(7.34593 2.50809e-05 -0.0123591)
(7.34585 2.34703e-05 -0.0123333)
(7.34585 1.5369e-05 -0.0123177)
(7.3459 1.36481e-05 -0.0123256)
(7.34578 -2.19365e-05 -0.012261)
(7.70397 4.54281e-05 1.39674)
(7.70429 2.7317e-05 1.39666)
(7.70421 1.39552e-05 1.39669)
(7.70421 2.01183e-06 1.39671)
(7.70427 -7.93813e-08 1.3967)
(7.70411 -2.32659e-05 1.39677)
(5.73953 5.18402e-05 2.96743)
(5.73984 4.00696e-05 2.96744)
(5.73974 1.55916e-05 2.96744)
(5.73973 1.81252e-05 2.96744)
(5.73976 1.08656e-06 2.96744)
(5.73962 -1.8542e-05 2.96747)
(2.07048 -3.23837e-05 2.79745)
(2.07072 -2.61343e-05 2.79748)
(2.07064 1.62188e-05 2.79747)
(2.07065 -3.65964e-06 2.79748)
(2.07066 2.52192e-05 2.79754)
(2.07055 3.37967e-05 2.79737)
(-1.00348 5.33519e-05 -3.16406)
(-1.00354 -3.71754e-05 -3.16408)
(-1.00347 1.66235e-05 -3.1641)
(-1.00354 -2.94005e-05 -3.16408)
(-1.00359 3.97708e-05 -3.16409)
(-1.00331 -5.11049e-05 -3.16413)
(2.20441 5.59053e-05 -4.00689)
(2.20441 -8.72061e-05 -4.00683)
(2.20437 2.50909e-05 -4.0069)
(2.2044 -2.74326e-05 -4.00691)
(2.20441 2.77683e-05 -4.00691)
(2.20431 -0.000105913 -4.00694)
(4.68703 6.74442e-05 -2.86825)
(4.68706 -5.13442e-05 -2.86813)
(4.68699 4.60328e-05 -2.86819)
(4.68701 -7.37327e-06 -2.86824)
(4.68709 8.7646e-05 -2.86821)
(4.68696 -4.75684e-05 -2.8683)
(7.77941 0.000115721 -2.19043)
(7.77946 8.97833e-05 -2.19032)
(7.77944 0.000191223 -2.19034)
(7.77949 0.000118185 -2.19036)
(7.77957 0.00017977 -2.19033)
(7.77964 2.25284e-05 -2.19044)
(11.2098 0.000161627 -1.77324)
(11.2101 0.000183049 -1.77314)
(11.2102 0.000319772 -1.77315)
(11.2103 0.00022161 -1.77316)
(11.2104 0.000264936 -1.77313)
(11.2105 5.18065e-05 -1.77324)
(14.4809 7.70747e-05 -1.77998)
(14.4813 0.000133333 -1.77992)
(14.4815 0.000355823 -1.77992)
(14.4817 0.000272663 -1.77989)
(14.4818 0.00036903 -1.77986)
(14.4821 0.000140892 -1.77992)
(17.6875 2.79764e-05 -1.94649)
(17.6876 8.47778e-05 -1.94649)
(17.6879 0.000304797 -1.94644)
(17.6881 0.000208314 -1.94639)
(17.688 0.000380795 -1.94635)
(17.6887 0.000202995 -1.94629)
(20.4922 5.69077e-05 -1.22286)
(20.4924 0.000106314 -1.22287)
(20.4927 0.000246817 -1.22281)
(20.4929 0.000108892 -1.22276)
(20.4925 0.000167811 -1.22275)
(20.4935 4.24987e-05 -1.22271)
(19.7968 -2.29822e-05 0.839949)
(19.7973 -0.000157954 0.839984)
(19.7975 -0.000103868 0.840023)
(19.7975 -0.000118185 0.840028)
(19.7975 -1.2359e-05 0.840036)
(19.798 -9.9168e-05 0.840003)
(11.0033 2.6063e-05 3.91673)
(11.0031 -5.02369e-05 3.91716)
(11.0032 -4.55427e-05 3.91711)
(11.0032 -6.00671e-05 3.91712)
(11.0031 1.88703e-05 3.9172)
(11.0037 -2.22519e-05 3.91699)
(4.18093 1.35595e-05 6.28072)
(4.18089 -1.67278e-05 6.28099)
(4.18089 5.23168e-06 6.28091)
(4.18086 -1.7512e-05 6.28092)
(4.18082 7.71826e-06 6.281)
(4.18075 4.92928e-06 6.28088)
(3.0233 2.45036e-06 4.89771)
(3.02368 1.1728e-05 4.89786)
(3.02359 3.672e-05 4.89781)
(3.0236 3.78372e-05 4.8978)
(3.02353 3.37873e-05 4.89777)
(3.02362 1.05075e-05 4.8978)
(-0.508134 8.99743e-05 -3.61013)
(-0.508148 -0.000161541 -3.61007)
(-0.508057 6.67478e-05 -3.61018)
(-0.508215 -7.75502e-05 -3.61016)
(-0.508285 0.000194857 -3.61008)
(-0.50777 -6.64879e-05 -3.61024)
(1.75537 -5.24184e-05 -5.11352)
(1.75532 -0.000112229 -5.11342)
(1.75526 5.63119e-05 -5.11347)
(1.7553 1.40285e-05 -5.11352)
(1.75533 2.79385e-05 -5.11349)
(1.75525 -4.58122e-05 -5.11342)
(0.652241 -5.493e-05 -4.03825)
(0.651928 -4.2965e-05 -4.03827)
(0.651822 5.99391e-05 -4.03831)
(0.651866 2.81877e-05 -4.03833)
(0.651951 9.82049e-05 -4.03828)
(0.652013 7.46471e-05 -4.03832)
(-0.0138788 2.86513e-05 -4.43118)
(-0.0141982 0.000101413 -4.43126)
(-0.0142242 0.000188839 -4.43126)
(-0.0142131 0.000130409 -4.43123)
(-0.0141728 0.000166235 -4.43119)
(-0.0139558 0.000101845 -4.43114)
(-0.947763 -6.91356e-06 -4.64931)
(-0.947839 8.15616e-05 -4.64953)
(-0.947626 0.00023294 -4.64942)
(-0.947465 0.00016894 -4.64936)
(-0.947343 0.00022487 -4.6493)
(-0.947069 0.000131926 -4.64909)
(-3.17712 -0.000183118 -5.81811)
(-3.17748 -0.000262578 -5.8184)
(-3.17713 -0.000235684 -5.81821)
(-3.17702 -0.000196834 -5.81807)
(-3.17704 -1.92411e-06 -5.81803)
(-3.17648 0.0001243 -5.81746)
(-3.18952 -0.000184094 -6.01883)
(-3.19028 -0.000316026 -6.01921)
(-3.18999 -0.000404709 -6.01895)
(-3.18996 -0.000397299 -6.01868)
(-3.19031 -0.000305029 -6.01875)
(-3.18919 -0.000109155 -6.01774)
(-2.67186 -4.51478e-05 -4.04486)
(-2.67262 -0.00013723 -4.04509)
(-2.67223 -0.000384452 -4.0448)
(-2.67216 -0.000428646 -4.04447)
(-2.6727 -0.0009398 -4.04465)
(-2.67142 -0.000784598 -4.04402)
(7.83758 2.49897e-05 6.87792)
(7.83787 -0.000161247 6.87792)
(7.83812 -0.000401489 6.8777)
(7.83778 -0.000371414 6.87778)
(7.83834 -0.00103045 6.87793)
(7.8351 -0.00107982 6.8782)
(10.4212 -5.48924e-05 14.2713)
(10.4217 -0.000251296 14.2715)
(10.4218 -0.000228477 14.2714)
(10.4217 -9.2783e-05 14.2714)
(10.4222 5.4308e-06 14.2712)
(10.4205 -0.000140507 14.2721)
(4.30696 0.000141687 12.0219)
(4.30754 5.47094e-05 12.0225)
(4.30742 -2.93374e-05 12.0223)
(4.30722 -1.82694e-05 12.0224)
(4.30714 0.000144218 12.0223)
(4.30702 9.14942e-05 12.0226)
(5.15356 -2.62889e-05 6.58051)
(5.15397 -1.00075e-05 6.58059)
(5.15395 1.4269e-05 6.58055)
(5.15396 9.04306e-05 6.58052)
(5.1542 -1.72878e-05 6.58072)
(5.15365 -0.000119822 6.58042)
(-0.00222467 -4.44195e-07 -0.0022529)
(-0.00222461 -1.0981e-06 -0.00225285)
(-0.00222448 -1.05223e-06 -0.00225282)
(-0.00222429 -8.68453e-07 -0.00225282)
(-0.00222409 -7.32283e-07 -0.0022528)
(-0.00222384 -2.62651e-07 -0.00225272)
(-0.00675171 -2.53715e-07 -0.00233012)
(-0.00675131 -9.70168e-07 -0.00232943)
(-0.00675073 -1.38433e-06 -0.00232924)
(-0.00674994 -1.42946e-06 -0.00232924)
(-0.00674911 -1.24632e-06 -0.00232931)
(-0.00674811 -5.04933e-07 -0.00232943)
(-0.0115005 2.239e-08 -0.00247232)
(-0.0114989 -1.04621e-06 -0.00246987)
(-0.011497 -2.5612e-06 -0.00246919)
(-0.0114949 -3.1768e-06 -0.00246912)
(-0.0114926 -2.96684e-06 -0.00246936)
(-0.01149 -1.30372e-06 -0.00246993)
(-0.0166099 -6.17115e-08 -0.00267652)
(-0.0166051 -2.55137e-06 -0.00267143)
(-0.0166002 -6.11017e-06 -0.00267014)
(-0.0165953 -7.60106e-06 -0.00267018)
(-0.0165902 -7.17128e-06 -0.00267108)
(-0.0165842 -3.2129e-06 -0.00267299)
(-0.022259 -1.74917e-06 -0.00294974)
(-0.0222469 -7.89761e-06 -0.00294263)
(-0.0222364 -1.42341e-05 -0.00294145)
(-0.0222268 -1.64864e-05 -0.00294244)
(-0.0222172 -1.51033e-05 -0.00294505)
(-0.0222058 -6.72631e-06 -0.00294971)
(-0.0286678 -7.177e-06 -0.0034308)
(-0.0286427 -2.03661e-05 -0.00342653)
(-0.0286241 -2.84427e-05 -0.00342811)
(-0.028609 -2.98617e-05 -0.00343201)
(-0.0285946 -2.58275e-05 -0.00343799)
(-0.0285762 -1.12465e-05 -0.00344698)
(-0.035886 -1.66446e-05 -0.00443042)
(-0.0358423 -3.87181e-05 -0.00444014)
(-0.0358164 -4.4298e-05 -0.00444897)
(-0.0357993 -4.13715e-05 -0.0044579)
(-0.0357844 -3.29053e-05 -0.0044678)
(-0.0357617 -1.37943e-05 -0.00448012)
(-0.0434251 -2.64424e-05 -0.00608002)
(-0.0433617 -5.17338e-05 -0.0061149)
(-0.0433351 -4.54201e-05 -0.00613318)
(-0.0433251 -3.33998e-05 -0.00614577)
(-0.0433199 -2.07209e-05 -0.00615537)
(-0.0433039 -7.51123e-06 -0.00616339)
(-0.0505437 -2.65304e-05 -0.00814256)
(-0.0504693 -3.8768e-05 -0.00820055)
(-0.0504537 -1.19694e-05 -0.00822078)
(-0.050461 1.07116e-05 -0.00822743)
(-0.0504758 2.41778e-05 -0.00822502)
(-0.0504814 1.36523e-05 -0.00821423)
(-0.0522027 -7.48049e-06 -0.00928908)
(-0.0521339 1.19132e-05 -0.0093472)
(-0.0521332 5.40009e-05 -0.00935507)
(-0.0521579 7.72036e-05 -0.00934334)
(-0.0521937 8.12944e-05 -0.00931681)
(-0.0522318 3.85294e-05 -0.00927442)
(-0.0499372 2.26005e-05 -0.00775149)
(-0.0498865 6.57862e-05 -0.00775552)
(-0.0498869 9.57175e-05 -0.00773798)
(-0.0499067 0.000106665 -0.00770933)
(-0.0499427 0.000100478 -0.00766888)
(-0.0500032 4.62258e-05 -0.00760853)
(-0.0266277 2.22329e-05 0.00449849)
(-0.0266073 3.77963e-05 0.00451452)
(-0.0266018 2.68003e-05 0.00451793)
(-0.0266027 1.74274e-05 0.00451985)
(-0.0266132 9.79537e-06 0.00452654)
(-0.0266436 3.21881e-06 0.00454735)
(-0.00221533 -4.16886e-07 -0.00661664)
(-0.00221498 -1.0392e-06 -0.00661651)
(-0.0022147 -1.03997e-06 -0.00661636)
(-0.00221442 -7.98384e-07 -0.00661629)
(-0.00221419 -4.72278e-07 -0.0066162)
(-0.00221397 -7.38709e-08 -0.00661603)
(-0.00674729 -6.68432e-07 -0.006872)
(-0.00674593 -1.61189e-06 -0.00687057)
(-0.00674481 -1.77251e-06 -0.00687005)
(-0.00674375 -1.53923e-06 -0.0068699)
(-0.00674287 -9.9079e-07 -0.00686998)
(-0.00674192 -2.81514e-07 -0.00687023)
(-0.0115706 -1.40563e-06 -0.00735201)
(-0.0115672 -3.30302e-06 -0.00734715)
(-0.0115644 -3.82472e-06 -0.00734556)
(-0.0115619 -3.56077e-06 -0.00734516)
(-0.0115597 -2.67231e-06 -0.00734557)
(-0.0115573 -1.04018e-06 -0.00734682)
(-0.0168501 -2.94436e-06 -0.0080459)
(-0.0168421 -6.86944e-06 -0.00803613)
(-0.016836 -8.0039e-06 -0.00803333)
(-0.0168308 -7.61542e-06 -0.00803312)
(-0.016826 -5.93545e-06 -0.00803495)
(-0.0168207 -2.4003e-06 -0.0080392)
(-0.0226291 -5.94935e-06 -0.0088981)
(-0.0226117 -1.33628e-05 -0.00888561)
(-0.0225997 -1.49056e-05 -0.00888345)
(-0.0225902 -1.38763e-05 -0.00888537)
(-0.0225814 -1.08127e-05 -0.00889094)
(-0.0225711 -4.42702e-06 -0.0089013)
(-0.0287392 -1.04988e-05 -0.00972929)
(-0.0287031 -2.21122e-05 -0.00972601)
(-0.0286822 -2.24626e-05 -0.00973079)
(-0.0286678 -1.9494e-05 -0.00973924)
(-0.0286553 -1.4468e-05 -0.00975195)
(-0.0286394 -5.81223e-06 -0.00977113)
(-0.0349726 -1.51607e-05 -0.00991204)
(-0.0349045 -2.77727e-05 -0.009942)
(-0.0348732 -2.17432e-05 -0.00996339)
(-0.0348569 -1.42421e-05 -0.0099829)
(-0.0348458 -7.55159e-06 -0.0100033)
(-0.03483 -2.41259e-06 -0.0100276)
(-0.0410285 -1.4251e-05 -0.00796721)
(-0.0409169 -1.68152e-05 -0.00805126)
(-0.0408794 3.20371e-06 -0.00809183)
(-0.0408709 1.74123e-05 -0.00811705)
(-0.0408747 2.31748e-05 -0.00813307)
(-0.0408774 1.1574e-05 -0.0081419)
(-0.0468459 -1.50498e-06 -0.00219276)
(-0.0466941 2.24758e-05 -0.0023166)
(-0.0466624 6.0424e-05 -0.00235609)
(-0.0466775 7.82791e-05 -0.002363)
(-0.0467172 7.71627e-05 -0.00234659)
(-0.0467684 3.53927e-05 -0.00230595)
(-0.0500072 1.81081e-05 0.0127098)
(-0.049855 6.96915e-05 0.0126133)
(-0.049848 0.00011539 0.0126118)
(-0.0499 0.000129114 0.0126494)
(-0.0499879 0.000118119 0.0127176)
(-0.0501063 5.27908e-05 0.0128222)
(-0.054835 4.19018e-05 0.0320071)
(-0.0547467 9.24452e-05 0.0320378)
(-0.054773 9.99991e-05 0.0320883)
(-0.0548524 9.1093e-05 0.0321546)
(-0.0549734 7.15044e-05 0.0322444)
(-0.0551419 3.00179e-05 0.0323734)
(-0.0444098 1.7479e-05 0.0802868)
(-0.0443871 1.0955e-06 0.0803385)
(-0.0444025 -4.9415e-05 0.0803523)
(-0.0444393 -7.49487e-05 0.08036)
(-0.0444994 -8.06225e-05 0.0803813)
(-0.0445878 -3.88472e-05 0.0804268)
(-0.00210814 -2.10064e-07 -0.0107936)
(-0.0021079 -6.24457e-07 -0.0107936)
(-0.00210772 -6.86006e-07 -0.0107933)
(-0.00210754 -4.79882e-07 -0.0107932)
(-0.00210744 -2.01129e-07 -0.0107931)
(-0.00210738 2.32797e-08 -0.0107929)
(-0.00645096 -4.87736e-07 -0.0112765)
(-0.00645009 -1.177e-06 -0.0112752)
(-0.00644938 -1.26995e-06 -0.0112746)
(-0.00644876 -1.00258e-06 -0.0112743)
(-0.00644837 -4.82535e-07 -0.0112744)
(-0.00644809 -6.12817e-08 -0.0112746)
(-0.0111744 -1.16902e-06 -0.012206)
(-0.0111722 -2.59716e-06 -0.0122016)
(-0.0111706 -2.72732e-06 -0.0122)
(-0.0111692 -2.21424e-06 -0.0121994)
(-0.0111684 -1.31966e-06 -0.0121998)
(-0.0111677 -4.0456e-07 -0.0122012)
(-0.0165521 -2.44644e-06 -0.013579)
(-0.0165469 -5.16913e-06 -0.0135709)
(-0.0165435 -5.12471e-06 -0.0135683)
(-0.0165411 -4.06283e-06 -0.013568)
(-0.0165395 -2.44841e-06 -0.01357)
(-0.0165385 -7.86205e-07 -0.0135747)
(-0.0229705 -4.54194e-06 -0.0152959)
(-0.0229583 -8.81848e-06 -0.0152877)
(-0.0229518 -7.6306e-06 -0.0152866)
(-0.022948 -5.33906e-06 -0.015289)
(-0.0229462 -2.70375e-06 -0.0152953)
(-0.0229455 -7.18487e-07 -0.0153067)
(-0.0311205 -6.96669e-06 -0.0171367)
(-0.031093 -1.14893e-05 -0.0171435)
(-0.0310823 -6.54657e-06 -0.0171515)
(-0.0310783 -1.59382e-06 -0.0171615)
(-0.0310788 2.20415e-06 -0.0171755)
(-0.0310821 1.76263e-06 -0.0171954)
(-0.0418703 -7.20089e-06 -0.0187842)
(-0.0418158 -6.0547e-06 -0.0188318)
(-0.0418015 7.48101e-06 -0.018859)
(-0.041803 1.61418e-05 -0.0188803)
(-0.0418146 1.93739e-05 -0.0189003)
(-0.0418336 9.53601e-06 -0.0189205)
(-0.0551196 -6.27899e-08 -0.019414)
(-0.0550322 1.81447e-05 -0.0195177)
(-0.0550216 4.54844e-05 -0.019562)
(-0.0550416 5.78347e-05 -0.0195844)
(-0.0550819 5.62885e-05 -0.019592)
(-0.0551402 2.56531e-05 -0.0195829)
(-0.0721427 1.85457e-05 -0.0176656)
(-0.0720422 6.28674e-05 -0.0177929)
(-0.0720531 9.82453e-05 -0.0178242)
(-0.0721102 0.000107252 -0.0178157)
(-0.072199 9.47868e-05 -0.0177759)
(-0.0723205 4.1424e-05 -0.0176989)
(-0.0841819 4.15498e-05 -0.007449)
(-0.0841151 9.71356e-05 -0.00751311)
(-0.0841684 0.000112069 -0.00748571)
(-0.0842769 0.000103229 -0.00741778)
(-0.0844259 7.70455e-05 -0.00731371)
(-0.0846128 3.01576e-05 -0.0071695)
(-0.101313 2.82475e-05 0.00664818)
(-0.101339 4.26954e-05 0.0067431)
(-0.101436 1.71391e-05 0.00681756)
(-0.101578 -5.49653e-06 0.00689488)
(-0.101757 -2.59975e-05 0.00699289)
(-0.101961 -1.77014e-05 0.00712241)
(-0.0743574 -2.87941e-05 0.0659823)
(-0.0744005 -0.000101077 0.066079)
(-0.07446 -0.000164712 0.0661228)
(-0.0745348 -0.00018409 0.0661518)
(-0.0746306 -0.00016845 0.0661968)
(-0.0747253 -7.83275e-05 0.0662393)
(-0.00188229 -8.753e-08 -0.0145967)
(-0.00188203 -3.15551e-07 -0.0145968)
(-0.00188189 -3.65373e-07 -0.0145966)
(-0.00188181 -2.18223e-07 -0.0145965)
(-0.0018818 -3.34304e-08 -0.0145964)
(-0.00188182 6.04856e-08 -0.0145962)
(-0.00579571 -3.90057e-07 -0.01537)
(-0.00579478 -8.12313e-07 -0.0153692)
(-0.00579432 -7.13249e-07 -0.0153687)
(-0.00579409 -4.23348e-07 -0.0153685)
(-0.00579412 -5.44633e-08 -0.0153686)
(-0.00579423 7.6052e-08 -0.0153687)
(-0.0101789 -9.69322e-07 -0.0169013)
(-0.0101768 -1.75933e-06 -0.0168986)
(-0.010176 -1.2543e-06 -0.0168974)
(-0.0101757 -5.49419e-07 -0.016897)
(-0.010176 1.57203e-07 -0.0168974)
(-0.0101764 2.39361e-07 -0.0168984)
(-0.0154249 -1.60025e-06 -0.0192421)
(-0.0154206 -2.4775e-06 -0.0192372)
(-0.0154193 -1.03071e-06 -0.0192356)
(-0.0154195 3.84254e-07 -0.0192357)
(-0.0154205 1.44107e-06 -0.0192376)
(-0.0154216 8.986e-07 -0.0192412)
(-0.0219302 -1.45186e-06 -0.0223742)
(-0.0219217 -9.83883e-07 -0.0223711)
(-0.0219204 2.27586e-06 -0.0223717)
(-0.0219219 4.57384e-06 -0.0223748)
(-0.0219251 5.481e-06 -0.0223806)
(-0.0219285 2.71055e-06 -0.0223895)
(-0.0298577 1.15368e-06 -0.0261349)
(-0.0298417 6.53212e-06 -0.0261464)
(-0.0298413 1.30699e-05 -0.026156)
(-0.0298467 1.61988e-05 -0.0261667)
(-0.0298554 1.5589e-05 -0.0261797)
(-0.0298654 7.08745e-06 -0.026195)
(-0.0393189 8.90038e-06 -0.0301283)
(-0.0392925 2.53928e-05 -0.0301747)
(-0.0392958 3.60729e-05 -0.0302018)
(-0.0393101 3.87345e-05 -0.0302234)
(-0.0393316 3.36415e-05 -0.0302419)
(-0.0393594 1.45269e-05 -0.030255)
(-0.0507106 2.24155e-05 -0.0321622)
(-0.050679 5.44068e-05 -0.0322508)
(-0.0506935 6.62113e-05 -0.0322916)
(-0.0507263 6.4779e-05 -0.0323141)
(-0.0507737 5.19911e-05 -0.0323207)
(-0.0508382 2.14948e-05 -0.0323057)
(-0.0667054 3.34217e-05 -0.0302433)
(-0.0666962 7.16693e-05 -0.0303369)
(-0.0667392 7.36197e-05 -0.0303594)
(-0.0668055 6.24477e-05 -0.0303503)
(-0.0668945 4.27487e-05 -0.0303125)
(-0.0670096 1.581e-05 -0.0302392)
(-0.0820717 2.17075e-05 -0.00858504)
(-0.0821264 3.48885e-05 -0.00860526)
(-0.082206 1.68261e-05 -0.00856719)
(-0.0823004 -4.21729e-07 -0.00849962)
(-0.0824164 -1.6567e-05 -0.00840406)
(-0.0825517 -1.25805e-05 -0.00828295)
(-0.110578 -3.22003e-05 0.0327074)
(-0.110718 -9.52853e-05 0.0328266)
(-0.110821 -0.000143563 0.0329107)
(-0.110916 -0.000157792 0.0329942)
(-0.111015 -0.000147365 0.0330828)
(-0.111092 -6.98344e-05 0.0331763)
(-0.106535 -7.19125e-05 0.249101)
(-0.106617 -0.000166656 0.249157)
(-0.106674 -0.000208746 0.249207)
(-0.106712 -0.000200823 0.249204)
(-0.106757 -0.000181302 0.249254)
(-0.106766 -9.44073e-05 0.249254)
(-0.0639469 -4.36158e-05 -4.02546)
(-0.0639453 -2.97575e-05 -4.0256)
(-0.0639204 4.16384e-05 -4.02567)
(-0.0639825 -1.18147e-05 -4.02561)
(-0.0640038 9.87793e-05 -4.02555)
(-0.0638542 8.38381e-05 -4.02553)
(0.15769 -4.85137e-06 -3.86857)
(0.157672 1.68648e-05 -3.86875)
(0.157664 2.73792e-06 -3.86874)
(0.157663 -4.73736e-06 -3.86871)
(0.157665 2.20086e-06 -3.86872)
(0.157641 2.09923e-05 -3.86859)
(0.0778475 1.34706e-05 -3.86163)
(0.0778399 1.17659e-05 -3.86172)
(0.0778385 -4.09867e-06 -3.86171)
(0.077849 -7.89906e-06 -3.86168)
(0.0778533 -1.76588e-05 -3.8617)
(0.0778305 -1.30641e-05 -3.8616)
(-0.274674 -6.00737e-05 -4.8002)
(-0.274847 -2.3627e-05 -4.80032)
(-0.274871 1.49284e-06 -4.80026)
(-0.274872 3.10712e-05 -4.80024)
(-0.274844 1.50529e-05 -4.80028)
(-0.274656 3.68243e-05 -4.80006)
(-0.250575 4.18333e-06 -4.29569)
(-0.250579 -1.84673e-05 -4.29583)
(-0.250589 -2.88221e-05 -4.29579)
(-0.250606 -1.43047e-05 -4.29578)
(-0.250613 -1.0544e-05 -4.29581)
(-0.250604 -1.56717e-05 -4.29563)
(-0.10926 1.31795e-05 -4.07213)
(-0.109261 1.59159e-05 -4.07223)
(-0.109262 6.28014e-06 -4.07219)
(-0.109258 7.69927e-06 -4.07217)
(-0.109255 -5.86173e-06 -4.07218)
(-0.109273 -1.24785e-05 -4.07204)
(-2.12299 -4.98488e-07 -2.90839)
(-2.12324 1.09182e-05 -2.90854)
(-2.12327 -2.60131e-05 -2.90851)
(-2.1233 -2.43626e-05 -2.9085)
(-2.12329 -3.20812e-05 -2.90854)
(-2.12309 2.12181e-05 -2.90836)
(-0.447228 8.17325e-06 -3.10581)
(-0.447239 -1.23289e-06 -3.10593)
(-0.447264 -1.44636e-05 -3.1059)
(-0.447288 -4.29816e-06 -3.1059)
(-0.447293 -2.60599e-05 -3.10593)
(-0.447281 -2.56468e-05 -3.10574)
(-0.0389778 1.20296e-05 -3.31738)
(-0.0389626 1.61605e-05 -3.31746)
(-0.0389687 1.28721e-05 -3.31743)
(-0.0389667 1.08241e-05 -3.31742)
(-0.0389652 -2.86926e-06 -3.31742)
(-0.0389981 -1.13547e-05 -3.31732)
(-1.12701 4.06294e-06 -3.07533)
(-1.12705 -2.39097e-05 -3.07569)
(-1.12711 -6.04448e-05 -3.07562)
(-1.12717 -5.52193e-05 -3.07559)
(-1.12722 -3.56869e-05 -3.07564)
(-1.12724 2.25932e-06 -3.07525)
(-0.0563815 2.1666e-05 -4.34076)
(-0.0563431 8.67956e-06 -4.34099)
(-0.0563725 -2.81514e-05 -4.34099)
(-0.0563847 -2.94344e-05 -4.34101)
(-0.0563939 -6.36213e-05 -4.34108)
(-0.0564553 -5.38726e-05 -4.34077)
(0.138061 1.74488e-05 -3.93154)
(0.138069 2.75174e-05 -3.93168)
(0.138073 1.80963e-05 -3.93165)
(0.138075 1.46128e-05 -3.93165)
(0.138078 -1.07005e-05 -3.93167)
(0.138073 -1.89844e-05 -3.93155)
(-0.735911 -4.64398e-05 -1.98158)
(-0.736014 -9.56881e-05 -1.98198)
(-0.736091 -0.000106707 -1.9819)
(-0.736163 -8.91081e-05 -1.98183)
(-0.73619 -4.41156e-05 -1.98184)
(-0.736167 1.73021e-06 -1.9814)
(-0.133554 2.0127e-05 -4.16503)
(-0.133532 7.53775e-06 -4.16526)
(-0.133537 -4.22518e-05 -4.16526)
(-0.133542 -4.70023e-05 -4.16528)
(-0.133552 -6.87283e-05 -4.16535)
(-0.133569 -4.19164e-05 -4.16506)
(-0.00666902 1.50611e-05 -3.46894)
(-0.00666819 1.77981e-05 -3.46908)
(-0.00667329 7.32193e-06 -3.46909)
(-0.00667633 4.24646e-06 -3.46909)
(-0.00667958 -1.57405e-05 -3.46912)
(-0.00668225 -2.06597e-05 -3.469)
(0.130427 -5.69983e-05 -2.51828)
(0.130334 -0.000128338 -2.51868)
(0.130203 -0.000123055 -2.51871)
(0.130126 -0.000122838 -2.51871)
(0.130118 -9.28638e-05 -2.51877)
(0.130074 -4.71652e-05 -2.51835)
(0.149493 2.36004e-05 -4.50394)
(0.149512 2.13222e-05 -4.50411)
(0.149523 -1.13903e-05 -4.50408)
(0.149534 -1.5556e-05 -4.50407)
(0.149532 -3.93827e-05 -4.50412)
(0.14956 -2.39735e-05 -4.50388)
(-0.139864 7.882e-06 -3.69634)
(-0.139873 8.23369e-07 -3.69648)
(-0.139878 -1.10913e-05 -3.6965)
(-0.139883 -1.19711e-05 -3.69651)
(-0.139889 -2.08017e-05 -3.69653)
(-0.139884 -1.78487e-05 -3.69641)
(0.0145654 -8.6189e-05 -4.26849)
(0.0141531 -0.000139336 -4.26894)
(0.0141334 -0.000118067 -4.26887)
(0.0140933 -0.000167533 -4.26886)
(0.0140547 -0.000137639 -4.26894)
(0.014161 -5.07409e-05 -4.26853)
(-0.100457 -1.6902e-05 -3.9266)
(-0.100431 -4.83212e-05 -3.92668)
(-0.100477 -5.534e-05 -3.92669)
(-0.100466 -4.80378e-05 -3.92668)
(-0.100523 8.12432e-07 -3.92669)
(-0.10043 3.09328e-05 -3.92651)
(-0.325333 -1.82943e-06 -3.66167)
(-0.325341 -8.41883e-06 -3.6618)
(-0.32534 -1.63305e-05 -3.6618)
(-0.325343 -2.2587e-05 -3.6618)
(-0.325366 -1.94024e-05 -3.66178)
(-0.325332 -7.34758e-06 -3.66167)
(-1.65772 1.69662e-05 -6.47552)
(-1.65884 -3.454e-05 -6.47597)
(-1.65856 -9.31683e-05 -6.47568)
(-1.65867 -0.000111434 -6.47569)
(-1.6589 -0.000289558 -6.47537)
(-1.65861 -0.000207177 -6.47658)
(-1.0082 2.60418e-05 -3.99425)
(-1.00841 -5.62918e-05 -3.99435)
(-1.00856 -4.06314e-05 -3.9944)
(-1.00858 -9.98947e-05 -3.99429)
(-1.00885 0.000115792 -3.99393)
(-1.00815 0.000257457 -3.9942)
(-0.515212 -2.87818e-05 -3.55596)
(-0.515199 -4.6225e-05 -3.55604)
(-0.515209 -4.73068e-05 -3.55599)
(-0.515208 -9.90319e-05 -3.55601)
(-0.515286 1.89506e-05 -3.55601)
(-0.515158 9.01253e-05 -3.55593)
(-2.07612 0.000506517 -2.09523)
(-2.07676 0.000393643 -2.09592)
(-2.07602 -0.000141807 -2.09519)
(-2.07623 0.000124433 -2.09551)
(-2.07625 -0.000760434 -2.09429)
(-2.07785 -0.000941966 -2.0999)
(-3.29178 0.000537575 -2.39277)
(-3.29225 0.000433699 -2.39276)
(-3.29211 0.000135296 -2.39256)
(-3.29216 0.000143193 -2.39241)
(-3.29244 0.000157122 -2.39074)
(-3.29146 0.000250357 -2.39476)
(-1.12486 7.44468e-06 -2.63407)
(-1.12507 -2.85672e-05 -2.63398)
(-1.12511 -2.94053e-05 -2.63386)
(-1.12515 -0.000175231 -2.63386)
(-1.12524 0.000161794 -2.63363)
(-1.12479 0.000348949 -2.63431)
(7.39844 0.000561983 12.938)
(7.40061 0.00030403 12.9382)
(7.4 -0.000385526 12.9376)
(7.39977 -0.000180201 12.9373)
(7.40044 -0.00084421 12.9382)
(7.39778 -0.000972651 12.9352)
(1.81745 0.00108231 7.05281)
(1.82024 0.0010568 7.05544)
(1.81944 0.000294823 7.05472)
(1.81921 0.000533244 7.05385)
(1.81957 -0.00045367 7.05559)
(1.81705 -0.0007658 7.04753)
(-1.35523 0.000427135 2.79303)
(-1.35482 0.000617468 2.79525)
(-1.35494 0.000653492 2.79519)
(-1.35515 0.000651519 2.79477)
(-1.35508 0.000467042 2.7957)
(-1.35561 0.000270945 2.79154)
(4.57652 0.000933603 15.1227)
(4.58101 0.000572914 15.1239)
(4.57969 -0.000226631 15.1233)
(4.57973 0.000128614 15.1231)
(4.58061 -0.000120482 15.1234)
(4.57807 -0.000390484 15.1231)
(5.29137 0.00164113 12.2163)
(5.29799 0.00185776 12.2215)
(5.29574 0.00103652 12.2197)
(5.29674 0.000474336 12.2187)
(5.29792 0.00126724 12.2155)
(5.29405 0.00130636 12.2207)
(3.666 0.00038379 7.17348)
(3.66853 0.000867906 7.17943)
(3.66747 0.0011346 7.17913)
(3.66826 0.00036933 7.17836)
(3.66915 0.00147697 7.17192)
(3.66578 0.00161138 7.18346)
(6.7559 0.000274375 8.88541)
(6.75786 0.000333275 8.8867)
(6.75722 0.000152262 8.88618)
(6.75733 -6.3426e-05 8.88615)
(6.75826 0.000380849 8.88658)
(6.75607 0.000466939 8.88562)
(4.95722 0.00121731 5.7415)
(4.96233 0.00130204 5.74958)
(4.96078 0.000527231 5.74715)
(4.96097 -0.000840032 5.74656)
(4.95891 0.00192445 5.7442)
(4.96298 0.00304198 5.74964)
(5.97062 0.000368755 -0.4331)
(5.97256 0.000771833 -0.418028)
(5.97248 0.000969356 -0.420672)
(5.97235 -0.00048253 -0.422719)
(5.96927 0.00230509 -0.437997)
(5.97554 0.00325423 -0.405543)
(-0.947176 -8.2353e-05 0.585271)
(-0.947038 -4.71988e-06 0.585408)
(-0.947234 -0.000154512 0.585621)
(-0.947012 -5.06714e-05 0.585208)
(-0.946576 -0.000125602 0.587402)
(-0.947787 -0.000301592 0.582946)
(-1.38806 0.000228183 -1.30833)
(-1.38848 0.000599284 -1.30842)
(-1.38875 -0.000412701 -1.30847)
(-1.38775 0.00294681 -1.30857)
(-1.39312 -0.00390257 -1.30969)
(-1.38341 -0.00762134 -1.30719)
(0.893542 -9.39002e-05 0.774357)
(0.893707 -0.0001219 0.776329)
(0.893015 -0.000319353 0.773163)
(0.895211 -0.00286341 0.779138)
(0.897071 0.00345024 0.806335)
(0.89182 0.0061333 0.743653)
(-1.50204 -0.000222755 0.345751)
(-1.50189 0.000109552 0.345851)
(-1.50206 -0.000182886 0.346488)
(-1.50179 -0.0004949 0.344923)
(-1.50247 0.000597784 0.345913)
(-1.50086 0.00057586 0.345442)
(-1.66832 0.000484124 -2.19535)
(-1.66936 0.001448 -2.19647)
(-1.66908 -0.00132619 -2.19571)
(-1.66879 0.00454235 -2.19672)
(-1.67651 -0.00485034 -2.20471)
(-1.6616 -0.0116633 -2.18824)
(2.11898 0.00036235 9.0294)
(2.12065 0.00116841 9.03329)
(2.11625 -0.000731714 9.02783)
(2.12576 0.00570709 9.03674)
(2.15705 -0.00707034 9.09102)
(2.08233 -0.0141486 8.9685)
(-0.192989 -0.000442977 0.220161)
(-0.193026 5.46165e-05 0.219963)
(-0.19298 -0.000283109 0.220534)
(-0.193776 -0.00159903 0.21964)
(-0.193372 0.00100547 0.219739)
(-0.193728 0.0018061 0.219472)
(2.96021 -0.000382795 2.46282)
(2.95779 -5.25848e-05 2.46049)
(2.95755 -9.11334e-05 2.46173)
(2.96191 -0.000295538 2.46247)
(2.96673 -0.00029047 2.46199)
(2.94837 -0.000371254 2.45869)
(10.0092 0.000260209 14.7715)
(10.0108 0.000575622 14.7728)
(10.0095 -0.000187867 14.7713)
(10.0117 0.00532619 14.7726)
(10.0354 -0.0071779 14.7935)
(9.98397 -0.0129587 14.7507)
(-1.46934 -0.00019296 -3.33116)
(-1.47006 0.000135078 -3.33284)
(-1.47188 0.000267359 -3.33308)
(-1.46711 -0.00217763 -3.3297)
(-1.4642 0.00322999 -3.333)
(-1.47681 0.00537207 -3.33011)
(8.52617 -0.000261915 6.72174)
(8.52614 -4.1459e-05 6.72197)
(8.52611 -0.000143398 6.72234)
(8.5269 0.000294376 6.7213)
(8.53011 -0.000460548 6.7233)
(8.52226 -0.00104412 6.72152)
(13.2078 0.000116046 11.3138)
(13.2088 0.000325398 11.3147)
(13.209 5.64834e-05 11.3141)
(13.2083 0.00304353 11.3139)
(13.2187 -0.00399242 11.3179)
(13.198 -0.00713958 11.3126)
(2.41281 -5.95636e-05 3.65473)
(2.41222 -4.40972e-05 3.65462)
(2.41119 4.6051e-05 3.65439)
(2.41404 0.00180329 3.65486)
(2.42347 -0.00221343 3.65979)
(2.40126 -0.00392458 3.64944)
(10.169 5.95184e-05 7.70758)
(10.1694 0.00026342 7.70885)
(10.1694 -2.49233e-05 7.70829)
(10.1693 0.000945836 7.70834)