/*--------------------------------*- C++ -*----------------------------------*\
| =========                 |                                                 |
| \\      /  F ield         | OpenFOAM: The Open Source CFD Toolbox           |
|  \\    /   O peration     | Version:  v1612+                                |
|   \\  /    A nd           | Web:      www.OpenFOAM.com                      |
|    \\/     M anipulation  |                                                 |
\*---------------------------------------------------------------------------*/
FoamFile
{
    version     2.0;
    format      ascii;
    class       volScalarField;
    location    "3.65";
    object      p_rgh;
}
// * * * * * * * * * * * * * * * * * * * * * * * * * * * * * * * * * * * * * //

dimensions      [1 -1 -2 0 0 0 0];

internalField   nonuniform List<scalar> 
320
(
-9800.21
-9800.2
-9800.19
-9800.21
-0.00568307
-0.00701068
-0.00585179
0.000311395
0.00515735
-0.0121463
0.00249846
-0.00302609
-0.0102708
-0.00850747
0.0011327
0.000943499
-9799.96
-9800
-9800
-9800.04
-9800.04
-9800.01
-9799.97
-9800.02
-9799.96
-9799.95
-9800.1
-9799.94
-9800.2
-9800.19
-9800.21
-9800.22
-9800.23
-9800.24
-9800.22
-9800.2
-9800.2
-9800.2
-9800.2
-9800.21
-9800.21
-9800.2
-9800.19
-9800.2
-9800.21
-9800.2
-9800.2
-9800.22
-9800.21
-9800.22
-9800.21
-9800.2
-9800.2
-9800.2
-9800.2
-9800.21
0.0102799
-0.000400847
-0.00664834
-0.00275009
0.00282243
0.00922255
0.00728722
0.0142601
0.00140538
0.00294841
0.000326235
0.00622497
-0.00488221
-0.000911433
-0.00195311
0.000854387
0.00249463
0.00391582
0.0038049
0.00416634
-9800.08
-9800.01
-9799.98
-9799.98
-9800.08
-9800.13
-9800.08
-9800.15
-9800.02
-9800.04
-9800.07
-9800.11
-9799.96
-9800.09
-9800.02
-9800.09
-9800.1
-9800.04
-9800.01
-9800.09
-9800.21
-9800.21
-9800.19
-9800.21
-9800.21
-9800.2
-9800.22
-9800.21
-9800.22
-9800.22
-9800.21
-9800.21
-9800.2
-9800.2
-9800.2
-9800.2
-9800.2
-9800.22
-9800.22
-9800.2
-9800.21
-9800.21
-9800.2
-9800.21
-9800.21
-9800.2
-9800.21
-9800.21
-9800.22
-9800.22
-9800.21
-9800.2
-9800.2
-9800.2
-9800.2
-9800.2
-9800.2
-9800.21
-9800.21
-9800.21
-9800.21
-9800.2
-9800.2
-9800.2
-9800.21
-9800.2
-9800.21
-9800.21
-9800.21
-9800.21
-9800.21
-9800.2
-9800.2
-9800.2
-9800.2
-9800.2
-9800.2
-9800.21
-9800.2
-9800.21
-9800.21
-9800.21
-9800.21
-9800.21
-9800.21
-9800.22
-9800.21
-9800.2
-9800.2
-9800.2
-9800.2
-9800.2
-9800.2
-9800.21
-9800.21
-9800.2
-0.00491653
0.00884442
-0.00494591
0.00879344
0.009535
0.00531468
-0.00217644
-0.00260776
0.00602797
-0.00265348
-0.00684952
-0.00211312
0.0135186
0.0072397
0.00315449
-0.00274635
-0.0109334
-0.00105896
-0.000242872
-0.00164632
-0.00253996
-0.00741113
0.00176434
-0.00743677
0.00335835
0.00203952
-0.00481161
-0.00495856
-9799.99
-9800.12
-9799.97
-9800.12
-9800.07
-9800.04
-9799.98
-9799.99
-9800.08
-9799.96
-9799.94
-9799.98
-9800.08
-9800.09
-9800
-9800.01
-9799.98
-9800.01
-9799.98
-9800.02
-9799.94
-9800.02
-9800.1
-9799.95
-9800.05
-9800.02
-9800
-9799.99
-9800.2
-9800.21
-9800.21
-9800.19
-9800.21
-9800.22
-9800.21
-9800.21
-9800.21
-9800.22
-9800.22
-9800.21
-9800.21
-9800.21
-9800.23
-9800.2
-9800.21
-9800.2
-9800.21
-9800.21
-9800.21
-9800.2
-9800.2
-9800.21
-9800.21
-9800.2
-9800.19
-9800.18
-9800.2
-9800.2
-9800.21
-9800.2
-9800.22
-9800.21
-9800.21
-9800.21
-9800.21
-9800.21
-9800.21
-9800.22
-9800.22
-9800.22
-9800.22
-9800.2
-9800.2
-9800.2
-9800.2
-9800.21
-9800.21
-9800.19
-9800.19
-9800.2
-9800.21
-9800.2
-9800.2
-9800.2
-9800.2
-9800.2
-9800.21
-9800.2
-9800.21
-9800.21
-9800.21
-9800.21
-9800.21
-9800.21
-9800.21
-9800.21
-9800.21
-9800.21
-9800.22
-9800.21
-9800.21
-9800.2
-9800.2
-9800.2
-9800.2
-9800.2
-9800.2
-9800.2
-9800.2
-9800.2
-9800.2
-9800.2
-0.00667791
2.96724e-05
-0.00585188
0.00571743
-9799.96
-9800.05
-9800.04
-9800.09
)
;

boundaryField
{
    top_fluid_surface
    {
        type            totalPressure;
        rho             rho;
        psi             none;
        gamma           1;
        p0              uniform 0;
        value           nonuniform List<scalar> 
64
(
-5.41081e-09
-1.13462e-08
-1.15542e-08
0
0
-1.81149e-09
0
-1.45728e-09
-2.70674e-08
-1.77605e-08
0
-4.74733e-11
0
0
-8.53632e-09
-1.15964e-09
0
0
0
0
0
0
0
0
-6.94367e-09
0
-1.00422e-09
0
0
0
0
0
-3.88794e-09
0
-8.24312e-09
0
0
0
-4.27991e-09
-1.98398e-09
0
-1.52352e-08
-1.728e-08
-8.00394e-10
0
0
0
-3.02037e-09
-2.32256e-08
-1.57762e-09
-1.16162e-09
-4.35408e-11
-5.15658e-10
-5.1441e-09
0
-2.22207e-08
0
-5.00038e-11
-5.25773e-09
-2.84259e-09
-7.92687e-09
-5.36275e-11
-9.28988e-09
0
)
;
    }
    bottom_fluid_surface
    {
        type            fixedFluxPressure;
        gradient        uniform 0;
        value           nonuniform List<scalar> 
64
(
-9800.21
-9800.2
-9800.2
-9800.2
-9800.21
-9800.2
-9800.21
-9800.21
-9800.21
-9800.21
-9800.21
-9800.2
-9800.2
-9800.2
-9800.2
-9800.2
-9800.2
-9800.21
-9800.2
-9800.21
-9800.21
-9800.21
-9800.21
-9800.21
-9800.21
-9800.22
-9800.21
-9800.2
-9800.2
-9800.2
-9800.2
-9800.2
-9800.2
-9800.21
-9800.21
-9800.2
-9800.2
-9800.2
-9800.21
-9800.2
-9800.21
-9800.21
-9800.21
-9800.21
-9800.21
-9800.21
-9800.21
-9800.21
-9800.21
-9800.21
-9800.22
-9800.21
-9800.21
-9800.2
-9800.2
-9800.2
-9800.2
-9800.2
-9800.2
-9800.2
-9800.2
-9800.2
-9800.2
-9800.2
)
;
    }
    lateral_surface_1
    {
        type            fixedFluxPressure;
        gradient        uniform 0;
        value           nonuniform List<scalar> 
40
(
-0.00491653
0.00884442
-0.00494591
0.00879344
0.009535
0.00531468
-0.00217644
-0.00495856
-9799.99
-9800.12
-9799.97
-9800.12
-9800.07
-9800.04
-9799.98
-9799.99
-9800.2
-9800.21
-9800.21
-9800.19
-9800.21
-9800.22
-9800.21
-9800.18
-9800.2
-9800.2
-9800.21
-9800.2
-9800.22
-9800.21
-9800.21
-9800.2
-9800.2
-9800.2
-9800.21
-9800.2
-9800.21
-9800.21
-9800.21
-9800.2
)
;
    }
    lateral_surface_2
    {
        type            fixedFluxPressure;
        gradient        uniform 0;
        value           nonuniform List<scalar> 
40
(
0.0072397
0.00315449
-0.00274635
-0.0109334
-0.00105896
-0.000242872
-0.00164632
-0.00253996
-9800.09
-9800
-9800.01
-9799.98
-9800.01
-9799.98
-9800.02
-9799.94
-9800.21
-9800.23
-9800.2
-9800.21
-9800.2
-9800.21
-9800.21
-9800.21
-9800.22
-9800.22
-9800.2
-9800.2
-9800.2
-9800.2
-9800.21
-9800.21
-9800.21
-9800.22
-9800.21
-9800.21
-9800.2
-9800.2
-9800.2
-9800.2
)
;
    }
    lateral_surface_3
    {
        type            fixedFluxPressure;
        gradient        uniform 0;
        value           nonuniform List<scalar> 
40
(
-0.00217644
-0.00260776
0.00602797
-0.00265348
-0.00684952
-0.00211312
0.0135186
0.0072397
-9799.98
-9799.99
-9800.08
-9799.96
-9799.94
-9799.98
-9800.08
-9800.09
-9800.21
-9800.21
-9800.21
-9800.22
-9800.22
-9800.21
-9800.21
-9800.21
-9800.21
-9800.21
-9800.21
-9800.21
-9800.21
-9800.22
-9800.22
-9800.22
-9800.21
-9800.21
-9800.21
-9800.21
-9800.21
-9800.21
-9800.21
-9800.21
)
;
    }
    lateral_surface_4
    {
        type            fixedFluxPressure;
        gradient        uniform 0;
        value           nonuniform List<scalar> 
40
(
-0.00253996
-0.00741113
0.00176434
-0.00743677
0.00335835
0.00203952
-0.00481161
-0.00495856
-9799.94
-9800.02
-9800.1
-9799.95
-9800.05
-9800.02
-9800
-9799.99
-9800.21
-9800.2
-9800.2
-9800.21
-9800.21
-9800.2
-9800.19
-9800.18
-9800.21
-9800.19
-9800.19
-9800.2
-9800.21
-9800.2
-9800.2
-9800.2
-9800.2
-9800.2
-9800.2
-9800.2
-9800.2
-9800.2
-9800.2
-9800.2
)
;
    }
}


// ************************************************************************* //
