/*--------------------------------*- C++ -*----------------------------------*\
| =========                 |                                                 |
| \\      /  F ield         | OpenFOAM: The Open Source CFD Toolbox           |
|  \\    /   O peration     | Version:  v1612+                                |
|   \\  /    A nd           | Web:      www.OpenFOAM.com                      |
|    \\/     M anipulation  |                                                 |
\*---------------------------------------------------------------------------*/
FoamFile
{
    version     2.0;
    format      ascii;
    class       volScalarField;
    location    "1.25";
    object      alpha.water;
}
// * * * * * * * * * * * * * * * * * * * * * * * * * * * * * * * * * * * * * //

dimensions      [0 0 0 0 0 0 0];

internalField   nonuniform List<scalar> 
320
(
1
1
1
1
3.87378e-06
4.02231e-06
3.41759e-06
2.13806e-06
2.09426e-06
2.67056e-06
2.77293e-06
2.62324e-06
3.79835e-06
3.29541e-06
2.9822e-06
2.15831e-06
0.999998
0.999998
0.999999
0.999997
0.999997
0.999995
0.999996
0.999998
0.999995
0.999999
0.999998
1
1
1
1
1
1
1
1
1
1
1
1
1
1
1
1
1
1
1
1
1
1
1
1
1
1
1
1
1
2.75318e-06
2.49668e-06
3.04503e-06
3.17781e-06
3.03044e-06
2.18077e-06
1.96676e-06
2.57982e-06
3.22768e-06
2.60265e-06
2.39201e-06
2.77871e-06
2.93056e-06
2.48605e-06
3.30019e-06
3.97723e-06
2.07341e-06
2.0351e-06
2.19974e-06
2.68867e-06
1
0.999997
0.999998
1
1
0.999999
1
1
1
0.999997
0.999999
0.999997
0.999997
0.999995
0.999997
0.999997
0.999997
0.999999
0.999997
0.999994
1
1
1
1
1
1
1
1
1
1
1
1
1
1
1
1
1
1
1
1
1
1
1
1
1
1
1
1
1
1
1
1
1
1
1
1
1
1
1
1
1
1
1
1
1
1
1
1
1
1
1
1
1
1
1
1
1
1
1
1
1
1
1
1
1
1
1
1
1
1
1
1
1
1
1
1
2.62394e-06
2.04624e-06
2.39574e-06
2.00727e-06
1.94113e-06
2.31101e-06
4.32479e-06
5.09076e-06
1.78234e-06
3.09273e-06
3.89648e-06
3.87658e-06
2.29851e-06
1.98458e-06
2.99693e-06
2.28923e-06
2.05845e-06
3.5531e-06
3.59152e-06
3.77002e-06
2.57285e-06
4.0293e-06
2.43129e-06
2.6924e-06
3.43817e-06
4.08122e-06
4.80101e-06
3.37348e-06
0.999995
0.999997
0.999996
0.999997
0.999998
0.999996
0.999996
0.999995
0.999997
0.999994
0.999992
0.999997
0.999999
0.999996
0.999993
0.999997
0.999995
0.999994
0.999997
0.999995
0.999996
0.999999
0.999998
0.999994
0.999993
0.999997
0.999994
0.999996
1
1
1
1
1
1
1
1
1
1
1
1
1
1
1
1
1
1
1
1
1
1
1
1
1
1
1
1
1
1
1
1
1
1
1
1
1
1
1
1
1
1
1
1
1
1
1
1
1
1
1
1
1
1
1
1
1
1
1
1
1
1
1
1
1
1
1
1
1
1
1
1
1
1
1
1
1
1
1
1
1
1
1
1
4.6502e-06
3.23551e-06
3.6241e-06
2.37991e-06
1
1
0.999999
0.999998
)
;

boundaryField
{
    top_fluid_surface
    {
        type            inletOutlet;
        inletValue      uniform 0;
        value           nonuniform List<scalar> 
64
(
0
0
0
2.13806e-06
2.09426e-06
2.67056e-06
0
2.62324e-06
0
0
0
2.15831e-06
2.75318e-06
2.49668e-06
0
0
3.03044e-06
2.18077e-06
1.96676e-06
2.57982e-06
3.22768e-06
2.60265e-06
2.39201e-06
2.77871e-06
0
2.48605e-06
0
0
2.07341e-06
2.0351e-06
2.19974e-06
2.68867e-06
0
2.04624e-06
2.39574e-06
2.00727e-06
1.94113e-06
2.31101e-06
0
0
1.78234e-06
0
0
0
2.29851e-06
1.98458e-06
0
2.28923e-06
2.05845e-06
0
0
0
0
0
2.43129e-06
0
0
0
0
0
0
0
0
2.37991e-06
)
;
    }
    bottom_fluid_surface
    {
        type            zeroGradient;
    }
    lateral_surface_1
    {
        type            zeroGradient;
    }
    lateral_surface_2
    {
        type            zeroGradient;
    }
    lateral_surface_3
    {
        type            zeroGradient;
    }
    lateral_surface_4
    {
        type            zeroGradient;
    }
}


// ************************************************************************* //
