/*--------------------------------*- C++ -*----------------------------------*\
| =========                 |                                                 |
| \\      /  F ield         | OpenFOAM: The Open Source CFD Toolbox           |
|  \\    /   O peration     | Version:  v1612+                                |
|   \\  /    A nd           | Web:      www.OpenFOAM.com                      |
|    \\/     M anipulation  |                                                 |
\*---------------------------------------------------------------------------*/
FoamFile
{
    version     2.0;
    format      ascii;
    class       surfaceScalarField;
    location    "3.5";
    object      alphaPhi;
}
// * * * * * * * * * * * * * * * * * * * * * * * * * * * * * * * * * * * * * //

dimensions      [0 3 -1 0 0 0 0];

internalField   nonuniform List<scalar> 
816
(
-3.29244e-06
-4.89282e-06
5.54211e-06
-1.33911e-06
-2.63818e-06
6.62062e-06
-1.72989e-06
4.48343e-06
-7.94326e-07
3.47696e-06
-8.72747e-06
-2.4372e-06
3.43724e-06
2.70888e-06
5.14146e-06
-1.37545e-05
-1.49411e-06
2.24575e-06
4.37312e-06
-9.35453e-06
7.32304e-10
-3.73799e-10
-1.75586e-05
6.6266e-10
-6.36795e-10
1.68073e-09
-1.22092e-05
2.38968e-09
-1.32455e-09
-2.81748e-11
3.82796e-07
1.91875e-09
3.29607e-09
4.30662e-10
9.33064e-07
-2.96323e-11
-8.95505e-10
6.21541e-10
5.95485e-06
2.19409e-09
-1.94268e-09
-1.75022e-09
1.00939e-06
2.30369e-09
1.03245e-09
-2.06784e-09
3.86075e-06
-7.31732e-10
1.33966e-09
-2.2498e-09
-8.04621e-06
-3.50898e-10
5.57216e-10
1.8871e-09
-1.97844e-06
4.31548e-10
3.49543e-10
3.78951e-09
-4.6238e-06
-9.8303e-10
2.65681e-09
2.81634e-09
-5.49503e-06
-1.43683e-11
2.80063e-10
3.99785e-06
3.4115e-09
-5.31979e-10
2.77499e-06
-1.83258e-06
-2.17153e-05
-1.31908e-06
6.0512e-06
4.75992e-06
-1.80293e-05
4.82179e-06
1.0502e-06
-1.96512e-06
-3.44953e-06
5.13886e-06
4.40165e-06
-5.30189e-06
5.51901e-06
-7.18991e-06
5.06404e-06
7.37765e-08
1.45508e-05
-1.2328e-07
2.08247e-06
1.1413e-06
-6.98299e-06
8.15067e-06
9.56026e-06
2.51783e-06
3.44525e-06
2.81943e-06
8.73362e-06
-4.17326e-06
5.09522e-07
-1.0062e-05
4.74328e-06
4.37461e-06
-1.83556e-05
1.3056e-06
4.69802e-06
6.75246e-06
-1.07958e-05
-3.76691e-06
5.78749e-06
4.11525e-06
-1.24389e-08
-3.67117e-06
4.21887e-06
1.03374e-05
8.16059e-06
-9.79004e-07
-3.05456e-07
-6.80168e-06
-9.62776e-06
5.47377e-07
-5.11532e-06
-8.74042e-06
-3.25124e-08
-2.10675e-06
-2.33016e-06
1.57596e-07
-4.26646e-06
-4.12065e-07
2.67703e-06
2.91502e-07
3.59177e-06
6.58344e-06
2.49112e-06
-7.0012e-07
-3.88403e-06
1.18744e-06
9.18892e-09
1.61323e-06
2.13452e-06
1.25627e-06
1.35092e-06
2.39691e-07
3.9874e-06
-1.25197e-06
-8.96075e-06
-1.36403e-06
-5.41893e-06
-4.60364e-06
-4.74849e-06
1.88024e-08
-3.2977e-06
-4.2428e-07
-2.24836e-06
5.46154e-06
-2.79255e-06
-2.41371e-06
-1.87616e-06
-2.44023e-06
2.91156e-06
-7.90741e-07
-4.51698e-07
-1.59506e-06
2.7887e-06
-9.03418e-07
1.24999e-06
-1.65309e-06
2.02852e-06
1.06648e-06
1.26301e-06
-1.24778e-06
7.50845e-07
1.65038e-06
5.21799e-07
-4.66596e-06
3.74214e-07
-2.91748e-06
-3.05315e-06
-2.39309e-07
-2.1186e-06
-1.58505e-06
-2.88234e-07
-3.09918e-06
-4.11685e-07
-1.87627e-07
-3.35799e-07
7.08061e-07
2.20449e-06
1.13349e-06
1.82645e-06
-1.95789e-07
-3.57756e-07
8.73658e-09
-1.09582e-06
1.34421e-06
7.6952e-07
6.03617e-07
1.13442e-06
2.48116e-06
8.96472e-09
-6.3977e-07
-1.17095e-06
-3.47091e-06
-2.54593e-06
-2.90401e-06
-3.05339e-07
-1.11406e-06
-2.34694e-06
-1.53577e-06
-2.32634e-07
-1.43471e-06
-1.49916e-06
1.38612e-06
-7.08773e-10
-4.20603e-10
8.19599e-11
1.19293e-09
4.88369e-10
-3.95332e-06
-5.36122e-10
4.59409e-10
-9.80618e-06
2.73451e-09
3.91949e-10
-9.09056e-06
2.05183e-09
-6.89846e-11
-3.7065e-06
-9.4802e-11
-9.85783e-10
-4.01378e-10
-6.58914e-07
2.17961e-10
5.54443e-12
2.14611e-06
-2.54348e-09
-6.35084e-10
4.84099e-11
-1.60086e-09
-5.58691e-10
-5.84966e-06
7.83938e-10
-2.5569e-09
-5.75988e-06
1.49951e-09
-7.65361e-10
-2.34997e-09
-1.01051e-05
1.96345e-10
-3.45162e-09
4.03805e-11
-2.13872e-09
-1.34433e-09
-3.88139e-06
4.72686e-10
-7.91137e-10
-6.0714e-06
-9.05132e-10
5.11833e-10
-3.70405e-06
4.43894e-12
-1.12834e-09
7.69018e-10
2.30208e-06
-1.37926e-10
1.14263e-09
-1.01552e-06
-2.64017e-09
1.07482e-09
1.34382e-10
-5.80667e-10
1.07571e-09
7.10576e-06
-7.99928e-10
-4.31553e-06
-3.00357e-10
-1.07848e-09
-6.88518e-07
-2.07801e-06
1.71621e-05
3.73746e-06
5.12944e-06
-4.89789e-06
9.65774e-07
2.31339e-06
-1.01002e-05
4.34e-06
-5.82936e-06
-1.04245e-06
1.05241e-06
2.26666e-06
8.36748e-06
-1.03265e-05
-1.06114e-05
-1.97889e-06
1.27759e-05
-5.14533e-06
-5.94909e-08
1.10817e-05
-1.27871e-05
-5.81019e-06
2.80623e-05
-1.45375e-05
-1.25634e-05
7.56642e-06
1.45473e-07
1.28556e-06
-1.86501e-05
6.70812e-06
-9.93824e-06
-1.02772e-06
5.40401e-07
3.46039e-06
-7.2945e-06
1.32798e-05
2.10369e-07
1.32856e-06
-1.71044e-05
-1.95744e-06
1.50423e-06
2.99084e-06
-8.86991e-06
3.21957e-06
1.10805e-06
-1.9022e-06
2.38756e-06
4.18787e-06
4.88682e-06
5.85652e-06
-1.71421e-06
8.21168e-06
-9.65379e-06
-4.00098e-06
2.00683e-05
-1.01805e-05
3.19298e-06
1.10946e-05
-8.29902e-07
-5.99713e-07
1.98967e-06
-3.68045e-06
2.67134e-06
3.99466e-06
8.57202e-06
-8.69363e-07
6.71088e-07
-2.35741e-06
2.35274e-08
-1.50614e-06
-4.70637e-06
-3.25473e-06
6.93071e-07
-7.05499e-07
-2.38276e-06
-4.33158e-06
3.78353e-06
3.80255e-06
5.80554e-06
-2.05847e-06
5.77028e-06
4.65466e-07
1.90694e-07
5.45092e-06
3.67793e-06
7.72709e-06
1.25219e-05
1.05043e-05
7.63149e-06
4.39884e-06
4.48951e-06
-2.97433e-06
-8.09288e-06
-3.7489e-06
3.79859e-06
-1.41122e-06
3.48388e-07
-1.3104e-06
3.76064e-06
5.98451e-06
3.42838e-06
-7.12884e-07
-8.26872e-06
-3.53406e-07
-1.55403e-06
1.39301e-06
1.10504e-06
-3.72278e-06
4.01803e-07
2.49307e-06
3.88351e-07
-2.46575e-06
2.74564e-06
-4.49715e-06
-8.96815e-07
4.01343e-06
2.65624e-06
4.38066e-06
9.76089e-06
2.79019e-06
5.88253e-06
5.64695e-06
1.52721e-06
-6.56643e-07
3.61596e-06
6.29271e-06
1.86804e-06
2.61711e-06
2.45762e-06
2.18528e-07
7.10499e-07
-9.95636e-07
1.92227e-07
-1.227e-06
-7.11153e-07
-2.30285e-06
2.10306e-07
-1.84378e-07
-2.25662e-06
-2.52053e-06
9.19703e-07
2.16117e-06
3.42911e-06
-1.57212e-06
1.97385e-06
-2.58759e-07
-3.87118e-07
2.32316e-06
1.60559e-06
3.84769e-06
3.63831e-06
5.78767e-06
4.5206e-06
1.21675e-06
2.16907e-06
-9.74788e-07
-1.93454e-06
-2.7566e-06
2.11931e-06
-3.56839e-07
3.60714e-07
-5.49901e-07
2.41779e-06
1.75229e-06
2.26835e-06
-8.08576e-07
-2.23196e-06
-2.85937e-07
-1.15272e-06
4.35363e-07
1.48631e-07
-1.88648e-06
2.77402e-08
9.4239e-07
2.04815e-07
-1.41896e-06
1.31964e-06
-2.50582e-06
-8.6153e-07
1.47823e-06
1.67412e-06
2.54191e-06
3.01744e-06
1.79762e-06
3.99429e-06
1.54627e-06
1.11292e-06
-4.08359e-07
2.59608e-06
3.75573e-06
-9.23326e-07
-1.07266e-06
1.65628e-06
-1.17296e-07
-4.39396e-07
1.05626e-06
-2.88987e-07
-8.79834e-07
8.02821e-07
2.70277e-07
-4.06344e-07
7.45279e-07
-1.01113e-07
-1.85244e-06
6.92898e-07
-1.18543e-06
1.79518e-08
-8.02107e-07
3.37983e-07
-1.13964e-06
-1.70409e-07
-2.14602e-07
8.94549e-07
3.60781e-07
-1.61696e-07
-8.98505e-10
-2.51289e-08
6.42782e-07
5.57586e-07
4.26726e-07
1.03523e-06
-5.41169e-07
-8.93064e-08
-1.48872e-06
-1.1584e-06
-2.26939e-07
-8.4334e-07
-6.60107e-07
-6.94634e-07
-6.0825e-07
6.11129e-07
1.26526e-06
-1.0646e-07
-7.48591e-08
3.81432e-07
-3.2222e-07
-4.55275e-07
2.19906e-07
-3.95765e-07
-1.41459e-06
9.97176e-07
1.5513e-06
-8.05582e-07
2.21446e-07
1.18604e-07
1.18632e-06
1.96226e-06
2.16275e-06
1.95447e-06
1.23938e-06
-5.20924e-07
-5.9169e-07
1.15762e-06
-9.50164e-08
-5.75458e-08
1.11063e-06
1.12329e-06
-1.94825e-07
1.23512e-07
-3.52903e-07
5.12635e-07
-1.24779e-06
7.44355e-07
1.80404e-07
-6.34917e-07
-7.81875e-07
-6.42691e-08
6.93153e-07
1.57543e-06
7.34369e-07
2.05509e-06
4.66504e-07
1.31389e-06
1.59695e-06
8.15785e-10
-5.79961e-11
-6.17699e-06
2.65739e-11
2.01646e-06
2.54923e-09
-1.4631e-07
6.20163e-10
-3.32621e-06
-6.81756e-10
3.89936e-11
-1.97097e-09
1.7661e-06
3.66158e-10
3.0641e-07
-1.90213e-10
-7.6357e-06
-2.06272e-09
1.19376e-06
1.07316e-09
5.72642e-06
3.21869e-09
-1.46749e-06
2.22752e-09
-1.52203e-05
1.70071e-12
6.39915e-12
-1.41074e-09
-1.0408e-06
-2.95306e-09
-2.91662e-06
-3.44598e-09
-1.6811e-06
-1.73014e-09
-1.43944e-05
-1.82216e-09
4.85384e-07
-1.63714e-10
3.9126e-06
-3.07231e-10
-3.94773e-06
4.52351e-10
-1.0823e-05
-6.31322e-10
-8.68483e-06
5.4039e-10
1.65378e-06
3.72344e-09
2.60217e-06
1.97554e-09
6.11564e-06
2.50355e-09
2.16879e-06
1.15994e-09
-1.3188e-05
-1.96004e-05
4.481e-07
5.18977e-07
-6.73053e-06
-1.23233e-06
1.18418e-05
5.37282e-06
-8.4634e-06
-3.95397e-06
8.1028e-06
-1.17318e-05
1.43021e-05
-9.74052e-06
-5.26703e-06
5.66836e-06
-1.27911e-05
2.47459e-06
-1.64434e-05
-9.01147e-06
1.10042e-05
-2.10928e-07
1.28115e-06
1.36785e-05
-2.96522e-05
9.98464e-06
-1.68682e-05
5.62367e-07
1.68772e-05
-6.17644e-06
5.13573e-06
3.26579e-06
-1.52468e-05
1.00779e-06
4.7997e-06
-8.9532e-06
-2.98917e-06
-6.78017e-06
-1.76106e-06
2.56825e-06
-2.79051e-06
-1.39948e-06
-6.5226e-07
1.06055e-05
-1.27702e-05
-3.90359e-07
2.85256e-06
-8.19648e-06
1.94379e-05
-1.16268e-06
-9.49048e-06
5.79755e-06
-3.97486e-06
8.52535e-06
4.27645e-06
5.97666e-06
-1.70349e-05
-1.32365e-05
-4.07853e-06
4.76118e-06
-3.80255e-06
1.7093e-06
5.20128e-06
-2.19272e-06
-4.52038e-06
-1.11166e-06
3.76532e-06
3.47294e-06
7.32975e-06
3.98075e-06
-1.97611e-06
-2.0564e-06
-6.75413e-06
-4.94977e-06
-7.7456e-06
1.29803e-06
5.21576e-06
5.06279e-06
1.19468e-06
-9.96663e-07
-1.30865e-05
-6.13654e-06
-7.23153e-06
-1.1304e-06
8.1489e-06
2.17102e-06
1.83966e-06
-2.80302e-06
-6.444e-06
-8.36679e-07
1.5554e-06
1.70329e-06
-2.07339e-06
6.10859e-07
-1.00885e-06
2.40885e-07
-1.30292e-06
2.20529e-06
-8.49607e-08
-5.97488e-06
-4.59151e-06
-3.56214e-06
8.18817e-07
3.2193e-06
8.1614e-06
8.0039e-07
-4.41164e-06
1.22678e-06
-1.6082e-06
5.15832e-06
1.882e-06
2.12537e-06
-7.71085e-06
-6.35319e-06
-2.45584e-06
2.58805e-06
-1.34051e-06
8.9829e-07
2.07143e-06
-1.70236e-06
-1.7321e-06
-1.02139e-06
7.72713e-07
2.47172e-06
1.57167e-06
3.12701e-06
-4.77928e-07
-1.62629e-06
-2.00317e-06
-3.52456e-06
-2.42038e-06
2.35836e-07
1.18932e-06
3.15045e-06
-1.15148e-07
-1.04111e-06
-3.10298e-06
-3.74311e-06
-2.34563e-06
-7.12899e-08
1.74937e-06
1.54923e-06
2.38625e-07
-7.19999e-07
-1.99206e-06
-1.51931e-07
4.73081e-07
6.50801e-07
-5.51951e-07
-1.99687e-07
-4.2957e-07
-4.50014e-07
-8.96452e-07
5.85198e-07
-1.67768e-07
-2.28531e-06
-1.66623e-06
-1.36883e-06
1.03042e-07
2.07907e-06
2.20069e-06
3.41496e-07
-1.00751e-06
6.47701e-07
-1.5999e-07
3.15282e-06
4.96102e-07
1.5769e-06
-2.37216e-06
-2.18651e-06
-1.31645e-06
1.28952e-06
6.49827e-07
-7.0912e-07
-3.95244e-07
7.77378e-07
1.29466e-06
-7.10534e-07
-1.5825e-06
-1.68913e-07
9.04725e-07
-3.03116e-08
-1.12575e-06
5.43481e-08
3.09043e-07
-5.01367e-07
-7.33477e-08
5.11458e-07
2.0794e-07
-1.80071e-07
3.83695e-07
-1.27544e-06
-9.88445e-07
4.36086e-07
1.31558e-07
7.0719e-07
1.67205e-06
8.99157e-07
1.09686e-09
1.38569e-10
-5.09053e-06
-9.20651e-10
-4.41766e-06
2.6128e-09
-9.90081e-07
5.31143e-11
3.53096e-06
5.25818e-06
-7.63448e-06
-1.97191e-07
)
;

boundaryField
{
    top_fluid_surface
    {
        type            calculated;
        value           nonuniform List<scalar> 
64
(
0
0
0
3.64653e-10
0
0
0
1.23329e-10
0
0
2.27753e-10
0
2.40732e-09
4.9918e-11
7.777e-11
1.89489e-10
1.41872e-09
2.26022e-09
1.21565e-09
2.88795e-09
1.37525e-09
1.16558e-09
9.38494e-10
1.60162e-09
0
6.64903e-10
0
1.66889e-10
6.0958e-10
5.59774e-10
1.27463e-10
1.59359e-09
0
1.82396e-09
0
3.23243e-09
2.62426e-09
7.61109e-10
0
0
1.42021e-09
0
0
1.39228e-09
2.89012e-09
1.40892e-09
3.20015e-10
3.16248e-10
0
5.11986e-10
0
2.93443e-10
0
1.40851e-10
0
0
0
0
0
1.18078e-09
0
1.05252e-11
2.45323e-10
8.07137e-10
)
;
    }
    bottom_fluid_surface
    {
        type            calculated;
        value           uniform 0;
    }
    lateral_surface_1
    {
        type            calculated;
        value           uniform 0;
    }
    lateral_surface_2
    {
        type            calculated;
        value           uniform 0;
    }
    lateral_surface_3
    {
        type            calculated;
        value           uniform 0;
    }
    lateral_surface_4
    {
        type            calculated;
        value           uniform 0;
    }
}


// ************************************************************************* //
