/*--------------------------------*- C++ -*----------------------------------*\
| =========                 |                                                 |
| \\      /  F ield         | OpenFOAM: The Open Source CFD Toolbox           |
|  \\    /   O peration     | Version:  v1612+                                |
|   \\  /    A nd           | Web:      www.OpenFOAM.com                      |
|    \\/     M anipulation  |                                                 |
\*---------------------------------------------------------------------------*/
FoamFile
{
    version     2.0;
    format      ascii;
    class       volVectorField;
    location    "3.5";
    object      U;
}
// * * * * * * * * * * * * * * * * * * * * * * * * * * * * * * * * * * * * * //

dimensions      [0 1 -1 0 0 0 0];

internalField   nonuniform List<vector> 
320
(
(-3.68701e-06 -8.28331e-06 5.21309e-06)
(-1.46223e-06 -6.04105e-06 -4.64829e-06)
(-5.04216e-06 -4.94185e-07 -9.43586e-06)
(-3.82126e-07 2.94999e-06 -6.71546e-06)
(0.000122878 -0.000141417 -2.35838e-05)
(6.91078e-05 -0.000175617 -9.2995e-05)
(0.000269751 -0.000116863 -0.000166497)
(6.11721e-05 0.000105145 2.77617e-05)
(0.000352218 2.13431e-05 -4.5924e-05)
(0.000243956 9.72077e-05 -7.73939e-05)
(0.000116078 -4.49593e-05 -6.89732e-05)
(0.000328665 -0.000117931 -5.28064e-06)
(3.39824e-05 6.11995e-05 -0.000230768)
(9.20768e-05 -0.000370517 -0.000164318)
(-0.000102061 -0.000317163 1.47037e-05)
(-2.78289e-05 -0.000357435 -5.76665e-05)
(2.80817e-06 3.61099e-06 2.23749e-05)
(4.40251e-06 -7.71161e-08 1.93502e-05)
(6.21735e-06 -4.63259e-06 5.11058e-06)
(-8.29736e-06 -1.56275e-06 -5.67684e-06)
(5.30459e-06 -6.04227e-06 -1.44879e-05)
(7.49598e-06 6.02445e-06 9.99373e-06)
(-8.33528e-06 -5.7618e-07 -2.59834e-06)
(4.25181e-06 -1.16386e-05 -9.97106e-07)
(2.31027e-06 3.64674e-06 2.36146e-05)
(3.36379e-06 -1.09025e-05 1.21183e-05)
(-1.32363e-06 -2.70093e-06 -1.79878e-07)
(-9.0018e-07 -6.13325e-06 -1.26789e-05)
(4.5227e-06 -2.48249e-06 1.70776e-05)
(-4.97773e-06 -3.71678e-06 1.62806e-05)
(-6.21772e-06 -1.90108e-06 3.37342e-06)
(-8.44654e-07 -3.68761e-06 -5.02698e-06)
(-2.59634e-06 3.38202e-06 -1.215e-05)
(-6.15579e-07 2.69602e-06 5.41355e-06)
(2.41394e-06 1.00957e-06 -4.04052e-06)
(-5.29464e-06 6.40805e-06 -2.52017e-07)
(2.58018e-06 -1.56976e-06 1.49837e-05)
(3.82561e-07 4.5577e-06 8.9837e-06)
(5.63072e-06 3.52339e-06 2.16434e-07)
(7.48972e-06 3.8802e-06 -9.06733e-06)
(-2.06999e-06 -4.3748e-06 6.09927e-07)
(-1.01206e-06 -3.86584e-06 -2.39007e-06)
(-2.59642e-06 -1.65972e-08 -2.19278e-06)
(-6.04191e-07 1.06445e-06 -2.70386e-06)
(3.70251e-06 -1.59612e-06 4.05427e-06)
(-2.37266e-06 -2.2324e-06 1.79815e-06)
(-4.11371e-06 -1.3555e-06 1.08612e-07)
(-1.18585e-06 -2.60633e-06 -5.3757e-07)
(-1.93309e-06 2.48225e-06 -2.43414e-06)
(-9.84794e-07 1.34401e-06 1.52852e-06)
(1.48678e-06 1.84806e-07 -6.17665e-07)
(-3.71209e-06 3.56992e-06 -5.64359e-08)
(1.61386e-06 -1.16176e-06 3.1385e-06)
(7.82792e-07 2.70655e-06 1.0898e-06)
(3.32285e-06 2.43311e-06 1.38563e-07)
(4.757e-06 2.7154e-06 -1.70301e-06)
(-0.000122083 -0.000295007 0.000163721)
(-2.45339e-05 2.82025e-05 -4.47723e-06)
(8.25716e-05 -0.000299218 -3.8163e-05)
(2.16858e-05 -0.000211857 5.51432e-06)
(6.233e-05 9.93361e-05 9.78024e-05)
(0.00029403 -0.000136189 0.000170515)
(-5.14199e-05 2.06455e-05 8.75664e-05)
(8.44347e-05 -1.82689e-05 0.000247911)
(0.000244052 -0.000141101 9.61164e-05)
(0.000297126 -2.74521e-06 7.09334e-05)
(0.000256245 0.000130761 6.02967e-05)
(0.00038061 -8.08049e-05 9.00492e-05)
(0.000272012 2.57747e-05 -0.000141417)
(5.13672e-05 2.30528e-05 4.2248e-05)
(0.000154311 -3.17722e-06 -1.95586e-05)
(-7.6816e-05 -7.61927e-05 8.56684e-06)
(0.000183231 -0.000124413 5.05741e-05)
(0.000105347 -0.000111046 3.8844e-05)
(0.00013667 -0.000160076 1.19243e-05)
(0.000255532 -3.19055e-05 0.000113612)
(-4.60998e-06 -8.19918e-06 -2.13146e-05)
(3.65698e-06 -1.61922e-06 5.62879e-06)
(6.14116e-06 -8.47158e-06 8.48436e-06)
(-2.78467e-06 -2.94123e-06 2.05807e-07)
(-7.46898e-06 1.04268e-05 -1.19467e-05)
(1.0838e-06 -5.59074e-06 -1.57456e-05)
(-7.98966e-06 8.75718e-07 -1.26971e-05)
(-6.1731e-06 -5.69289e-07 -3.27444e-05)
(6.19883e-06 -1.29595e-05 -1.13453e-05)
(4.23089e-06 -1.16894e-05 1.89272e-05)
(-7.07824e-06 1.0363e-05 -1.4664e-06)
(9.80886e-06 5.02853e-06 -1.44177e-05)
(3.07498e-06 -5.3792e-06 1.95705e-05)
(-4.41522e-06 -2.02877e-06 -3.64609e-06)
(-4.67657e-08 -1.99689e-06 -6.09779e-07)
(-9.54779e-06 -3.86047e-06 -3.66167e-06)
(6.13244e-06 -3.44274e-06 -8.70692e-06)
(9.8075e-06 6.43043e-06 -2.18845e-05)
(3.31955e-06 3.23874e-07 -1.17983e-05)
(8.16992e-06 -4.74019e-06 5.28107e-07)
(1.14939e-06 1.47297e-06 -1.41929e-05)
(3.90979e-06 1.23902e-06 3.66056e-06)
(-2.04365e-06 3.88499e-06 1.02413e-05)
(-1.89335e-06 1.82367e-06 1.55199e-06)
(3.77602e-06 -5.03623e-06 -5.77322e-06)
(-2.06788e-06 -2.66769e-06 -9.2237e-06)
(1.80958e-06 -2.41943e-06 -8.77757e-06)
(8.07506e-06 3.17935e-06 -2.15369e-05)
(2.73253e-06 1.04109e-05 -6.16461e-06)
(-1.36193e-06 6.45194e-06 1.50107e-05)
(6.80468e-06 -2.53302e-06 9.00196e-08)
(-4.09435e-06 2.08956e-06 -1.05528e-05)
(-2.46247e-06 1.5747e-06 1.45744e-05)
(3.70769e-06 -1.47754e-06 -2.44902e-06)
(-6.61857e-07 3.62657e-06 -1.25656e-06)
(7.97788e-06 3.08297e-06 -4.5784e-06)
(-5.14611e-07 2.55646e-06 -6.77662e-06)
(-4.70363e-07 -1.17577e-06 -1.66474e-05)
(-2.11207e-06 -6.96399e-06 -9.86158e-06)
(-8.98616e-06 -5.36016e-06 4.55938e-07)
(6.03837e-07 1.93848e-07 -3.08092e-06)
(2.8778e-06 6.98888e-07 1.66315e-06)
(-1.2527e-06 2.85891e-06 2.98201e-07)
(-1.64919e-06 2.21577e-06 4.52232e-07)
(2.26004e-06 -2.72225e-06 -1.39894e-06)
(-1.84944e-06 -1.76908e-06 -3.06777e-06)
(6.46531e-07 -1.6852e-06 -2.88153e-06)
(4.36299e-06 1.26551e-06 -5.04313e-06)
(3.80511e-07 5.63127e-06 -1.0318e-06)
(-1.62079e-06 4.10363e-06 2.81544e-06)
(3.51334e-06 -1.2822e-06 -5.72408e-07)
(-2.83012e-06 1.69122e-06 -2.49348e-06)
(-1.24984e-06 1.09203e-06 2.63212e-06)
(2.6726e-06 -1.4346e-06 -5.93176e-07)
(-3.2069e-07 1.67682e-06 -5.18867e-08)
(4.90666e-06 1.68011e-06 -1.72998e-06)
(-2.96739e-07 1.6924e-06 -2.01877e-06)
(-6.07103e-08 -4.00607e-07 -3.69586e-06)
(-1.38509e-06 -4.31517e-06 -1.63771e-06)
(-5.48456e-06 -3.66078e-06 6.99119e-07)
(-1.24417e-06 -2.10924e-06 2.18249e-07)
(-1.9659e-07 -1.53323e-06 -4.48078e-07)
(-1.17502e-06 1.50403e-07 -5.03788e-07)
(-3.53702e-07 8.15087e-07 -4.27215e-07)
(1.1368e-06 -1.28129e-06 1.79452e-06)
(-1.26099e-06 -7.97235e-07 1.8925e-06)
(-1.42766e-06 -8.03875e-07 5.60891e-07)
(-5.61637e-07 -1.20195e-06 -5.54158e-07)
(-5.70902e-07 1.03304e-06 -8.76974e-07)
(-3.00758e-07 4.79854e-07 7.27096e-07)
(6.8605e-07 4.65596e-07 -3.94412e-07)
(-1.71112e-06 1.27689e-06 2.109e-08)
(9.58199e-07 -5.76497e-08 1.66518e-06)
(6.63387e-07 1.28204e-06 9.71639e-07)
(1.40271e-06 7.7859e-07 4.00915e-07)
(2.15164e-06 1.08715e-06 -7.44139e-07)
(3.94012e-07 2.49099e-07 -1.46892e-06)
(6.40214e-07 -1.01821e-07 3.94837e-07)
(-6.74007e-07 7.68939e-07 8.4684e-07)
(-1.81759e-07 3.19739e-07 -7.30657e-08)
(7.97225e-07 -1.31782e-06 -6.03322e-07)
(-6.56206e-07 -1.17711e-06 -8.30869e-07)
(3.07255e-07 -6.76469e-07 -1.20363e-06)
(1.43574e-06 1.07596e-06 -1.96347e-06)
(3.94607e-07 2.41977e-06 -1.15601e-06)
(-2.30233e-07 1.88903e-06 1.15699e-06)
(1.38327e-06 -4.80631e-07 -2.09119e-07)
(-1.15074e-06 8.85454e-07 -8.97009e-07)
(-6.51778e-07 6.32094e-07 1.60456e-06)
(1.00819e-06 -1.65557e-07 -2.45382e-07)
(-2.18733e-07 1.22362e-06 -3.29491e-08)
(1.88231e-06 9.32082e-07 -6.61429e-07)
(-2.27656e-07 5.94915e-07 -7.15113e-07)
(-1.19051e-09 -6.20994e-07 -1.78224e-06)
(-7.77043e-07 -2.28999e-06 -1.06297e-06)
(-2.65905e-06 -1.83834e-06 9.30353e-08)
(0.000225248 7.49417e-05 -4.58235e-05)
(-8.8044e-05 -6.00478e-05 0.000119919)
(0.000128939 4.09766e-05 -0.000141871)
(0.000310239 -0.000213755 0.000235973)
(-0.000128736 -0.000186038 0.000202656)
(-7.22005e-05 -6.35131e-05 4.48054e-05)
(-0.000268396 -5.13565e-05 -0.000130307)
(-0.000256869 0.000153185 -2.34658e-05)
(-0.000214206 -0.00023031 9.80781e-05)
(-0.000350642 -0.000103188 -0.0002901)
(-0.000338064 0.000317471 -0.000203685)
(-1.66831e-05 0.000310212 9.08557e-05)
(0.000112839 0.000166195 0.000242588)
(0.000151451 -0.000158543 9.71296e-05)
(0.00027937 -0.000197222 1.48381e-05)
(0.00032262 -0.000140404 -3.55653e-05)
(0.000220981 -0.000262911 -0.000145145)
(0.000224654 1.81565e-05 -3.27449e-05)
(6.3014e-05 -0.000215782 -0.000140033)
(-3.30821e-05 6.92271e-06 1.38107e-05)
(0.000101815 -2.81885e-05 -3.93295e-05)
(6.63491e-05 -2.02035e-05 -2.64498e-05)
(8.43398e-05 9.01835e-05 -4.24476e-05)
(0.000231949 -0.000188756 -0.000268524)
(1.90726e-05 -0.000363589 -1.93534e-06)
(-1.98572e-05 -0.000208777 -4.31627e-05)
(-2.88728e-05 -0.000204481 -2.77771e-08)
(-0.000192866 -8.86239e-05 7.08506e-05)
(3.89139e-06 -1.45293e-07 7.29978e-06)
(-4.02091e-06 -9.77921e-07 -1.39014e-05)
(3.07974e-06 -7.3423e-07 1.19125e-05)
(5.72448e-06 -4.01063e-07 -1.30532e-05)
(-1.26812e-05 -3.17786e-07 -1.80583e-05)
(-1.01853e-05 9.4953e-06 5.54331e-06)
(-7.37178e-06 2.39935e-06 1.64476e-05)
(-1.44676e-05 8.32791e-06 1.82313e-05)
(-9.47138e-06 -5.15406e-06 -1.24792e-05)
(-1.40307e-05 -8.81991e-06 2.45169e-06)
(-1.91651e-05 8.14472e-06 3.51287e-05)
(-5.31629e-06 1.64275e-05 1.70373e-05)
(1.02207e-05 6.01303e-06 -2.32545e-05)
(1.23863e-05 -4.53299e-06 -7.14069e-06)
(1.84757e-06 -6.69849e-06 1.78512e-05)
(-9.22351e-06 -2.14965e-06 -5.11447e-06)
(7.40672e-06 -4.55407e-06 3.89638e-06)
(1.13092e-05 2.52232e-07 2.9747e-06)
(-1.07215e-06 -1.27881e-05 6.38775e-06)
(-2.39032e-06 -3.09132e-06 9.32209e-07)
(3.90015e-06 -1.04448e-05 1.46296e-05)
(-3.45313e-06 -9.18688e-06 -3.98625e-06)
(-3.28907e-06 9.82553e-06 -1.91738e-05)
(1.02331e-05 8.45237e-06 1.53384e-05)
(8.60637e-06 -5.51403e-06 6.77215e-06)
(-1.71194e-06 -7.76866e-06 -3.35193e-06)
(5.12914e-07 -7.6276e-06 1.77278e-05)
(-4.59895e-06 -5.25761e-06 1.11801e-05)
(-8.51686e-06 -1.70652e-06 6.15266e-06)
(8.90731e-07 -6.07118e-08 -8.15056e-06)
(2.11021e-06 -1.44802e-06 6.5165e-06)
(-5.56254e-06 1.73896e-06 -5.10111e-06)
(2.70392e-06 2.07091e-06 -1.28418e-05)
(5.06848e-06 -2.85808e-06 3.97872e-06)
(3.1564e-06 7.78238e-07 1.07782e-05)
(6.79273e-06 -5.31258e-06 1.28197e-05)
(2.88038e-06 -3.86732e-06 -9.33031e-06)
(5.59297e-06 6.45522e-06 -4.19691e-06)
(1.17547e-05 4.30522e-06 2.31159e-05)
(6.71909e-06 -6.74081e-06 1.28395e-05)
(-5.3968e-06 -4.42372e-06 -1.37763e-05)
(-4.15597e-06 2.39086e-06 -3.71634e-06)
(8.4239e-07 1.15011e-06 1.05528e-05)
(3.74706e-06 1.8651e-07 -3.19456e-06)
(-1.69369e-06 4.20795e-06 3.17092e-06)
(-1.72765e-06 -2.21396e-06 9.13794e-07)
(5.28299e-07 3.47304e-06 2.71916e-07)
(-1.112e-06 9.65467e-07 1.4958e-07)
(-2.92562e-06 3.92321e-06 8.07295e-06)
(3.20927e-08 7.61251e-06 -1.53194e-06)
(1.05999e-06 -1.42233e-06 -1.56863e-05)
(-4.47319e-06 -3.89015e-06 6.28474e-06)
(-5.38647e-06 1.92582e-06 2.29676e-06)
(-1.37129e-06 -4.63648e-06 -4.12646e-06)
(-3.05875e-06 -4.93242e-06 1.35324e-05)
(-9.43568e-07 4.08655e-07 1.21078e-05)
(-4.7627e-06 -1.34119e-06 1.64707e-06)
(3.97323e-07 -7.57729e-07 -3.34146e-06)
(1.03745e-06 -1.13467e-06 2.34058e-06)
(-3.88955e-06 1.08263e-06 -1.51258e-06)
(1.46745e-06 1.50218e-06 -1.41041e-06)
(3.90945e-06 -2.03398e-06 5.96065e-07)
(2.10355e-06 -1.47261e-07 2.42825e-06)
(3.99027e-06 -3.54313e-06 3.45346e-06)
(1.28267e-06 -2.96901e-06 -1.39547e-06)
(2.79034e-06 3.60603e-06 7.10843e-07)
(6.57386e-06 2.2162e-06 4.05746e-06)
(3.74104e-06 -4.6397e-06 3.77799e-06)
(-3.6971e-06 -1.9395e-06 -1.68586e-06)
(-2.30204e-06 1.7373e-06 2.35567e-08)
(-2.76788e-07 3.42296e-07 3.33685e-06)
(1.42763e-06 3.93293e-07 -6.45196e-07)
(-8.87431e-07 2.42799e-06 5.46354e-07)
(-5.86272e-07 -1.54938e-06 7.03944e-07)
(1.02907e-06 1.76442e-06 1.72033e-06)
(4.36457e-08 9.41421e-08 5.47721e-07)
(-1.28189e-06 1.40008e-06 2.82625e-06)
(2.40526e-08 3.42842e-06 -1.29595e-07)
(4.69708e-07 -1.13782e-06 -3.02351e-06)
(-2.79387e-06 -2.26081e-06 1.23749e-06)
(-3.48348e-06 1.34476e-06 1.73681e-07)
(-1.04851e-06 -2.70849e-06 -6.16787e-07)
(-1.87683e-06 -3.18379e-06 3.02406e-06)
(-5.71512e-07 -3.58695e-08 2.58886e-06)
(-2.69478e-06 -7.38317e-07 6.7045e-07)
(4.15119e-07 -8.53525e-08 -9.00487e-07)
(6.16958e-07 -7.59422e-07 8.08858e-07)
(-1.68255e-06 -6.20959e-08 -2.85962e-07)
(6.59092e-07 2.49123e-07 -1.34342e-06)
(1.17775e-06 -9.02947e-07 5.35789e-07)
(1.25589e-06 -1.31401e-07 1.34101e-06)
(2.02743e-06 -1.51421e-06 1.37765e-06)
(1.05949e-06 -1.29385e-06 -6.89538e-07)
(1.9107e-06 8.8999e-07 -3.71063e-07)
(2.62595e-06 1.12039e-06 1.96043e-06)
(1.95513e-06 -1.18612e-06 6.34844e-07)
(-9.79936e-07 -7.00214e-07 -1.58468e-06)
(-6.34103e-07 8.05279e-07 -5.83326e-07)
(1.75026e-07 4.59456e-07 9.89029e-07)
(7.02815e-07 4.00022e-07 -1.32021e-07)
(-4.26671e-07 1.1399e-06 3.93697e-07)
(-6.60108e-07 -3.24037e-07 3.78995e-07)
(3.66674e-07 1.14824e-06 3.58416e-07)
(-5.63121e-09 3.17477e-07 -2.74716e-07)
(-7.12056e-07 9.35135e-07 3.14289e-07)
(-9.43982e-08 1.72239e-06 -1.35349e-07)
(-2.13288e-07 -6.65741e-08 -1.35878e-06)
(-1.09305e-06 -6.01462e-07 9.33011e-07)
(-1.40966e-06 2.292e-07 2.27936e-07)
(-2.42856e-07 -1.57071e-06 -2.80801e-07)
(-6.90389e-07 -1.66864e-06 1.27671e-06)
(-7.31549e-08 -1.21087e-07 1.23866e-06)
(0.000156947 8.30974e-06 -7.38037e-05)
(0.000106978 -6.26582e-05 8.02772e-06)
(0.000378418 1.22826e-05 2.01157e-05)
(0.000165118 -0.000201502 4.59866e-05)
(9.71298e-06 1.06953e-05 7.1547e-06)
(-2.10234e-06 1.79017e-06 -1.25341e-05)
(7.29871e-06 1.9077e-07 -1.5673e-05)
(-7.85445e-06 -1.63618e-05 -1.08555e-05)
)
;

boundaryField
{
    top_fluid_surface
    {
        type            pressureInletOutletVelocity;
        value           nonuniform List<vector> 
64
(
(0 0 -2.35838e-05)
(0 0 -9.2995e-05)
(0 0 -0.000166497)
(6.11721e-05 0.000105145 2.77617e-05)
(0 0 -4.5924e-05)
(0 0 -7.73939e-05)
(0 0 -6.89732e-05)
(0 0 -5.28064e-06)
(0 0 -0.000230768)
(0 0 -0.000164318)
(-0.000102061 -0.000317163 1.47037e-05)
(0 0 -5.76665e-05)
(-0.000122083 -0.000295007 0.000163721)
(-2.45339e-05 2.82025e-05 -4.47723e-06)
(0 0 -3.8163e-05)
(0 0 5.51432e-06)
(6.233e-05 9.93361e-05 9.78024e-05)
(0.00029403 -0.000136189 0.000170515)
(-5.14199e-05 2.06455e-05 8.75664e-05)
(8.44347e-05 -1.82689e-05 0.000247911)
(0.000244052 -0.000141101 9.61164e-05)
(0.000297126 -2.74521e-06 7.09334e-05)
(0.000256245 0.000130761 6.02967e-05)
(0.00038061 -8.08049e-05 9.00492e-05)
(0 0 -0.000141417)
(5.13672e-05 2.30528e-05 4.2248e-05)
(0 0 -1.95586e-05)
(-7.6816e-05 -7.61927e-05 8.56684e-06)
(0.000183231 -0.000124413 5.05741e-05)
(0.000105347 -0.000111046 3.8844e-05)
(0.00013667 -0.000160076 1.19243e-05)
(0.000255532 -3.19055e-05 0.000113612)
(0 0 -4.58235e-05)
(-8.8044e-05 -6.00478e-05 0.000119919)
(0 0 -0.000141871)
(0.000310239 -0.000213755 0.000235973)
(-0.000128736 -0.000186038 0.000202656)
(-7.22005e-05 -6.35131e-05 4.48054e-05)
(0 0 -0.000130307)
(0 0 -2.34658e-05)
(-0.000214206 -0.00023031 9.80781e-05)
(0 0 -0.0002901)
(0 0 -0.000203685)
(-1.66831e-05 0.000310212 9.08557e-05)
(0.000112839 0.000166195 0.000242588)
(0.000151451 -0.000158543 9.71296e-05)
(0.00027937 -0.000197222 1.48381e-05)
(0 0 -3.55653e-05)
(0 0 -0.000145145)
(0 0 -3.27449e-05)
(0 0 -0.000140033)
(-3.30821e-05 6.92271e-06 1.38107e-05)
(0 0 -3.93295e-05)
(0 0 -2.64498e-05)
(0 0 -4.24476e-05)
(0 0 -0.000268524)
(1.90726e-05 -0.000363589 -1.93534e-06)
(0 0 -4.31627e-05)
(0 0 -2.77771e-08)
(-0.000192866 -8.86239e-05 7.08506e-05)
(0 0 -7.38037e-05)
(0 0 8.02772e-06)
(0.000378418 1.22826e-05 2.01157e-05)
(0.000165118 -0.000201502 4.59866e-05)
)
;
    }
    bottom_fluid_surface
    {
        type            noSlip;
    }
    lateral_surface_1
    {
        type            noSlip;
    }
    lateral_surface_2
    {
        type            noSlip;
    }
    lateral_surface_3
    {
        type            noSlip;
    }
    lateral_surface_4
    {
        type            noSlip;
    }
}


// ************************************************************************* //
