/*--------------------------------*- C++ -*----------------------------------*\
| =========                 |                                                 |
| \\      /  F ield         | OpenFOAM: The Open Source CFD Toolbox           |
|  \\    /   O peration     | Version:  v1612+                                |
|   \\  /    A nd           | Web:      www.OpenFOAM.com                      |
|    \\/     M anipulation  |                                                 |
\*---------------------------------------------------------------------------*/
FoamFile
{
    version     2.0;
    format      ascii;
    class       volScalarField;
    location    "7.85";
    object      alpha.water;
}
// * * * * * * * * * * * * * * * * * * * * * * * * * * * * * * * * * * * * * //

dimensions      [0 0 0 0 0 0 0];

internalField   nonuniform List<scalar> 
320
(
1
1
1
1
1.84307e-05
1.88694e-05
1.89568e-05
2.03048e-05
1.81763e-05
1.84391e-05
1.81602e-05
1.82544e-05
2.01788e-05
1.93352e-05
1.63173e-05
1.86857e-05
0.999979
0.999976
0.999978
0.999982
0.999976
0.999981
0.999977
0.999976
0.999976
0.999981
0.99999
0.99998
1
1
1
1
1
1
1
1
1
1
1
1
1
1
1
1
1
1
1
1
1
1
1
1
1
1
1
1
1.87821e-05
1.96897e-05
1.79751e-05
1.95052e-05
1.69344e-05
1.53296e-05
1.52592e-05
1.47172e-05
1.94861e-05
1.86755e-05
1.54505e-05
1.46299e-05
1.80079e-05
1.53932e-05
1.48564e-05
1.53266e-05
1.60159e-05
1.7602e-05
1.92402e-05
1.58566e-05
0.999978
0.999978
0.999988
0.999982
0.999992
0.999993
0.999992
0.999992
0.999981
0.999987
0.999993
0.999992
0.999978
0.999987
0.999991
0.99999
0.999989
0.999985
0.999977
0.999988
1
1
1
1
1
1
1
1
1
1
1
1
1
1
1
1
1
1
1
1
1
1
1
1
1
1
1
1
1
1
1
1
1
1
1
1
1
1
1
1
1
1
1
1
1
1
1
1
1
1
1
1
1
1
1
1
1
1
1
1
1
1
1
1
1
1
1
1
1
1
1
1
1
1
1
1
1.8565e-05
1.91981e-05
2.02052e-05
1.83643e-05
1.81207e-05
1.80387e-05
2.26638e-05
1.88837e-05
1.79511e-05
1.95717e-05
1.98678e-05
1.93576e-05
2.14764e-05
1.89833e-05
2.06342e-05
2.12332e-05
1.94489e-05
1.8112e-05
1.83638e-05
1.82397e-05
1.80517e-05
1.85612e-05
2.11118e-05
1.86167e-05
1.80386e-05
1.81032e-05
1.83301e-05
2.01974e-05
0.999983
0.999978
0.999981
0.999989
0.999984
0.999984
0.999978
0.999983
0.999984
0.999978
0.999979
0.99998
0.999977
0.999984
0.999981
0.999977
0.999977
0.999979
0.999983
0.999978
0.999978
0.999978
0.999974
0.999978
0.99998
0.999976
0.99998
0.999973
1
1
1
1
1
1
1
1
1
1
1
1
1
1
1
1
1
1
1
1
1
1
1
1
1
1
1
1
1
1
1
1
1
1
1
1
1
1
1
1
1
1
1
1
1
1
1
1
1
1
1
1
1
1
1
1
1
1
1
1
1
1
1
1
1
1
1
1
1
1
1
1
1
1
1
1
1
1
1
1
1
1
1
1
1.80412e-05
1.90247e-05
1.89229e-05
1.95994e-05
0.999978
0.999974
0.999978
0.999973
)
;

boundaryField
{
    top_fluid_surface
    {
        type            inletOutlet;
        inletValue      uniform 0;
        value           nonuniform List<scalar> 
64
(
0
0
0
0
1.81763e-05
0
1.81602e-05
1.82544e-05
0
0
1.63173e-05
0
0
0
1.79751e-05
0
1.69344e-05
1.53296e-05
1.52592e-05
1.47172e-05
1.94861e-05
1.86755e-05
1.54505e-05
1.46299e-05
0
1.53932e-05
1.48564e-05
1.53266e-05
1.60159e-05
1.7602e-05
0
1.58566e-05
0
0
0
0
1.81207e-05
1.80387e-05
0
0
1.79511e-05
0
0
0
0
0
0
0
0
1.8112e-05
0
0
0
0
0
0
1.80386e-05
1.81032e-05
0
0
0
0
0
1.95994e-05
)
;
    }
    bottom_fluid_surface
    {
        type            zeroGradient;
    }
    lateral_surface_1
    {
        type            zeroGradient;
    }
    lateral_surface_2
    {
        type            zeroGradient;
    }
    lateral_surface_3
    {
        type            zeroGradient;
    }
    lateral_surface_4
    {
        type            zeroGradient;
    }
}


// ************************************************************************* //
