/*--------------------------------*- C++ -*----------------------------------*\
| =========                 |                                                 |
| \\      /  F ield         | OpenFOAM: The Open Source CFD Toolbox           |
|  \\    /   O peration     | Version:  v1612+                                |
|   \\  /    A nd           | Web:      www.OpenFOAM.com                      |
|    \\/     M anipulation  |                                                 |
\*---------------------------------------------------------------------------*/
FoamFile
{
    version     2.0;
    format      ascii;
    class       volScalarField;
    location    "7.85";
    object      p_rgh;
}
// * * * * * * * * * * * * * * * * * * * * * * * * * * * * * * * * * * * * * //

dimensions      [1 -1 -2 0 0 0 0];

internalField   nonuniform List<scalar> 
320
(
-9800.21
-9800.21
-9800.21
-9800.22
-0.00110869
-0.0025556
-0.0036619
-0.0113892
0.00162123
0.00109087
0.0014382
-0.000209328
-0.00811943
-0.00474594
0.00944107
-0.00187809
-9799.8
-9799.76
-9799.78
-9799.83
-9799.81
-9799.83
-9799.82
-9799.81
-9799.75
-9799.81
-9799.97
-9799.81
-9800.21
-9800.2
-9800.2
-9800.2
-9800.21
-9800.21
-9800.22
-9800.23
-9800.22
-9800.2
-9800.2
-9800.21
-9800.21
-9800.21
-9800.21
-9800.21
-9800.21
-9800.2
-9800.2
-9800.2
-9800.21
-9800.2
-9800.21
-9800.21
-9800.21
-9800.21
-9800.2
-9800.21
0.00258046
-0.0086179
0.00115026
-0.00602477
0.00653631
0.0149767
0.0157928
0.0193964
-0.00542675
0.000685065
0.0157827
0.0178631
0.00133367
0.0154034
0.0162722
0.0152025
0.0107134
0.00266989
-0.00556952
0.0106242
-9799.76
-9799.77
-9799.94
-9799.82
-9799.99
-9800.02
-9800.01
-9800.02
-9799.88
-9799.91
-9800.02
-9800.02
-9799.8
-9799.96
-9800
-9799.99
-9799.97
-9799.91
-9799.78
-9799.96
-9800.21
-9800.21
-9800.19
-9800.2
-9800.17
-9800.18
-9800.19
-9800.19
-9800.21
-9800.19
-9800.19
-9800.2
-9800.21
-9800.2
-9800.2
-9800.2
-9800.2
-9800.21
-9800.21
-9800.2
-9800.21
-9800.2
-9800.19
-9800.19
-9800.18
-9800.19
-9800.19
-9800.19
-9800.2
-9800.19
-9800.2
-9800.2
-9800.21
-9800.21
-9800.2
-9800.21
-9800.2
-9800.21
-9800.21
-9800.2
-9800.21
-9800.2
-9800.21
-9800.2
-9800.2
-9800.2
-9800.2
-9800.2
-9800.2
-9800.2
-9800.21
-9800.21
-9800.21
-9800.21
-9800.2
-9800.21
-9800.2
-9800.2
-9800.19
-9800.2
-9800.19
-9800.19
-9800.19
-9800.19
-9800.2
-9800.19
-9800.2
-9800.2
-9800.21
-9800.2
-9800.21
-9800.21
-9800.21
-9800.21
-9800.21
-9800.21
-0.00125361
-0.00505303
-0.0101068
-0.000796074
0.000167411
-0.00019785
-0.0208847
-0.0026933
0.00220095
-0.00563772
-0.00605717
-0.00375636
-0.0128782
-0.00179858
-0.010941
-0.0123664
-0.0053138
0.000501506
-0.000246367
-0.00052857
0.000692592
-0.0019232
-0.0137504
-0.00201851
0.00141312
0.000640073
-7.73534e-05
-0.00942543
-9799.84
-9799.78
-9799.79
-9799.9
-9799.89
-9799.89
-9799.73
-9799.83
-9799.9
-9799.78
-9799.78
-9799.79
-9799.74
-9799.84
-9799.8
-9799.75
-9799.77
-9799.84
-9799.84
-9799.8
-9799.8
-9799.8
-9799.72
-9799.79
-9799.85
-9799.82
-9799.82
-9799.72
-9800.2
-9800.21
-9800.2
-9800.17
-9800.2
-9800.19
-9800.18
-9800.19
-9800.19
-9800.2
-9800.19
-9800.2
-9800.19
-9800.18
-9800.19
-9800.2
-9800.21
-9800.22
-9800.2
-9800.21
-9800.22
-9800.21
-9800.22
-9800.21
-9800.22
-9800.23
-9800.21
-9800.22
-9800.21
-9800.21
-9800.2
-9800.19
-9800.19
-9800.19
-9800.19
-9800.19
-9800.19
-9800.2
-9800.2
-9800.2
-9800.2
-9800.19
-9800.19
-9800.2
-9800.21
-9800.21
-9800.21
-9800.21
-9800.21
-9800.21
-9800.21
-9800.21
-9800.22
-9800.22
-9800.21
-9800.21
-9800.21
-9800.2
-9800.2
-9800.19
-9800.19
-9800.19
-9800.19
-9800.19
-9800.19
-9800.2
-9800.19
-9800.2
-9800.2
-9800.19
-9800.19
-9800.2
-9800.2
-9800.21
-9800.21
-9800.21
-9800.21
-9800.21
-9800.21
-9800.21
-9800.21
-9800.21
-9800.21
-9800.21
0.00102201
-0.00265551
-0.00286625
-0.00661011
-9799.8
-9799.75
-9799.79
-9799.8
)
;

boundaryField
{
    top_fluid_surface
    {
        type            totalPressure;
        rho             rho;
        psi             none;
        gamma           1;
        p0              uniform 0;
        value           nonuniform List<scalar> 
64
(
-2.17654e-09
-2.5103e-09
-9.53907e-10
-3.81275e-09
0
-4.15898e-10
0
0
-2.2402e-08
-1.2802e-08
0
-4.01387e-09
-1.07291e-09
-1.95499e-08
0
-9.61559e-09
0
0
0
0
0
0
0
0
-1.2996e-09
0
0
0
0
0
-8.41899e-09
0
-3.7047e-10
-3.68348e-09
-2.4656e-08
-5.19702e-11
0
-2.24448e-10
-1.30905e-07
-3.3129e-09
0
-1.94965e-08
-2.09653e-08
-5.68856e-09
-3.29164e-08
-2.95699e-11
-1.8891e-08
-3.21328e-08
-1.11953e-08
0
-6.46002e-10
-7.61233e-10
-1.24425e-09
-4.67507e-10
-2.74371e-08
-3.95855e-09
0
0
-5.90623e-10
-2.17124e-08
-3.00183e-10
-4.87622e-10
-5.89963e-10
0
)
;
    }
    bottom_fluid_surface
    {
        type            fixedFluxPressure;
        gradient        uniform 0;
        value           nonuniform List<scalar> 
64
(
-9800.21
-9800.2
-9800.21
-9800.2
-9800.2
-9800.2
-9800.2
-9800.2
-9800.2
-9800.2
-9800.21
-9800.21
-9800.21
-9800.21
-9800.2
-9800.21
-9800.2
-9800.2
-9800.19
-9800.2
-9800.19
-9800.19
-9800.19
-9800.19
-9800.2
-9800.19
-9800.2
-9800.2
-9800.21
-9800.2
-9800.21
-9800.21
-9800.21
-9800.21
-9800.21
-9800.21
-9800.21
-9800.2
-9800.2
-9800.19
-9800.19
-9800.19
-9800.19
-9800.19
-9800.19
-9800.2
-9800.19
-9800.2
-9800.2
-9800.19
-9800.19
-9800.2
-9800.2
-9800.21
-9800.21
-9800.21
-9800.21
-9800.21
-9800.21
-9800.21
-9800.21
-9800.21
-9800.21
-9800.21
)
;
    }
    lateral_surface_1
    {
        type            fixedFluxPressure;
        gradient        uniform 0;
        value           nonuniform List<scalar> 
40
(
-0.00125361
-0.00505303
-0.0101068
-0.000796074
0.000167411
-0.00019785
-0.0208847
-0.00942543
-9799.84
-9799.78
-9799.79
-9799.9
-9799.89
-9799.89
-9799.73
-9799.72
-9800.2
-9800.21
-9800.2
-9800.17
-9800.2
-9800.19
-9800.18
-9800.22
-9800.21
-9800.21
-9800.2
-9800.19
-9800.19
-9800.19
-9800.19
-9800.21
-9800.21
-9800.2
-9800.2
-9800.19
-9800.19
-9800.19
-9800.19
-9800.21
)
;
    }
    lateral_surface_2
    {
        type            fixedFluxPressure;
        gradient        uniform 0;
        value           nonuniform List<scalar> 
40
(
-0.00179858
-0.010941
-0.0123664
-0.0053138
0.000501506
-0.000246367
-0.00052857
0.000692592
-9799.84
-9799.8
-9799.75
-9799.77
-9799.84
-9799.84
-9799.8
-9799.8
-9800.18
-9800.19
-9800.2
-9800.21
-9800.22
-9800.2
-9800.21
-9800.22
-9800.19
-9800.19
-9800.2
-9800.21
-9800.21
-9800.21
-9800.21
-9800.21
-9800.19
-9800.19
-9800.2
-9800.2
-9800.21
-9800.21
-9800.21
-9800.21
)
;
    }
    lateral_surface_3
    {
        type            fixedFluxPressure;
        gradient        uniform 0;
        value           nonuniform List<scalar> 
40
(
-0.0208847
-0.0026933
0.00220095
-0.00563772
-0.00605717
-0.00375636
-0.0128782
-0.00179858
-9799.73
-9799.83
-9799.9
-9799.78
-9799.78
-9799.79
-9799.74
-9799.84
-9800.18
-9800.19
-9800.19
-9800.2
-9800.19
-9800.2
-9800.19
-9800.18
-9800.19
-9800.19
-9800.19
-9800.2
-9800.2
-9800.2
-9800.2
-9800.19
-9800.19
-9800.19
-9800.19
-9800.2
-9800.19
-9800.2
-9800.2
-9800.19
)
;
    }
    lateral_surface_4
    {
        type            fixedFluxPressure;
        gradient        uniform 0;
        value           nonuniform List<scalar> 
40
(
0.000692592
-0.0019232
-0.0137504
-0.00201851
0.00141312
0.000640073
-7.73534e-05
-0.00942543
-9799.8
-9799.8
-9799.72
-9799.79
-9799.85
-9799.82
-9799.82
-9799.72
-9800.22
-9800.21
-9800.22
-9800.21
-9800.22
-9800.23
-9800.21
-9800.22
-9800.21
-9800.21
-9800.21
-9800.21
-9800.22
-9800.22
-9800.21
-9800.21
-9800.21
-9800.21
-9800.21
-9800.21
-9800.21
-9800.21
-9800.21
-9800.21
)
;
    }
}


// ************************************************************************* //
