/*--------------------------------*- C++ -*----------------------------------*\
| =========                 |                                                 |
| \\      /  F ield         | OpenFOAM: The Open Source CFD Toolbox           |
|  \\    /   O peration     | Version:  v1612+                                |
|   \\  /    A nd           | Web:      www.OpenFOAM.com                      |
|    \\/     M anipulation  |                                                 |
\*---------------------------------------------------------------------------*/
FoamFile
{
    version     2.0;
    format      ascii;
    class       volVectorField;
    location    "7.85";
    object      U;
}
// * * * * * * * * * * * * * * * * * * * * * * * * * * * * * * * * * * * * * //

dimensions      [0 1 -1 0 0 0 0];

internalField   nonuniform List<vector> 
320
(
(5.77205e-06 -1.20396e-05 2.27426e-05)
(-6.75835e-06 -8.25775e-06 -3.36853e-06)
(-1.74422e-05 -7.00147e-06 -1.00172e-05)
(2.97847e-06 2.15398e-05 -3.1584e-06)
(0.000203639 0.000245727 -6.5978e-05)
(-4.87411e-05 6.22368e-06 -7.08562e-05)
(0.000278742 0.000165092 -4.36785e-05)
(0.000116127 0.000298021 -8.73241e-05)
(0.000222536 0.000147812 1.23961e-05)
(-0.000152634 0.000304675 -2.88409e-05)
(-0.000196118 0.000295187 -2.48079e-06)
(-2.16247e-05 0.0001587 3.33727e-06)
(-0.000470709 0.000500498 -0.00021167)
(-0.000393952 -0.000257668 -0.000160013)
(-0.00040868 0.000227294 0.00023865)
(-0.000151516 0.000273731 -8.95977e-05)
(2.27147e-05 1.01139e-06 3.81514e-05)
(2.15223e-05 -1.07796e-06 3.18073e-05)
(4.30268e-05 5.74634e-06 2.20074e-06)
(1.38691e-05 -2.2721e-06 -1.75295e-05)
(2.87503e-05 -1.29609e-05 1.1305e-05)
(1.16902e-05 2.94488e-05 3.38791e-05)
(-1.2192e-05 1.25059e-05 3.84646e-05)
(-1.69539e-08 -2.05949e-05 5.49289e-06)
(-3.67676e-05 3.38881e-05 5.32538e-05)
(-2.57964e-05 -4.52192e-05 3.34244e-05)
(-3.52448e-05 3.93096e-06 -6.39344e-05)
(-1.4368e-05 1.46826e-05 2.21408e-05)
(-9.64185e-06 1.69719e-06 2.12857e-05)
(-1.13395e-05 2.46828e-06 2.76579e-05)
(-2.51597e-05 1.32766e-06 2.04018e-06)
(-8.21031e-06 2.27958e-06 -1.6895e-05)
(-1.59818e-05 6.21842e-06 7.24741e-06)
(-7.83305e-06 -1.38755e-05 1.93948e-05)
(6.46191e-06 -7.85112e-06 2.15543e-05)
(3.07352e-07 9.85084e-06 -1.30584e-06)
(1.91943e-05 -1.52223e-05 3.35905e-05)
(1.34122e-05 2.70035e-05 2.12114e-05)
(1.79029e-05 -4.66794e-07 -3.65363e-05)
(6.60703e-06 -7.99306e-06 1.1319e-05)
(2.44376e-06 -7.37192e-06 8.47004e-06)
(-4.40874e-06 -5.31634e-06 -4.78247e-06)
(-1.05033e-05 -4.35945e-06 -1.42668e-06)
(1.98199e-06 1.21975e-05 -6.93681e-06)
(-5.15334e-06 8.27577e-07 7.17403e-06)
(-6.79407e-06 6.0281e-07 1.16779e-07)
(-1.33484e-05 9.49139e-08 -2.6144e-07)
(-4.36973e-06 1.40387e-06 2.31881e-06)
(-7.84615e-06 5.22429e-06 1.51674e-06)
(-3.80536e-06 -7.3301e-06 6.90402e-06)
(5.17499e-06 -3.82515e-06 7.90365e-06)
(-5.80967e-08 6.60513e-06 3.02203e-06)
(9.81721e-06 -9.80522e-06 8.3082e-06)
(7.14754e-06 1.46985e-05 3.66598e-06)
(9.58656e-06 3.34503e-08 -1.03247e-05)
(4.31005e-06 -3.90666e-06 3.81165e-06)
(-0.000631838 0.000159233 -4.63229e-05)
(6.92289e-05 0.000354095 -0.000197737)
(-6.70612e-05 0.000176792 2.76447e-05)
(-3.59626e-06 0.000268834 -0.000138677)
(0.000173671 0.000561217 0.000181928)
(0.000249231 0.000125381 0.000377628)
(5.78863e-05 0.000233242 0.000398246)
(7.59818e-06 -0.000354829 0.000487048)
(-6.53798e-05 -0.000447951 -1.54014e-05)
(-0.00044926 -8.04677e-05 8.45414e-06)
(-0.000522735 2.97361e-05 0.000395642)
(2.54079e-05 6.31748e-05 0.00044189)
(6.21632e-05 0.000180139 -5.09824e-05)
(-0.000440183 0.000239212 0.000354777)
(0.000329748 -1.87663e-05 0.000378558)
(9.37067e-05 0.000202965 0.00034991)
(5.50682e-05 0.00026236 0.00030226)
(0.000191641 0.000614047 6.17549e-05)
(9.2782e-05 2.05072e-05 -0.000129761)
(8.33806e-05 0.00014514 0.0002837)
(-3.98788e-05 -2.00952e-05 -1.38613e-05)
(9.81526e-06 1.25383e-06 3.59008e-05)
(9.60632e-06 -2.09499e-05 1.81129e-06)
(1.30157e-05 2.20796e-06 6.72861e-06)
(-3.14178e-06 4.38249e-05 -7.03487e-05)
(1.68665e-05 -2.27341e-07 -9.39994e-05)
(-1.84769e-05 3.0282e-06 -7.49031e-05)
(-1.23749e-05 -4.14857e-05 -0.000113432)
(3.46274e-06 -4.27154e-05 7.56143e-06)
(-2.35966e-05 -6.81155e-06 1.59105e-05)
(-2.64769e-05 1.67192e-05 -7.61948e-05)
(4.23681e-05 -6.84835e-07 -8.90915e-05)
(1.47051e-05 -5.586e-06 5.03046e-05)
(-3.51553e-05 1.92129e-06 -5.57723e-05)
(2.64447e-05 -4.29074e-05 -5.23317e-05)
(-2.72756e-05 -1.12374e-05 -6.87014e-05)
(5.66982e-06 1.51113e-05 -7.45975e-05)
(1.86452e-05 3.83669e-05 -1.33983e-05)
(-6.54373e-08 -3.62354e-06 5.55088e-06)
(2.43731e-05 3.94588e-06 -5.91501e-05)
(1.77851e-05 8.26111e-06 -7.60043e-06)
(-4.6893e-06 -4.23828e-07 1.63445e-05)
(-6.38802e-06 1.50433e-05 5.48699e-06)
(-9.35778e-06 2.51094e-06 -2.91973e-07)
(2.30825e-06 -2.12902e-05 -3.84248e-05)
(-8.37325e-06 3.6216e-06 -4.0674e-05)
(9.20157e-06 9.1942e-07 -3.94401e-05)
(9.13647e-06 2.19227e-05 -5.29006e-05)
(-2.13591e-06 2.6115e-05 4.46243e-06)
(1.5267e-05 5.70823e-06 1.53604e-05)
(1.79855e-05 -8.04839e-06 -4.56912e-05)
(-2.07492e-05 -5.63542e-07 -4.62e-05)
(-1.00679e-05 2.62164e-06 3.37488e-05)
(1.68929e-05 -1.59818e-06 -3.15463e-05)
(-1.36932e-05 2.3376e-05 -3.24242e-05)
(1.40661e-05 6.36948e-06 -3.96727e-05)
(-3.97322e-06 -8.29808e-06 -4.25715e-05)
(-1.47287e-05 -1.88465e-05 -8.2317e-06)
(-4.0945e-06 1.58017e-06 3.53886e-07)
(-1.80284e-05 -6.26112e-06 -4.10372e-05)
(1.04955e-05 5.47746e-06 -4.03357e-06)
(-2.06558e-06 5.59088e-07 6.75353e-06)
(-3.67592e-06 8.73225e-06 -5.40911e-06)
(-5.55274e-06 2.18627e-06 2.42148e-06)
(1.88872e-06 -1.14485e-05 -1.35825e-05)
(-4.39635e-06 1.78604e-06 -1.89807e-05)
(5.05149e-06 1.8612e-07 -1.2391e-05)
(6.27121e-06 1.27624e-05 -1.96012e-05)
(-1.96964e-06 1.45772e-05 1.57069e-06)
(8.81999e-06 3.12843e-06 -1.47978e-06)
(1.05571e-05 -4.69209e-06 -1.09709e-05)
(-1.19544e-05 -1.84984e-07 -1.52693e-05)
(-4.52259e-06 2.07085e-06 5.73996e-06)
(1.0313e-05 -1.37662e-06 -8.67746e-06)
(-8.00863e-06 1.2633e-05 -7.45714e-06)
(9.28958e-06 3.44048e-06 -1.03233e-05)
(-1.67138e-06 -4.59079e-06 -1.13899e-05)
(-7.71558e-06 -1.02099e-05 -3.27197e-06)
(-6.46551e-07 1.73682e-06 1.58856e-06)
(-1.02644e-05 -3.35296e-06 -6.63796e-06)
(-2.17207e-07 -3.89572e-06 2.05013e-06)
(-4.58313e-07 -1.55401e-06 -7.23566e-07)
(-7.07166e-06 -1.70541e-06 -1.17989e-06)
(-2.15003e-07 8.14762e-06 -4.18286e-07)
(-5.93384e-06 2.88496e-07 2.52389e-06)
(-4.38435e-06 2.30992e-06 3.46386e-06)
(-6.16811e-06 1.53642e-06 -1.79629e-07)
(-8.77899e-07 2.73569e-07 -1.80799e-06)
(-3.5623e-06 1.06843e-06 8.79736e-07)
(-1.65713e-06 -2.4073e-06 1.93024e-06)
(2.31555e-06 1.17492e-07 2.97536e-06)
(1.32883e-07 2.13638e-06 -6.5736e-07)
(5.77155e-06 -3.34198e-06 3.34803e-06)
(3.20196e-06 7.79746e-06 3.18456e-06)
(5.99463e-06 -4.16186e-07 -3.15016e-06)
(1.66631e-06 -7.30565e-07 2.57585e-06)
(4.81199e-06 2.76593e-06 -6.08194e-07)
(-3.25768e-06 -8.59049e-07 1.19213e-06)
(-1.70622e-06 3.01643e-06 7.35855e-07)
(-1.02922e-06 -8.36188e-07 -5.17643e-07)
(-1.00448e-06 -5.28319e-06 -3.70958e-06)
(-3.5437e-06 2.46124e-06 -3.79829e-06)
(-7.09597e-09 1.05181e-06 -4.38814e-06)
(5.96757e-07 7.36836e-06 -4.9474e-06)
(-9.19228e-07 7.63799e-06 6.73891e-07)
(2.73131e-06 1.22458e-06 1.7737e-06)
(3.9583e-06 -3.13686e-06 -4.54812e-06)
(-4.75876e-06 -7.80754e-08 -4.67769e-06)
(-3.61218e-06 5.56401e-07 2.92204e-06)
(3.61681e-06 7.00908e-07 -3.66807e-06)
(-4.53787e-06 5.84158e-06 -3.6856e-06)
(3.18868e-06 1.72162e-06 -4.7664e-06)
(-2.2717e-06 -1.4824e-06 -5.12049e-06)
(-3.87514e-06 -5.43144e-06 -1.59869e-06)
(-3.04115e-06 -8.94171e-07 -6.86215e-07)
(-6.63725e-06 -2.17194e-06 -4.64906e-06)
(0.000192735 0.00029008 -2.72202e-05)
(-0.000360815 0.000173622 -8.5831e-05)
(0.000187825 1.87058e-05 -0.000222063)
(3.82492e-05 5.3742e-05 1.01951e-05)
(-0.000101766 -8.57228e-05 2.44465e-05)
(-0.00016024 0.000152681 -2.09988e-05)
(-0.000723705 0.000246225 -0.000511674)
(-0.000635538 0.000676076 -8.1399e-05)
(-0.000611246 5.09747e-05 8.24882e-05)
(-0.000708189 5.97212e-05 -0.000197466)
(-0.000783455 2.49849e-05 -0.00020477)
(-0.000332714 -0.000150927 -0.000106664)
(-0.00048591 0.000124367 -0.000256579)
(-0.000127745 -0.000135636 -7.69024e-06)
(3.07318e-05 -0.000494044 -0.000194376)
(-0.000295627 -0.00061318 -0.000253507)
(-0.00034634 -0.000718079 -0.000149635)
(-0.000198317 -0.000244416 1.41863e-05)
(-0.000275138 -0.000459925 -3.59445e-05)
(7.2515e-05 -0.000407544 -3.90188e-05)
(4.08559e-05 -0.000204735 -4.98849e-05)
(0.00024328 0.000259224 -3.0578e-05)
(0.000317348 0.000226631 -0.000234252)
(0.000268304 -0.000158368 -8.89781e-05)
(-0.000102293 0.000265432 4.05867e-05)
(-8.12023e-05 0.00016129 2.92918e-05)
(4.01813e-05 0.000261909 -3.43693e-05)
(3.53291e-05 0.000284854 -0.000208386)
(3.2927e-05 2.64607e-05 1.6079e-05)
(-1.16816e-05 3.84144e-06 -1.31927e-05)
(2.35689e-05 -1.7313e-06 2.73487e-05)
(2.05738e-05 -9.91786e-06 -5.89224e-05)
(-2.17385e-05 -1.26956e-05 -3.64863e-05)
(-2.72566e-05 2.48348e-05 1.76487e-05)
(-4.13054e-05 1.14197e-05 8.18399e-05)
(-5.47218e-05 4.63146e-05 2.92665e-05)
(-3.88155e-05 -9.59085e-06 -3.27807e-05)
(-6.40825e-05 -3.15011e-05 7.10556e-05)
(-7.33244e-05 8.97493e-06 8.4542e-05)
(-1.36443e-05 1.82271e-05 1.77732e-05)
(-1.23956e-05 2.24072e-05 1.99015e-05)
(1.55729e-05 1.68386e-07 -2.57448e-05)
(9.15004e-06 -2.77955e-05 3.2752e-05)
(5.56149e-06 -3.25798e-05 1.5135e-05)
(1.01079e-05 -5.98277e-05 4.42949e-05)
(-2.62039e-06 -3.27859e-07 1.08982e-05)
(5.46208e-07 -4.25012e-05 1.82117e-05)
(1.39551e-05 -3.60232e-05 4.36508e-05)
(1.26631e-05 -3.00141e-05 6.4865e-05)
(1.86725e-05 -3.93145e-05 1.79087e-06)
(1.62585e-05 1.31141e-05 -2.78948e-05)
(4.30213e-05 6.941e-07 3.72867e-05)
(1.84703e-06 -1.7992e-06 6.28385e-06)
(2.86178e-06 2.0409e-05 4.02095e-06)
(2.58745e-05 1.28969e-05 4.11678e-05)
(1.18184e-05 1.24028e-05 5.88672e-05)
(-2.26095e-05 -1.59762e-05 8.7834e-06)
(7.72602e-07 -3.35372e-06 -7.90271e-06)
(-1.64236e-05 1.03455e-06 9.08648e-06)
(-1.42768e-05 8.38189e-06 -3.39416e-05)
(1.1166e-05 8.92264e-06 -3.02253e-05)
(1.59349e-05 -1.21447e-05 1.52027e-05)
(2.21141e-05 -4.69867e-06 4.48526e-05)
(2.95599e-05 -2.17883e-05 1.71222e-05)
(2.16158e-05 8.22086e-06 -1.9674e-05)
(3.41612e-05 1.97953e-05 3.49028e-05)
(4.04851e-05 -5.12328e-06 5.65664e-05)
(7.12223e-06 -7.75891e-06 4.95825e-06)
(6.61293e-06 -1.07096e-05 1.43771e-05)
(-9.29041e-06 -2.55799e-06 -2.04328e-05)
(-4.79854e-06 1.33437e-05 1.84286e-05)
(-1.5658e-06 1.75054e-05 8.81798e-06)
(-4.20615e-06 3.28937e-05 2.41614e-05)
(1.34401e-06 9.64488e-07 3.86502e-06)
(-1.56175e-06 2.1482e-05 6.17516e-06)
(-7.99632e-06 1.9419e-05 2.43254e-05)
(-6.94509e-06 1.57889e-05 3.32294e-05)
(-1.05757e-05 2.04695e-05 2.02726e-06)
(-9.85296e-06 -5.49942e-06 -1.85214e-05)
(-2.2447e-05 -1.79504e-06 2.1969e-05)
(-3.35267e-06 -5.88125e-07 8.01437e-06)
(-4.19013e-06 -1.12928e-05 -2.48727e-06)
(-1.62257e-05 -1.02546e-05 2.68586e-05)
(-8.18622e-06 -7.93729e-06 2.9196e-05)
(-1.14337e-05 -9.30495e-06 5.05648e-06)
(3.98311e-07 -1.66458e-06 -2.71623e-06)
(-8.40846e-06 7.91971e-07 5.86902e-06)
(-8.42175e-06 4.67844e-06 -1.2217e-05)
(6.83185e-06 5.53768e-06 -3.56794e-06)
(1.0323e-05 -7.70613e-06 -3.00764e-06)
(1.15675e-05 -2.89713e-06 1.04966e-05)
(1.63766e-05 -1.25325e-05 5.86561e-06)
(1.04831e-05 3.25741e-06 -5.24731e-06)
(1.78478e-05 1.20697e-05 1.13139e-05)
(2.23656e-05 -1.79631e-06 9.80264e-06)
(3.29027e-06 -4.78053e-06 5.51931e-06)
(3.00857e-06 -5.95972e-06 2.15972e-06)
(-5.79785e-06 -2.15279e-06 -1.88397e-06)
(-3.23781e-06 6.65349e-06 5.44341e-06)
(-4.92193e-07 9.90496e-06 1.89677e-06)
(-1.58755e-06 1.77019e-05 7.31654e-06)
(1.13368e-06 -4.60978e-07 4.76199e-06)
(-7.4442e-07 1.20458e-05 5.74102e-06)
(-4.30122e-06 1.05959e-05 6.91357e-06)
(-3.88741e-06 8.33839e-06 1.17928e-05)
(-6.14506e-06 1.22135e-05 8.51036e-07)
(-4.30671e-06 -3.46874e-06 -2.60237e-06)
(-1.30534e-05 -2.30556e-06 5.24031e-06)
(-2.02151e-06 1.05817e-06 -4.12004e-07)
(-1.7858e-06 -6.45524e-06 4.3293e-06)
(-1.02136e-05 -5.31012e-06 6.93209e-06)
(-3.7432e-06 -2.83461e-06 1.22933e-05)
(-7.95858e-06 -4.31339e-06 2.87754e-07)
(3.53426e-07 -1.49067e-06 -6.71726e-07)
(-6.18436e-06 1.45129e-07 6.62219e-07)
(-4.40723e-06 1.43602e-06 -2.45087e-06)
(2.13151e-06 2.84617e-06 -3.16897e-06)
(1.6734e-06 -1.72475e-06 2.31363e-06)
(8.44116e-06 1.68228e-07 5.31396e-06)
(1.03342e-05 -6.05322e-06 2.36237e-06)
(7.67114e-06 2.53378e-06 -1.13703e-06)
(1.04067e-05 4.41389e-06 3.00865e-06)
(1.10331e-05 1.56353e-07 6.35147e-06)
(3.19472e-06 -2.72679e-07 6.89917e-07)
(3.1226e-06 -3.18645e-06 1.7187e-06)
(-1.21631e-06 1.58388e-06 -1.89814e-06)
(-9.68862e-07 5.92279e-06 2.36698e-06)
(-3.54566e-07 5.28407e-06 2.97765e-07)
(-1.37767e-06 1.02355e-05 2.76297e-06)
(-6.46096e-07 1.90302e-06 5.77255e-07)
(4.86393e-07 7.26952e-06 1.16789e-06)
(-1.82573e-06 5.03338e-06 1.91686e-06)
(-2.18247e-06 4.55731e-06 3.58125e-06)
(-2.65854e-06 5.71524e-06 -8.91746e-08)
(-2.30879e-06 -1.07591e-06 -2.70086e-06)
(-5.456e-06 7.3378e-07 2.3372e-06)
(-9.26261e-08 -1.18559e-06 1.1295e-07)
(-1.21019e-06 -3.49271e-06 -1.56199e-07)
(-2.69122e-06 -2.1516e-06 2.89848e-06)
(-1.18989e-06 -2.81206e-06 3.01702e-06)
(-0.000198404 0.000371303 -2.45024e-05)
(-0.00014852 0.000289343 -3.12289e-05)
(0.000267518 0.000195904 -3.435e-05)
(-0.000121826 -8.39387e-05 -4.5131e-06)
(-5.94511e-06 2.69328e-05 4.62459e-05)
(1.4344e-05 1.73096e-05 -1.50615e-05)
(3.61001e-05 1.35765e-05 -1.58465e-05)
(-7.68213e-06 -3.9295e-05 -1.83793e-05)
)
;

boundaryField
{
    top_fluid_surface
    {
        type            pressureInletOutletVelocity;
        value           nonuniform List<vector> 
64
(
(0 0 -6.5978e-05)
(0 0 -7.08562e-05)
(0 0 -4.36785e-05)
(0 0 -8.73241e-05)
(0.000222536 0.000147812 1.23961e-05)
(0 0 -2.88409e-05)
(-0.000196118 0.000295187 -2.48079e-06)
(-2.16247e-05 0.0001587 3.33727e-06)
(0 0 -0.00021167)
(0 0 -0.000160013)
(-0.00040868 0.000227294 0.00023865)
(0 0 -8.95977e-05)
(0 0 -4.63229e-05)
(0 0 -0.000197737)
(-6.70612e-05 0.000176792 2.76447e-05)
(0 0 -0.000138677)
(0.000173671 0.000561217 0.000181928)
(0.000249231 0.000125381 0.000377628)
(5.78863e-05 0.000233242 0.000398246)
(7.59818e-06 -0.000354829 0.000487048)
(-6.53798e-05 -0.000447951 -1.54014e-05)
(-0.00044926 -8.04677e-05 8.45414e-06)
(-0.000522735 2.97361e-05 0.000395642)
(2.54079e-05 6.31748e-05 0.00044189)
(0 0 -5.09824e-05)
(-0.000440183 0.000239212 0.000354777)
(0.000329748 -1.87663e-05 0.000378558)
(9.37067e-05 0.000202965 0.00034991)
(5.50682e-05 0.00026236 0.00030226)
(0.000191641 0.000614047 6.17549e-05)
(0 0 -0.000129761)
(8.33806e-05 0.00014514 0.0002837)
(0 0 -2.72202e-05)
(0 0 -8.5831e-05)
(0 0 -0.000222063)
(0 0 1.01951e-05)
(-0.000101766 -8.57228e-05 2.44465e-05)
(0 0 -2.09988e-05)
(0 0 -0.000511674)
(0 0 -8.1399e-05)
(-0.000611246 5.09747e-05 8.24882e-05)
(0 0 -0.000197466)
(0 0 -0.00020477)
(0 0 -0.000106664)
(0 0 -0.000256579)
(0 0 -7.69024e-06)
(0 0 -0.000194376)
(0 0 -0.000253507)
(0 0 -0.000149635)
(-0.000198317 -0.000244416 1.41863e-05)
(0 0 -3.59445e-05)
(0 0 -3.90188e-05)
(0 0 -4.98849e-05)
(0 0 -3.0578e-05)
(0 0 -0.000234252)
(0 0 -8.89781e-05)
(-0.000102293 0.000265432 4.05867e-05)
(-8.12023e-05 0.00016129 2.92918e-05)
(0 0 -3.43693e-05)
(0 0 -0.000208386)
(0 0 -2.45024e-05)
(0 0 -3.12289e-05)
(0 0 -3.435e-05)
(-0.000121826 -8.39387e-05 -4.5131e-06)
)
;
    }
    bottom_fluid_surface
    {
        type            noSlip;
    }
    lateral_surface_1
    {
        type            noSlip;
    }
    lateral_surface_2
    {
        type            noSlip;
    }
    lateral_surface_3
    {
        type            noSlip;
    }
    lateral_surface_4
    {
        type            noSlip;
    }
}


// ************************************************************************* //
