/*--------------------------------*- C++ -*----------------------------------*\
| =========                 |                                                 |
| \\      /  F ield         | OpenFOAM: The Open Source CFD Toolbox           |
|  \\    /   O peration     | Version:  v1612+                                |
|   \\  /    A nd           | Web:      www.OpenFOAM.com                      |
|    \\/     M anipulation  |                                                 |
\*---------------------------------------------------------------------------*/
FoamFile
{
    version     2.0;
    format      ascii;
    class       surfaceScalarField;
    location    "7.9";
    object      alphaPhi;
}
// * * * * * * * * * * * * * * * * * * * * * * * * * * * * * * * * * * * * * //

dimensions      [0 3 -1 0 0 0 0];

internalField   nonuniform List<scalar> 
816
(
-7.90842e-07
-1.01803e-05
4.80501e-06
-1.31069e-05
-1.59171e-05
3.51911e-05
6.53257e-06
3.04053e-06
-7.7902e-06
4.48933e-06
-7.07545e-06
-7.53395e-06
1.96801e-06
1.60516e-06
6.06307e-06
-1.22784e-05
-6.02167e-06
7.87727e-06
5.51404e-06
-8.24235e-06
8.98751e-10
-4.46735e-10
-8.17142e-07
-5.26523e-09
5.90608e-09
2.3888e-09
-4.28192e-06
-1.12466e-09
2.37785e-09
3.18353e-09
-4.70347e-06
-3.86309e-09
5.55732e-09
5.40561e-09
5.4681e-07
2.67533e-09
8.43333e-10
3.8034e-09
-5.86695e-06
2.00395e-09
-2.26631e-09
3.6739e-09
-3.79517e-06
-3.3945e-09
3.18126e-09
2.93372e-09
-7.36484e-06
3.72437e-09
-3.72632e-09
3.95803e-09
-5.06288e-06
3.10962e-09
-3.94473e-09
-1.8782e-09
1.20704e-06
8.28897e-09
4.72156e-09
4.34385e-10
3.25992e-06
3.56982e-09
-1.59479e-09
-4.74507e-09
9.94446e-11
2.06627e-09
-5.77363e-09
3.64605e-06
-4.3586e-09
5.74423e-10
2.33389e-05
-4.74815e-06
-2.95643e-05
-1.63106e-06
1.41627e-05
3.04328e-05
-3.27084e-05
1.08913e-05
8.0053e-06
1.42655e-06
-2.80774e-06
-5.02026e-06
3.17592e-05
-4.85816e-06
1.91561e-05
-1.23283e-06
-1.15129e-05
6.14548e-06
-1.25613e-05
7.7859e-06
-1.10247e-05
1.95581e-06
-2.53529e-05
7.88419e-06
2.55306e-05
5.93026e-06
-3.30869e-05
5.71106e-06
1.31504e-05
1.59129e-05
-3.70909e-06
-1.47651e-05
2.43319e-06
4.88584e-06
-4.47837e-05
2.09847e-05
3.51414e-05
2.35873e-05
-2.53457e-05
1.24538e-05
6.28298e-06
-1.08345e-05
5.28234e-05
7.92065e-06
-2.16573e-05
-1.56651e-05
3.19828e-06
6.91164e-06
-1.09376e-05
1.42139e-06
-1.45453e-05
-7.22103e-07
-1.7614e-05
-1.31549e-05
-9.88488e-06
1.47721e-06
-8.85339e-07
-2.25958e-06
-1.87468e-05
5.23833e-06
7.34388e-06
2.04008e-07
-4.36362e-06
-4.42405e-06
-4.68912e-06
1.46449e-06
-1.35261e-05
-5.40576e-06
-1.22602e-05
-3.61695e-06
-1.47582e-05
-5.52296e-06
-9.80709e-06
-1.16098e-06
5.58131e-06
-6.79168e-06
-2.04801e-05
-9.3438e-06
-1.80006e-05
-1.33895e-05
-1.26458e-05
-4.58137e-06
4.87527e-06
2.26893e-05
-1.24928e-06
-8.16161e-06
-1.53147e-07
-1.03184e-06
-1.03769e-06
-6.11207e-06
3.02359e-06
-6.65952e-06
-5.15286e-06
3.43779e-06
2.18028e-06
-4.6305e-06
2.42416e-06
-4.12232e-06
1.41093e-06
1.39687e-06
1.21596e-06
-3.03874e-06
4.44534e-06
3.263e-06
-6.24845e-06
3.81192e-07
-7.86632e-07
-4.87048e-06
-9.76743e-06
-5.42697e-06
-2.03398e-06
7.20655e-07
-1.53885e-06
-9.96158e-06
1.27149e-07
3.59602e-06
6.4637e-08
-2.61578e-07
-1.16081e-06
-1.3632e-06
-1.37874e-06
-3.19495e-07
-3.32867e-06
-6.76339e-06
-4.36379e-06
-2.54322e-06
-2.66315e-06
-5.4819e-06
-4.86e-06
3.84345e-06
-1.30029e-06
-2.88313e-06
-6.24276e-06
-1.03708e-05
-5.84373e-06
-7.68173e-06
-2.91083e-06
-3.56224e-06
2.19237e-06
-7.18846e-07
6.88235e-06
-8.92063e-07
-1.6029e-06
-3.08314e-06
-4.78944e-09
5.41985e-09
-1.87531e-06
-3.1948e-09
-9.52933e-11
1.86074e-06
-4.27974e-09
-5.42999e-10
4.01433e-11
-1.95542e-09
1.77866e-09
1.20766e-06
-1.44936e-09
5.65047e-09
2.18852e-06
-5.94496e-09
-4.68394e-09
2.21607e-09
1.229e-11
-3.55808e-09
-1.38968e-09
-4.90179e-06
-6.22427e-09
-9.10847e-09
-6.08731e-06
-7.88943e-09
-5.4539e-09
-8.84474e-05
-2.24869e-09
1.01998e-08
-0.000101474
-9.71605e-09
-4.64672e-09
4.52121e-09
-3.30613e-06
-6.58117e-09
-2.91295e-10
6.99622e-11
-6.2491e-09
2.75365e-09
2.98625e-06
-8.73912e-10
1.27081e-09
-3.53544e-06
-2.01569e-09
-1.55187e-09
8.94935e-13
-4.05995e-09
-5.68679e-09
-3.89381e-09
-1.26645e-06
-5.10423e-09
-6.78324e-09
-1.1692e-06
-2.93639e-09
-6.47532e-09
4.29076e-07
-1.4496e-09
-1.45472e-09
1.93791e-06
-5.21479e-10
1.023e-10
-4.8667e-09
-1.69899e-09
-1.65004e-05
9.14272e-06
9.86029e-06
7.20576e-06
1.07376e-05
-2.53276e-05
-5.09492e-07
9.70419e-06
-2.4718e-06
1.35115e-05
6.1194e-06
-2.16714e-06
7.21572e-06
2.31226e-05
5.7309e-05
-3.54762e-05
-3.10783e-05
1.48217e-06
6.76405e-05
-1.11843e-05
-1.81096e-05
5.72801e-05
-4.48241e-05
-4.57588e-05
8.20791e-05
-4.69185e-05
-2.43809e-05
-5.68712e-06
-5.40988e-06
2.67934e-05
-1.4249e-05
-1.88693e-05
-1.84893e-05
-6.79424e-06
6.31481e-05
-1.0163e-05
-3.08657e-05
6.85581e-05
-3.33865e-05
1.19287e-05
-4.38193e-05
-2.07962e-06
3.80199e-06
4.19112e-05
-2.38484e-05
2.57749e-05
4.30914e-05
-4.21367e-05
-2.49587e-05
-2.05552e-06
5.58274e-05
3.97397e-06
-2.74979e-05
5.85724e-05
-2.6752e-05
-1.9302e-05
1.17323e-05
-8.87276e-06
1.429e-07
-2.92027e-06
-2.22458e-08
5.09113e-05
-1.82754e-05
-2.76012e-05
6.77928e-06
3.60959e-08
5.67529e-06
-2.76444e-06
-6.67223e-06
-1.1938e-05
-6.52077e-07
-7.09191e-06
2.50348e-07
-1.21725e-05
-4.65367e-06
-1.16293e-06
-5.67523e-06
-8.3406e-06
2.60476e-05
1.76277e-05
1.73408e-05
2.59697e-06
3.03023e-05
7.67249e-06
1.09862e-05
2.57731e-05
2.32893e-05
2.53632e-05
3.65665e-05
2.64071e-05
1.44909e-05
-3.00459e-06
2.67765e-06
-1.57981e-05
-6.10295e-06
1.18898e-05
1.02232e-05
1.68201e-06
2.78385e-05
5.46987e-06
1.69421e-05
3.01444e-05
1.75845e-05
-4.04204e-06
-1.95215e-05
2.27489e-06
-1.8536e-06
2.01469e-05
1.02382e-05
-1.4207e-05
1.94828e-05
2.27944e-05
1.31682e-05
8.61514e-07
2.43205e-05
-1.54973e-06
1.41569e-05
2.65555e-05
1.4152e-05
9.32723e-06
5.47707e-06
9.8452e-06
1.80273e-06
-1.20418e-06
4.77689e-06
2.3167e-05
1.14123e-05
1.82206e-05
4.41618e-06
-1.15003e-07
2.41012e-06
-1.90784e-06
-3.51497e-06
-3.8474e-06
-9.04883e-07
-4.29289e-06
2.39033e-06
-6.75057e-06
-2.32314e-06
-7.80601e-07
-3.87549e-06
-4.53128e-06
8.56159e-06
9.87243e-06
9.85547e-06
1.16815e-06
1.11744e-05
3.46456e-06
6.32055e-06
8.37144e-06
1.22833e-05
1.42645e-05
1.20344e-05
1.51868e-05
8.25327e-06
-1.09754e-06
6.78199e-07
-9.29353e-06
-1.60104e-08
6.32802e-06
5.11432e-06
8.78387e-07
7.90459e-06
2.96463e-06
9.02964e-06
9.81887e-06
9.4862e-06
-3.25631e-06
-4.39396e-06
1.01341e-06
-1.29196e-06
6.30407e-06
5.66628e-06
-7.62899e-06
5.7575e-06
1.23607e-05
7.70143e-06
5.15638e-07
7.84329e-06
-2.01828e-06
7.77806e-06
8.49154e-06
7.91881e-06
4.5314e-06
2.56574e-06
5.46111e-06
5.65923e-07
-4.4396e-07
1.61051e-06
5.96764e-06
6.69951e-06
1.09653e-05
-5.03187e-07
-2.99614e-06
1.58315e-06
-3.24405e-06
3.19915e-06
-5.28308e-07
-7.59298e-07
-3.87571e-06
3.2865e-07
1.749e-06
-1.88587e-06
4.47419e-06
-5.55026e-06
2.05764e-06
2.39359e-07
-5.09126e-06
-3.01971e-06
1.01197e-06
-4.67901e-07
-5.50924e-06
7.24595e-07
-7.23093e-07
-6.21947e-07
-1.92333e-06
-1.76028e-07
-1.62111e-06
-3.20935e-06
-1.0412e-06
-1.533e-07
-3.11728e-06
1.11894e-06
-2.53513e-06
-1.60891e-06
-4.80347e-06
-3.84697e-06
-4.84691e-07
6.79611e-07
-8.60488e-07
-1.17651e-06
8.47446e-07
8.17034e-07
1.05367e-06
-6.1733e-07
-2.98514e-06
2.25334e-07
-1.251e-06
-2.34484e-06
-1.4009e-06
-1.10141e-06
-1.36763e-06
3.44833e-06
5.07912e-06
2.00345e-06
2.32156e-06
4.03674e-06
5.61522e-06
7.94183e-06
6.20249e-06
4.01292e-06
1.19508e-06
-2.98628e-06
3.1494e-06
3.79171e-06
5.14704e-07
1.2156e-06
4.67242e-06
5.50094e-06
-1.31275e-08
1.42075e-06
4.40425e-07
4.26738e-06
-3.4931e-06
5.81534e-06
3.89203e-06
-1.56266e-07
-2.88792e-07
3.7215e-06
4.13818e-06
3.29697e-06
2.13415e-06
1.33125e-06
2.36302e-06
3.4095e-06
4.95265e-06
-1.0676e-09
-2.5865e-09
-3.5843e-06
-1.72483e-09
1.95071e-06
2.35995e-09
7.79772e-07
-4.87812e-10
4.81355e-06
-2.14988e-09
-1.76447e-06
-1.09424e-08
1.02582e-06
1.06974e-08
-4.74755e-06
6.39375e-09
-8.25196e-07
9.92222e-10
-2.63249e-06
3.46569e-10
1.09812e-06
-1.103e-09
-1.03231e-06
-1.0187e-09
-2.46673e-06
-5.41383e-11
-1.82687e-06
9.54513e-10
-2.32664e-06
3.16962e-09
8.48052e-07
7.96523e-09
-1.71132e-06
5.38855e-09
4.39287e-07
3.98399e-09
-2.16187e-06
2.28233e-09
2.06767e-06
-1.03955e-09
-6.23458e-07
-5.55732e-10
-2.27887e-06
-5.93587e-09
-7.3065e-07
-4.20656e-10
2.42394e-08
-1.54184e-09
1.24384e-06
-3.60805e-09
-5.62533e-06
-4.33901e-09
-4.82624e-06
-6.14188e-09
-1.81355e-06
-7.46336e-06
1.14321e-05
-2.17335e-05
-1.14122e-05
4.64297e-06
1.0451e-05
2.20741e-05
-1.62253e-05
1.57009e-07
5.0669e-05
-2.5184e-05
3.47545e-05
-3.78424e-05
-1.54826e-05
3.14925e-05
-5.99258e-05
2.11219e-05
-2.19146e-05
-2.3023e-05
2.55286e-05
-1.09737e-05
-5.33151e-05
1.35432e-05
-7.19039e-05
1.97936e-05
-1.08714e-05
1.1425e-05
-1.73686e-05
-1.26251e-05
2.51311e-05
-7.38863e-06
-2.45407e-05
-7.03274e-06
-1.1258e-05
-2.25796e-06
-3.41069e-05
1.75915e-07
-9.1283e-06
-6.11395e-06
-1.06738e-05
-1.38092e-05
-3.57021e-05
3.47263e-05
-4.96551e-05
1.20793e-05
-2.27898e-06
-6.6793e-06
2.25824e-05
1.8954e-06
-2.9359e-05
-8.72284e-06
-8.75056e-06
-1.96331e-05
-2.60909e-06
-1.21809e-05
-3.48135e-05
-4.69452e-05
-1.02552e-05
1.69058e-05
-6.65266e-06
-7.88737e-06
5.30999e-06
-1.70229e-05
-7.71148e-06
-1.08464e-06
2.26264e-05
1.20322e-05
1.59154e-05
1.98876e-05
-5.72231e-06
-1.28491e-05
-2.71764e-05
-6.26976e-06
-1.11403e-05
1.43866e-05
1.25277e-05
6.96686e-06
-2.26209e-05
-6.42517e-06
-3.21262e-05
-9.30591e-06
-5.37231e-06
-7.16836e-06
-7.63475e-06
6.9749e-06
1.09871e-05
3.88614e-06
-1.13351e-05
3.16133e-06
-5.09079e-06
2.08586e-06
-1.54548e-05
-2.03763e-07
-4.58282e-06
5.48681e-06
-6.10833e-06
7.77965e-06
-1.52001e-05
-1.91527e-05
-2.27269e-05
-6.8592e-06
-1.38077e-06
3.24777e-06
1.09431e-05
1.54216e-06
-1.3496e-05
6.28423e-06
-3.64163e-06
9.72421e-06
-1.27421e-06
9.84572e-06
-1.67082e-05
-2.01849e-05
-5.60488e-06
8.21708e-06
-2.57169e-06
-4.01128e-06
1.78064e-06
-9.31181e-06
-3.26457e-06
-6.46718e-07
7.259e-06
7.82579e-06
3.60033e-06
1.15305e-05
4.40686e-07
-7.51954e-06
-8.11496e-06
-4.62958e-06
-4.15163e-06
8.09991e-06
3.25386e-06
5.01611e-06
-7.2759e-06
-3.52559e-06
-8.41344e-06
-5.21561e-06
-3.05417e-06
-4.50204e-06
-2.05034e-06
4.53305e-06
1.99517e-06
2.25253e-06
-3.96816e-06
1.25464e-06
-1.13665e-06
4.99518e-07
-5.21831e-06
-3.82043e-07
-2.68187e-06
2.75331e-06
-3.56132e-06
4.349e-06
-4.40915e-06
-1.0723e-05
-7.6683e-06
-3.94809e-06
-4.66708e-07
2.54531e-06
2.44868e-06
9.01346e-07
-3.9168e-06
2.71872e-06
1.67431e-08
5.32181e-06
-2.2943e-06
4.39532e-06
-4.82732e-06
-7.55202e-06
-4.03736e-06
4.88636e-06
-2.89824e-06
-5.92465e-06
-9.91908e-07
1.5202e-06
5.39862e-06
-2.73301e-06
-1.78496e-06
3.80312e-06
2.14176e-06
-6.63383e-08
-1.93194e-06
-8.89944e-07
1.09234e-06
9.23618e-07
1.01556e-06
1.30738e-06
5.22785e-08
7.44046e-07
2.18228e-06
-5.46354e-06
-2.04321e-06
1.13746e-07
3.28006e-07
2.5021e-06
2.55663e-06
2.64825e-06
-4.27135e-09
4.88849e-09
-0.000131172
8.34124e-10
-6.90309e-06
1.53016e-10
5.9238e-07
-9.46232e-05
4.63857e-06
1.93703e-05
-1.03136e-05
1.55963e-05
)
;

boundaryField
{
    top_fluid_surface
    {
        type            calculated;
        value           nonuniform List<scalar> 
64
(
0
0
0
0
1.38992e-09
1.92567e-10
6.19118e-10
0
0
0
7.15345e-09
0
0
0
9.1127e-10
0
5.29417e-09
1.03586e-08
1.0781e-08
1.29065e-08
0
1.40347e-09
1.04363e-08
1.19208e-08
0
9.64401e-09
1.0527e-08
9.74929e-09
8.12922e-09
2.4147e-09
0
8.1849e-09
0
0
0
3.45254e-10
1.12861e-09
8.29445e-11
0
0
1.81627e-09
0
0
0
0
0
0
0
0
5.02141e-10
0
0
0
0
0
0
9.85547e-10
7.14558e-10
0
0
1.15694e-10
0
0
0
)
;
    }
    bottom_fluid_surface
    {
        type            calculated;
        value           uniform 0;
    }
    lateral_surface_1
    {
        type            calculated;
        value           uniform 0;
    }
    lateral_surface_2
    {
        type            calculated;
        value           uniform 0;
    }
    lateral_surface_3
    {
        type            calculated;
        value           uniform 0;
    }
    lateral_surface_4
    {
        type            calculated;
        value           uniform 0;
    }
}


// ************************************************************************* //
