/*--------------------------------*- C++ -*----------------------------------*\
| =========                 |                                                 |
| \\      /  F ield         | OpenFOAM: The Open Source CFD Toolbox           |
|  \\    /   O peration     | Version:  v1612+                                |
|   \\  /    A nd           | Web:      www.OpenFOAM.com                      |
|    \\/     M anipulation  |                                                 |
\*---------------------------------------------------------------------------*/
FoamFile
{
    version     2.0;
    format      ascii;
    class       volScalarField;
    location    "7.9";
    object      alpha.water;
}
// * * * * * * * * * * * * * * * * * * * * * * * * * * * * * * * * * * * * * //

dimensions      [0 0 0 0 0 0 0];

internalField   nonuniform List<scalar> 
320
(
1
1
1
1
1.84154e-05
1.90749e-05
1.91506e-05
2.02951e-05
1.82414e-05
1.84275e-05
1.84144e-05
1.84898e-05
2.01997e-05
1.91919e-05
1.63174e-05
1.85498e-05
0.999978
0.999976
0.999978
0.999982
0.999976
0.999981
0.999977
0.999976
0.999976
0.999981
0.999989
0.999979
1
1
1
1
1
1
1
1
1
1
1
1
1
1
1
1
1
1
1
1
1
1
1
1
1
1
1
1
1.87339e-05
1.96492e-05
1.80407e-05
1.94258e-05
1.68381e-05
1.53217e-05
1.54434e-05
1.48307e-05
1.98962e-05
1.9435e-05
1.56136e-05
1.463e-05
1.78491e-05
1.57169e-05
1.49239e-05
1.54375e-05
1.62083e-05
1.75673e-05
1.91275e-05
1.60156e-05
0.999977
0.999977
0.999988
0.999982
0.999992
0.999992
0.999992
0.999992
0.99998
0.999986
0.999993
0.999992
0.999977
0.999988
0.999991
0.99999
0.999989
0.999985
0.999977
0.999988
1
1
1
1
1
1
1
1
1
1
1
1
1
1
1
1
1
1
1
1
1
1
1
1
1
1
1
1
1
1
1
1
1
1
1
1
1
1
1
1
1
1
1
1
1
1
1
1
1
1
1
1
1
1
1
1
1
1
1
1
1
1
1
1
1
1
1
1
1
1
1
1
1
1
1
1
1.87651e-05
1.93159e-05
2.02069e-05
1.81566e-05
1.80959e-05
1.79326e-05
2.26073e-05
1.893e-05
1.81565e-05
1.95223e-05
1.99087e-05
1.93625e-05
2.16621e-05
1.90199e-05
2.0641e-05
2.12805e-05
1.93984e-05
1.82216e-05
1.8283e-05
1.82874e-05
1.80836e-05
1.85761e-05
2.11367e-05
1.85452e-05
1.83619e-05
1.84451e-05
1.8395e-05
2.05931e-05
0.999983
0.999978
0.999981
0.999989
0.999984
0.999984
0.999978
0.999983
0.999985
0.999978
0.999979
0.999979
0.999977
0.999984
0.999981
0.999977
0.999977
0.999979
0.999982
0.999978
0.999978
0.999978
0.999974
0.999978
0.99998
0.999976
0.99998
0.999973
1
1
1
1
1
1
1
1
1
1
1
1
1
1
1
1
1
1
1
1
1
1
1
1
1
1
1
1
1
1
1
1
1
1
1
1
1
1
1
1
1
1
1
1
1
1
1
1
1
1
1
1
1
1
1
1
1
1
1
1
1
1
1
1
1
1
1
1
1
1
1
1
1
1
1
1
1
1
1
1
1
1
1
1
1.94313e-05
1.91647e-05
1.89465e-05
2.01169e-05
0.999977
0.999974
0.999978
0.999972
)
;

boundaryField
{
    top_fluid_surface
    {
        type            inletOutlet;
        inletValue      uniform 0;
        value           nonuniform List<scalar> 
64
(
0
0
0
0
1.82414e-05
1.84275e-05
1.84144e-05
0
0
0
1.63174e-05
0
0
0
1.80407e-05
0
1.68381e-05
1.53217e-05
1.54434e-05
1.48307e-05
0
1.9435e-05
1.56136e-05
1.463e-05
0
1.57169e-05
1.49239e-05
1.54375e-05
1.62083e-05
1.75673e-05
0
1.60156e-05
0
0
0
1.81566e-05
1.80959e-05
1.79326e-05
0
0
1.81565e-05
0
0
0
0
0
0
0
0
1.82216e-05
0
0
0
0
0
0
1.83619e-05
1.84451e-05
0
0
1.94313e-05
0
0
0
)
;
    }
    bottom_fluid_surface
    {
        type            zeroGradient;
    }
    lateral_surface_1
    {
        type            zeroGradient;
    }
    lateral_surface_2
    {
        type            zeroGradient;
    }
    lateral_surface_3
    {
        type            zeroGradient;
    }
    lateral_surface_4
    {
        type            zeroGradient;
    }
}


// ************************************************************************* //
