/*--------------------------------*- C++ -*----------------------------------*\
| =========                 |                                                 |
| \\      /  F ield         | OpenFOAM: The Open Source CFD Toolbox           |
|  \\    /   O peration     | Version:  v1612+                                |
|   \\  /    A nd           | Web:      www.OpenFOAM.com                      |
|    \\/     M anipulation  |                                                 |
\*---------------------------------------------------------------------------*/
FoamFile
{
    version     2.0;
    format      ascii;
    class       surfaceScalarField;
    location    "2.6";
    object      alphaPhi;
}
// * * * * * * * * * * * * * * * * * * * * * * * * * * * * * * * * * * * * * //

dimensions      [0 3 -1 0 0 0 0];

internalField   nonuniform List<scalar> 
2916
(
-7.67994e-06
0.566511
-0.49401
-3.99271e-06
0.566511
-0.494004
-4.37741e-06
0.56651
-0.493983
-7.56933e-06
0.566513
-0.493983
-2.56721e-06
0.566514
-0.493989
0.566507
-0.493989
-6.68723e-06
1.12518
-0.496354
-4.2652e-06
1.12518
-0.496338
-6.97468e-06
1.12518
-0.496342
-6.57595e-06
1.12518
-0.496342
3.59938e-06
1.12518
-0.496343
1.12518
-0.496345
-6.43058e-06
1.52161
-0.359541
-3.51665e-06
1.52162
-0.359528
-5.68987e-06
1.52162
-0.359528
-5.43372e-06
1.52162
-0.359527
3.79855e-06
1.52162
-0.359531
1.52161
-0.359529
-6.29996e-06
1.8034
-0.257855
-3.99474e-06
1.80341
-0.257859
-6.38583e-06
1.80341
-0.25785
-6.51045e-06
1.8034
-0.257851
1.59379e-06
1.8034
-0.257858
1.80339
-0.257849
-7.03242e-06
2.02657
-0.207334
-5.5093e-06
2.02658
-0.207355
-8.11313e-06
2.02658
-0.207326
-7.66834e-06
2.02658
-0.207326
8.71853e-07
2.02658
-0.207342
2.02656
-0.207328
-8.70369e-06
2.21426
-0.178889
-6.90259e-06
2.21427
-0.178903
-9.03671e-06
2.21426
-0.178871
-8.31503e-06
2.21426
-0.178869
1.83006e-07
2.21426
-0.178896
2.21424
-0.178886
-1.09601e-05
2.36163
-0.14172
-7.52677e-06
2.36164
-0.14173
-8.3731e-06
2.36166
-0.141727
-7.75763e-06
2.36168
-0.141729
-1.82963e-07
2.36168
-0.141736
2.36163
-0.141724
-6.85985e-06
2.44187
-0.0802559
-5.3131e-06
2.44189
-0.0802816
-5.02293e-06
2.44189
-0.0802972
-4.04341e-06
2.44189
-0.0803231
-2.81151e-08
2.4419
-0.0803182
2.44186
-0.0802764
-3.04729e-06
2.25711
0.184758
9.79162e-07
2.25716
0.184727
1.26731e-06
2.25715
0.184725
7.6766e-07
2.25714
0.184694
2.01264e-06
2.25715
0.184659
2.2571
0.184697
-1.4059e-06
1.57296
0.684155
4.91481e-06
1.57302
0.684137
6.87572e-06
1.57301
0.684136
6.09197e-06
1.57301
0.684125
3.40329e-06
1.57302
0.68408
1.57296
0.684058
2.81791e-06
0.565037
1.00793
-2.08976e-06
0.565084
1.00794
2.82253e-06
0.565082
1.00793
5.40619e-06
0.56508
1.00793
1.21234e-06
0.565104
1.00791
0.565037
1.00787
-3.57478e-05
0.536903
-2.64158e-05
0.536904
-1.68072e-05
0.536902
-7.45545e-06
0.536901
1.79291e-05
0.536911
0.536882
2.76416e-06
0.401156
-0.307463
-4.45864e-06
0.401151
-0.307458
-8.95692e-06
0.401155
-0.307457
-6.12579e-06
0.401156
-0.307463
-5.59759e-06
0.401153
-0.307465
0.401155
-0.307459
1.22798e-05
0.558945
-0.010931
-3.42978e-06
0.55895
-0.0109301
-8.15002e-06
0.558947
-0.0109299
-5.32906e-06
0.558947
-0.01093
-1.24664e-05
0.558948
-0.0109299
0.558941
-0.0109309
1.22978e-05
0.867399
-0.000412355
-1.62652e-06
0.867414
-0.00041232
-5.67233e-06
0.867407
-0.00041231
-4.51395e-06
0.867406
-0.00041231
-1.20571e-05
0.867411
-0.000412308
0.867395
-0.000412355
1.33526e-05
1.19337
-3.22165e-05
2.19619e-06
1.1934
-3.22132e-05
-1.4587e-06
1.19339
-3.22111e-05
-2.67137e-06
1.19339
-3.2215e-05
-1.16023e-05
1.1934
-3.22198e-05
1.19337
-3.22201e-05
1.44888e-05
1.37905
-3.98089e-06
7.15786e-06
1.37909
-3.98042e-06
4.74884e-06
1.37908
-3.98014e-06
7.22313e-07
1.37908
-3.98058e-06
-9.59125e-06
1.37909
-3.98111e-06
1.37906
-3.98098e-06
1.45712e-05
1.4981
-5.47092e-07
1.05653e-05
1.49815
-5.47021e-07
1.0251e-05
1.49814
-5.46983e-07
5.60434e-06
1.49813
-5.47047e-07
-3.84535e-06
1.49814
-5.47119e-07
1.49811
-5.47092e-07
1.52321e-05
1.47031
-8.54517e-08
1.38519e-05
1.47036
-8.54397e-08
1.54415e-05
1.47035
-8.54345e-08
1.14172e-05
1.47035
-8.54453e-08
3.19238e-06
1.47036
-8.54563e-08
1.47033
-8.54523e-08
1.38283e-05
1.32555
-1.5298e-08
1.43517e-05
1.32559
-1.52959e-08
1.61852e-05
1.32558
-1.52951e-08
1.31498e-05
1.32558
-1.52972e-08
4.98925e-06
1.32558
-1.52991e-08
1.32558
-1.52987e-08
1.07153e-05
1.25257
0.0117754
7.91037e-06
1.25258
0.0117748
9.03344e-06
1.25258
0.0117748
7.81226e-06
1.25258
0.0117756
2.79738e-08
1.25258
0.0117762
1.25258
0.0117773
1.59126e-05
1.43118
0.136305
6.3495e-06
1.43121
0.136289
5.93586e-06
1.43121
0.136294
3.83324e-06
1.4312
0.136294
-7.58924e-06
1.4312
0.13629
1.43119
0.136297
3.2654e-05
1.21238
0.820073
1.30004e-05
1.2125
0.820011
1.19727e-05
1.21247
0.82003
8.44679e-06
1.21247
0.820026
-7.87838e-06
1.21248
0.820009
1.2124
0.820048
-5.48122e-05
1.64348
-1.52974e-05
1.64351
-9.54901e-07
1.6435
8.03662e-06
1.6435
3.54798e-05
1.64351
1.64344
1.40426e-07
0.0113273
-3.50062e-06
-2.19069e-07
0.0113264
-3.50088e-06
-3.94904e-07
0.0113262
-3.50148e-06
5.88924e-07
0.0113263
-3.50197e-06
1.24012e-06
0.0113261
-3.50248e-06
0.0113273
-3.5016e-06
-5.85427e-09
0.000446345
-4.93474e-05
-6.54567e-09
0.000446307
-4.93476e-05
1.43058e-09
0.000446298
-4.93565e-05
7.54471e-09
0.000446297
-4.9356e-05
2.72149e-09
0.000446294
-4.93595e-05
0.000446345
-4.93576e-05
-2.84633e-10
3.46934e-05
-4.58152e-07
-1.93553e-10
3.46901e-05
-4.58052e-07
1.69196e-10
3.46889e-05
-4.5729e-07
2.96467e-10
3.46896e-05
-4.58383e-07
8.12267e-11
3.46905e-05
-4.59425e-07
3.46936e-05
-4.58735e-07
1.03313e-11
4.13579e-06
-1.21626e-06
4.0443e-11
4.13537e-06
-1.21612e-06
5.98595e-11
4.13509e-06
-1.21588e-06
6.97971e-11
4.13557e-06
-1.21653e-06
6.73006e-11
4.13619e-06
-1.21729e-06
4.13624e-06
-1.2168e-06
7.04148e-12
6.49794e-07
-4.3313e-07
1.64009e-11
6.49715e-07
-4.33006e-07
1.99441e-11
6.4967e-07
-4.32952e-07
1.94055e-11
6.49745e-07
-4.32986e-07
1.72241e-11
6.49832e-07
-4.3299e-07
6.49804e-07
-4.32753e-07
7.6522e-13
1.03338e-07
-6.45074e-10
2.43222e-12
1.03324e-07
-6.40129e-10
2.93388e-12
1.03317e-07
-6.40068e-10
2.70706e-12
1.0333e-07
-6.41392e-10
3.05031e-12
1.03344e-07
-6.41073e-10
1.03339e-07
-6.33961e-10
2.85343e-14
1.78961e-08
-1.02521e-11
3.29238e-13
1.78936e-08
-1.01266e-11
4.08809e-13
1.78928e-08
-1.01367e-11
3.46892e-13
1.78952e-08
-1.01498e-11
4.52704e-13
1.78973e-08
-1.01372e-11
1.7897e-08
-9.96972e-12
1.18388e-14
2.59772e-09
8.51119e-14
2.58966e-14
2.59738e-09
9.06301e-14
1.95656e-14
2.59726e-09
8.83618e-14
2.93855e-15
2.59762e-09
8.96832e-14
-3.29828e-15
2.59788e-09
9.10444e-14
2.59787e-09
9.63664e-14
5.37598e-09
0.011056
0.000745451
-4.4648e-08
0.0110555
0.000745458
-4.80908e-08
0.0110555
0.00074545
-2.8885e-08
0.0110562
0.000745492
-5.62226e-08
0.0110568
0.000745559
0.0110578
0.000745559
5.81528e-08
0.13387
0.0120408
-2.53321e-07
0.133854
0.0120405
-2.11028e-07
0.133859
0.0120407
-2.10974e-07
0.133859
0.0120408
-5.96231e-07
0.133856
0.0120407
0.133864
0.0120408
7.75301e-06
0.35214
0.198279
1.47449e-06
0.352139
0.19829
1.27257e-06
0.352137
0.198289
-1.53679e-07
0.352136
0.198288
-5.73283e-06
0.35213
0.198296
0.352128
0.198281
-1.26468e-05
1.77271
7.20874e-06
1.77271
1.38727e-05
1.77269
2.14787e-05
1.77268
3.82276e-06
1.7727
1.77264
-1.29637e-11
5.41676e-08
-3.24141e-06
-5.48969e-12
5.41596e-08
-3.24171e-06
2.44006e-12
5.41524e-08
-3.24233e-06
8.5721e-12
5.41781e-08
-3.24307e-06
1.51032e-11
5.42278e-08
-3.24325e-06
5.423e-08
-3.24259e-06
-6.79308e-11
4.67881e-08
-4.90462e-05
-2.79158e-11
4.67441e-08
-4.9053e-05
1.39832e-11
4.67324e-08
-4.90558e-05
1.2289e-11
4.67531e-08
-4.90541e-05
1.25993e-11
4.67884e-08
-4.90564e-05
4.67933e-08
-4.90545e-05
-3.87623e-12
-5.40549e-08
-1.57019e-07
4.60365e-13
-5.40579e-08
-1.56976e-07
2.05592e-12
-5.4028e-08
-1.56872e-07
2.5635e-12
-5.41353e-08
-1.57256e-07
4.90158e-12
-5.42606e-08
-1.577e-07
-5.41643e-08
-1.57346e-07
1.65062e-12
-1.69832e-07
-9.12973e-07
1.04602e-11
-1.69769e-07
-9.13185e-07
1.1381e-11
-1.69721e-07
-9.13118e-07
1.02221e-11
-1.69794e-07
-9.13221e-07
1.18231e-11
-1.69856e-07
-9.1324e-07
-1.69643e-07
-9.12975e-07
-7.97043e-12
-2.34214e-09
-1.04815e-06
4.11554e-12
-2.32313e-09
-1.0482e-06
8.11565e-12
-2.32231e-09
-1.04817e-06
1.05077e-11
-2.32783e-09
-1.04813e-06
2.08421e-11
-2.32709e-09
-1.04811e-06
-2.29823e-09
-1.04791e-06
-1.39205e-14
-5.50057e-13
-2.98666e-09
-1.38698e-14
-5.41974e-13
-2.96275e-09
-1.31342e-14
-5.42223e-13
-2.96186e-09
-8.923e-15
-5.43579e-13
-2.9687e-09
3.30468e-15
-5.42936e-13
-2.96766e-09
-5.31476e-13
-2.93169e-09
-4.64756e-17
6.16819e-13
-1.14189e-11
-5.65921e-17
6.5649e-13
-1.1325e-11
-6.40435e-17
6.40458e-13
-1.13194e-11
-5.82054e-17
6.5047e-13
-1.13438e-11
-2.33507e-17
6.6048e-13
-1.13406e-11
6.9881e-13
-1.12e-11
8.41948e-18
-1.27104e-12
-6.30884e-14
7.53434e-17
-1.35138e-12
-6.32865e-14
1.36742e-16
-1.31895e-12
-6.3086e-14
1.84631e-16
-1.33937e-12
-6.32446e-14
4.35629e-16
-1.35954e-12
-6.32099e-14
-1.43837e-12
-6.34519e-14
-5.07795e-10
0.000719866
3.27938e-05
-2.28017e-09
0.000719877
3.27914e-05
-4.40363e-09
0.000719869
3.27925e-05
-7.44338e-09
0.00071991
3.27945e-05
-2.53726e-08
0.000719981
3.28034e-05
0.000719958
3.27848e-05
-1.47726e-08
0.0107697
0.00187943
-2.35483e-08
0.0107694
0.00187951
4.47863e-09
0.0107696
0.00187948
2.60235e-08
0.0107697
0.00187945
-3.35638e-08
0.0107698
0.00187947
0.0107698
0.00187943
1.34043e-06
0.145177
0.0632481
9.49179e-08
0.145192
0.0632461
-1.72355e-08
0.145189
0.0632463
2.51877e-07
0.14519
0.0632443
-5.91148e-07
0.145204
0.0632401
0.145175
0.0632524
1.32959e-05
1.69233
-1.52114e-06
1.6923
4.59419e-05
1.69226
2.95109e-05
1.69228
-0.000157653
1.69232
1.6924
-4.45636e-67
7.28132e-64
-9.44462e-61
-5.06693e-67
7.29447e-64
-9.46234e-61
-5.34393e-67
7.2926e-64
-9.46109e-61
-4.73822e-67
7.29181e-64
-9.46139e-61
-3.03474e-67
7.29322e-64
-9.46473e-61
7.27743e-64
-9.44582e-61
-9.47312e-63
3.53126e-59
-2.33131e-56
-1.55706e-62
3.53596e-59
-2.33437e-56
-2.01617e-62
3.5345e-59
-2.33376e-56
-2.01678e-62
3.53388e-59
-2.33385e-56
-1.3638e-62
3.53454e-59
-2.33493e-56
3.52731e-59
-2.33101e-56
-1.38212e-58
7.01121e-55
-3.08344e-52
-3.59489e-58
7.01216e-55
-3.08345e-52
-5.23815e-58
7.00615e-55
-3.08149e-52
-5.55575e-58
7.00345e-55
-3.0814e-52
-3.98704e-58
7.00429e-55
-3.08328e-52
6.99073e-55
-3.07937e-52
-2.87395e-54
8.41294e-51
-2.72376e-48
-7.0967e-54
8.40108e-51
-2.72035e-48
-9.88204e-54
8.38955e-51
-2.71799e-48
-1.03214e-53
8.38514e-51
-2.71833e-48
-7.52542e-54
8.38744e-51
-2.72135e-48
8.37584e-51
-2.72079e-48
-5.04734e-50
6.63096e-47
-1.67175e-44
-9.47865e-50
6.61493e-47
-1.66995e-44
-1.17816e-49
6.60518e-47
-1.66937e-44
-1.16113e-49
6.60371e-47
-1.67087e-44
-8.28013e-50
6.61e-47
-1.67478e-44
6.60823e-47
-1.6765e-44
-7.54508e-46
5.15526e-43
-2.52167e-40
-1.10252e-45
5.16077e-43
-2.53474e-40
-1.18589e-45
5.1626e-43
-2.54039e-40
-1.06979e-45
5.17891e-43
-2.55678e-40
-7.05596e-46
5.2357e-43
-2.60925e-40
5.16059e-43
-2.53222e-40
-1.37238e-41
6.57731e-39
-4.03726e-36
-1.63705e-41
6.66853e-39
-4.10938e-36
-1.47032e-41
6.70915e-39
-4.1403e-36
-1.11909e-41
6.77004e-39
-4.18313e-36
-6.09874e-42
6.93222e-39
-4.29277e-36
6.69164e-39
-4.12198e-36
-5.1635e-38
2.53501e-35
-1.23282e-32
-4.24179e-38
2.61208e-35
-1.27518e-32
-1.94108e-38
2.64167e-35
-1.29036e-32
1.60756e-39
2.66966e-35
-1.30377e-32
1.07252e-38
2.73169e-35
-1.33314e-32
2.60714e-35
-1.26713e-32
-8.80273e-36
1.30269e-32
-4.52769e-30
1.02016e-35
1.36812e-32
-4.77811e-30
3.19645e-35
1.38325e-32
-4.82796e-30
4.46184e-35
1.38688e-32
-4.82779e-30
3.83996e-35
1.39851e-32
-4.84565e-30
1.30247e-32
-4.47236e-30
2.84879e-37
1.61493e-34
5.17192e-36
7.15562e-37
1.63007e-34
4.96114e-36
1.05494e-36
1.63456e-34
5.02569e-36
1.22923e-36
1.63795e-34
5.20441e-36
9.93381e-37
1.64506e-34
5.66392e-36
1.62712e-34
6.29035e-36
4.29327e-34
8.09053e-32
2.68297e-32
6.42345e-34
8.1082e-32
2.70914e-32
7.34101e-34
8.11184e-32
2.72716e-32
7.18395e-34
8.11905e-32
2.74665e-32
5.26147e-34
8.13659e-32
2.77305e-32
8.15555e-32
2.80699e-32
6.54514e-32
3.87378e-29
4.55165e-32
3.89247e-29
1.57472e-32
3.89487e-29
-7.43068e-33
3.89588e-29
-1.89849e-32
3.89957e-29
3.90025e-29
-5.44076e-64
9.75416e-61
-9.74511e-58
-6.4457e-64
9.7699e-61
-9.76362e-58
-6.42994e-64
9.76646e-61
-9.76231e-58
-5.2038e-64
9.7648e-61
-9.76244e-58
-2.79221e-64
9.76659e-61
-9.7657e-58
9.74542e-61
-9.7459e-58
-2.05404e-59
4.78059e-56
-2.41034e-53
-2.64654e-59
4.78694e-56
-2.41426e-53
-2.71676e-59
4.78468e-56
-2.41376e-53
-2.27192e-59
4.78354e-56
-2.41377e-53
-1.26723e-59
4.78422e-56
-2.4147e-53
4.77415e-56
-2.4103e-53
-5.02393e-55
9.29512e-52
-3.08424e-49
-6.8594e-55
9.30118e-52
-3.0873e-49
-7.12696e-55
9.29421e-52
-3.08606e-49
-6.17582e-55
9.29051e-52
-3.08592e-49
-3.81254e-55
9.29109e-52
-3.08732e-49
9.27195e-52
-3.0825e-49
-7.89973e-51
1.05443e-47
-2.54696e-45
-1.08861e-50
1.0542e-47
-2.54817e-45
-1.1219e-50
1.05308e-47
-2.54695e-45
-9.7549e-51
1.05253e-47
-2.54704e-45
-6.30948e-51
1.05264e-47
-2.54889e-45
1.05077e-47
-2.54646e-45
-7.90115e-47
7.53052e-44
-1.50963e-41
-1.02524e-46
7.52457e-44
-1.51096e-41
-9.99347e-47
7.51597e-44
-1.51065e-41
-8.32116e-47
7.51344e-44
-1.51187e-41
-5.26491e-47
7.51798e-44
-1.5163e-41
7.50615e-44
-1.51071e-41
-1.58198e-42
1.23637e-39
-8.96862e-37
-1.80738e-42
1.23866e-39
-9.01142e-37
-1.54677e-42
1.23855e-39
-9.02074e-37
-1.13418e-42
1.244e-39
-9.07743e-37
-6.16371e-43
1.26669e-39
-9.28873e-37
1.22559e-39
-8.90381e-37
-2.4123e-38
2.15009e-35
-1.36457e-32
-1.77395e-38
2.1681e-35
-1.38056e-32
-5.29842e-39
2.17468e-35
-1.38609e-32
4.59538e-39
2.19097e-35
-1.39728e-32
7.56982e-39
2.24362e-35
-1.43148e-32
2.14982e-35
-1.36791e-32
-6.44354e-36
8.01539e-32
-3.86285e-29
8.17919e-35
8.14396e-32
-3.93747e-29
1.68415e-34
8.18666e-32
-3.95931e-29
2.0874e-34
8.25082e-32
-3.98854e-29
1.70246e-34
8.43624e-32
-4.07308e-29
8.03459e-32
-3.86611e-29
7.97218e-32
5.52742e-29
-1.94304e-26
1.94924e-31
5.65737e-29
-1.99457e-26
2.71724e-31
5.67447e-29
-1.99867e-26
2.8851e-31
5.68501e-29
-1.99836e-26
2.19457e-31
5.75473e-29
-2.01582e-26
5.39809e-29
-1.87889e-26
1.18279e-33
3.06431e-31
5.15103e-32
1.66941e-33
3.0851e-31
5.17311e-32
1.70897e-33
3.09139e-31
5.20793e-32
1.32566e-33
3.10155e-31
5.26319e-32
7.04283e-34
3.12994e-31
5.36744e-32
3.073e-31
5.34367e-32
4.02171e-31
1.03796e-28
8.40019e-29
3.6673e-31
1.04126e-28
8.45844e-29
1.93531e-31
1.04395e-28
8.48803e-29
8.68923e-33
1.04765e-28
8.51667e-29
-9.72755e-32
1.05285e-28
8.55573e-29
1.05786e-28
8.59463e-29
-1.14014e-28
6.91633e-26
-2.33361e-28
6.94523e-26
-3.17118e-28
6.95161e-26
-3.30657e-28
6.95518e-26
-2.53156e-28
6.96229e-26
6.95591e-26
-1.64767e-61
4.89324e-58
-3.51532e-55
-2.12352e-61
4.90165e-58
-3.52212e-55
-2.02796e-61
4.90044e-58
-3.52171e-55
-1.44837e-61
4.9001e-58
-3.52179e-55
-5.83593e-62
4.90157e-58
-3.52298e-55
4.89164e-58
-3.51576e-55
-7.55378e-57
2.40797e-53
-8.61572e-51
-9.16369e-57
2.41177e-53
-8.63128e-51
-8.23288e-57
2.41105e-53
-8.63e-51
-5.57885e-57
2.41082e-53
-8.6302e-51
-2.05743e-57
2.41153e-53
-8.63335e-51
2.40686e-53
-8.61694e-51
-1.87667e-52
4.55203e-49
-1.05248e-46
-2.19165e-52
4.55761e-49
-1.05407e-46
-1.89122e-52
4.55569e-49
-1.05382e-46
-1.27285e-52
4.55498e-49
-1.05382e-46
-5.2566e-53
4.55625e-49
-1.05425e-46
4.54789e-49
-1.05242e-46
-2.61642e-48
4.91813e-45
-8.06532e-43
-2.8789e-48
4.92191e-45
-8.076e-43
-2.31442e-48
4.91923e-45
-8.07409e-43
-1.43704e-48
4.91841e-45
-8.07459e-43
-5.52397e-49
4.92016e-45
-8.079e-43
4.91244e-45
-8.06768e-43
-2.23407e-44
3.62419e-41
-8.38516e-39
-2.05737e-44
3.62582e-41
-8.3975e-39
-1.25901e-44
3.62351e-41
-8.38967e-39
-4.25741e-45
3.62469e-41
-8.41044e-39
7.88261e-46
3.63294e-41
-8.51133e-39
3.61591e-41
-8.29397e-39
-1.32523e-39
2.64612e-36
-1.89717e-33
-5.63073e-40
2.65155e-36
-1.9039e-33
4.6806e-40
2.65064e-36
-1.90377e-33
1.19691e-39
2.66467e-36
-1.91463e-33
1.21691e-39
2.72421e-36
-1.9589e-33
2.60849e-36
-1.86919e-33
3.08017e-36
4.94707e-32
-2.34589e-29
3.62198e-35
4.97147e-32
-2.36149e-29
6.55716e-35
4.97753e-32
-2.36456e-29
7.73472e-35
5.01063e-32
-2.37994e-29
6.15902e-35
5.12993e-32
-2.43497e-29
4.90211e-32
-2.32116e-29
2.22486e-31
1.69392e-28
-5.40715e-26
4.18504e-31
1.70755e-28
-5.45892e-26
5.28846e-31
1.71116e-28
-5.46784e-26
5.27252e-31
1.72293e-28
-5.50079e-26
3.78472e-31
1.76221e-28
-5.61654e-26
1.67934e-28
-5.33483e-26
3.88013e-28
1.24823e-25
-2.7419e-23
5.30713e-28
1.25882e-25
-2.76542e-23
5.41731e-28
1.25933e-25
-2.7615e-23
4.50253e-28
1.26519e-25
-2.76827e-23
2.65667e-28
1.28939e-25
-2.81162e-23
1.22267e-25
-2.6537e-23
1.97809e-26
6.63005e-24
6.35494e-26
2.4425e-26
6.66825e-24
6.62189e-26
2.16001e-26
6.56909e-24
7.24245e-26
1.50172e-26
6.46535e-24
8.05534e-26
6.91912e-27
6.40256e-24
9.16751e-26
5.90328e-24
9.8226e-26
3.05052e-28
2.47922e-25
1.31106e-25
1.53793e-29
2.48982e-25
1.32476e-25
-3.43514e-28
2.48785e-25
1.32707e-25
-5.60996e-28
2.48548e-25
1.32763e-25
-4.93582e-28
2.48789e-25
1.33097e-25
2.4548e-25
1.31642e-25
-1.18156e-25
6.13935e-23
-1.88615e-25
6.15766e-23
-2.2182e-25
6.1602e-23
-1.97291e-25
6.15864e-23
-1.0638e-25
6.15786e-23
6.14985e-23
-2.24683e-59
1.09496e-55
-4.52433e-53
-2.80315e-59
1.09683e-55
-4.53316e-53
-2.17388e-59
1.09664e-55
-4.53268e-53
-1.00404e-59
1.09666e-55
-4.5328e-53
8.89596e-61
1.09709e-55
-4.53434e-53
1.09492e-55
-4.52497e-53
-1.15986e-54
5.36037e-51
-1.08152e-48
-1.06906e-54
5.36921e-51
-1.08358e-48
-5.15405e-55
5.3682e-51
-1.08346e-48
7.63165e-56
5.36838e-51
-1.08349e-48
4.13654e-55
5.37058e-51
-1.08387e-48
5.36054e-51
-1.08175e-48
-2.50745e-50
9.73248e-47
-1.23598e-44
-1.6728e-50
9.74683e-47
-1.23817e-44
-1.37944e-51
9.74482e-47
-1.23799e-44
1.15922e-50
9.74525e-47
-1.23802e-44
1.47498e-50
9.74949e-47
-1.23846e-44
9.73229e-47
-1.23615e-44
-1.96658e-46
9.80874e-43
-8.55973e-41
-3.07015e-47
9.8213e-43
-8.5743e-41
1.85062e-46
9.8194e-43
-8.57324e-41
3.28788e-46
9.82041e-43
-8.57373e-41
3.0522e-46
9.82552e-43
-8.57727e-41
9.81004e-43
-8.56251e-41
6.31618e-43
1.24973e-38
-9.57252e-36
4.44206e-42
1.25094e-38
-9.5848e-36
7.85116e-42
1.24961e-38
-9.56676e-36
9.30475e-42
1.25262e-38
-9.60623e-36
7.47067e-42
1.26746e-38
-9.80885e-36
1.23467e-38
-9.35021e-36
1.86087e-36
3.31866e-33
-2.27063e-30
3.52588e-36
3.32451e-33
-2.27588e-30
4.48578e-36
3.32217e-33
-2.27382e-30
4.53287e-36
3.34012e-33
-2.28576e-30
3.31287e-36
3.41669e-33
-2.33719e-30
3.25976e-33
-2.22647e-30
6.29852e-32
5.15129e-29
-2.08725e-26
9.51375e-32
5.16627e-29
-2.09409e-26
1.05515e-31
5.16589e-29
-2.09303e-26
9.68603e-32
5.19693e-29
-2.10483e-26
6.57197e-32
5.31771e-29
-2.15185e-26
5.07355e-29
-2.0495e-26
2.87849e-28
1.9494e-25
-4.32566e-23
3.85617e-28
1.95711e-25
-4.3418e-23
3.83319e-28
1.9571e-25
-4.3384e-23
3.18666e-28
1.96892e-25
-4.36218e-23
1.95163e-28
2.01343e-25
-4.45532e-23
1.91907e-25
-4.23947e-23
2.01381e-25
1.96303e-22
-2.18974e-20
2.16439e-25
1.97108e-22
-2.19632e-20
1.6079e-25
1.96916e-22
-2.19183e-20
9.3131e-26
1.97922e-22
-2.20196e-20
2.56743e-26
2.02025e-22
-2.24478e-20
1.92179e-22
-2.13366e-20
4.28774e-24
4.92885e-20
-2.82141e-18
-2.88486e-23
4.93175e-20
-2.80909e-18
-6.22368e-23
4.90726e-20
-2.78935e-18
-7.34075e-23
4.89467e-20
-2.76866e-18
-6.50252e-23
4.92383e-20
-2.7489e-18
4.7339e-20
-2.69934e-18
-1.61198e-24
4.45881e-22
5.957e-21
-2.46002e-24
4.47205e-22
5.97035e-21
-2.81457e-24
4.45776e-22
5.95654e-21
-2.48318e-24
4.45095e-22
5.95783e-21
-1.84951e-24
4.53363e-22
2.64632e-22
4.33014e-22
5.77804e-21
-1.41079e-25
5.4682e-22
-1.54123e-25
5.34755e-22
-1.59808e-25
5.46578e-22
-9.0058e-26
5.46481e-22
-1.9892e-25
5.62467e-22
5.28957e-22
-2.51858e-11
-1.89957e-06
5.78435e-08
1.7482e-11
-1.89969e-06
5.77414e-08
2.18781e-11
-1.90013e-06
5.77043e-08
2.33266e-11
-1.90064e-06
5.76662e-08
5.90325e-11
-1.90076e-06
5.76855e-08
-1.90042e-06
5.77957e-08
1.31976e-11
2.14686e-14
1.53436e-07
8.20443e-12
2.35163e-14
1.53399e-07
-2.56635e-12
2.41382e-14
1.53406e-07
-1.06255e-11
2.36012e-14
1.53404e-07
-1.10868e-11
2.34621e-14
1.53372e-07
2.40217e-14
1.53376e-07
-2.23128e-19
-1.66679e-16
-1.09463e-19
-1.82548e-16
-6.91142e-21
-1.87371e-16
7.96617e-20
-1.83227e-16
2.17753e-19
-1.82159e-16
-1.86451e-16
-2.66027e-10
-3.81101e-05
-4.79747e-07
-8.04449e-11
-3.81051e-05
-4.79578e-07
2.89665e-11
-3.80946e-05
-4.79664e-07
6.44114e-11
-3.80902e-05
-4.79868e-07
1.71598e-10
-3.80923e-05
-4.80033e-07
-3.809e-05
-4.80199e-07
3.46228e-11
1.3602e-13
-5.96969e-09
-9.36598e-11
1.48985e-13
-5.94628e-09
-1.71063e-10
1.52933e-13
-5.95916e-09
-1.65843e-10
1.4953e-13
-5.96928e-09
-1.88066e-10
1.48648e-13
-5.96938e-09
1.52206e-13
-6.00453e-09
-1.26136e-18
-4.17335e-16
-8.02866e-19
-4.57124e-16
-3.35396e-19
-4.69233e-16
1.4357e-19
-4.58822e-16
1.07103e-18
-4.56127e-16
-4.66892e-16
1.31715e-12
-1.25416e-07
-3.46522e-07
1.66306e-13
-1.25389e-07
-3.46545e-07
-1.15958e-12
-1.25303e-07
-3.46565e-07
-2.09717e-12
-1.25614e-07
-3.4646e-07
-1.84578e-12
-1.25975e-07
-3.46325e-07
-1.25667e-07
-3.46717e-07
6.33095e-13
7.65343e-13
-1.41812e-09
1.9543e-15
8.38319e-13
-1.41741e-09
-2.38014e-13
8.60515e-13
-1.41783e-09
-6.67072e-13
8.41371e-13
-1.41363e-09
-1.8505e-12
8.36421e-13
-1.41044e-09
8.56376e-13
-1.41749e-09
-7.9244e-18
-2.29102e-14
-5.99335e-18
-2.5095e-14
-3.82074e-18
-2.57599e-14
-1.75874e-19
-2.51872e-14
7.51397e-18
-2.50393e-14
-2.56356e-14
-9.2904e-13
-1.16252e-06
-1.64472e-07
-1.98326e-11
-1.16203e-06
-1.6447e-07
-3.14219e-11
-1.16211e-06
-1.64479e-07
-3.41111e-11
-1.16136e-06
-1.64498e-07
-2.33663e-11
-1.16086e-06
-1.6451e-07
-1.16323e-06
-1.64622e-07
7.75116e-12
7.25454e-13
-6.44955e-09
3.3633e-12
7.94589e-13
-6.44102e-09
-4.76018e-13
8.15601e-13
-6.44183e-09
-4.82251e-12
7.9744e-13
-6.44073e-09
-1.23056e-11
7.92746e-13
-6.44044e-09
8.11613e-13
-6.44913e-09
-8.75839e-18
-6.09814e-15
-6.47402e-18
-6.67877e-15
-4.1555e-18
-6.85516e-15
-3.01057e-19
-6.70224e-15
8.47418e-18
-6.66243e-15
-6.82141e-15
-2.29144e-11
-7.8465e-07
-5.80872e-11
-4.71487e-11
-7.84702e-07
-5.8545e-11
-5.23198e-11
-7.84693e-07
-5.87931e-11
-4.59816e-11
-7.84689e-07
-5.92106e-11
-2.7366e-11
-7.84693e-07
-5.95309e-11
-7.84613e-07
-6.00215e-11
1.24826e-11
8.15388e-15
-1.82487e-09
2.87995e-12
8.94945e-15
-1.82354e-09
-5.42079e-12
9.20925e-15
-1.82328e-09
-1.07617e-11
8.99786e-15
-1.82231e-09
-1.94256e-11
8.93455e-15
-1.82228e-09
8.91112e-15
-1.82224e-09
-7.74188e-20
-1.66453e-19
-4.05227e-20
-1.66257e-19
-1.42675e-20
-1.66405e-19
2.49503e-20
-1.66547e-19
1.25652e-19
-1.66718e-19
-1.6682e-19
-4.81141e-14
-5.28595e-09
1.09983e-11
-9.78805e-14
-5.2874e-09
1.09132e-11
-1.20078e-13
-5.28706e-09
1.09027e-11
-1.17949e-13
-5.28546e-09
1.09299e-11
-1.34437e-13
-5.28134e-09
1.09286e-11
-5.27995e-09
1.07933e-11
8.97492e-14
-4.0187e-16
-9.75527e-14
3.60876e-14
-4.01363e-16
-9.74583e-14
7.42778e-15
-4.01675e-16
-9.75775e-14
-2.60059e-14
-4.01975e-16
-9.7633e-14
-7.54525e-14
-4.02338e-16
-9.78812e-14
-4.02594e-16
-9.76458e-14
6.99266e-23
-4.02028e-16
-6.98104e-23
-4.01521e-16
-1.2687e-22
-4.01833e-16
-1.56793e-22
-4.02134e-16
-2.3686e-22
-4.02496e-16
-4.02752e-16
-5.29702e-16
-8.24224e-15
4.14143e-13
-5.36515e-16
-8.23892e-15
4.08842e-13
-5.88452e-16
-8.24388e-15
4.09194e-13
-3.71987e-16
-8.24888e-15
4.09657e-13
-2.01284e-16
-8.26169e-15
4.09287e-13
-8.25514e-15
4.03546e-13
-1.18299e-19
-9.57102e-15
-2.10423e-14
-2.17203e-19
-9.55828e-15
-2.10684e-14
-1.61828e-19
-9.56625e-15
-2.10942e-14
-5.75886e-20
-9.57161e-15
-2.11086e-14
2.79373e-19
-9.58154e-15
-2.11461e-14
-9.58189e-15
-2.10365e-14
2.15244e-20
-1.00239e-14
-5.95537e-20
-1.00117e-14
-1.17528e-19
-1.00195e-14
-1.56426e-19
-1.00256e-14
-1.39679e-19
-1.00356e-14
-1.00382e-14
-6.8974e-19
-1.04406e-12
1.16394e-12
-5.35368e-19
-1.04153e-12
1.16748e-12
-1.00671e-18
-1.04263e-12
1.16385e-12
-8.152e-19
-1.04272e-12
1.1668e-12
-3.0346e-18
-1.04102e-12
1.16615e-12
-1.04139e-12
1.17053e-12
-7.99287e-18
-3.83617e-12
7.60372e-12
-1.05462e-17
-3.83195e-12
7.60376e-12
-1.8751e-17
-3.83447e-12
7.5977e-12
-3.95886e-18
-3.83679e-12
7.60541e-12
3.13334e-17
-3.8389e-12
7.56083e-12
-3.84152e-12
7.61822e-12
-2.05645e-17
-3.84825e-12
-1.02018e-16
-3.84397e-12
-1.57296e-16
-3.84652e-12
-1.52454e-16
-3.84891e-12
-4.34276e-17
-3.85113e-12
-3.85369e-12
1.54136e-10
-3.54458e-10
3.2931e-05
8.98785e-11
-3.54066e-10
3.29289e-05
-1.22573e-11
-3.54214e-10
3.29301e-05
-1.87689e-10
-3.54415e-10
3.2932e-05
-8.60645e-10
-3.54278e-10
3.29414e-05
-3.55428e-10
3.29215e-05
1.55331e-14
-2.74671e-09
2.38889e-09
2.76923e-15
-2.74416e-09
2.38678e-09
-2.65324e-15
-2.74522e-09
2.3877e-09
-1.78822e-15
-2.74592e-09
2.38819e-09
-1.93051e-15
-2.74548e-09
2.38783e-09
-2.75072e-09
2.392e-09
1.1268e-13
-2.96142e-09
-7.45335e-14
-2.9587e-09
-1.54484e-13
-2.9598e-09
-1.44888e-13
-2.96045e-09
-6.87714e-14
-2.96011e-09
-2.96501e-09
8.76908e-09
0.000154222
0.00175433
-2.45757e-08
0.000154265
0.00175441
-2.85848e-08
0.000154245
0.00175437
-2.41775e-08
0.000154228
0.00175435
-7.53939e-08
0.000154225
0.00175444
0.000154233
0.00175425
5.01867e-09
4.78251e-06
0.000149568
-1.06477e-09
4.78578e-06
0.000149618
-3.25436e-09
4.78504e-06
0.000149595
-4.76508e-09
4.78525e-06
0.000149577
-1.39287e-08
4.78324e-06
0.000149585
4.78711e-06
0.000149564
2.40091e-10
4.67762e-06
8.44589e-11
4.68105e-06
4.35261e-11
4.68027e-06
-3.27288e-11
4.68069e-06
-1.87171e-10
4.6786e-06
4.68276e-06
4.77941e-07
0.00682828
0.0581241
-4.1148e-07
0.00682984
0.058122
-3.78461e-07
0.00682919
0.0581219
-2.42363e-07
0.00682647
0.0581225
-1.21686e-06
0.00682345
0.0581225
0.00683202
0.0581239
1.68289e-07
0.000400456
0.0065744
-7.67504e-09
0.000401044
0.00657575
-3.10303e-08
0.000400812
0.00657516
-9.61681e-08
0.000400765
0.00657252
-2.32134e-07
0.000400383
0.00656998
0.000401256
0.00657727
1.71807e-08
0.000371071
7.66834e-09
0.000371664
5.40663e-09
0.000371434
1.03862e-09
0.000371395
9.92731e-09
0.000371003
0.000371888
0.000116129
0.338637
1.28527
1.10874e-05
0.338709
1.28537
-9.05529e-05
0.338742
1.28526
4.08283e-05
0.338365
1.28565
0.000169221
0.337542
1.28739
0.339597
1.28421
3.11663e-05
0.0159697
0.300658
-3.16937e-06
0.0160065
0.300912
-1.11943e-05
0.015993
0.300805
2.61164e-06
0.0159915
0.300468
-1.94046e-05
0.0159664
0.300203
0.016027
0.300814
4.65204e-06
0.0109913
7.01519e-07
0.0110206
-9.10894e-07
0.0110094
-2.11246e-07
0.0110133
7.36158e-06
0.0109952
0.0110336
1.37457e-17
1.57462e-13
1.82109e-11
-2.49188e-13
-9.23456e-17
1.58944e-13
1.83806e-11
-2.50436e-13
-1.3093e-16
1.55446e-13
1.80864e-11
-2.45184e-13
-1.89617e-16
1.58911e-13
1.86752e-11
-2.49928e-13
-1.21709e-15
2.04959e-13
1.21785e-11
-4.16493e-13
1.35305e-13
1.61028e-11
-2.13683e-13
4.16726e-14
1.4792e-11
6.42067e-09
-6.82588e-09
4.3806e-15
1.65531e-11
6.99668e-09
-7.19969e-09
1.08213e-13
1.35317e-11
6.00524e-09
-5.9863e-09
-5.72366e-16
1.40527e-11
6.11002e-09
-6.09115e-09
-6.90789e-13
1.96089e-11
7.6839e-09
-7.65246e-09
1.19189e-11
5.63543e-09
-5.6189e-09
-1.3134e-09
-3.22478e-06
-3.10862e-24
-1.88633e-09
-3.24833e-06
-6.25316e-24
-7.34629e-10
-3.22446e-06
-3.04739e-24
-1.81803e-09
-3.30045e-06
-3.39287e-24
-2.07374e-08
-3.43895e-06
-2.62329e-21
-3.10387e-06
-3.3469e-24
-5.764e-11
5.53883e-07
-5.53797e-07
-6.93974e-11
5.51616e-07
-5.51577e-07
-2.14416e-10
5.5525e-07
-5.55082e-07
-7.32258e-11
5.53595e-07
-5.5371e-07
4.61376e-10
5.41611e-07
-5.42134e-07
5.67794e-07
-5.67293e-07
2.17677e-08
0.000133533
-0.000132994
-8.98735e-09
0.000133253
-0.000132664
3.21184e-08
0.000133614
-0.000133094
-6.27338e-10
0.000134045
-0.000133452
-2.87896e-07
0.00013355
-0.000132713
0.000134185
-0.000133899
6.42675e-07
-0.00199858
3.00458e-07
-0.00200163
1.99561e-06
-0.00200201
-1.92287e-08
-0.00200617
-1.12011e-05
-0.00201378
-0.0019987
-3.41735e-09
6.60168e-05
-6.69889e-05
-1.88071e-08
6.59258e-05
-6.68831e-05
-5.2198e-08
6.58369e-05
-6.67859e-05
8.79557e-09
6.59488e-05
-6.69817e-05
-1.00998e-08
6.6926e-05
-6.78431e-05
6.47422e-05
-6.5781e-05
-1.06263e-06
0.0143642
-0.0144796
-6.69128e-07
0.0143686
-0.0144851
-2.77065e-06
0.0143744
-0.01449
2.33694e-07
0.0144146
-0.0145347
1.14773e-05
0.014434
-0.0145661
0.0143862
-0.0144987
7.42477e-06
-0.104468
5.69876e-06
-0.104535
2.20045e-05
-0.104563
4.22036e-07
-0.10479
-9.36672e-05
-0.1048
-0.104776
4.53852e-08
-0.0094166
-0.00399174
3.63955e-07
-0.00942885
-0.00397665
1.43183e-07
-0.00945129
-0.00395321
-5.95476e-07
-0.00939481
-0.00404427
2.98268e-06
-0.00926154
-0.00419731
-0.00971621
-0.00371709
1.96472e-05
0.187218
-0.439407
2.8411e-05
0.187369
-0.439626
1.97003e-05
0.187393
-0.439141
1.03815e-05
0.187771
-0.439199
4.03472e-05
0.187694
-0.44112
0.187826
-0.435318
3.33812e-05
-0.132555
2.11974e-05
-0.132842
4.169e-05
-0.132648
7.27884e-06
-0.132782
-0.000146904
-0.133248
-0.131929
1.85532e-05
0.208959
-0.615579
4.31321e-05
0.20902
-0.615516
0.000192902
0.208884
-0.6154
-2.82094e-05
0.209087
-0.615931
-0.000412085
0.209939
-0.617762
0.207861
-0.614026
0.000114689
0.135662
-0.757858
9.75007e-05
0.135949
-0.758063
0.000174132
0.135742
-0.757514
1.85729e-05
0.135875
-0.757842
-0.000188958
0.136365
-0.760239
0.134873
-0.753541
6.23057e-06
-0.0166301
2.12559e-06
-0.0167091
2.97012e-06
-0.0166599
4.91083e-07
-0.0166634
-2.23941e-05
-0.0167078
-0.0165616
6.66866e-05
0.58535
4.24447e-05
0.585604
0.000226315
0.585374
4.51908e-05
0.585661
-0.0012129
0.586757
0.584393
9.67676e-05
0.00564325
5.47983e-05
0.00568277
0.000122006
0.0056497
4.93163e-06
0.00565088
-0.000105946
0.00570562
0.00553624
4.48739e-06
-1.25268e-06
-2.03242e-06
-1.3062e-06
-8.24843e-06
-5.90466e-59
-9.15455e-55
7.88953e-54
-6.13391e-58
-9.17361e-55
7.9047e-54
-5.13604e-58
-9.17345e-55
7.90418e-54
-8.72379e-59
-9.1738e-55
7.90482e-54
1.74474e-58
-9.17637e-55
7.9081e-54
-9.15664e-55
7.89212e-54
2.49474e-60
-4.0058e-58
8.62885e-56
-5.07883e-60
-4.0146e-58
8.64674e-56
-5.74735e-60
-4.01448e-58
8.64696e-56
-3.54164e-60
-4.01465e-58
8.64764e-56
-2.32741e-60
-4.01586e-58
8.65049e-56
-4.00688e-58
8.63207e-56
-1.11902e-63
1.1044e-59
-2.24839e-63
1.10684e-59
-1.93678e-63
1.10686e-59
-1.42048e-63
1.10696e-59
-1.08007e-63
1.10733e-59
1.10485e-59
-1.8662e-53
-4.45005e-50
3.75028e-49
-4.51918e-54
-4.45906e-50
3.75761e-49
2.48699e-53
-4.45903e-50
3.75746e-49
4.56975e-53
-4.4592e-50
3.75788e-49
4.44387e-53
-4.46038e-50
3.75944e-49
-4.45133e-50
3.75218e-49
1.7491e-55
-2.24679e-53
8.32121e-51
2.29162e-55
-2.25157e-53
8.33818e-51
4.53178e-55