/*--------------------------------*- C++ -*----------------------------------*\
| =========                 |                                                 |
| \\      /  F ield         | OpenFOAM: The Open Source CFD Toolbox           |
|  \\    /   O peration     | Version:  v1612+                                |
|   \\  /    A nd           | Web:      www.OpenFOAM.com                      |
|    \\/     M anipulation  |                                                 |
\*---------------------------------------------------------------------------*/
FoamFile
{
    version     2.0;
    format      ascii;
    class       volScalarField;
    location    "5.85";
    object      alpha.water;
}
// * * * * * * * * * * * * * * * * * * * * * * * * * * * * * * * * * * * * * //

dimensions      [0 0 0 0 0 0 0];

internalField   nonuniform List<scalar> 
320
(
1
1
1
1
1.47192e-05
1.38914e-05
1.38972e-05
1.36392e-05
1.40634e-05
1.45722e-05
1.49723e-05
1.48741e-05
1.36177e-05
1.42851e-05
1.21794e-05
1.41238e-05
0.999985
0.999987
0.999989
0.999984
0.999983
0.999982
0.999982
0.999982
0.999984
0.999983
0.999993
0.999982
1
1
1
1
1
1
1
1
1
1
1
1
1
1
1
1
1
1
1
1
1
1
1
1
1
1
1
1
1.45488e-05
1.55895e-05
1.38128e-05
1.38739e-05
1.25328e-05
1.0771e-05
1.18149e-05
1.06236e-05
1.42074e-05
1.41355e-05
1.27976e-05
1.23454e-05
1.45975e-05
1.3263e-05
1.38414e-05
1.20098e-05
1.19712e-05
1.48274e-05
1.45292e-05
1.34356e-05
0.999987
0.999981
0.999988
0.999985
0.999993
0.999994
0.999993
0.999993
0.999981
0.999989
0.999993
0.999994
0.999982
0.999993
0.999992
0.999992
0.999992
0.999985
0.999986
0.999991
1
1
1
1
1
1
1
1
1
1
1
1
1
1
1
1
1
1
1
1
1
1
1
1
1
1
1
1
1
1
1
1
1
1
1
1
1
1
1
1
1
1
1
1
1
1
1
1
1
1
1
1
1
1
1
1
1
1
1
1
1
1
1
1
1
1
1
1
1
1
1
1
1
1
1
1
1.53497e-05
1.65806e-05
1.56574e-05
1.29173e-05
1.32282e-05
1.32245e-05
1.7207e-05
1.53473e-05
1.22264e-05
1.48639e-05
1.39669e-05
1.53868e-05
1.51059e-05
1.4915e-05
1.57631e-05
1.53886e-05
1.62634e-05
1.48276e-05
1.49404e-05
1.73276e-05
1.73898e-05
1.52247e-05
1.22826e-05
1.46409e-05
1.51466e-05
1.55667e-05
1.42491e-05
1.47243e-05
0.999983
0.999984
0.999985
0.999991
0.999985
0.999984
0.999982
0.999983
0.999986
0.999977
0.999979
0.999985
0.999979
0.999986
0.999986
0.999987
0.999982
0.999983
0.999985
0.999981
0.999982
0.999987
0.999989
0.999986
0.99999
0.999988
0.999982
0.999975
1
1
1
1
1
1
1
1
1
1
1
1
1
1
1
1
1
1
1
1
1
1
1
1
1
1
1
1
1
1
1
1
1
1
1
1
1
1
1
1
1
1
1
1
1
1
1
1
1
1
1
1
1
1
1
1
1
1
1
1
1
1
1
1
1
1
1
1
1
1
1
1
1
1
1
1
1
1
1
1
1
1
1
1
1.51953e-05
1.29578e-05
1.31215e-05
1.29175e-05
0.99998
0.999984
0.999984
0.999989
)
;

boundaryField
{
    top_fluid_surface
    {
        type            inletOutlet;
        inletValue      uniform 0;
        value           nonuniform List<scalar> 
64
(
0
0
0
1.36392e-05
0
0
0
1.48741e-05
1.36177e-05
0
1.21794e-05
0
0
0
1.38128e-05
0
1.25328e-05
1.0771e-05
1.18149e-05
1.06236e-05
0
1.41355e-05
1.27976e-05
1.23454e-05
0
1.3263e-05
1.38414e-05
1.20098e-05
1.19712e-05
0
0
1.34356e-05
0
0
0
1.29173e-05
1.32282e-05
1.32245e-05
0
0
1.22264e-05
0
0
0
0
0
0
0
0
0
0
0
0
0
1.22826e-05
0
1.51466e-05
0
0
0
0
1.29578e-05
1.31215e-05
1.29175e-05
)
;
    }
    bottom_fluid_surface
    {
        type            zeroGradient;
    }
    lateral_surface_1
    {
        type            zeroGradient;
    }
    lateral_surface_2
    {
        type            zeroGradient;
    }
    lateral_surface_3
    {
        type            zeroGradient;
    }
    lateral_surface_4
    {
        type            zeroGradient;
    }
}


// ************************************************************************* //
