/*--------------------------------*- C++ -*----------------------------------*\
| =========                 |                                                 |
| \\      /  F ield         | OpenFOAM: The Open Source CFD Toolbox           |
|  \\    /   O peration     | Version:  v1612+                                |
|   \\  /    A nd           | Web:      www.OpenFOAM.com                      |
|    \\/     M anipulation  |                                                 |
\*---------------------------------------------------------------------------*/
FoamFile
{
    version     2.0;
    format      ascii;
    class       volScalarField;
    location    "5.85";
    object      p;
}
// * * * * * * * * * * * * * * * * * * * * * * * * * * * * * * * * * * * * * //

dimensions      [1 -1 -2 0 0 0 0];

internalField   nonuniform List<scalar> 
320
(
14724.8
14724.8
14724.8
14724.8
4.97528
4.97341
4.97309
4.97305
4.97317
4.97408
4.97366
4.97213
4.97502
4.9754
4.97524
4.97727
4914.88
4914.88
4914.89
4914.83
4914.86
4914.87
4914.88
4914.79
4914.83
4914.87
4914.85
4914.89
14724.8
14724.8
14724.8
14724.8
14724.8
14724.8
14724.8
14724.8
14724.8
14724.8
14724.8
14724.8
24534.8
24534.8
24534.8
24534.8
24534.8
24534.8
24534.8
24534.8
24534.8
24534.8
24534.8
24534.8
24534.8
24534.8
24534.8
24534.8
4.97487
4.97482
4.97383
4.97345
4.97235
4.97261
4.97272
4.97353
4.97452
4.97486
4.97467
4.97511
4.97435
4.97405
4.97512
4.97538
4.97522
4.97451
4.97518
4.97576
4914.89
4914.87
4914.85
4914.88
4914.86
4914.84
4914.84
4914.83
4914.86
4914.86
4914.86
4914.86
4914.87
4914.87
4914.87
4914.85
4914.84
4914.89
4914.89
4914.86
14724.8
14724.8
14724.8
14724.8
14724.8
14724.8
14724.8
14724.8
14724.8
14724.8
14724.8
14724.8
14724.8
14724.8
14724.8
14724.8
14724.8
14724.8
14724.8
14724.8
24534.8
24534.8
24534.8
24534.8
24534.8
24534.8
24534.8
24534.8
24534.8
24534.8
24534.8
24534.8
24534.8
24534.8
24534.8
24534.8
24534.8
24534.8
24534.8
24534.8
34344.8
34344.8
34344.8
34344.8
34344.8
34344.8
34344.8
34344.8
34344.8
34344.8
34344.8
34344.8
34344.8
34344.8
34344.8
34344.8
34344.8
34344.8
34344.8
34344.8
34344.8
34344.8
34344.8
34344.8
34344.8
34344.8
34344.8
34344.8
34344.8
34344.8
34344.8
34344.8
34344.8
34344.8
34344.8
34344.8
4.9771
4.97667
4.9746
4.97486
4.97304
4.97191
4.97352
4.97358
4.9731
4.97328
4.97422
4.9749
4.97657
4.97484
4.97474
4.97569
4.97647
4.9758
4.97378
4.97433
4.97567
4.97653
4.97484
4.97493
4.9711
4.97702
4.97588
4.97584
4914.88
4914.91
4914.9
4914.86
4914.83
4914.82
4914.91
4914.89
4914.82
4914.85
4914.85
4914.89
4914.86
4914.89
4914.9
4914.9
4914.89
4914.88
4914.88
4914.9
4914.9
4914.9
4914.83
4914.88
4914.84
4914.91
4914.86
4914.83
14724.8
14724.8
14724.8
14724.8
14724.8
14724.8
14724.8
14724.8
14724.8
14724.8
14724.8
14724.8
14724.8
14724.8
14724.8
14724.8
14724.8
14724.8
14724.8
14724.8
14724.8
14724.8
14724.8
14724.8
14724.8
14724.8
14724.8
14724.8
24534.8
24534.8
24534.8
24534.8
24534.8
24534.8
24534.8
24534.8
24534.8
24534.8
24534.8
24534.8
24534.8
24534.8
24534.8
24534.8
24534.8
24534.8
24534.8
24534.8
24534.8
24534.8
24534.8
24534.8
24534.8
24534.8
24534.8
24534.8
34344.8
34344.8
34344.8
34344.8
34344.8
34344.8
34344.8
34344.8
34344.8
34344.8
34344.8
34344.8
34344.8
34344.8
34344.8
34344.8
34344.8
34344.8
34344.8
34344.8
34344.8
34344.8
34344.8
34344.8
34344.8
34344.8
34344.8
34344.8
4.97353
4.97316
4.9742
4.97364
4914.86
4914.82
4914.82
4914.84
)
;

boundaryField
{
    top_fluid_surface
    {
        type            calculated;
        value           nonuniform List<scalar> 
64
(
-1.20585e-09
-3.38022e-10
-1.00719e-09
0
-1.98042e-10
-3.43298e-09
-8.87327e-09
0
0
-7.60376e-10
0
-1.15504e-10
-2.54741e-11
-6.09322e-09
0
-6.75677e-10
0
0
0
0
-9.21364e-13
0
0
0
-5.43005e-09
0
0
0
0
-1.48099e-09
-8.30333e-10
0
-5.99522e-10
-1.45292e-08
-1.4629e-08
0
0
0
-8.03894e-08
-1.27669e-08
0
-9.91668e-09
-1.23958e-09
-5.34268e-09
-8.57348e-10
-6.1332e-10
-1.38621e-08
-3.11182e-09
-1.32029e-08
-1.58329e-09
-7.02908e-09
-5.62221e-08
-5.07788e-08
-5.53166e-10
0
-5.1571e-10
0
-6.59771e-09
0
-1.16521e-09
-1.20896e-08
0
0
0
)
;
    }
    bottom_fluid_surface
    {
        type            calculated;
        value           nonuniform List<scalar> 
64
(
39249.8
39249.8
39249.8
39249.8
39249.8
39249.8
39249.8
39249.8
39249.8
39249.8
39249.8
39249.8
39249.8
39249.8
39249.8
39249.8
39249.8
39249.8
39249.8
39249.8
39249.8
39249.8
39249.8
39249.8
39249.8
39249.8
39249.8
39249.8
39249.8
39249.8
39249.8
39249.8
39249.8
39249.8
39249.8
39249.8
39249.8
39249.8
39249.8
39249.8
39249.8
39249.8
39249.8
39249.8
39249.8
39249.8
39249.8
39249.8
39249.8
39249.8
39249.8
39249.8
39249.8
39249.8
39249.8
39249.8
39249.8
39249.8
39249.8
39249.8
39249.8
39249.8
39249.8
39249.8
)
;
    }
    lateral_surface_1
    {
        type            calculated;
        value           nonuniform List<scalar> 
40
(
4.9771
4.97667
4.9746
4.97486
4.97304
4.97191
4.97352
4.97584
4914.88
4914.91
4914.9
4914.86
4914.83
4914.82
4914.91
4914.83
14724.8
14724.8
14724.8
14724.8
14724.8
14724.8
14724.8
14724.8
24534.8
24534.8
24534.8
24534.8
24534.8
24534.8
24534.8
24534.8
34344.8
34344.8
34344.8
34344.8
34344.8
34344.8
34344.8
34344.8
)
;
    }
    lateral_surface_2
    {
        type            calculated;
        value           nonuniform List<scalar> 
40
(
4.97484
4.97474
4.97569
4.97647
4.9758
4.97378
4.97433
4.97567
4914.89
4914.9
4914.9
4914.89
4914.88
4914.88
4914.9
4914.9
14724.8
14724.8
14724.8
14724.8
14724.8
14724.8
14724.8
14724.8
24534.8
24534.8
24534.8
24534.8
24534.8
24534.8
24534.8
24534.8
34344.8
34344.8
34344.8
34344.8
34344.8
34344.8
34344.8
34344.8
)
;
    }
    lateral_surface_3
    {
        type            calculated;
        value           nonuniform List<scalar> 
40
(
4.97352
4.97358
4.9731
4.97328
4.97422
4.9749
4.97657
4.97484
4914.91
4914.89
4914.82
4914.85
4914.85
4914.89
4914.86
4914.89
14724.8
14724.8
14724.8
14724.8
14724.8
14724.8
14724.8
14724.8
24534.8
24534.8
24534.8
24534.8
24534.8
24534.8
24534.8
24534.8
34344.8
34344.8
34344.8
34344.8
34344.8
34344.8
34344.8
34344.8
)
;
    }
    lateral_surface_4
    {
        type            calculated;
        value           nonuniform List<scalar> 
40
(
4.97567
4.97653
4.97484
4.97493
4.9711
4.97702
4.97588
4.97584
4914.9
4914.9
4914.83
4914.88
4914.84
4914.91
4914.86
4914.83
14724.8
14724.8
14724.8
14724.8
14724.8
14724.8
14724.8
14724.8
24534.8
24534.8
24534.8
24534.8
24534.8
24534.8
24534.8
24534.8
34344.8
34344.8
34344.8
34344.8
34344.8
34344.8
34344.8
34344.8
)
;
    }
}


// ************************************************************************* //
