/*--------------------------------*- C++ -*----------------------------------*\
| =========                 |                                                 |
| \\      /  F ield         | OpenFOAM: The Open Source CFD Toolbox           |
|  \\    /   O peration     | Version:  v1612+                                |
|   \\  /    A nd           | Web:      www.OpenFOAM.com                      |
|    \\/     M anipulation  |                                                 |
\*---------------------------------------------------------------------------*/
FoamFile
{
    version     2.0;
    format      ascii;
    class       volScalarField;
    location    "5.85";
    object      p_rgh;
}
// * * * * * * * * * * * * * * * * * * * * * * * * * * * * * * * * * * * * * //

dimensions      [1 -1 -2 0 0 0 0];

internalField   nonuniform List<scalar> 
320
(
-9800.22
-9800.22
-9800.22
-9800.21
-0.00184525
0.000336591
-1.25603e-05
0.00121281
-0.000737597
-0.00232279
-0.0047015
-0.00574951
0.00329068
0.000400439
0.0105628
0.00306537
-9799.89
-9799.93
-9799.94
-9799.93
-9799.88
-9799.87
-9799.86
-9799.94
-9799.94
-9799.89
-9800.04
-9799.84
-9800.2
-9800.2
-9800.21
-9800.23
-9800.22
-9800.21
-9800.22
-9800.23
-9800.21
-9800.21
-9800.19
-9800.2
-9800.21
-9800.21
-9800.21
-9800.2
-9800.21
-9800.21
-9800.21
-9800.21
-9800.21
-9800.21
-9800.21
-9800.21
-9800.2
-9800.21
-9800.2
-9800.21
-0.00142019
-0.00657428
0.00114714
0.000466742
0.00593376
0.014832
0.00982126
0.016471
-9.67289e-05
0.00059316
0.00695753
0.00961722
-0.00217568
0.00406154
0.00229276
0.0115294
0.0115624
-0.0031489
-0.00101826
0.00492637
-9799.92
-9799.84
-9799.97
-9799.91
-9800.04
-9800.08
-9800.05
-9800.07
-9799.87
-9799.98
-9800.04
-9800.05
-9799.87
-9800.03
-9800.02
-9800.04
-9800.04
-9799.89
-9799.91
-9800.01
-9800.19
-9800.21
-9800.2
-9800.21
-9800.2
-9800.2
-9800.21
-9800.21
-9800.21
-9800.19
-9800.2
-9800.19
-9800.21
-9800.19
-9800.19
-9800.2
-9800.2
-9800.2
-9800.19
-9800.19
-9800.2
-9800.21
-9800.21
-9800.21
-9800.21
-9800.21
-9800.21
-9800.21
-9800.21
-9800.2
-9800.2
-9800.2
-9800.2
-9800.19
-9800.19
-9800.19
-9800.2
-9800.2
-9800.2
-9800.2
-9800.21
-9800.21
-9800.21
-9800.2
-9800.21
-9800.21
-9800.21
-9800.21
-9800.21
-9800.21
-9800.21
-9800.2
-9800.2
-9800.2
-9800.2
-9800.21
-9800.2
-9800.21
-9800.21
-9800.21
-9800.21
-9800.21
-9800.21
-9800.21
-9800.21
-9800.2
-9800.2
-9800.2
-9800.2
-9800.2
-9800.19
-9800.2
-9800.2
-9800.2
-9800.2
-9800.2
-0.0031175
-0.00957666
-0.00712087
0.00656487
0.00321758
0.00210415
-0.0157969
-0.00662369
0.00818704
-0.00454992
0.000780833
-0.00549357
-0.00244772
-0.00324724
-0.00750264
-0.0047132
-0.0082196
-0.00185881
-0.00442861
-0.0155741
-0.0145446
-0.00307632
0.00964943
-0.00181092
-0.00812173
-0.00425839
0.00106191
-0.00130932
-9799.87
-9799.86
-9799.88
-9800.02
-9799.95
-9799.94
-9799.83
-9799.87
-9799.97
-9799.82
-9799.85
-9799.89
-9799.83
-9799.91
-9799.89
-9799.91
-9799.84
-9799.88
-9799.89
-9799.82
-9799.83
-9799.91
-9800.01
-9799.91
-9800.01
-9799.91
-9799.88
-9799.8
-9800.2
-9800.19
-9800.2
-9800.2
-9800.22
-9800.22
-9800.21
-9800.21
-9800.22
-9800.23
-9800.22
-9800.21
-9800.2
-9800.19
-9800.19
-9800.19
-9800.2
-9800.2
-9800.2
-9800.2
-9800.19
-9800.18
-9800.2
-9800.2
-9800.2
-9800.2
-9800.2
-9800.22
-9800.21
-9800.2
-9800.2
-9800.21
-9800.21
-9800.21
-9800.22
-9800.21
-9800.21
-9800.22
-9800.21
-9800.21
-9800.21
-9800.2
-9800.2
-9800.2
-9800.2
-9800.2
-9800.2
-9800.19
-9800.2
-9800.19
-9800.19
-9800.2
-9800.19
-9800.2
-9800.2
-9800.21
-9800.2
-9800.2
-9800.21
-9800.21
-9800.21
-9800.21
-9800.21
-9800.22
-9800.22
-9800.22
-9800.21
-9800.21
-9800.2
-9800.2
-9800.2
-9800.2
-9800.2
-9800.2
-9800.2
-9800.19
-9800.19
-9800.2
-9800.2
-9800.2
-9800.19
-9800.2
-9800.2
-9800.21
-0.00593288
0.00466927
0.00490198
0.00534281
-9799.84
-9799.95
-9799.94
-9800
)
;

boundaryField
{
    top_fluid_surface
    {
        type            totalPressure;
        rho             rho;
        psi             none;
        gamma           1;
        p0              uniform 0;
        value           nonuniform List<scalar> 
64
(
-1.20585e-09
-3.38022e-10
-1.00719e-09
0
-1.98042e-10
-3.43298e-09
-8.87327e-09
0
0
-7.60376e-10
0
-1.15504e-10
-2.54741e-11
-6.09322e-09
0
-6.75677e-10
0
0
0
0
-9.21364e-13
0
0
0
-5.43005e-09
0
0
0
0
-1.48099e-09
-8.30333e-10
0
-5.99522e-10
-1.45292e-08
-1.4629e-08
0
0
0
-8.03894e-08
-1.27669e-08
0
-9.91668e-09
-1.23958e-09
-5.34268e-09
-8.57348e-10
-6.1332e-10
-1.38621e-08
-3.11182e-09
-1.32029e-08
-1.58329e-09
-7.02908e-09
-5.62221e-08
-5.07788e-08
-5.53166e-10
0
-5.1571e-10
0
-6.59771e-09
0
-1.16521e-09
-1.20896e-08
0
0
0
)
;
    }
    bottom_fluid_surface
    {
        type            fixedFluxPressure;
        gradient        uniform 0;
        value           nonuniform List<scalar> 
64
(
-9800.21
-9800.21
-9800.21
-9800.2
-9800.21
-9800.21
-9800.21
-9800.21
-9800.21
-9800.21
-9800.21
-9800.2
-9800.2
-9800.2
-9800.2
-9800.21
-9800.2
-9800.21
-9800.21
-9800.21
-9800.21
-9800.21
-9800.21
-9800.21
-9800.21
-9800.2
-9800.2
-9800.2
-9800.2
-9800.2
-9800.19
-9800.2
-9800.2
-9800.2
-9800.2
-9800.2
-9800.2
-9800.2
-9800.21
-9800.21
-9800.21
-9800.21
-9800.21
-9800.22
-9800.22
-9800.22
-9800.21
-9800.21
-9800.2
-9800.2
-9800.2
-9800.2
-9800.2
-9800.2
-9800.2
-9800.19
-9800.19
-9800.2
-9800.2
-9800.2
-9800.19
-9800.2
-9800.2
-9800.21
)
;
    }
    lateral_surface_1
    {
        type            fixedFluxPressure;
        gradient        uniform 0;
        value           nonuniform List<scalar> 
40
(
-0.0031175
-0.00957666
-0.00712087
0.00656487
0.00321758
0.00210415
-0.0157969
-0.00130932
-9799.87
-9799.86
-9799.88
-9800.02
-9799.95
-9799.94
-9799.83
-9799.8
-9800.2
-9800.19
-9800.2
-9800.2
-9800.22
-9800.22
-9800.21
-9800.22
-9800.21
-9800.2
-9800.2
-9800.21
-9800.21
-9800.21
-9800.22
-9800.21
-9800.2
-9800.2
-9800.21
-9800.21
-9800.21
-9800.21
-9800.21
-9800.21
)
;
    }
    lateral_surface_2
    {
        type            fixedFluxPressure;
        gradient        uniform 0;
        value           nonuniform List<scalar> 
40
(
-0.00324724
-0.00750264
-0.0047132
-0.0082196
-0.00185881
-0.00442861
-0.0155741
-0.0145446
-9799.91
-9799.89
-9799.91
-9799.84
-9799.88
-9799.89
-9799.82
-9799.83
-9800.19
-9800.19
-9800.19
-9800.2
-9800.2
-9800.2
-9800.2
-9800.19
-9800.2
-9800.2
-9800.2
-9800.2
-9800.2
-9800.2
-9800.19
-9800.2
-9800.2
-9800.2
-9800.2
-9800.2
-9800.2
-9800.2
-9800.19
-9800.19
)
;
    }
    lateral_surface_3
    {
        type            fixedFluxPressure;
        gradient        uniform 0;
        value           nonuniform List<scalar> 
40
(
-0.0157969
-0.00662369
0.00818704
-0.00454992
0.000780833
-0.00549357
-0.00244772
-0.00324724
-9799.83
-9799.87
-9799.97
-9799.82
-9799.85
-9799.89
-9799.83
-9799.91
-9800.21
-9800.21
-9800.22
-9800.23
-9800.22
-9800.21
-9800.2
-9800.19
-9800.22
-9800.21
-9800.21
-9800.22
-9800.21
-9800.21
-9800.21
-9800.2
-9800.21
-9800.22
-9800.22
-9800.22
-9800.21
-9800.21
-9800.2
-9800.2
)
;
    }
    lateral_surface_4
    {
        type            fixedFluxPressure;
        gradient        uniform 0;
        value           nonuniform List<scalar> 
40
(
-0.0145446
-0.00307632
0.00964943
-0.00181092
-0.00812173
-0.00425839
0.00106191
-0.00130932
-9799.83
-9799.91
-9800.01
-9799.91
-9800.01
-9799.91
-9799.88
-9799.8
-9800.19
-9800.18
-9800.2
-9800.2
-9800.2
-9800.2
-9800.2
-9800.22
-9800.2
-9800.19
-9800.19
-9800.2
-9800.19
-9800.2
-9800.2
-9800.21
-9800.19
-9800.2
-9800.2
-9800.2
-9800.19
-9800.2
-9800.2
-9800.21
)
;
    }
}


// ************************************************************************* //
