/*--------------------------------*- C++ -*----------------------------------*\
| =========                 |                                                 |
| \\      /  F ield         | OpenFOAM: The Open Source CFD Toolbox           |
|  \\    /   O peration     | Version:  v1612+                                |
|   \\  /    A nd           | Web:      www.OpenFOAM.com                      |
|    \\/     M anipulation  |                                                 |
\*---------------------------------------------------------------------------*/
FoamFile
{
    version     2.0;
    format      ascii;
    class       volVectorField;
    location    "5.85";
    object      U;
}
// * * * * * * * * * * * * * * * * * * * * * * * * * * * * * * * * * * * * * //

dimensions      [0 1 -1 0 0 0 0];

internalField   nonuniform List<vector> 
320
(
(-3.13633e-06 -1.18704e-05 1.57065e-05)
(-5.15872e-06 -9.31598e-06 -1.78981e-05)
(-1.76138e-05 -8.36825e-06 -1.55589e-05)
(2.72635e-06 1.48291e-05 -1.85841e-05)
(0.00038154 3.43081e-06 -4.9109e-05)
(0.000186933 1.23865e-05 -2.60008e-05)
(0.000312182 -5.74297e-06 -4.48819e-05)
(-2.24619e-05 5.42104e-05 3.71533e-05)
(0.000202991 -4.22924e-05 -1.99018e-05)
(6.06988e-06 -3.41053e-05 -8.28611e-05)
(-0.000117539 -0.000194137 -0.000133216)
(-0.000122368 -0.000244139 6.39912e-06)
(-0.000245548 -4.97277e-05 3.04101e-05)
(-0.000140985 -0.000271223 -3.89968e-05)
(-0.000246415 0.00014051 0.000210966)
(-1.13326e-05 0.000207781 -1.51989e-05)
(3.18194e-06 -5.89063e-06 3.17569e-05)
(5.29119e-06 5.10622e-06 2.43874e-05)
(2.32822e-05 2.29797e-06 1.13102e-06)
(-2.47425e-06 3.54949e-06 -1.27521e-05)
(1.40458e-05 -7.42146e-06 -2.1474e-07)
(9.5093e-06 1.42934e-05 2.78629e-05)
(-1.19328e-05 3.72846e-06 1.9363e-05)
(-2.57758e-08 -1.77741e-05 -1.85519e-05)
(-2.13781e-05 1.59005e-05 3.82042e-05)
(-1.52947e-05 -2.81071e-05 3.14594e-05)
(-2.41345e-05 -6.91709e-06 -2.84493e-05)
(-8.66655e-06 -2.34404e-06 1.42435e-05)
(-5.82814e-06 -2.08903e-07 2.11955e-05)
(-9.83251e-06 -4.88824e-06 2.00965e-05)
(-1.66579e-05 1.14425e-06 -1.63679e-06)
(1.49514e-07 6.88637e-07 -1.30362e-05)
(-6.26569e-06 5.7309e-06 -5.27553e-08)
(-2.23354e-06 -4.57053e-06 1.5569e-05)
(8.93913e-06 1.28837e-06 8.90793e-06)
(-4.34504e-06 9.06069e-06 -1.67793e-05)
(4.61242e-06 -1.15193e-05 2.49713e-05)
(3.48735e-06 1.60374e-05 2.18296e-05)
(1.04325e-05 2.46658e-06 -1.57701e-05)
(6.00147e-06 -1.55419e-06 1.29065e-05)
(-2.73915e-06 -7.19583e-06 4.8432e-06)
(-3.76048e-06 -5.69469e-06 -5.88509e-06)
(-9.86049e-06 -4.64678e-06 -2.46231e-06)
(1.52692e-06 9.10854e-06 -7.3021e-06)
(-2.92678e-06 -1.74203e-07 6.19095e-06)
(-6.30401e-06 -3.81282e-06 5.67064e-07)
(-9.91773e-06 3.18847e-07 -1.26905e-07)
(-1.06348e-08 6.3503e-07 6.92268e-07)
(-3.75153e-06 4.79948e-06 2.71489e-07)
(-1.64023e-06 -2.32893e-06 4.56236e-06)
(5.68575e-06 7.05707e-07 2.94734e-06)
(-2.50568e-06 6.28119e-06 -1.90432e-06)
(1.97467e-06 -6.30728e-06 6.09225e-06)
(1.43634e-06 8.87473e-06 4.63556e-06)
(5.07062e-06 1.23901e-06 -4.72049e-06)
(3.03259e-06 -1.02519e-06 2.85047e-06)
(-0.000315634 0.000162513 -7.13779e-06)
(0.000183029 0.000253132 -0.000110392)
(0.000115951 7.8352e-05 3.84278e-06)
(1.91577e-05 0.000185808 -3.67608e-05)
(6.48838e-05 0.000502821 0.000137184)
(0.000366148 -2.92374e-05 0.000337612)
(5.08095e-05 3.0943e-05 0.000219337)
(0.000220874 -0.000356411 0.000394262)
(4.04062e-05 -0.000551764 -1.35747e-06)
(-1.78467e-05 -0.000104698 1.53685e-05)
(-0.000155054 2.80102e-05 0.000187877)
(0.000279118 -6.02463e-05 0.000227951)
(0.000237602 -0.000156573 -0.000104212)
(-9.51313e-05 -0.000243913 9.67275e-05)
(0.0003153 -0.000593611 6.31463e-05)
(-8.17137e-05 -0.000291321 0.0002605)
(0.000236382 0.000182999 0.000276637)
(0.000263484 0.000302453 -5.44241e-05)
(0.000269092 -6.57159e-05 -4.07513e-05)
(0.000131695 9.20643e-05 0.000138777)
(-2.00311e-05 -1.72293e-05 -1.80774e-05)
(-6.60581e-06 3.5977e-06 1.94694e-05)
(-2.46198e-06 -1.86289e-05 1.40071e-05)
(3.58586e-06 -4.43557e-06 -2.34837e-06)
(-4.36278e-06 2.78377e-05 -3.87038e-05)
(1.50138e-05 -9.54538e-07 -5.74726e-05)
(-1.08933e-05 4.23795e-06 -3.51518e-05)
(-1.15041e-05 -1.6997e-05 -7.12845e-05)
(7.19762e-06 -2.67209e-05 1.8515e-06)
(-2.31862e-06 -7.02432e-06 1.99901e-05)
(-1.64038e-05 1.91349e-05 -2.84816e-05)
(2.78738e-05 5.85222e-06 -4.53964e-05)
(1.14004e-05 -4.51694e-06 3.77109e-05)
(-2.25876e-05 -3.72868e-06 -3.23637e-05)
(3.77131e-06 -2.63479e-05 -1.51074e-05)
(-2.83293e-05 -1.04816e-05 -2.83998e-05)
(4.5622e-07 7.48539e-06 -4.0232e-05)
(8.29969e-06 1.96663e-05 -1.26912e-05)
(3.27393e-06 -1.78694e-06 1.08688e-07)
(2.36532e-05 3.25167e-07 -2.76636e-05)
(8.49102e-06 9.35006e-06 -8.16758e-06)
(1.97471e-07 1.4431e-06 1.29996e-05)
(-6.51226e-06 8.70812e-06 1.26003e-05)
(-6.97766e-06 2.24515e-06 -5.82272e-06)
(3.90688e-06 -1.36918e-05 -2.65044e-05)
(-5.27022e-06 2.24052e-06 -2.91834e-05)
(8.01417e-06 1.07663e-06 -2.31598e-05)
(8.69902e-06 1.24476e-05 -3.6999e-05)
(6.42453e-07 1.89472e-05 1.45345e-06)
(3.36285e-06 5.62602e-06 1.74938e-05)
(1.13934e-05 -6.06501e-06 -1.84085e-05)
(-1.09056e-05 2.86135e-06 -2.50076e-05)
(-4.80406e-06 6.13836e-06 2.2827e-05)
(7.60096e-06 -1.37905e-06 -2.12218e-05)
(-7.8893e-06 1.11376e-05 -1.08423e-05)
(1.16366e-05 4.9482e-06 -1.51627e-05)
(-2.65152e-06 -2.54964e-06 -2.33589e-05)
(-6.89524e-06 -9.35721e-06 -7.28491e-06)
(8.12287e-07 -2.15062e-06 -1.07547e-06)
(-1.23972e-05 -5.02566e-06 -1.78389e-05)
(4.52579e-06 5.1785e-06 -3.72396e-06)
(4.85042e-08 1.15394e-06 4.30938e-06)
(-4.2535e-06 5.7353e-06 -1.71836e-06)
(-4.87138e-06 2.02121e-06 3.32176e-07)
(2.87176e-06 -7.27577e-06 -7.39544e-06)
(-3.68199e-06 1.04795e-06 -1.16853e-05)
(4.18418e-06 4.71663e-07 -6.35942e-06)
(4.93679e-06 7.47902e-06 -1.19713e-05)
(-3.25915e-07 1.12666e-05 9.96526e-07)
(1.74781e-06 3.78771e-06 1.01304e-06)
(6.80949e-06 -3.16891e-06 -4.42782e-06)
(-7.0834e-06 1.53162e-06 -7.99383e-06)
(-2.84725e-06 4.29227e-06 4.01658e-06)
(4.51937e-06 -8.05055e-07 -5.34623e-06)
(-4.67183e-06 6.88596e-06 -2.42491e-06)
(7.26085e-06 3.19823e-06 -4.97111e-06)
(-1.62474e-06 -1.55086e-06 -5.61254e-06)
(-4.36056e-06 -5.59973e-06 -2.82985e-06)
(3.20892e-07 -7.19039e-07 6.89054e-07)
(-6.81861e-06 -2.4873e-06 -2.56551e-06)
(-2.21775e-06 -3.46872e-06 1.31916e-06)
(-8.52667e-07 -1.59879e-06 -1.95094e-06)
(-5.71285e-06 -1.72842e-06 -1.49591e-06)
(-2.25163e-07 5.44666e-06 -1.6771e-06)
(-3.47865e-06 -4.8977e-07 2.35946e-06)
(-3.88267e-06 -3.43155e-07 2.44705e-06)
(-4.52686e-06 9.44744e-07 -2.73605e-07)
(3.60498e-07 1.88776e-07 -1.51925e-06)
(-1.91182e-06 1.4176e-06 1.28605e-07)
(-4.51617e-07 -5.77846e-07 1.56429e-06)
(2.29336e-06 1.57685e-06 1.41399e-06)
(-1.55559e-06 2.14014e-06 -1.65275e-06)
(1.51901e-06 -1.8508e-06 2.48445e-06)
(2.88565e-07 4.78448e-06 2.51664e-06)
(2.73784e-06 6.35429e-07 -1.31815e-06)
(9.98428e-07 1.3832e-07 1.81422e-06)
(1.91364e-06 2.71338e-06 -5.90407e-07)
(-1.73627e-06 -1.64153e-07 7.5528e-07)
(-2.28718e-06 2.04435e-06 1.29837e-06)
(-1.23327e-06 -8.22198e-08 -1.02799e-06)
(8.23362e-08 -3.23008e-06 -2.29458e-06)
(-2.42907e-06 1.25061e-06 -2.9986e-06)
(6.90444e-07 1.01625e-06 -2.49498e-06)
(7.04955e-07 4.63454e-06 -3.74716e-06)
(1.25752e-07 5.68392e-06 1.01069e-07)
(4.79896e-07 1.74625e-06 1.66168e-06)
(2.19528e-06 -1.73348e-06 -1.98097e-06)
(-2.94316e-06 1.22985e-06 -2.83407e-06)
(-2.2852e-06 1.60842e-06 2.35933e-06)
(1.07445e-06 6.17781e-07 -2.18354e-06)
(-2.61312e-06 3.47491e-06 -1.00049e-06)
(2.41582e-06 1.35427e-06 -2.15025e-06)
(-1.74351e-06 -5.09619e-07 -2.69898e-06)
(-2.16691e-06 -2.75888e-06 -1.09904e-06)
(-1.40663e-06 -1.31397e-06 -9.15866e-08)
(-4.207e-06 -1.34701e-06 -1.96995e-06)
(0.000102163 0.000154212 -3.46272e-05)
(-0.000171768 0.000139818 -0.000170466)
(0.000467064 1.16943e-05 -0.00017105)
(0.000255907 -0.000144817 0.000160493)
(-0.000109464 -0.00012718 9.07338e-05)
(-0.000115878 -1.54179e-05 1.95157e-05)
(-0.000582201 5.30491e-05 -0.000400972)
(-0.000516312 0.000664473 -0.000159793)
(-0.000420391 -1.90097e-05 0.000213588)
(-0.000505256 -8.91447e-05 -0.000140831)
(-0.000540597 -5.22573e-05 -4.97911e-05)
(-0.000205304 -0.000271327 -0.00010337)
(-0.000259855 6.49547e-05 -4.14089e-05)
(-3.56074e-05 -0.000256272 -3.50234e-05)
(7.86243e-05 -0.000481018 -0.000166506)
(-3.80899e-05 -0.000352308 -7.88901e-05)
(6.68183e-05 -0.000596156 -0.000162499)
(6.05361e-05 -0.000141958 -5.62724e-05)
(0.000189276 -0.000420639 -0.000118567)
(0.000288146 -0.000424605 -0.000335327)
(-5.99333e-05 -0.000393584 -0.000318681)
(-2.93139e-05 -0.000613308 -3.32616e-05)
(-8.11021e-05 -0.000129201 0.000279054)
(0.000132054 7.37492e-05 -3.21157e-05)
(-0.00019057 0.000173839 -2.52062e-05)
(2.45231e-06 7.35952e-05 -0.000114871)
(-5.00505e-05 -2.14613e-06 -1.19559e-05)
(-9.14754e-05 0.000112724 -4.82744e-05)
(2.70721e-05 1.20745e-05 1.61602e-05)
(-1.19412e-05 -1.62435e-06 -2.18732e-05)
(4.58135e-06 3.98525e-06 1.80491e-05)
(1.33247e-05 -1.28135e-05 -3.52087e-05)
(-2.3184e-05 -1.18025e-05 -2.56725e-05)
(-2.13742e-05 1.39541e-05 1.15815e-05)
(-2.35148e-05 5.21118e-06 4.62732e-05)
(-3.22576e-05 3.19483e-05 2.32598e-05)
(-1.94055e-05 -4.23426e-06 -2.68429e-05)
(-3.5538e-05 -2.29648e-05 4.52683e-05)
(-4.65995e-05 1.06664e-05 6.40203e-05)
(-7.87823e-06 2.34771e-05 1.64235e-05)
(3.59154e-06 1.6813e-05 -1.18368e-05)
(1.59571e-05 -4.00849e-06 -1.9937e-05)
(4.87143e-06 -1.63698e-05 2.87622e-05)
(-3.36872e-06 -1.11986e-05 8.45558e-07)
(1.17178e-05 -2.9405e-05 2.33253e-05)
(9.55566e-06 4.95579e-06 1.05765e-05)
(4.52081e-07 -2.7559e-05 1.45544e-05)
(4.12481e-07 -1.8083e-05 1.89319e-05)
(5.51469e-06 -2.41998e-05 4.76523e-05)
(-6.02128e-07 -3.24712e-05 -5.41729e-06)
(-6.0689e-07 1.25849e-05 -3.45704e-05)
(2.24633e-05 8.51852e-06 3.34508e-05)
(4.29123e-07 -4.09826e-06 4.01348e-06)
(-1.29856e-06 1.30118e-05 -7.67761e-06)
(1.52255e-05 6.56902e-06 2.69978e-05)
(4.94631e-06 1.79482e-06 1.94996e-05)
(-1.38978e-05 -8.90834e-06 1.29891e-05)
(-4.65763e-07 4.74024e-07 -9.18216e-06)
(-5.18694e-06 4.77777e-08 5.52407e-06)
(-1.06344e-05 5.85944e-06 -1.80138e-05)
(5.74063e-06 4.1709e-06 -2.03703e-05)
(9.1425e-06 -6.85869e-06 7.90557e-06)
(1.15216e-05 -1.06429e-06 2.44794e-05)
(1.73161e-05 -1.21648e-05 1.24358e-05)
(1.30491e-05 5.2518e-06 -1.58846e-05)
(2.03274e-05 1.46593e-05 1.95537e-05)
(2.66291e-05 -1.64038e-06 4.17711e-05)
(6.24125e-06 -9.91066e-06 8.46964e-06)
(-2.22645e-06 -9.1634e-06 -3.60762e-06)
(-8.54531e-06 8.00441e-07 -1.32567e-05)
(-2.45541e-06 7.11733e-06 1.62657e-05)
(5.29905e-07 6.61811e-06 1.16073e-06)
(-3.2633e-06 1.79802e-05 1.56977e-05)
(-1.03855e-07 -1.02351e-06 5.16295e-06)
(-3.86598e-07 1.328e-05 3.00835e-06)
(-5.44307e-06 6.96342e-06 8.06299e-06)
(-7.45768e-06 1.08342e-05 2.73498e-05)
(-3.58718e-06 1.57004e-05 -9.99382e-07)
(-2.89505e-06 -6.28034e-06 -2.02975e-05)
(-1.4816e-05 -2.49364e-06 2.23949e-05)
(-2.8402e-06 5.9303e-06 5.47056e-06)
(4.70769e-07 -7.05798e-06 -7.49576e-06)
(-7.74731e-06 -5.36126e-06 1.92113e-05)
(1.34845e-07 -1.02636e-06 1.16028e-05)
(-6.96281e-06 -5.32238e-06 3.93666e-06)
(-6.08556e-07 3.35013e-07 -4.55504e-06)
(-3.48373e-06 -1.8808e-07 3.95104e-06)
(-7.17144e-06 3.86728e-06 -6.38641e-06)
(3.09324e-06 2.72983e-06 -2.45831e-06)
(6.47108e-06 -4.09731e-06 -1.28783e-06)
(6.64137e-06 -8.6968e-07 5.59221e-06)
(9.86902e-06 -8.13172e-06 4.25512e-06)
(5.78537e-06 1.63121e-06 -3.10712e-06)
(1.04523e-05 9.25322e-06 7.71549e-06)
(1.45665e-05 2.89376e-07 8.02633e-06)
(3.26285e-06 -5.51751e-06 4.94159e-06)
(-2.21745e-06 -4.90111e-06 -1.31065e-06)
(-5.42579e-06 5.4601e-07 -1.86607e-06)
(-2.05816e-06 3.75439e-06 4.51026e-06)
(6.15854e-07 4.35193e-06 7.65157e-08)
(-1.77533e-06 9.94785e-06 4.48079e-06)
(-1.68953e-07 -9.55935e-07 2.37028e-06)
(-6.19011e-07 7.26958e-06 3.90748e-06)
(-3.33194e-06 4.18234e-06 2.47916e-06)
(-3.85818e-06 5.92964e-06 7.87708e-06)
(-2.1109e-06 9.78764e-06 9.99024e-08)
(-9.56557e-07 -3.26039e-06 -3.19759e-06)
(-8.56925e-06 -2.74637e-06 5.40278e-06)
(-2.15203e-06 3.18455e-06 -6.97233e-07)
(2.14877e-07 -3.48326e-06 1.96134e-07)
(-4.91631e-06 -2.10541e-06 4.11035e-06)
(5.96719e-07 1.90615e-07 4.66196e-06)
(-4.92938e-06 -2.40343e-06 9.05845e-07)
(-1.84436e-07 7.09724e-08 -1.03942e-06)
(-2.80962e-06 -3.05366e-07 7.20533e-07)
(-3.96461e-06 1.14433e-06 -1.38851e-06)
(7.4756e-07 1.37207e-06 -2.3764e-06)
(9.86237e-07 -8.36514e-07 9.79356e-07)
(4.54114e-06 4.68152e-07 3.0072e-06)
(5.84581e-06 -3.49751e-06 1.77118e-06)
(4.27371e-06 1.55284e-06 -1.61136e-06)
(6.14805e-06 3.32275e-06 1.74762e-06)
(6.58018e-06 8.52896e-07 4.19601e-06)
(2.36641e-06 -8.02873e-07 9.75628e-07)
(9.34032e-08 -2.35763e-06 -6.39653e-07)
(-1.73745e-06 1.49391e-06 -1.49114e-06)
(-4.9841e-07 3.32478e-06 2.013e-06)
(6.47651e-08 2.47222e-06 4.70531e-08)
(-1.04852e-06 5.45527e-06 1.65441e-06)
(-9.43512e-07 5.77599e-07 8.34322e-07)
(-3.47477e-07 4.11359e-06 9.90926e-07)
(-1.45632e-06 1.99951e-06 1.17126e-06)
(-2.17808e-06 2.95678e-06 2.86325e-06)
(-1.22081e-06 4.48989e-06 -7.23138e-08)
(-1.16309e-06 -9.81217e-07 -2.34267e-06)
(-3.55627e-06 2.01803e-07 2.21864e-06)
(-4.51672e-07 9.72305e-07 4.66668e-07)
(1.74898e-07 -1.90179e-06 -1.69658e-07)
(-1.03951e-06 -8.09413e-07 1.90129e-06)
(7.12493e-07 -6.51441e-07 1.13842e-06)
(-1.26964e-05 0.000172419 -0.000155496)
(0.000106728 0.000140191 0.000129981)
(0.000381624 0.00018227 9.66938e-05)
(6.76345e-05 -0.000384715 9.97987e-05)
(8.4457e-07 1.30363e-05 3.32298e-05)
(5.72675e-06 1.34774e-05 -3.21597e-05)
(2.3579e-05 1.02402e-05 -2.14845e-05)
(-4.19473e-06 -2.89769e-05 -3.21189e-05)
)
;

boundaryField
{
    top_fluid_surface
    {
        type            pressureInletOutletVelocity;
        value           nonuniform List<vector> 
64
(
(0 0 -4.9109e-05)
(0 0 -2.60008e-05)
(0 0 -4.48819e-05)
(-2.24619e-05 5.42104e-05 3.71533e-05)
(0 0 -1.99018e-05)
(0 0 -8.28611e-05)
(0 0 -0.000133216)
(-0.000122368 -0.000244139 6.39912e-06)
(-0.000245548 -4.97277e-05 3.04101e-05)
(0 0 -3.89968e-05)
(-0.000246415 0.00014051 0.000210966)
(0 0 -1.51989e-05)
(0 0 -7.13779e-06)
(0 0 -0.000110392)
(0.000115951 7.8352e-05 3.84278e-06)
(0 0 -3.67608e-05)
(6.48838e-05 0.000502821 0.000137184)
(0.000366148 -2.92374e-05 0.000337612)
(5.08095e-05 3.0943e-05 0.000219337)
(0.000220874 -0.000356411 0.000394262)
(0 0 -1.35747e-06)
(-1.78467e-05 -0.000104698 1.53685e-05)
(-0.000155054 2.80102e-05 0.000187877)
(0.000279118 -6.02463e-05 0.000227951)
(0 0 -0.000104212)
(-9.51313e-05 -0.000243913 9.67275e-05)
(0.0003153 -0.000593611 6.31463e-05)
(-8.17137e-05 -0.000291321 0.0002605)
(0.000236382 0.000182999 0.000276637)
(0 0 -5.44241e-05)
(0 0 -4.07513e-05)
(0.000131695 9.20643e-05 0.000138777)
(0 0 -3.46272e-05)
(0 0 -0.000170466)
(0 0 -0.00017105)
(0.000255907 -0.000144817 0.000160493)
(-0.000109464 -0.00012718 9.07338e-05)
(-0.000115878 -1.54179e-05 1.95157e-05)
(0 0 -0.000400972)
(0 0 -0.000159793)
(-0.000420391 -1.90097e-05 0.000213588)
(0 0 -0.000140831)
(0 0 -4.97911e-05)
(0 0 -0.00010337)
(0 0 -4.14089e-05)
(0 0 -3.50234e-05)
(0 0 -0.000166506)
(0 0 -7.88901e-05)
(0 0 -0.000162499)
(0 0 -5.62724e-05)
(0 0 -0.000118567)
(0 0 -0.000335327)
(0 0 -0.000318681)
(0 0 -3.32616e-05)
(-8.11021e-05 -0.000129201 0.000279054)
(0 0 -3.21157e-05)
(-0.00019057 0.000173839 -2.52062e-05)
(0 0 -0.000114871)
(-5.00505e-05 -2.14613e-06 -1.19559e-05)
(0 0 -4.82744e-05)
(0 0 -0.000155496)
(0.000106728 0.000140191 0.000129981)
(0.000381624 0.00018227 9.66938e-05)
(6.76345e-05 -0.000384715 9.97987e-05)
)
;
    }
    bottom_fluid_surface
    {
        type            noSlip;
    }
    lateral_surface_1
    {
        type            noSlip;
    }
    lateral_surface_2
    {
        type            noSlip;
    }
    lateral_surface_3
    {
        type            noSlip;
    }
    lateral_surface_4
    {
        type            noSlip;
    }
}


// ************************************************************************* //
