/*--------------------------------*- C++ -*----------------------------------*\
| =========                 |                                                 |
| \\      /  F ield         | OpenFOAM: The Open Source CFD Toolbox           |
|  \\    /   O peration     | Version:  v1612+                                |
|   \\  /    A nd           | Web:      www.OpenFOAM.com                      |
|    \\/     M anipulation  |                                                 |
\*---------------------------------------------------------------------------*/
FoamFile
{
    version     2.0;
    format      ascii;
    class       surfaceScalarField;
    location    "8.65";
    object      alphaPhi;
}
// * * * * * * * * * * * * * * * * * * * * * * * * * * * * * * * * * * * * * //

dimensions      [0 3 -1 0 0 0 0];

internalField   nonuniform List<scalar> 
2916
(
-0.00541934
0.180362
-0.17284
0.00543685
0.164325
-0.174334
0.0249285
0.157591
-0.177059
0.0108723
0.189275
-0.172505
-0.0175784
0.203755
-0.170785
0.159546
-0.177084
0.0030992
0.301927
-0.0960677
-0.00265495
0.290067
-0.0917949
-0.0138243
0.284925
-0.0884805
-0.00583929
0.302739
-0.0923691
0.00741589
0.31317
-0.0920674
0.281682
-0.0875364
0.00522306
0.38019
-0.0492811
-0.000537448
0.374171
-0.0447983
-0.012285
0.371711
-0.0416225
-0.00544305
0.379844
-0.0497983
0.0101802
0.386184
-0.0537273
0.367943
-0.0431523
0.00282743
0.394736
-0.0165931
-5.06257e-05
0.39195
-0.0141194
-0.00599874
0.391689
-0.0132479
-0.00262098
0.394328
-0.0170732
0.00644987
0.397278
-0.0193493
0.390099
-0.0148466
0.000403824
0.403469
-0.00835504
-0.000500877
0.399616
-0.00597973
-0.00198409
0.400926
-0.00697227
-0.00147088
0.402004
-0.00740708
0.000413694
0.403864
-0.00768189
0.400154
-0.00882496
-0.000641314
0.423922
-0.0190535
-0.000513026
0.418369
-0.0181
-0.00012049
0.42006
-0.0187438
-0.00119681
0.422275
-0.0184064
-0.00340285
0.42448
-0.0175943
0.418947
-0.0213644
0.000800804
0.403034
-0.0392321
-0.00039873
0.399799
-0.0400251
-0.00067741
0.400952
-0.0401594
-0.0010928
0.402093
-0.0390615
-0.00099797
0.40107
-0.0369223
0.401435
-0.0422648
-0.000189645
0.324824
0.00573038
-0.000676096
0.323085
0.00152754
-0.000528816
0.324761
0.00176589
-0.00124288
0.323339
0.00511843
-0.00119836
0.319765
0.0081728
0.325321
-0.00134569
-0.00222531
0.247848
0.095699
-0.00015585
0.245956
0.0951805
0.000838651
0.246607
0.095494
0.000243257
0.248097
0.0946087
-0.00147277
0.245981
0.0948961
0.246731
0.096735
0.00113381
0.106155
0.0953905
0.000121193
0.0967909
0.102969
-0.000372104
0.0981064
0.101722
0.00382515
0.105439
0.0943189
0.00355053
0.107418
0.094639
0.0932995
0.107787
0.00266615
0.0498172
0.0312471
0.00141033
0.0337749
0.0384691
0.000756755
0.0345539
0.0384351
0.00388768
0.0503291
0.0301037
0.00512454
0.0581348
0.027261
0.028893
0.0420411
0.000500724
0.0293832
3.81732e-05
0.020467
0.000827402
0.0201695
-0.00119812
0.0312697
0.00253136
0.0321911
0.0188618
-0.000645215
0.122007
-6.29648e-05
-0.00668504
0.138035
-3.14167e-05
-0.0123934
0.14223
-2.33905e-05
-0.00634503
0.110153
-4.28093e-05
0.00496608
0.0968242
-7.17898e-05
0.136212
-1.8624e-05
0.00288803
0.240838
-2.21455e-05
0.0042813
0.24169
-1.23316e-05
0.00599799
0.240885
-1.35338e-05
0.00487397
0.240831
-1.15249e-05
0.001583
0.248364
-1.32022e-05
0.238202
-7.22196e-06
0.00419849
0.401334
-4.72557e-07
0.00363915
0.401873
-3.049e-07
0.00177836
0.399574
-3.38429e-07
0.00312443
0.405685
-1.78167e-07
0.00734607
0.418109
-3.2353e-07
0.39813
-1.94238e-07
0.00197996
0.632615
-0.0333161
0.00101766
0.635375
-0.0304846
-0.000836367
0.634411
-0.0299464
0.00149746
0.634737
-0.0328643
0.00716779
0.64035
-0.0330584
0.62983
-0.0283572
0.00142534
0.859935
-0.0597561
-0.000280105
0.859924
-0.0575601
-0.00183259
0.8602
-0.0584102
-0.000405502
0.86043
-0.0589625
0.00265435
0.863322
-0.0585242
0.855125
-0.059368
0.00138427
1.05459
-0.0933298
-0.000373301
1.05547
-0.0928106
-0.00256616
1.05454
-0.0925332
-0.00125651
1.05634
-0.0937617
0.0007441
1.05771
-0.0925519
1.05274
-0.0966327
0.00301841
1.24282
-0.121553
1.27069e-05
1.25216
-0.122545
-0.00265337
1.24818
-0.121353
-0.00144403
1.24763
-0.122388
0.00243981
1.24811
-0.12148
1.24868
-0.124037
0.00323644
1.26298
-0.118263
7.21286e-05
1.29312
-0.119344
-0.00273215
1.28288
-0.119273
-0.00113633
1.27491
-0.11811
0.00359483
1.27292
-0.117629
1.29075
-0.120588
0.00134517
0.561192
-0.0673017
-7.4678e-05
0.570346
-0.0615023
-0.00106666
0.560364
-0.062116
-0.000547614
0.574495
-0.0672241
-0.00202444
0.587557
-0.0684494
0.561517
-0.0607057
-0.00242702
0.556529
0.00226206
0.00048912
0.527416
0.001547
0.00168439
0.544321
0.00187653
-0.000408086
0.5506
0.00172495
-0.00517014
0.534866
0.00209482
0.51287
0.00289469
-0.0174513
0.62931
0.0197607
0.00372122
0.604183
0.0167852
0.0163142
0.613606
0.0174712
-0.00359237
0.631212
0.019638
-0.0170474
0.624685
0.0193392
0.591037
0.0171574
-0.0418849
0.0730237
-0.000479473
0.0733301
0.0184527
0.0817883
-0.0215858
0.0685871
-0.0239363
0.0497044
0.0743525
1.70378e-07
1.04543e-06
-6.46254e-05
-8.8528e-08
8.47733e-07
-3.22705e-05
-4.60312e-07
7.24232e-07
-2.40198e-05
-3.30029e-07
4.95508e-07
-4.34384e-05
4.7471e-07
6.0257e-07
-7.34186e-05
5.03835e-07
-1.88268e-05
2.34706e-09
4.90072e-07
-2.16108e-05
4.17711e-08
3.19444e-07
-1.18544e-05
1.17811e-07
3.56208e-07
-1.32542e-05
3.48782e-08
1.85056e-07
-1.11346e-05
-7.18184e-10
3.37132e-07
-1.2911e-05
2.05644e-07
-6.93226e-06
-4.92035e-11
1.44279e-08
3.04302e-09
3.26774e-10
1.19704e-08
2.13809e-09
5.1972e-10
1.47663e-08
2.74527e-09
3.68241e-10
5.9021e-09
1.13412e-09
1.51561e-09
1.05869e-08
1.83603e-09
1.04065e-08
2.44046e-09
-5.8565e-05
0.0158377
-3.80563e-11
-0.000154114
0.0156383
-2.4324e-11
-0.000275265
0.0157259
-3.14198e-11
8.89557e-05
0.0157872
-2.82653e-10
0.00128266
0.0158732
-3.20679e-07
0.0172702
4.23293e-05
-0.000159323
0.0820223
-1.32397e-12
-0.000527033
0.0833289
-8.20824e-13
-0.000437299
0.0836605
-1.08039e-12
-0.000154524
0.0819148
-1.45835e-11
0.000675141
0.0805948
-1.10699e-08
0.0876918
-3.95693e-05
-0.00151906
0.231871
-5.0574e-07
-0.000809326
0.233091
-2.22578e-07
0.000501835
0.232894
-6.70163e-08
-0.000553448
0.233349
-7.24238e-07
-0.00327213
0.231161
-2.06739e-06
0.238206
-2.94901e-06
-0.00463034
0.377954
-2.08968e-05
-0.00060673
0.370385
-2.10478e-05
0.00342129
0.371292
-1.98315e-05
-0.00108757
0.377617
-2.25676e-05
-0.00820357
0.379422
-2.79616e-05
0.369992
-7.44045e-06
-0.00396817
0.542541
-1.21367e-05
-0.000621208
0.525319
-1.40835e-05
0.00437665
0.528754
-1.17105e-05
-0.00235155
0.53813
-1.4112e-05
-0.00972938
0.543652
-1.69203e-05
0.520407
-6.40582e-06
0.00839806
0.936088
-1.03371e-06
7.48098e-05
0.927536
-1.63727e-06
-6.62344e-05
0.924685
-1.35366e-06
0.000580519
0.958439
-1.28903e-06
-0.00307979
0.982173
-1.53896e-06
0.921116
-2.31071e-07
0.017535
0.841172
-0.0146051
-0.00276368
0.900892
-0.000236969
-0.00974157
0.880098
-0.00768432
0.00801003
0.846753
-0.0154431
0.015103
0.867283
-0.0149049
0.860137
-0.00042937
-0.008185
0.282656
0.120855
-0.00112884
0.380594
0.106469
-0.00302684
0.346142
0.10789
-0.00413402
0.280315
0.123377
0.00117816
0.321725
0.128053
0.355257
0.110418
-0.00663587
0.0132107
0.000736394
-0.0280514
0.00422788
-0.0128837
-0.000226071
-0.00424031
-0.0058529
-0.00110073
-0.0286087
6.46172e-06
-4.54138e-05
-0.00013228
9.52378e-07
-1.88893e-05
-5.07433e-05
-3.70624e-06
-1.3765e-05
-3.30971e-05
-8.70904e-07
-1.93304e-05
-0.000109825
1.44371e-05
-3.27652e-05
-0.000154118
-8.45008e-06
-3.0996e-05
-1.6394e-07
-3.00886e-09
-7.35737e-05
2.51177e-06
-2.11239e-09
-4.24092e-05
6.05692e-06
-2.71048e-09
-4.59859e-05
1.86146e-06
-1.12026e-09
-9.62385e-06
-1.45271e-07
-1.8115e-09
-4.64547e-05
-9.9269e-10
-2.8331e-05
-4.43453e-12
3.85942e-11
5.59152e-17
-3.71152e-12
2.49721e-11
8.2225e-19
-1.20613e-12
3.22824e-11
2.32027e-20
-2.05677e-12
1.47123e-11
5.8487e-18
-2.90176e-12
2.53717e-11
1.69537e-15
1.44488e-09
9.58807e-18
-3.63267e-14
1.39849e-12
-8.17108e-13
-3.13052e-14
8.6909e-13
-5.38824e-14
-2.99901e-13
1.1312e-12
-2.4029e-17
-2.78524e-10
1.02819e-11
-1.25729e-17
-3.32694e-07
1.17618e-08
5.62473e-17
4.1998e-05
1.13671e-19
-4.75876e-16
8.43427e-14
-2.63638e-15
-3.95786e-16
5.04527e-14
-2.6324e-17
-1.65787e-14
6.7e-14
-3.42849e-19
-5.21319e-12
8.94988e-13
-1.1066e-20
1.53572e-11
6.71238e-10
2.19645e-18
2.42881e-06
-3.81435e-15
-6.75025e-11
4.79038e-08
-5.53576e-07
-3.22346e-12
2.09013e-08
-2.43544e-07
-2.75127e-10
6.34473e-09
-7.3089e-08
9.26664e-11
6.78795e-08
-7.92489e-07
2.54469e-09
1.79614e-07
-2.25179e-06
3.5588e-07
-7.75026e-07
-4.23608e-08
2.0977e-06
-2.28369e-05
-1.65787e-09
1.88012e-06
-2.28919e-05
2.16227e-08
1.8187e-06
-2.16163e-05
-5.24586e-09
2.14142e-06
-2.45463e-05
-2.04249e-08
2.66545e-06
-3.03367e-05
1.00022e-06
-8.56842e-06
-1.0745e-07
2.97296e-06
-1.27794e-05
-1.38162e-08
3.11603e-06
-1.52801e-05
3.91069e-08
2.75323e-06
-1.25042e-05
-4.91575e-08
2.97239e-06
-1.46313e-05
-6.63666e-08
3.38304e-06
-1.73995e-05
1.76512e-06
-8.11968e-06
1.11018e-07
1.89167e-06
1.5713e-07
-1.54833e-08
1.95794e-06
-5.39837e-08
-6.84209e-08
1.73129e-06
3.94487e-09
2.54856e-10
1.57228e-06
9.16687e-08
5.56458e-08
1.55063e-06
6.39214e-08
1.20567e-06
-2.44921e-08
0.000599622
0.0590191
-0.00225713
-5.2183e-05
0.000389263
2.70595e-05
-0.000653093
0.0114619
8.70482e-05
0.000482398
0.0496026
-0.00111301
0.00118907
0.0437793
-0.00103703
0.000713819
4.69154e-05
-0.000107416
-0.00244623
-0.0213842
-0.00242753
0.0195525
-0.0129893
-0.0029065
0.0160565
-0.0171945
0.00198846
-0.00138732
-0.0200909
0.0137463
-0.00227938
-0.0210898
0.0232092
-0.0120676
-0.00344323
0.00247902
-0.000325784
-0.00150987
0.00305102
0.000323192
0.000175741
-0.000582052
-0.00474092
7.69542e-05
-0.00130132
-0.00152713
0.0556787
-0.054953
-0.0230455
0.0458221
-0.0248583
0.0133469
0.0522887
-0.0894826
0.0168251
0.0445036
-0.0486807
-0.00826761
0.023557
0.000290499
0.0443192
-0.0570629
0.00231241
0.100767
-0.0479633
-0.0212897
0.0781
-0.00901345
0.0315798
0.0492075
-0.0503694
0.0541493
0.0389515
-0.018837
-0.0025483
0.0581539
0.0178856
0.09768
-0.0627528
0.030932
0.110765
-0.0412833
0.0247625
0.0893707
-0.00522958
0.0446134
0.0431395
-0.0155849
0.0205958
0.052322
0.00595532
-0.0284957
0.0878265
0.0125474
0.116432
-0.055083
0.0688854
0.0757922
-0.0341911
0.0945097
0.0504916
0.0131125
0.0250285
0.00363525
0.0537894
-0.00441878
0.0248566
0.0386944
-0.0372912
0.0826815
0.00243492
0.127393
-0.0563033
0.0616159
0.0350413
-0.0212756
0.00207529
0.00038046
0.030927
0.012924
-0.00959927
0.0411561
0.00139017
0.00589938
0.0432705
-0.0106018
0.0026961
0.0466709
0.0661738
0.0209291
0.0324452
-0.0205118
0.000918059
0.0453941
-0.033387
0.0233395
0.0274793
-0.0157554
0.0274335
-0.0360864
0.0452411
0.0275864
-0.0193305
-0.0041549
0.0325376
-0.00472167
0.0298623
0.0172248
-0.0562272
0.012204
0.0406931
-0.0724778
0.0159456
0.0146238
-0.0520785
0.0137702
-0.00442246
0.00249014
0.0214787
-0.0220476
-0.0157005
0.0182768
-0.0350859
0.0171606
0.00572477
-0.0704135
0.00873875
0.0182861
-0.0899971
0.00528099
0.00727653
-0.0682861
0.00609546
0.000341908
-0.00394321
0.00945709
-0.00188874
-0.025433
0.0117656
-0.0500007
0.00808667
-0.00440482
-0.035119
0.000334435
0.0012925
-0.087007
-0.00963112
0.000350234
-0.0689972
0.00105207
-0.000282958
-0.0171107
0.00802215
-0.00280985
-0.0214153
0.00429457
-0.0444825
-0.0020178
-0.000756463
-0.0279469
0.00147795
-0.00981576
-0.0232058
0.00206045
-0.0278367
-0.0546312
-0.000756199
-0.0092446
-0.0393939
0.000178109
-0.00498562
-0.0171664
-0.00112825
-0.0382014
-0.0052634
-0.000469534
-0.0134994
-0.00407639
-0.00462254
-0.00988821
0.00201178
-0.0168028
-0.0230893
-0.00287427
-0.0151772
-0.0281206
-0.00316487
0.0063919
-0.0202756
-0.0135624
-0.0198196
-0.00597861
-0.00119206
-0.00477676
-0.000591156
-0.00546006
-0.00668536
-0.0100665
-0.00306456
-0.0231823
0.00424582
-0.0201507
-0.00901475
-0.0484182
0.0443523
-0.0519075
-0.0560352
0.0520357
-0.0700483
-0.0575275
0.031751
-0.0547163
-0.0097486
0.036457
-0.110433
0.00214851
0.0368384
-0.0472061
0.0411915
-0.0988647
-0.0521387
0.0799775
-0.0199556
-0.0384268
0.0905509
-0.0342858
-0.0522439
0.0589334
-0.00719855
-0.00652708
0.0643917
-0.056876
0.0228492
0.0835233
-0.0477125
0.10172
-0.105179
-0.0492946
0.122863
-0.00942785
-0.0320274
0.136662
-0.0386941
-0.0128649
0.0502613
-0.0390151
0.00235286
0.0856104
-0.0330661
0.0323024
0.12532
-0.0609182
0.145645
-0.0624331
-0.0658949
0.169274
-0.0152309
-0.0107422
0.151356
-0.0570551
0.00844868
0.0452078
0.0170701
-0.00890104
0.120712
0.0193114
0.0172156
0.151968
-0.0562392
0.156383
-0.0580628
0.0127293
0.172521
-0.0380225
0.0249383
0.12764
-0.0147171
-0.0144224
0.0400394
0.0573975
-0.0265737
0.0122689
0.0680473
-0.018442
0.0913927
0.0121181
0.166156
-0.0150858
0.0590354
0.161337
-0.0485086
0.00262139
0.0298583
0.0221395
-0.0271384
0.0325985
0.0389038
-0.0186184
0.00292012
0.0340812
-0.00255337
-0.000581333
0.0328597
0.00527128
0.0487171
0.0335837
-0.00187561
-0.00969509
0.0129945
0.000161208
0.0120327
-0.00234835
0.00765052
0.00908733
-0.00296922
-0.00220604
0.0124681
0.00488168
-0.0121872
0.00675706
0.000594792
0.00445015
0.00762839
-0.00565011
6.37749e-05
0.00406611
0.00233261
0.000447088
-0.000178515
0.0011826
-0.00209179
0.00123178
-0.00565413
0.00676283
0.00196257
-0.00376727
0.000559878
0.00202228
1.59872e-05
0.00679228
-0.00998163
-0.000793176
0.00063996
-0.000190901
1.13398e-05
0.000331454
0.000318126
-0.000184275
0.000349837
-0.000496746
0.00031148
-1.97992e-05
-8.77576e-05
-4.20952e-05
0.000496783
-3.84321e-06
0.00133924
-0.00225162
-0.000543581
0.000440278
-0.00255557
6.1731e-05
2.46569e-05
-3.95763e-05
9.27571e-06
-2.07962e-05
-8.17432e-05
-2.3833e-05
-0.00100766
-0.000201545
-4.84472e-05
-0.000821939
-0.000382315
-0.000172656
-0.00346174
-8.47162e-06
-8.94345e-05
-0.00429654
-6.05188e-06
-2.38887e-07
-0.00306571
-3.41926e-05
-4.77313e-05
-0.000804409
-0.00255212
0.000199048
-0.000494175
-0.0134988
-0.00149318
-7.52422e-05
0.00241632
-0.00777036
0.000641473
-0.00732812
0.000719464
-0.0144456
1.37362e-05
-0.0218078
-0.00195202
-0.0172046
-0.00639501
-0.0365849
0.00885877
7.09855e-06
-0.00617851
0.00801156
-2.11492e-07
-0.00745164
-3.063e-06
-5.50589e-06
-0.00997252
0.000572753
-3.96364e-06
0.0349347
0.0117229
-1.21799e-06
0.0163389
-3.45873e-07
-0.0103724
0.00658497
9.94525e-05
-0.000205252
0.00205156
-9.90386e-06
-0.00749204
8.54467e-05
-1.629e-07
-0.00430025
0.00378681
-7.44079e-08
0.0218369
0.0138226
-7.71225e-06
0.0194422
-4.20073e-06
-0.00632852
0.00853435
0.000197294
-0.0042003
0.00632919
-2.71332e-05
-0.0166833
0.0161167
-2.17678e-06
0.00316648
0.0495505
-2.29886e-07
0.033774
0.0560583
-1.5845e-05
0.0347804
-0.0019228
-0.00696941
0.0136854
-0.000114764
-0.0421153
0.0713158
-9.00101e-05
-0.0131805
0.16816
-2.59406e-06
0.0568716
0.178361
-2.95949e-07
0.0714748
0.177111
-7.69676e-06
0.10559
-0.00145882
-0.0251081
0.057829
-0.000479102
-0.00893202
0.134257
-0.0159139
-0.00309596
0.0764476
0.0218586
0.0289742
0.122619
0.0119525
0.0602405
0.123763
-0.0557692
0.14887
0.00161361
-0.025482
0.0760598
-0.00601326
0.00917989
0.185695
-0.00918967
-0.0100437
0.00242647
0.0397996
-0.00841969
0.00119792
0.0566076
0.0270196
0.0169302
0.0223594
0.0546828
0.0246439
0.00170974
0.0418383
-0.0117204
-0.00207118
0.0269528
0.0076603
-0.00396931
0.000766728
0.00531893
-0.000222107
-2.21968e-06
0.00788455
0.00223936
-0.000104584
0.00648912
5.68343e-05
0.0107406
-0.000565945
0.00141844
-0.000222089
-0.000314838
0.000706376
0.00321476
-0.00233959
0.000267992
0.00081942
-0.000111617
-0.000356987
0.00162468
2.31406e-05
2.76758e-05
0.000288001
-0.000249115
0.000525839
-0.000129659
0.000648534
-1.59271e-05
-7.70644e-05
0.000240666
0.000310569
-4.30219e-05
0.000127907
4.82441e-05
-9.72412e-05
-4.01733e-06
5.96574e-06
-0.00010512
1.64481e-08
1.03019e-05
0.000185713
0.000109015
-5.67358e-06
6.47367e-05
2.95322e-06
3.02068e-05
0.000243716
1.46398e-05
8.99305e-06
0.000148516
5.92136e-06
-6.12669e-06
-2.87449e-05
1.5926e-05
1.31988e-05
-6.68777e-05
-7.00604e-06
9.92246e-05
2.35154e-05
1.25052e-06
7.50808e-06
4.87078e-06
0.000909743
-0.000320466
0.000478649
0.00162309
-0.00171059
0.000675447
0.00189327
-0.00273692
0.00019312
0.00103189
-0.004536
-0.00812363
-0.000141046
0.000286517
0.00239812
-0.0106398
0.00747705
-0.00994021
0.00820478
-0.0127579
0.000905626
-0.0156855
-0.00347845
-0.0165418
-0.0101235
-1.98611e-09
8.84743e-06
-1.62308e-06
-4.8691e-08
2.61473e-09
-4.01329e-08
4.07938e-09
-1.14003e-10
-5.44381e-06
1.16635e-08
8.90477e-10
-3.89116e-06
3.75878e-08
6.20236e-09
-1.15295e-06
2.18434e-08
-2.39331e-07
-8.09338e-09
0.00012813
-1.97106e-05
6.04862e-09
1.27192e-07
-9.92784e-06
5.32236e-09
6.20326e-09
-8.75359e-08
3.95922e-09
1.21792e-09
-1.49854e-08
8.42709e-08
7.47832e-08
-7.78019e-06
1.26684e-07
-4.14442e-06
8.1652e-07
0.000327353
-1.81369e-06
3.66533e-08
5.26497e-07
-2.66443e-05
2.07238e-08
3.51727e-08
-2.07508e-06
7.98189e-09
1.2099e-09
-1.36181e-07
9.23664e-08
2.06687e-07
-1.59363e-05
0.00285198
4.26605e-06
3.73067e-05
0.000268442
-9.91349e-05
-1.27169e-08
2.73311e-06
-5.47642e-05
1.84205e-08
2.90077e-07
-2.74092e-06
1.94227e-08
4.0617e-08
-2.11425e-07
1.01438e-07
5.74553e-07
-7.99728e-06
0.004957
0.000116421
-0.000214296
5.10643e-05
-2.50151e-05
-0.0189473
0.00316348
-0.000347636
0.00223014
0.0810966
-2.45668e-05
0.04703
0.121506
-1.36295e-06
0.0072387
0.0700173
-0.00015976
0.0242735
0.000171866
-0.00607533
0.000645863
-0.000475841
-0.00524925
0.0588584
-0.00793476
0.00274876
0.0512366
0.0120519
0.0204947
0.0487233
0.0182812
0.0117978
0.0557758
0.00150726
0.04205
-0.00284624
-0.0147995
0.00734228
-0.000814126
-0.0176417
0.0468368
-0.000416621
-0.00319757
0.00265126
0.0200417
0.00130955
-0.00100367
0.0138625
0.00546434
0.000385751
0.01479
0.000699211
0.0137721
-0.00835295
0.00457905
0.00133508
-0.00338187
0.000633891
0.00817354
-0.000522198
6.12983e-05
0.00052679
-0.000163024
-6.48745e-07
0.000255488
-0.000158369
-9.37269e-05
0.000760291
-7.48277e-05
0.000902356
-0.000357229
9.02079e-05
0.000465802
-9.56588e-05
0.000148251
0.00050976
-2.44201e-05
9.30336e-06
2.51567e-05
-2.59719e-05
8.89733e-07
5.76274e-06
-0.00010322
9.52058e-07
8.15452e-05
-1.08744e-05
0.000145182
-9.75511e-06
5.57045e-05
2.32312e-05
-1.60715e-08
0.000104684
4.39396e-05
-1.59934e-07
1.04172e-05
1.83727e-06
-1.60131e-05
3.19136e-05
1.23388e-06
-3.04519e-06
-1.91481e-05
-9.00945e-08
1.25837e-05
7.4082e-07
6.11127e-06
1.03767e-05
6.06942e-07
2.98664e-05
0.000527281
8.62148e-06
3.12924e-05
0.000648569
3.20906e-05
0.000378985
0.000880929
0.000182045
-1.27932e-05
-0.00717961
-0.000329067
0.000283889
1.84103e-06
0.00319192
-0.0140445
0.00506204
-0.0122086
0.0060557
-0.0104569
0.00503938
-0.0130675
-0.00389068
-0.0140705
-0.0149637
2.36942e-05
3.80905e-05
-6.63967e-05
6.26581e-06
7.2397e-05
-0.000135699
-1.53009e-05
8.12859e-05
-0.000156222
-1.17308e-05
4.99124e-05
-3.16391e-05
2.60546e-06
2.95383e-07
-3.73011e-05
0.000100182
-0.000130173
-1.42385e-05
0.000206425
-2.64277e-05
6.70193e-07
0.000118787
-4.51438e-07
1.30402e-05
9.78297e-05
-2.59295e-05
3.18549e-07
0.000208446
-1.43642e-05
-2.35229e-05
0.000185259
-3.01552e-05
0.000229904
-3.51059e-05
-5.39841e-05
1.89059e-21
-4.0592e-06
-1.38349e-21
6.64774e-05
-4.54279e-19
4.23429e-05
-1.0609e-21
-2.98834e-06
-2.49385e-23
-3.88273e-21
-2.49802e-06
-4.71855e-05
-1.35664e-14
2.82002e-07
-2.4114e-07
3.84065e-19
5.45592e-06
-4.06076e-05
1.45745e-20
1.04598e-07
-2.375e-06
1.75188e-18
-6.95115e-06
-5.47283e-05
3.63329e-16
-1.23969e-05
1.1242e-17
-1.21898e-09
7.25011e-21
2.20979e-16
-6.93797e-07
-5.60764e-23
2.65801e-18
3.7477e-07
-1.00889e-19
-6.79354e-18
2.70889e-08
-4.30857e-23
1.0886e-18
-4.29138e-07
-5.73533e-24
1.25414e-15
-1.63803e-22
4.26716e-17
-8.0312e-25
2.92312e-20
-4.41617e-22
-9.98752e-22
3.06151e-22
-5.55916e-19
4.60578e-25
-7.98291e-22
-7.19439e-24
-4.94203e-24
-4.05372e-21
-2.8963e-18
3.71163e-15
-1.72192e-14
5.64006e-22
4.54115e-17
-2.82426e-19
1.12151e-18
-2.01627e-19
-8.93212e-21
1.82216e-16
2.52849e-17
-2.366e-18
-4.66777e-17
2.59025e-14
-6.51921e-16
2.98175e-16
-3.9824e-18
-1.58639e-16
3.48699e-19
-4.06406e-16
-7.76406e-19
-1.37518e-20
-4.80288e-18
3.16314e-19
-8.11056e-18
2.26759e-20
-6.46412e-19
-9.69768e-21
-2.80654e-18
-1.65076e-15
-5.6566e-23
-2.58354e-15
-5.06747e-20
-3.96609e-17
-1.25079e-21
8.42456e-19
-3.46889e-22
-3.86023e-20
4.68305e-20
-5.15729e-19
3.08651e-23
-5.64952e-22
-1.24858e-22
-3.53236e-22
-1.55746e-19
-1.28409e-17
1.37422e-16
1.0241e-13
-1.29874e-20
-4.07386e-18
7.22473e-16
-6.32703e-21
-2.43714e-17
3.29028e-19
2.14703e-18
-1.70899e-17
1.64623e-19
9.80818e-21
5.73171e-16
-2.70426e-17
1.49027e-18
-7.27188e-20
-1.93804e-18
3.22442e-17
-3.28929e-17
-1.78302e-20
-1.51286e-18
9.33261e-19
-3.80706e-20
-2.27941e-17
5.78532e-18
2.45349e-19
-2.1952e-20
4.05396e-18
-2.66795e-20
-1.1947e-20
-1.30565e-16
-6.70757e-18
-3.73981e-19
-1.01567e-21
-7.40109e-19
-6.36724e-20
3.47024e-20
1.94765e-20
5.00365e-19
-2.95493e-23
5.10884e-22
-5.36152e-20
2.44066e-22
1.6949e-19
-1.3891e-19
4.61154e-18
9.97696e-14
-1.70121e-21
-2.30509e-19
6.96437e-16
-1.6633e-22
-1.13135e-18
8.94149e-18
2.89436e-20
-1.64418e-19
2.88792e-19
-4.1543e-19
1.29739e-17
-8.91351e-19
-4.37219e-15
5.57348e-16
-4.56614e-20
9.09856e-20
-1.03461e-18
-7.61406e-22
-4.72704e-18
5.38489e-18
-1.51463e-21
-2.00716e-17
2.48581e-17
2.95342e-20
-3.87041e-23
3.85853e-18
-2.32956e-19
-1.01395e-20
-2.50622e-18
-1.08303e-13
1.0393e-13
-1.63561e-22
-1.63926e-21
-1.97492e-20
1.09515e-19
-4.36489e-26
4.79852e-19
-2.07158e-23
8.44385e-22
1.52429e-23
2.22903e-19
5.98179e-15
-1.32756e-10
-1.30234e-06
3.30769e-06
5.56888e-10
-8.421e-07
2.72463e-06
-1.57019e-09
-6.34747e-07
1.48344e-06
1.11878e-08
-1.52997e-06
3.20384e-06
4.02456e-08
-3.34462e-06
4.37733e-06
-7.94114e-07
1.01669e-06
1.66329e-08
-4.65519e-09
1.60624e-06
8.89968e-10
-4.72189e-11
1.46335e-06
-1.09658e-08
-3.12218e-11
1.45076e-06
8.66018e-09
-2.85082e-09
1.46343e-06
1.19933e-07
-9.84136e-09
1.4251e-06
-1.30513e-11
5.29335e-07
2.88541e-12
-4.65807e-09
4.07955e-16
-4.43411e-11
-1.85108e-12
-2.93703e-11
-2.53141e-12
-2.85014e-09
1.30647e-11
-9.85696e-09
5.23369e-15
-8.74737e-07
-2.16769e-05
1.16005e-05
9.35166e-09
-1.8805e-05
9.40046e-06
8.06582e-07
-1.8201e-05
8.62409e-06
6.6014e-08
-2.12377e-05
1.08875e-05
-1.44423e-06
-2.45162e-05
1.21622e-05
-6.62971e-06
4.35756e-06
3.2277e-07
-1.79969e-06
1.00967e-06
1.85731e-07
-6.07371e-08
3.15164e-06
-1.98524e-08
-5.47651e-08
3.43692e-06
3.37716e-07
-1.23944e-06
1.103e-06
2.73084e-07
-2.62763e-06
3.22798e-07
-4.92909e-08
1.45662e-06
5.4846e-09
-1.80983e-06
2.31902e-11
-5.53337e-08
-2.31929e-09
-5.24521e-08
1.11852e-10
-1.24473e-06
1.05265e-08
-2.6479e-06
-3.87758e-08
-2.21174e-06
-2.73268e-05
2.93888e-05
-2.12579e-07
-2.51824e-05
9.41108e-06
1.28191e-06
-2.2213e-05
1.45274e-05
-7.18966e-07
-2.6453e-05
2.88238e-05
-3.70729e-06
-2.74727e-05
2.80059e-05
-1.47878e-05
5.78316e-06
-2.36028e-07
-1.21408e-05
3.75914e-06
7.9674e-07
-6.62537e-06
2.57871e-06
2.44984e-06
-5.82945e-06
2.98733e-06
3.66973e-07
-1.16749e-05
6.7734e-06
-2.68739e-06
-1.24085e-05
6.96912e-06
-4.79685e-06
8.96633e-07
8.55186e-07
3.65275e-06
1.23817e-08
-5.84023e-06
1.69049e-09
-5.87123e-06
3.42228e-07
3.19433e-06
1.58629e-07
1.18283e-06
-1.0839e-06
2.2431e-07
9.43069e-07
2.85152e-05
-1.96954e-08
2.91925e-07
3.54225e-06
-1.2615e-07
2.96293e-07
1.46995e-05
-9.80699e-09
5.0825e-07
2.86114e-05
7.17248e-08
3.93716e-07
2.76627e-05
1.29966e-07
4.73337e-06
7.9988e-07
9.43937e-06
-6.39775e-06
4.36604e-08
5.00457e-07
8.07284e-07
2.25149e-08
1.30167e-06
5.43782e-07
-3.23888e-09
2.99779e-06
3.24563e-07
-1.07891e-07
1.55576e-06
1.90704e-06
-7.56958e-07
2.46387e-07
1.86785e-06
2.05298e-05
8.46055e-07
-7.8796e-07
1.20568e-06
5.09532e-06
2.58626e-07
2.39483e-05
-2.66757e-06
6.99893e-06
-4.75087e-06
-3.79979e-07
2.16991e-06
-0.00223021
-2.34482e-06
5.04544e-06
2.64857e-05
-1.19118e-05
7.78909e-05
3.38843e-05
1.99703e-05
0.000135229
-0.00125086
6.12928e-05
0.000192078
-0.00124212
9.35443e-06
0.000103733
7.49335e-06
0.000192237
-0.000203873
-1.23276e-06
4.94107e-05
-3.60683e-05
-7.0953e-06
0.000108808
-2.57221e-05
9.13459e-06
0.000220883
-0.000104373
7.70081e-06
0.000246226
-5.36331e-05
4.19774e-05
-2.61227e-05
-4.19023e-07
-0.000459556
-1.06628e-07
-9.10844e-05
5.12665e-06
-0.000238111
6.87637e-06
-0.0004815
-2.05087e-06
-0.000480353
-6.01035e-05
-0.00183298
-0.00634338
-0.0137639
-0.000740361
-0.00707212
-0.00693128
0.000337362
-0.00688057
-0.0104716
0.000384668
-0.00674747
-0.0132844
0.000447567
-0.00774971
-0.0134281
-0.00485458
-0.00658501
-0.000382957
0.00213449
-0.00668453
-5.92027e-05
0.000223696
-0.0056486
0.00016894
0.00119996
-0.00625821
-2.43045e-05
0.00225658
-0.00671504
-0.000168593
0.00209878
-0.00685065
0.000632578
-0.00571607
-7.01847e-05
-2.83079e-05
-2.95245e-06
-4.67957e-05
5.58349e-05
-3.33798e-05
-3.05784e-05
-3.27231e-05
-9.16176e-05
-3.25441e-05
-4.18086e-05
-0.00263225
0.0126585
-0.0107188
0.000809378
0.0114574
-0.0101739
0.00108889
0.0116598
-0.010491
-0.00126952
0.0115758
-0.0105174
-0.00351382
0.0111714
-0.0105338
0.0112536
-0.0098973
-0.000614767
2.52058e-05
2.40878e-05
0.000278979
5.38905e-05
8.02349e-05
0.000135579
3.12452e-05
0.000119429
-0.000517994
3.08518e-05
0.000126215
-0.00101202
2.37539e-05
-2.16609e-10
5.29703e-05
-9.37981e-10
-3.26349e-06
1.61549e-07
3.48027e-06
3.53158e-07
8.39505e-07
5.06851e-07
-1.53382e-06
5.02122e-07
-1.03513e-05
2.83671e-08
8.10153e-07
0.00131246
-5.29927e-08
-0.00881949
0.0116572
0.000910213
-3.15044e-07
-0.00888329
0.0131349
-0.000618185
-6.66153e-05
-0.00860552
0.0134024
-0.00120896
-1.9122e-06
-0.00872619
0.0129141
-0.000954132
-6.82712e-08
-0.00897304
0.0127564
-8.63612e-08
-0.00892676
0.0120071
9.97867e-12
-2.40896e-08
4.10754e-12
-2.89198e-08
-8.8069e-08
-2.98349e-08
1.60963e-10
-1.97298e-07
-8.46892e-09
-7.30207e-07
2.39003e-07
-6.62044e-05
-1.22623e-10
-4.74947e-08
1.55034e-08
-1.88957e-06
-7.09166e-11
-1.0119e-09
6.42963e-10
-6.79879e-08
-6.05317e-10
7.7013e-10
-8.66421e-08
-2.94957e-09
4.89678e-11
-2.11889e-08
-1.1266e-08
6.52231e-11
-2.15836e-08
3.5983e-09
1.32884e-09
-9.52822e-07
2.66192e-09
1.67566e-10
-1.28927e-07
-4.88693e-12
2.84326e-11
-2.72126e-10
3.42614e-12
-1.08274e-09
-6.95607e-05
-5.72616e-11
-0.00439693
-0.000188758
-1.19722e-09
-0.00446958
7.00008e-05
-2.394e-07
-0.00448956
0.000133428
-1.56036e-08
-0.00446627
-5.46728e-06
-6.37942e-10
-0.00441447
-7.66965e-10
-0.00442159
-2.66281e-12
-5.04269e-11
-2.09703e-14
-9.68441e-10
-7.04832e-11
-3.67591e-19
-6.87671e-11
-1.29507e-09
-7.44121e-17
-1.71731e-12
-1.91106e-10
2.17242e-11
-7.61642e-13
-8.46734e-12
1.49094e-12
-3.51497e-12
2.08856e-12
-1.49355e-12
6.44829e-29
-6.75943e-12
4.23961e-29
2.69867e-11
1.51283e-13
3.4199e-12
2.71391e-14
1.26686e-13
-9.89801e-17
-7.60141e-23
2.27412e-05
-6.96767e-14
-1.29682e-05
5.31259e-05
-2.13807e-16
-0.000101372
4.53391e-05
-1.73e-13
-7.45753e-05
1.73074e-05
-2.17041e-11
-4.288e-05
-2.63097e-06
-1.48681e-12
-2.38006e-05
-2.08397e-12
-7.53414e-05
-1.30862e-19
5.383e-28
-9.04596e-26
-2.14305e-16
5.29501e-28
-1.10976e-22
-4.65398e-14
-1.26763e-13
-4.20716e-20
-2.58654e-15
-3.94702e-14
9.73067e-15
-2.07785e-15
-1.03103e-16
1.55159e-15
-6.18204e-20
2.24123e-15
-3.56231e-30
-5.43489e-29
-1.3471e-29
-5.39892e-29
1.30512e-14
1.38255e-14
2.29179e-16
1.40483e-16
7.61851e-20
2.78671e-20
-8.50503e-28
-2.98299e-05
-7.52355e-23
0.00382357
-2.21755e-05
-1.00313e-19
0.00377561
-1.06137e-05
-9.19166e-17
0.00377278
-2.54227e-05
-9.6699e-15
0.00380839
-5.88345e-05
-1.54737e-15
0.00385198
-2.23786e-15
0.00376518
-7.53501e-23
5.32127e-28
2.35583e-26
-1.005e-19
5.91851e-28
7.78874e-25
-1.17262e-17
-8.03775e-17
2.84151e-20
-1.46847e-18
-8.1427e-19
7.38303e-18
-1.10168e-18
-4.76482e-22
1.68019e-18
-1.05697e-25
2.26501e-18
-1.8427e-30
-2.08071e-28
-2.00626e-29
-2.17261e-28
4.16426e-18
1.37326e-14
5.73404e-20
1.43642e-16
1.92173e-23
8.46333e-20
1.91107e-23
-0.000149905
-6.24095e-08
0.00745362
-1.04979e-05
-3.47291e-07
0.00689806
2.58883e-05
-4.40703e-07
0.00724516
-6.02684e-05
-3.39064e-07
0.00729609
-0.000188927
-2.98527e-10
0.0072761
-1.98529e-09
0.00680895
-2.55677e-10
-9.83591e-11
-6.20554e-08
-4.70502e-11
-8.27149e-10
-3.46672e-07
4.08716e-11
-4.20141e-10
-4.40371e-07
-5.36352e-14
-4.21869e-10
-3.38601e-07
-1.03731e-12
-1.25233e-11
-2.8502e-10
-7.74188e-10
-1.21214e-09
1.17255e-13
-9.85334e-11
1.62717e-12
5.63419e-11
-5.48984e-14
-4.18445e-10
2.27339e-13
-4.22152e-10
2.56792e-13
-1.25521e-11
-3.54302e-09
0.00011018
-2.41447e-05
3.12605e-05
-8.04814e-05
0.000170545
-0.000119359
0.000280873
-0.0001262
-3.80929e-05
-1.37373e-07
-5.14536e-07
1.15381e-08
-1.614e-07
-2.67295e-08
-7.14387e-07
-2.71593e-08
-5.06952e-07
1.0989e-07
-5.01415e-07
1.36639e-10
-2.8215e-08
-5.16482e-07
5.01712e-11
1.57029e-10
-3.62307e-10
-7.77859e-11
6.18587e-11
5.40617e-07
-1.8603e-06
-3.67192e-07
9.64421e-07
-4.00326e-07
6.62452e-08
5.22237e-06
-1.5692e-05
2.61197e-07
-1.06931e-07
-1.5396e-06
-2.43582e-09
-1.08645e-07
-1.3062e-06
-9.12356e-08
-1.78122e-06
4.36436e-07
8.08187e-07
-3.0629e-88
-1.3756e-06
9.16726e-08
-9.60522e-09
-1.13629e-08
1.07142e-06
-1.22557e-09
-3.89215e-09
-3.18652e-07
-2.8427e-47
-2.24472e-09
-8.46167e-07
-2.99855e-19
-3.62507e-07
-2.21013e-16
-1.7186e-06
6.54889e-91
1.5398e-91
-1.13181e-10
9.34026e-11
-2.87826e-50
-1.54575e-09
7.68835e-51
9.49597e-51
-3.00155e-19
3.00274e-22
-2.21313e-16
5.11046e-06
-3.05547e-05
9.14483e-06
-2.89857e-07
-6.477e-06
2.79703e-06
3.62533e-08
-8.11747e-08
-1.23205e-08
8.60507e-08
-3.52936e-08
6.25072e-10
-3.54241e-07
-9.0297e-06
2.24865e-08
-1.77595e-05
4.70158e-06
1.86546e-06
-2.7192e-15
-4.82119e-06
-3.08279e-08
-9.38374e-11
-5.43015e-07
-1.11532e-09
-4.79392e-08
-5.46324e-09
-2.05512e-08
-5.44189e-09
-6.79357e-09
-3.4567e-06
-4.94488e-12
-1.69629e-06
-2.60561e-14
-3.30795e-06
4.63415e-18
-2.72384e-15
6.25773e-14
-4.97308e-13
-1.77696e-10
-5.5093e-09
-2.98684e-15
7.40999e-11
-1.27803e-15
-4.94659e-12
-6.18528e-14
1.15771e-05
-2.02143e-05
2.92729e-05
4.734e-06
-1.42351e-05
1.24774e-05
-2.71988e-07
-1.21133e-07
7.18368e-07
4.35867e-07
-1.32901e-07
2.29397e-08
-3.71877e-06
-9.92418e-06
2.26163e-06
-1.82822e-05
1.97744e-05
3.90924e-06
-2.46257e-12
-1.32309e-07
-1.51141e-07
-5.32245e-09
4.51086e-07