/*--------------------------------*- C++ -*----------------------------------*\
| =========                 |                                                 |
| \\      /  F ield         | OpenFOAM: The Open Source CFD Toolbox           |
|  \\    /   O peration     | Version:  v1612+                                |
|   \\  /    A nd           | Web:      www.OpenFOAM.com                      |
|    \\/     M anipulation  |                                                 |
\*---------------------------------------------------------------------------*/
FoamFile
{
    version     2.0;
    format      ascii;
    class       surfaceScalarField;
    location    "8.65";
    object      phi;
}
// * * * * * * * * * * * * * * * * * * * * * * * * * * * * * * * * * * * * * //

dimensions      [0 3 -1 0 0 0 0];

internalField   nonuniform List<scalar> 
2916
(
-0.00728295
0.221114
-0.213831
0.00735554
0.200958
-0.215596
0.0336216
0.192438
-0.218704
0.0147183
0.23259
-0.213686
-0.0237449
0.251036
-0.212573
0.19487
-0.218615
0.00405003
0.334681
-0.117617
-0.00327505
0.321586
-0.113303
-0.0174274
0.316067
-0.109477
-0.00727156
0.335518
-0.113084
0.009352
0.347105
-0.112693
0.31226
-0.108038
0.00563177
0.382653
-0.0536038
-0.000555146
0.37657
-0.048797
-0.0131806
0.37398
-0.0452876
-0.0058166
0.382308
-0.0541542
0.0108474
0.388833
-0.0583918
0.370055
-0.0469477
0.00292828
0.398353
-0.0186283
-4.41805e-05
0.395607
-0.0160642
-0.00623582
0.395254
-0.0150822
-0.00272589
0.397989
-0.0191904
0.00669683
0.401068
-0.0216579
0.393541
-0.0167883
0.000349399
0.410101
-0.0120976
-0.000509924
0.406159
-0.00969292
-0.00199888
0.407507
-0.0107642
-0.00149327
0.408595
-0.0111116
0.000454392
0.410515
-0.0113941
0.406712
-0.0127167
-0.000666057
0.433688
-0.0229211
-0.000544445
0.42793
-0.0218933
-0.000128424
0.429689
-0.0225977
-0.00123474
0.431942
-0.0222405
-0.00348257
0.43414
-0.0213775
0.428662
-0.0254329
0.000865124
0.474048
-0.0412247
-0.000432611
0.471181
-0.0419529
-0.000744129
0.472116
-0.0421159
-0.00113704
0.473409
-0.0410749
-0.00103059
0.472987
-0.0389538
0.471872
-0.0442405
-3.9817e-05
0.470447
0.00364031
-0.000834929
0.473394
-0.00141748
-0.000767157
0.473277
-0.0012286
-0.00142165
0.47122
0.0028442
-0.00110498
0.465804
0.00686696
0.475275
-0.00450798
-0.00280763
0.329115
0.14414
-0.000218598
0.32785
0.142955
0.000934389
0.328429
0.143696
9.1941e-05
0.3296
0.142462
-0.00192835
0.325899
0.141925
0.328878
0.144468
0.00151694
0.146597
0.181001
0.000146011
0.133997
0.195224
-0.000525289
0.135965
0.193135
0.00504628
0.145495
0.178534
0.00467399
0.147898
0.178374
0.129458
0.204095
0.00420699
0.0709054
0.0714852
0.0019887
0.0485708
0.0876445
0.000831085
0.0497044
0.0874187
0.00572188
0.0716219
0.0689818
0.00770403
0.0828075
0.0631082
0.0417241
0.0954377
0.00100626
0.069899
0.000243931
0.0493332
0.00144893
0.0484994
-0.00121553
0.0742863
0.00388967
0.0777022
0.045614
-0.00151576
0.316134
-0.528449
-0.0189198
0.361277
-0.55947
-0.03531
0.37267
-0.574984
-0.0182629
0.284726
-0.51546
0.0142291
0.250774
-0.495839
0.355299
-0.559686
0.0094314
0.550448
-0.361362
0.0125098
0.5677
-0.322804
0.016226
0.571212
-0.311735
0.0137249
0.552751
-0.378607
0.00567017
0.565116
-0.41898
0.561304
-0.308372
0.00988038
0.610783
-0.12382
0.00808097
0.614703
-0.0940016
0.00321976
0.612729
-0.0819435
0.00641269
0.615924
-0.12052
0.0164231
0.630463
-0.133749
0.607857
-0.0770784
0.00316127
0.730905
-0.141912
0.0015434
0.730807
-0.13055
-0.00151595
0.728846
-0.12814
0.0022279
0.733173
-0.140183
0.0111454
0.740415
-0.140528
0.722814
-0.1206
0.00159276
0.911511
-0.194296
-0.00036375
0.910698
-0.187627
-0.00202849
0.909895
-0.190148
-0.000420002
0.912347
-0.191894
0.00312523
0.91584
-0.190364
0.905208
-0.191986
0.00143912
1.12053
-0.233379
-0.000489456
1.12225
-0.231515
-0.0027309
1.12013
-0.230589
-0.00139618
1.12267
-0.233894
0.000648844
1.1244
-0.231986
1.11879
-0.238361
0.00313763
1.34514
-0.26897
-3.82648e-05
1.35498
-0.271512
-0.00285834
1.34962
-0.268788
-0.00159832
1.35019
-0.269859
0.00242259
1.3507
-0.269276
1.35025
-0.273286
0.00335904
1.59307
-0.247655
0.00010558
1.60932
-0.252497
-0.00283451
1.60271
-0.251383
-0.0013481
1.59957
-0.248021
0.00362621
1.60018
-0.247581
1.60282
-0.253447
0.00203398
1.84969
-0.114509
-6.67164e-05
1.86044
-0.106067
-0.00147888
1.85432
-0.106494
-0.00111245
1.85688
-0.115212
-0.00396166
1.86246
-0.117505
1.84717
-0.103842
-0.00807191
2.012
0.0267665
0.00186494
2.02367
0.0220613
0.0059006
2.01862
0.0247906
-0.00112269
2.0214
0.0210321
-0.0179521
2.03215
0.0255121
1.99685
0.0364578
-0.0611662
1.76713
0.377514
0.0143427
1.73205
0.303748
0.057752
1.72673
0.335903
-0.0109721
1.79
0.369106
-0.0606405
1.81508
0.329844
1.70991
0.321739
-0.118937
1.95597
0.000481089
1.66197
0.0594148
1.7163
-0.0616934
1.9854
-0.0692805
1.90037
1.68624
0.119578
0.766632
-1.41466
-0.156547
1.20935
-1.4927
-0.521538
1.2822
-1.4922
-0.222996
0.58178
-1.39579
0.322841
0.424568
-1.46625
1.21684
-1.45369
0.00866297
1.20619
-0.809583
0.177139
1.40267
-0.684596
0.447371
1.42291
-0.722673
0.232084
1.28996
-0.8715
0.00252864
1.37673
-1.14158
1.53683
-0.625831
-0.00766982
0.763837
0.326203
0.0622856
0.887079
0.351629
0.0918093
0.904344
0.407098
0.117431
0.823527
0.32029
0.24272
0.83476
0.28293
1.07534
0.627123
-0.0085862
0.774526
-0.144015
-0.0177526
0.824762
-0.059068
-0.0281116
0.826963
-0.0404004
0.01046
0.7819
-0.137129
0.130838
0.753154
-0.179301
0.904424
0.181156
-0.00448968
1.26787
-0.683151
-0.0144789
1.2827
-0.635571
-0.0129341
1.27837
-0.643096
-0.00430252
1.26498
-0.683608
0.0203751
1.25274
-0.714631
1.31104
-0.578231
-0.0177894
1.97757
-0.925293
-0.0101007
1.98657
-0.943083
0.0052556
1.978
-0.94558
-0.00681503
1.97487
-0.931711
-0.0373114
1.98341
-0.932159
1.98487
-0.949497
-0.0414826
2.61956
-0.869476
-0.0058496
2.60435
-0.924916
0.0296051
2.59683
-0.923076
-0.00960255
2.61669
-0.872474
-0.0724708
2.65351
-0.876502
2.56577
-0.926657
-0.0359498
2.91404
-0.506187
-0.00554961
2.91195
-0.590499
0.0362811
2.88975
-0.586128
-0.0199169
2.93828
-0.513411
-0.0801381
2.978
-0.511848
2.83665
-0.604463
0.0364531
3.11812
-0.355035
0.000357557
3.19272
-0.350743
0.00191831
3.14994
-0.368247
0.000413193
3.15961
-0.335036
-0.0213091
3.19207
-0.309858
3.10404
-0.392547
0.0641179
3.22971
-0.148948
-0.00814273
3.39475
-0.107708
-0.0353062
3.34178
-0.139887
0.0278138
3.2664
-0.148876
0.0526324
3.32941
-0.136651
3.30356
-0.110424
-0.0344654
2.33107
1.31062
-0.00322486
2.72374
0.943514
-0.0126409
2.61996
1.06714
-0.014409
2.33095
1.30633
0.00358595
2.44795
1.19331
2.63239
0.99649
-0.0988998
4.38594
0.0129018
4.27391
0.0837095
4.26545
-0.000263346
4.40032
-0.108531
4.45659
4.21011
0.174031
-0.980919
-0.607769
0.0717642
-0.813779
-0.576647
-0.21174
-0.691366
-0.517327
-0.0123294
-0.985782
-0.609412
0.351923
-1.06099
-0.769513
-0.627621
-0.474151
-0.00897582
-0.600781
-1.18075
0.200164
-0.642653
-1.06487
0.442369
-0.641496
-1.01475
0.24197
-0.509283
-1.14761
-0.0148143
-0.459908
-1.48588
-0.504547
-0.763722
-0.110207
0.659286
-0.823656
-0.0711946
0.608147
-0.938186
-0.058297
0.612688
-0.859987
-0.0601133
0.673205
-0.860386
-0.0599945
0.713779
-0.890881
0.655728
-0.593149
-0.0765583
1.9273
-1.33548
-0.0527956
1.87173
-1.34641
-0.0607252
1.88318
-1.30297
-0.0514084
1.90703
-1.38027
-0.0242921
1.92564
-1.41828
1.91683
-1.10423
-0.031719
3.29344
-2.01757
-0.0204585
3.25519
-2.0303
-0.0623988
3.28672
-2.0047
-0.0271839
3.25405
-2.06585
0.0718218
3.21703
-2.10502
3.34509
-1.93467
-0.0149777
5.03067
-2.64755
-0.00295513
4.98987
-2.68979
-0.0241944
5.03227
-2.6699
0.00633177
4.97679
-2.68497
0.0773405
4.91523
-2.70137
5.10511
-2.63218
-0.16047
7.56385
-3.24218
-0.00565013
7.34677
-3.43664
0.0863628
7.43413
-3.41694
-0.0114077
7.45496
-3.25287
-0.139414
7.45556
-3.28882
7.39051
-3.35147
-0.346426
9.63328
-2.22919
-0.0477069
9.36454
-2.90699
0.144256
9.45261
-2.79658
-0.148543
9.65191
-2.41756
-0.360076
9.74376
-2.58852
9.29147
-2.86551
0.428767
8.11296
0.736515
-0.01902
9.22969
0.231894
-0.331723
9.03439
0.36268
-0.0213365
8.48378
0.522701
0.203836
8.81689
0.391845
8.80877
0.29399
0.0898629
4.27873
3.59543
-0.195097
6.03527
3.37167
-0.18892
5.61179
3.27654
0.144717
4.74499
3.25629
0.484819
5.00492
3.33522
5.76734
3.41583
0.0192672
-0.120071
5.69015
-0.122632
0.686629
6.43406
-0.132563
0.521522
6.16734
0.0608787
-0.0568651
5.91473
0.454677
-0.16254
5.96697
0.775266
6.44324
-0.207754
4.47363
-0.0104539
4.76324
0.19549
4.58103
0.0225404
4.5164
-0.326223
4.64281
4.65915
-0.0186785
0.582681
-0.564003
-0.242636
0.483036
-0.259079
0.134939
0.550608
-0.928184
0.175319
0.46981
-0.51019
-0.0988299
0.239354
0.0347949
0.457914
-0.556744
0.0196
1.05352
-0.490439
-0.228847
0.826628
-0.0951447
0.321056
0.566626
-0.565921
0.561217
0.435491
-0.205842
-0.030464
0.629273
0.201762
1.01454
-0.587091
0.31706
1.1668
-0.430344
0.247355
0.95539
-0.0590562
0.460283
0.509681
-0.155983
0.219883
0.603146
0.0727449
-0.298927
0.99948
0.148603
1.27758
-0.561964
0.717835
0.810347
-0.361378
0.988465
0.552733
0.132029
0.346441
0.127942
1.02376
-0.182757
0.630827
0.501516
-0.414637
1.19994
0.0314244
1.43157
-0.568626
0.655886
0.389144
-0.234684
0.754068
0.0400605
0.414491
0.282721
-0.145534
0.744823
0.00598211
0.305259
0.602307
-0.185859
0.76147
0.630308
1.01002
0.23569
0.565438
-0.168973
-0.00732093
0.754194
-0.524265
0.375569
0.447424
-0.316085
0.477322
-0.557965
0.832435
0.478213
-0.416425
-0.0206737
0.640604
-0.0253357
0.618927
0.460732
-0.939721
0.310016
0.924043
-1.30364
0.316067
1.27769
-1.16349
0.493753
-0.293387
1.0887
1.31482
-0.455395
-0.797941
0.939275
-0.828495
0.347764
0.126792
-1.28755
0.221042
0.373411
-1.65537
0.105106
0.803403
-1.82456
0.231083
0.0539725
-0.765425
2.60355
-0.10594
-1.85616
1.21813
-1.28297
0.348538
-0.104682
-1.20545
0.0225728
0.0461208
-1.4673
-0.338873
0.0479732
-1.87228
0.045859
-0.0306137
-1.97294
1.2861
-0.164708
-2.17634
0.454281
-1.28202
-0.165658
-0.105532
-1.27493
0.175017
-0.466375
-1.26184
0.155389
-0.629305
-1.60616
-0.103189
-0.548537
-2.06543
0.0117253
-0.232653
-2.10399
-0.388238
-1.13871
-0.375964
-0.126497
-0.819681
-0.328753
-0.812351
-0.955702
0.379716
-1.01671
-1.00154
-0.40026
-0.622952
-1.1818
-1.27739
0.193927
-1.05872
-1.86215
-0.609439
-0.335346
-0.170497
-0.649183
-0.58474
-0.541459
-0.495507
-1.09077
-0.132095
-1.54521
0.111533
-1.30234
-0.497906
-0.469656
0.503342
-0.597688
-0.570922
0.555081
-0.712894
-0.715478
0.343209
-1.12684
-0.142017
0.379584
-1.46323
0.0152583
0.378943
-0.501423
0.423999
-0.965485
-0.590541
0.908196
-0.304753
-0.462128
0.953909
-0.622386
-0.706059
0.804679
-0.78346
-0.110482
0.675164
-1.097
0.224845
0.842176
-0.596799
1.02588
-0.964125
-0.659786
1.27635
-0.138712
-0.405794
1.37721
-0.736346
-0.167595
1.11101
-0.700515
0.0179679
1.06799
-0.50564
0.351047
1.30778
-0.650085
1.48856
-0.673596
-0.526919
1.70369
-0.261801
-0.140326
1.7845
-0.661861
0.12059
1.32922
0.544639
-0.0966282
1.53342
0.253304
0.198825
1.78036
-0.736605
2.03227
-0.913509
0.157093
2.13399
-0.822076
0.33134
2.16189
-0.13714
-0.316618
1.29053
1.43147
-0.68977
1.44068
1.0682
-0.234083
1.80681
0.148173
2.24762
-0.213743
0.827584
2.18833
-0.889242
0.649369
2.27335
0.442317
-0.656721
1.19998
1.87396
-1.19816
0.870261
1.59007
-0.107495
0.32749
1.02926
1.84987
0.909182
1.58971
1.25214
-0.34351
1.15879
2.24732
0.773016
-0.0920913
1.06924
1.87538
-0.257865
-0.12796
2.47881
0.529378
-1.60168
2.0812
1.36037
1.36664
2.00363
-0.616083
0.0856396
1.63282
1.5193
1.20394
-0.013268
1.31181
1.6346
0.743751
-1.21132
2.9299
1.08281
-2.32575
1.60313
1.90297
0.888748
0.950355
-1.31178
-0.232088
1.74461
-0.454954
0.841127
0.722132
1.06785
1.3123
0.230603
-1.45113
2.01744
-0.0378169
-2.11431
0.511261
1.50375
0.195743
0.259001
-0.911651
-0.48411
1.31978
-2.29389
0.933541
1.4871
-0.79162
1.58896
-0.352497
-1.33067
1.73086
-0.695581
-1.73581
-0.423651
-0.250284
0.682492
-0.0481999
-0.607538
-0.584665
-0.294706
-1.6985
0.0308301
-0.00445958
-1.41153
-0.0705996
-0.24298
-1.30864
-1.0609
0.235878
-1.15144
-2.92538
-0.326301
-0.0234512
0.596918
-1.85364
0.643533
-2.28657
0.495361
-2.35413
0.0326115
-2.3911
-0.381167
-2.04001
-1.20537
-1.0157
0.377758
0.0402584
-0.723045
0.310063
-1.31562
-1.5617
-0.0512999
-0.236877
-0.920866
0.0280488
-2.13212
0.379935
0.30636
-2.10858
0.331369
-0.916919
-1.10795
0.76083
0.420124
-0.830343
0.576186
-1.16611
-1.64036
0.199253
-0.223996
-0.855141
0.386531
-2.2407
0.518041
0.610297
-2.27392
0.924034
-1.03875
-1.48437
0.886918
1.21957
-1.37397
0.825126
-1.09569
-1.36149
0.528763
-1.0425
0.0732747
0.83221
-2.38608
1.34073
1.04808
-2.35533
1.25369
0.337475
-2.2381
1.25966
1.60355
-1.7448
1.58521
-1.91524
-0.349772
1.93375
-2.25538
1.08192
1.81991
-2.16609
2.12422
1.87195
-2.60278
1.9082
0.556204
-1.48587
2.02588
-0.102425
-0.630449
2.41998
-1.82733
-0.0865976
2.48104
0.340327
0.379364
2.21704
0.205108
0.984094
2.40244
-0.987048
2.61589
0.0626573
-0.498117
2.85368
-1.21892
0.113951
3.18847
-0.93824
-0.445826
3.01267
1.90211
-0.285896
1.92362
1.72356
0.356187
2.28428
0.505338
3.02711
0.854149
0.0881001
3.4821
-1.06003
-0.0941605
3.9479
0.195842
-1.0947
2.74141
3.14717
-0.111933
0.198051
3.22162
0.738952
1.32375
2.19085
3.29549
1.83722
-0.163663
3.89878
-0.167376
-0.38721
4.33119
1.04421
-1.20139
2.20342
2.98677
-0.179415
-0.753329
2.8593
0.247045
0.505825
1.9946
2.72238
1.7089
-0.540622
3.85458
0.352738
-0.483727
3.69561
1.41981
-0.980197
2.05818
1.95401
-1.59542
-0.459702
2.33903
-1.02416
-0.309424
0.755253
0.98841
0.905556
-0.196097
3.11947
0.447096
1.09015
1.70556
1.63734
1.38083
0.893832
2.46263
-0.279336
-0.130692
3.06201
0.10213
-0.897316
-0.217226
0.234988
1.53804
0.26611
1.26931
0.999382
1.18275
-0.212484
1.03224
1.39735
-0.573104
1.18173
0.712323
-0.704998
0.198434
0.531103
-1.07622
-2.56525
-0.113737
0.856377
1.4638
-2.04813
1.46091
-2.49617
0.904555
-2.37087
0.225227
-2.41677
-0.678007
-2.213
-1.99712
-0.128919
0.289879
-0.120701
-0.446838
0.168198
-1.16589
0.0895086
-0.00861594
-0.764608
0.268985
0.0159714
-2.32757
0.876173
0.136818
-2.85259
0.441436
-0.482182
-0.0644322
1.11457
-0.340135
0.0715945
1.0129
-2.14684
0.659244
0.748173
-1.56843
0.680651
0.219554
-2.46569
0.684737
0.595882
-2.73707
1.0516
-0.96418
-0.00352872
1.47098
0.86669
0.0982455
1.52204
-1.70661
0.615797
1.0561
-1.86798
0.901461
0.106647
-2.55884
0.378899
1.08592
-2.3228
1.49109
0.276889
0.21872
1.60999
1.24582
-0.0992406
1.70522
-1.78046
0.403234
1.18506
-2.88682
1.455
0.682182
-3.79339
0.832287
1.2517
-2.14585
1.55275
1.32683
-0.604109
1.83189
0.279781
-1.55801
2.35387
-1.52207
0.0410959
2.71733
-2.79104
1.50898
2.63028
-3.21087
1.68073
2.26364
-2.17073
2.07363
1.22251
-1.00461
2.07727
-0.459695
-0.858107
3.03965
-1.77052
0.040203
3.27374
0.447383
0.875957
2.68043
0.837645
0.934116
2.56167
0.149145
2.48066
1.38123
-1.04272
2.30715
-0.247198
-1.29054
3.55892
-0.0755974
-0.781826
3.14343
2.76877
0.420755
1.68072
3.01875
0.642824
2.44206
2.08839
2.5252
2.4355
-1.35847
2.87234
0.625908
-1.86596
3.91324
1.19736
-1.71269
2.20166
3.77528
-0.734795
0.25296
3.30917
-0.413363
1.23605
2.87917
1.27641
2.54432
-1.38787
3.18923
1.42372
-1.78252
3.79741
1.93029
-2.22794
2.02332
2.57777
-2.05133
0.247306
2.16807
-1.26209
0.0451355
1.15693
-0.159921
1.0798
-0.391189
2.63532
1.3922
-0.0106549
3.18891
1.86531
-0.187336
2.22904
2.43359
-0.800942
1.15483
2.76809
-0.290976
-0.71183
0.0297731
0.714117
0.373029
1.28947
0.904258
1.44097
2.2553
1.24219
2.01313
2.21883
0.980731
2.4665
1.07079
0.565149
1.93616
-0.37136
-0.955223
-0.879707
0.753801
0.445333
0.531509
-1.67538
0.838324
-1.56079
0.84287
-1.39469
0.690961
-1.69971
-0.520149
-1.95711
-1.76346
0.10705
0.151153
-0.865975
0.0838372
0.447837
-1.00128
-0.0876252
0.635133
-0.981003
-0.0575713
0.218526
-0.857996
0.00940959
-0.0031779
-0.833319
0.579115
-1.04386
-0.0931648
0.92851
-0.684191
0.0121774
1.00578
-0.663284
0.111301
1.14862
-0.612608
0.00102797
0.992081
-0.663284
-0.158268
0.879231
-0.723116
1.16394
-0.743098
-0.243023
-0.580696
-0.0279934
-0.557954
0.374206
-0.489788
0.206573
-0.575427
-0.0117105
-0.621696
-0.579142
-0.0391619
-1.70596
-0.301605
0.00935911
-1.66526
-0.449414
0.116511
-1.55017
-0.552738
0.0102113
-1.62574
-0.273568
-0.203962
-1.89648
-0.208552
-1.29818
-0.713366
-0.0592478
-2.22829
-0.102611
-0.0782745
-2.20247
-0.107046
0.0393973
-2.13467
-0.145784
0.0219822
-2.19113
-0.0804837
-0.156969
-2.35068
-0.089968
-1.97238
-0.225867
-0.0312885
-0.158653
-0.0441916
-0.141979
0.031042
-0.133455
0.0236253
-0.157631
-0.0996064
-0.166914
-0.153185
0.0439618
-1.49289
0.323665
-0.0200144
-1.62987
0.30624
-0.164145
-1.5844
0.315802
-0.0950854
-1.53473
0.331711
0.0235478
-1.54298
0.324907
-1.51608
0.233118
0.0637211
-1.81094
0.151713
0.0278491
-1.86141
0.160368
-0.0175001
-1.85137
0.166541
0.0396824
-1.83067
0.158274
0.0963855
-1.83109
0.141443
-1.83633
0.190768
0.00642901
-0.0551336
-0.00018957
-0.0542526
0.0107074
-0.0506466
0.00542546
-0.054506
-0.00523855
-0.0622663
-0.049074
-0.0286031
-1.70539
0.722178
-0.0311756
-1.77025
0.732648
-0.0266461
-1.74081
0.749114
-0.0578503
-1.73595
0.718597
-0.108612
-1.73971
0.697096
-1.71891
0.739179
0.0241078
-1.9871
0.40932
-0.00152159
-1.99969
0.415436
-0.00335605
-1.98619
0.41376
-0.00106322
-1.99293
0.412957
-0.00170245
-1.99494
0.397309
-1.96265
0.432812
-0.00155124
0.0470841
-0.00607044
0.0473182
0.00161701
0.0475461
-0.00519924
0.047834
-0.0162922
0.042318
0.0508156
-0.0125191
-2.25079
0.967919
-0.0109275
-2.29104
0.99179
-0.0307551
-2.26207
1.02632
-0.0294578
-2.27848
0.929933
-0.0100003
-2.288
0.860622
-2.25294
1.04745
0.021944
-2.37917
0.51575
-0.00177272
-2.40263
0.55074
-0.0204484
-2.38908
0.559443
-0.00554632
-2.39213
0.5117
0.0389455
-2.38898
0.453793
-2.37896
0.597773
0.00399582
0.0502026
-0.00245226
0.0624242
-0.00253088
0.0637766
-0.00513724
0.0542463
0.00204863
0.031362
0.0779375
-0.000445841
-2.98768
1.30849
0.00721991
-3.02689
1.32123
-0.0123203
-3.00564
1.3816
0.0210059
-3.01966
1.23129
0.0637742
-3.01717
1.13365
-2.99361
1.47265
0.0391601
-2.98473
0.473641
0.00320982
-3.01978
0.579573
-0.0513559
-3.00276
0.611116
0.00774765
-3.02119
0.454124
0.12615
-3.00639
0.324609
-3.00048
0.730797
0.0317586
-0.105301
0.000608283
-0.0256559
-0.0342455
-0.0147939
-0.0149537
-0.0945326
0.0669077
-0.183921
0.0312661
-0.151379
-3.98064
2.19833
0.00228643
-4.16028
1.8912
0.124317
-4.14155
1.98418
0.0183084
-3.98108
2.06551
-0.266504
-3.89874
2.02838
-4.12848
1.98315
0.0770151
-3.80495
0.220935
0.0419921
-3.96406
0.418382
-0.0156312
-3.93644
0.46363
0.0683278
-3.84749
0.23658
0.098103
-3.68267
0.078768
-3.98424
0.684653
0.134215
-0.627447
0.0215224
-0.306977
-0.089249
-0.294525
0.00118145
-0.55583
0.210242
-0.740105
-0.169015
-0.417954
-3.29255
3.67964
-0.0537207
-4.39342
3.0134
0.264062
-4.24174
3.11156
-0.124059
-3.57886
3.61492
-0.764854
-3.58873
3.66938
-4.49531
2.8481
-0.0498712
-3.33098
0.309237
0.120745
-4.53792
0.392278
0.334222
-4.40549
0.413908
0.04572
-3.65103
0.597253
-0.730531
-3.33634
0.602632
-4.79736
0.256177
0.266162
-1.64046
0.0794498
-0.952455
0.00678075
-1.04311
0.102802
-1.40045
0.0614397
-1.56673
-0.884985
0.605475
1.74757
2.06311
-0.0577039
0.230472
3.67801
-0.358191
0.535488
3.23925
-0.0302381
1.04349
2.76618
0.224527
0.917788
2.88868
0.204114
3.1625
0.469304
2.72036
-1.13286
0.119625
0.156091
0.816331
0.0459158
0.646954
0.376149
-0.0129676
1.73193
-0.0322934
-0.43024
1.86046
0.0772373
-0.29093
0.320985
0.206158
-2.68673
0.128979
-0.969446
0.196394
-1.51088
0.0371827
-2.1586
-0.476247
-2.17154
-1.08903
-0.232629
7.7152
-1.82404
-0.222458
5.84286
1.19665
-0.0440925
6.34068
-0.00326401
0.0840422
7.0004
-1.10607
0.355229
7.03416
-1.08144
6.03809
0.895472
0.0913315
9.34481
-2.85379
-0.123653
7.54762
-0.673447
-0.160462
8.21058
-1.45694
0.166525
8.86073
-2.21961
0.259017
9.11297
-2.09406
7.65457
-1.03649
-0.0237711
-2.66944
-0.00227231
-1.28268
0.0894451
-1.87282
0.126931
-2.3951
-0.0961942
-2.33577
-1.2496
-0.762499
7.93083
-3.30222
-0.286233
9.81368
-2.65923
0.0871796
8.90191
-3.11124
0.0793444
8.1481
-3.3316
0.106368
8.35779
-3.49929
9.9442
-2.49912
-0.823686
7.88221
-1.98149
-0.15469
10.1704
-1.69912
0.213454
8.97355
-1.89672
-0.0250448
8.11844
-1.95144
-0.375507
8.58925
-1.97506
10.1875
-1.6553
-0.583996
-1.3678
-0.0405894
-1.2274
0.222417
-1.40984
-0.111264
-1.4199
-0.677235
-1.41217
-1.10375
-0.191011
2.11535
-0.752939
0.0734013
2.59607
-0.75648
0.0669262
2.23512
-0.758863
-0.0864874
2.08842
-0.750213
-0.26591
2.1187
-0.795754
2.61117
-0.717053
-0.144119
0.247027
0.0309559
0.0689119
0.646932
0.036992
0.0323537
0.322103
0.0528541
-0.137567
0.24582
0.0610853
-0.228243
0.226793
0.00752357
0.734397
-0.00677341
-0.0694735
0.0568444
0.0798345
0.0435774
0.0447642
0.0428663
-0.0927789
0.0647617
-0.18417
0.0571993
0.0249964
0.0537795
-0.771158
-0.591662
1.30904
0.037859
-0.808232
-0.613423
1.43757
-0.0249136
-0.762226
-0.620398
1.4454
-0.0502015
-0.744839
-0.63111
1.40124
-0.0403236
-0.787
-0.651631
1.42875
-0.78039
-0.633922
1.37399
0.00899544
-0.531546
0.0055404
-0.254149
-0.0434263
-0.599996
0.0182432
-0.174058
-0.156525
-0.5572
0.118102
-0.21003
-0.0627411
-0.494364
0.283679
-0.627938
-0.0272857
-0.469814
0.329088
-0.68173
-0.446861
0.311987
-0.672801
-0.0925447
0.129593
-0.531686
-0.117398
0.162695
-0.588178
0.0488145
0.277727
-0.852445
0.180783
0.283405
-0.907007
0.0962217
0.191671
-0.733082
0.172176
-0.711359
-0.00255008
-0.425516
-0.163596
-0.00712555
-0.435714
-0.173133
0.0027177
-0.451292
-0.178949
0.00549856
-0.460945
-0.172946
-3.17741e-05
-0.476128
-0.169973
-0.466
-0.167954
-0.075959
-0.293251
-0.0507669
-0.137381
-0.296217
-0.0598334
-0.154756
-0.29456
-0.0212568
-0.0953038
-0.282989
0.0462694
-0.0357902
-0.28656
0.0800054
-0.282859
0.0930546
-0.0113534
-0.0163699
-0.00960333
-0.0105641
0.0306375
0.0282572
0.0714542
0.00623914
0.0359001
-0.0248828
-0.0291436
0.000889794
-0.163886
-0.000600094
0.00203442
-0.170368
-0.00390993
0.00164577
-0.175793
-0.00276796
0.000608769
-0.170261
-0.00164871
-8.08011e-05
-0.168349
-0.000934638
-0.16514
-0.00289508
-0.0199077
-0.149285
-0.04546
-0.0513797
-0.156588
-0.042143
-0.0736657
-0.154688
-0.0200777
-0.0585168
-0.148203
0.00906063
-0.0334612
-0.145321
0.0319211
-0.139119
0.033573
0.000233551
0.017707
0.00291146
0.0186675
0.0220639
0.0269943
0.0263895
0.0187672
0.0119116
0.00704284
0.00269175
-0.00102038
-0.167273
0.167693
-0.000734933
-0.168128
0.163933
-0.000284982
-0.168592
0.165374
-0.000853856
-0.169088
0.168008
-0.00214667
-0.17023
0.170588
-0.169294
0.164252
-0.0255509
-0.188964
0.00178097
-0.0369354
-0.190116
-0.00877075
-0.0397222
-0.186634
0.00075123
-0.03278
-0.18487
0.0178997
-0.016849
-0.183539
0.0292989
-0.180242
0.0276722
0.000536508
0.0800436
0.00625838
0.075892
0.00940604
0.0829741
0.0130256
0.0705908
0.00710125
0.0661066
0.0635708
-0.00625113
-0.267532
0.441476
-0.000311667
-0.27669
0.434683
0.00118338
-0.278139
0.442018
-0.00240659
-0.266011
0.437609
-0.00783236
-0.264456
0.440469
-0.27686
0.43328
-0.0230889
-0.139909
-0.102754
-0.00373789
-0.146451
-0.158359
0.00200587
-0.144587
-0.138544
-0.00380097
-0.135117
-0.107187
-0.0158135
-0.134116
-0.0890277
-0.139792
-0.125209
0.00370471
-0.0111602
0.00702428
-0.0229635
-0.00200088
-0.00722441
0.00378322
-0.0296185
0.00733109
-0.0342601
-0.0330823
0.00537569
-0.316839
0.0010339
-0.317455
0.00665081
-0.322462
0.0116857
-0.317639
-0.00081556
-0.342783
-0.284588
0.0178159
-0.406451
-0.0108383
-0.410166
-0.011071
-0.407918
0.0304633
-0.405273
0.0405136
-0.434337
-0.376057
0.00284982
0.000356421
-0.00595091
0.00014798
0.00252669
0.752842
-0.830914
-0.0426282
0.963512
-1.5089
0.132335
1.17036
-1.03191
0.0604604
0.436168
-1.52453
-0.068853
-0.167027
-2.11986
-0.129539
-0.865951
0.216742
0.2956
-0.959345
-0.167169
0.332145
-1.5251
-0.0203435
0.0688732
-0.654921
-0.113721
-0.228025
-1.17187
-0.0557618
-0.529197
-1.70149
-0.117195
-1.24429
-0.15086
0.117163
0.0304862
-0.0600181
0.0566874
-0.0503437
-0.0976704
0.0206202
0.0216091
-0.0715739
0.0578522
-0.0120687
0.708064
-1.5666
0.475771
0.611385
-2.25217
0.334336
0.961346
-2.20689
0.34895
0.3736
-2.1382
0.191398
-0.12085
-2.38627
0.0141147
-1.643
0.774716
0.320943
-1.69511
-0.359602
0.188605
-1.88122
-0.258955
-0.145515
-1.89416
-0.0923313
-0.265215
-1.9445
-0.129752
-0.305554
-2.10166
-0.361471
-1.77961
-0.319804
0.0951824
-0.0571245
0.0378664
-0.00127514
-0.0485191
-0.0487947
-0.0290006
-0.0343417
-0.0842189
-0.0587622
-0.16767
1.23818
-0.767221
0.871498
1.19802
-2.1331
0.800992
1.03906
-2.25892
0.898852
0.219623
-2.22069
0.672682
-0.502793
-2.20546
0.619186
-0.992649
1.54146
0.691584
-1.39406
-0.424344
0.419409
-1.89165
-0.228231
-0.191028
-1.82167
0.0808498
-0.514396
-1.96482
-0.0622463
-0.516809
-2.08637
-0.478153
-1.62814
-0.201124
0.130796
-0.163342
-0.0470731
-0.0836835
-0.102534
-0.131477
-0.114074
-0.133688
-0.150414
-0.282355
-0.373123
2.15886
-0.745859
0.704319
2.27004
-2.06899
0.978348
1.44934
-2.52475
1.35748
-0.123681
-2.64136
1.09367
-0.966676
-1.73815
1.05449
0.0130352
1.88858
0.748172
-1.49432
-0.424057
0.567805
-2.07234
-0.0445147
-0.278324
-2.12386
0.526083
-1.18624
-2.01118
0.215498
-1.15688
-1.82355
-0.422113
-1.3303
-0.0146723
0.0397416
-0.34713
-0.193791
-0.270672
-0.374816
-0.243471
-0.378547
-0.231229
-0.258788
-0.61776
-0.609926
1.86612
-1.02304
0.141019
1.85513
-2.07044
1.5377
1.18793
-3.14232
2.37595
-0.135231
-2.87183
2.07779
-1.189
-1.30494
1.24246
0.6603
1.26179
0.918824
-1.56542
-0.800495
0.817563
-2.26069
0.247001
-0.299902
-2.49893
1.00016
-1.571
-2.0182
0.632967
-1.63272
-1.05983
-0.605498
-0.571004
-0.416092
-0.115238
-0.672024
-0.277446
-0.667224
-0.497965
-0.590103
-0.523226
-0.514221
-0.311845
-0.867099
-0.71397
0.393121
-0.934063
0.222266
-0.418931
-1.60264
2.18188
0.0361295
-0.833645
3.20192
0.239716
-0.120432
2.83228
-0.327737
0.0974355
1.86162
1.53832
0.77696
-0.0571091
-0.721903
-0.955545
-0.677625
-1.39039
0.655266
-0.755616
-1.41422
1.65872
-0.942094
-0.500491
1.1995
-1.1558
0.0281605
-0.322517
0.771846
-0.805415
-0.313848
-0.841806
-0.479354
-0.892754
-0.394577
-0.690967
-0.114482
-0.765165
-0.170833
-0.881949
-0.663519
-1.22287
0.348738
0.849202
-1.99036
0.249296
2.62447
-0.903277
1.93932
2.94429
0.381997
2.48774
2.07801
0.338301
2.44014
1.55357
2.82764
0.723125
-1.23229
1.12864
-0.503158
-1.89604
0.832081
0.736229
-1.01495
1.34837
1.36859
-0.0203597
1.90925
0.783406
-0.137984
2.1761
0.0591469
2.59479
-0.710546
-0.29362
-0.662953
-0.571242
-0.784474
-0.537225
-0.685422
-0.126643
-0.827306
-0.125915
-0.564691
-0.462232
-2.02994
1.79466
1.71039
-2.79986
1.88737
2.70438
-1.90662
3.64937
2.17696
-0.915116
3.4157
0.979971
-0.501697
3.4559
0.56342
2.94133
-0.175581
-1.53123
2.39046
0.43227
-2.50475
2.56744
1.02968
-1.59339
3.10147
1.00512
-0.556503
2.7569
0.405325
-0.090585
2.98635
0.0627791
2.46925
-0.329049
-0.0479781
-0.314487
-0.416645
-0.327392
-0.341065
-0.319517
-0.0129267
-0.440407
0.0950322
-0.136632
-0.0595826
-1.39899
2.43308
2.10001
-2.14158
2.70611
2.67116
-2.07982
2.93037
1.7626
-1.7145
2.13269
0.650025
-0.918023
1.34686
-0.422977
1.09765
-1.11145
-0.0102412
2.22887
0.646724
-0.419475
2.85881
1.2862
-0.245944
2.6488
1.11316
0.212282
1.61951
0.460276
0.394369
1.24087
-0.0133199
1.17194
-0.00896841
0.563432
-0.268066
0.617134
-0.0136062
0.3852
0.215695
0.312066
-0.099158
0.236696
-0.0853467
0.0415143
0.478814
2.03922
0.974177
0.329586
2.58063
2.10506
-0.308255
2.65426
2.17977
-0.600097
2.35717
1.35279
-1.00958
0.655246
-0.638972
0.103594
-1.8516
1.03877
1.80897
-0.161807
1.4801
2.59574
0.829769
0.953573
2.63773
1.65619
0.823419
1.81071
1.13688
0.539883
0.777844
0.147618
0.503873
0.130635
0.389847
-0.158228
0.734206
0.0547684
0.453984
0.703529
0.302827
0.42885
0.220234
0.208415
0.300444
1.22398
1.92718
-0.736012
2.47135
2.86887
0.0019478
3.05389
3.46163
0.602099
2.64863
3.24304
0.451168
0.421298
1.51889
-0.810239
0.448865
-1.43383
0.475934
1.23947
0.04997
1.66335
2.05202
0.459202
2.45497
3.11483
1.21136
2.36629
2.8964
1.5722
1.36696
1.67773
0.988114
1.03154
0.91492
-0.0121566
0.337842
0.358751
0.300553
0.525946
0.8567
0.494156
0.935358
0.381819
0.808202
0.903549
-0.113858
-0.988494
0.107886
-0.343015
0.323135
0.437558
0.501657
-0.0258284
0.338011
-1.17495
-1.4853
-0.399039
-0.793636
-0.122376
-0.334537
0.580337
0.736176
1.02581
0.472958
0.594664
-0.437424
-0.648514
-0.3738
-0.365807
0.0579282
0.389379
0.230865
)
;

boundaryField
{
    seabed_topleft_surface
    {
        type            calculated;
        value           uniform 0;
    }
    seabed_topright_surface
    {
        type            calculated;
        value           uniform 0;
    }
    breakwater_top_surface
    {
        type            calculated;
        value           uniform 0;
    }
    breakwater_left_surface
    {
        type            calculated;
        value           uniform 0;
    }
    breakwater_right_surface
    {
        type            calculated;
        value           uniform 0;
    }
    water_front_surface
    {
        type            calculated;
        value           uniform 0;
    }
    water_back_surface
    {
        type            calculated;
        value           uniform 0;
    }
    water_left_surface
    {
        type            calculated;
        value           uniform 0;
    }
    water_right_surface
    {
        type            calculated;
        value           uniform 0;
    }
    water_top_surface
    {
        type            calculated;
        value           nonuniform List<scalar> 
180
(
1.75223
1.3487
1.2362
1.73514
1.71921
1.73137
-2.61905
-2.60555
-2.56624
-2.60151
-2.68223
-2.49794
-1.92089
-1.94252
-1.94508
-1.92851
-1.92507
-1.94568
-2.08777
-2.09674
-2.09207
-2.08845
-2.08843
-2.07884
-2.38628
-2.41129
-2.40524
-2.39594
-2.38522
-2.40403
-2.86099
-2.90054
-2.88933
-2.8917
-2.87297
-2.8869
-3.41702
-3.57005
-3.54593
-3.47662
-3.33554
-3.57371
-2.58412
-3.70573
-3.58424
-2.90243
-2.46836
-4.01995
3.56048
0.250259
1.04732
2.64929
2.9787
-0.563136
9.35129
7.83936
8.4808
9.05974
9.50033
7.71895
7.16456
9.57167
8.24756
7.47692
8.23163
9.36443
-1.10814
-0.77335
-1.09553
-1.1013
-1.15119
-0.578519
-0.0369077
-0.14966
-0.148694
-0.00273023
0.156158
0.188544
-0.135935
-0.124708