/*--------------------------------*- C++ -*----------------------------------*\
| =========                 |                                                 |
| \\      /  F ield         | OpenFOAM: The Open Source CFD Toolbox           |
|  \\    /   O peration     | Version:  v1612+                                |
|   \\  /    A nd           | Web:      www.OpenFOAM.com                      |
|    \\/     M anipulation  |                                                 |
\*---------------------------------------------------------------------------*/
FoamFile
{
    version     2.0;
    format      ascii;
    class       volScalarField;
    location    "1.55";
    object      alpha.water;
}
// * * * * * * * * * * * * * * * * * * * * * * * * * * * * * * * * * * * * * //

dimensions      [0 0 0 0 0 0 0];

internalField   nonuniform List<scalar> 
320
(
1
1
1
1
3.5782e-06
3.21628e-06
3.36739e-06
3.33483e-06
3.49184e-06
4.51346e-06
2.93779e-06
4.0239e-06
5.57823e-06
4.03772e-06
4.41611e-06
4.8972e-06
0.999997
0.999996
0.999998
0.999998
0.999998
0.999996
0.999994
0.999998
0.999996
0.999998
0.999995
1
1
1
1
1
1
1
1
1
1
1
1
1
1
1
1
1
1
1
1
1
1
1
1
1
1
1
1
1
3.63907e-06
3.61899e-06
2.84055e-06
4.30393e-06
3.94602e-06
3.87977e-06
3.36223e-06
3.4347e-06
3.44629e-06
4.14874e-06
3.74458e-06
3.87925e-06
4.45857e-06
4.57223e-06
3.78641e-06
4.21923e-06
3.80373e-06
3.2868e-06
3.81697e-06
4.72647e-06
1
0.999998
0.999996
0.999997
1
1
1
1
0.999999
0.999993
0.999999
0.999998
0.999997
0.999997
0.999993
0.999996
0.999998
1
0.999999
0.999994
1
1
1
1
1
1
1
1
1
1
1
1
1
1
1
1
1
1
1
1
1
1
1
1
1
1
1
1
1
1
1
1
1
1
1
1
1
1
1
1
1
1
1
1
1
1
1
1
1
1
1
1
1
1
1
1
1
1
1
1
1
1
1
1
1
1
1
1
1
1
1
1
1
1
1
1
2.93711e-06
3.20039e-06
2.71491e-06
3.1269e-06
3.24123e-06
3.2418e-06
4.84213e-06
4.70269e-06
2.87471e-06
3.32753e-06
3.30247e-06
3.42954e-06
3.10529e-06
3.19625e-06
3.23771e-06
2.38412e-06
3.32452e-06
4.93195e-06
3.33644e-06
3.35486e-06
4.83027e-06
3.15335e-06
2.61966e-06
2.81235e-06
3.39095e-06
4.23799e-06
4.93599e-06
2.80923e-06
0.999995
0.999997
0.999993
0.999997
0.999998
0.999996
0.999996
0.999994
0.999997
0.999994
0.99999
0.999996
1
0.999996
0.99999
0.999996
0.999996
0.999995
0.999995
0.999993
0.999993
0.999996
0.999996
0.999993
0.999992
0.999997
0.999994
0.999994
1
1
1
1
1
1
1
1
1
1
1
1
1
1
1
1
1
1
1
1
1
1
1
1
1
1
1
1
1
1
1
1
1
1
1
1
1
1
1
1
1
1
1
1
1
1
1
1
1
1
1
1
1
1
1
1
1
1
1
1
1
1
1
1
1
1
1
1
1
1
1
1
1
1
1
1
1
1
1
1
1
1
1
1
3.23112e-06
2.79579e-06
3.07122e-06
3.11398e-06
0.999996
0.999998
0.999997
0.999999
)
;

boundaryField
{
    top_fluid_surface
    {
        type            inletOutlet;
        inletValue      uniform 0;
        value           nonuniform List<scalar> 
64
(
0
0
0
3.33483e-06
3.49184e-06
0
2.93779e-06
0
0
0
0
0
3.63907e-06
3.61899e-06
2.84055e-06
4.30393e-06
0
0
3.36223e-06
3.4347e-06
0
0
3.74458e-06
0
0
0
0
0
3.80373e-06
3.2868e-06
3.81697e-06
0
2.93711e-06
3.20039e-06
2.71491e-06
3.1269e-06
3.24123e-06
3.2418e-06
0
0
2.87471e-06
3.32753e-06
0
0
3.10529e-06
3.19625e-06
3.23771e-06
2.38412e-06
3.32452e-06
0
3.33644e-06
3.35486e-06
0
3.15335e-06
2.61966e-06
2.81235e-06
3.39095e-06
0
0
2.80923e-06
0
2.79579e-06
3.07122e-06
3.11398e-06
)
;
    }
    bottom_fluid_surface
    {
        type            zeroGradient;
    }
    lateral_surface_1
    {
        type            zeroGradient;
    }
    lateral_surface_2
    {
        type            zeroGradient;
    }
    lateral_surface_3
    {
        type            zeroGradient;
    }
    lateral_surface_4
    {
        type            zeroGradient;
    }
}


// ************************************************************************* //
