/*--------------------------------*- C++ -*----------------------------------*\
| =========                 |                                                 |
| \\      /  F ield         | OpenFOAM: The Open Source CFD Toolbox           |
|  \\    /   O peration     | Version:  v1612+                                |
|   \\  /    A nd           | Web:      www.OpenFOAM.com                      |
|    \\/     M anipulation  |                                                 |
\*---------------------------------------------------------------------------*/
FoamFile
{
    version     2.0;
    format      ascii;
    class       surfaceScalarField;
    location    "1.55";
    object      phi;
}
// * * * * * * * * * * * * * * * * * * * * * * * * * * * * * * * * * * * * * //

dimensions      [0 3 -1 0 0 0 0];

internalField   nonuniform List<scalar> 
816
(
3.25631e-07
1.66777e-06
1.01798e-06
1.42945e-06
4.88629e-06
-9.32657e-06
9.04481e-07
4.32073e-07
1.50314e-06
3.28694e-06
-5.80461e-06
1.20775e-06
2.0744e-06
-9.57486e-07
9.46049e-07
-1.60307e-06
2.99172e-07
1.32607e-06
-8.61425e-07
1.34091e-06
9.02367e-05
-9.83575e-05
1.14068e-05
5.64406e-05
-1.52809e-05
4.49343e-05
1.67274e-05
4.25669e-05
-6.41233e-06
3.87564e-05
1.3831e-05
-4.86879e-05
3.75862e-05
-1.16827e-05
-1.14101e-05
1.49829e-05
-5.57159e-05
-4.49347e-05
-1.22018e-05
2.83593e-05
-4.98132e-05
-4.40788e-05
-1.47435e-07
6.78502e-05
8.66925e-05
-0.000214652
-9.72399e-06
-6.75779e-05
8.26123e-05
-0.000206235
-6.71567e-06
-6.66235e-05
9.20402e-05
0.000100835
-2.27107e-06
-9.028e-06
4.51235e-05
7.14387e-05
1.43183e-05
-4.19188e-06
0.000113517
5.30276e-05
1.30653e-05
2.08258e-05
0.000164486
-3.87578e-06
0.00013835
-5.17194e-05
-1.89115e-06
7.71562e-06
-5.41883e-07
6.26765e-06
-2.61968e-06
5.0146e-06
-2.53702e-07
6.65402e-06
3.33203e-06
5.75808e-06
3.49766e-06
9.18612e-07
6.04939e-06
1.14827e-06
-3.6378e-07
2.52858e-06
-8.07478e-06
-8.67735e-07
-3.86564e-06
-3.21174e-06
-3.34473e-06
2.70552e-06
-3.04336e-06
-3.60405e-06
1.90623e-06
-2.81733e-06
-2.07089e-06
-1.70246e-06
-4.99269e-07
-5.60296e-06
-2.23012e-06
-5.10231e-07
-4.96944e-06
-1.67928e-06
-2.87945e-06
3.88474e-07
-1.54601e-06
1.35078e-06
4.86122e-06
5.03668e-06
-2.63028e-07
6.18359e-06
1.32533e-06
6.46015e-06
-2.49741e-06
3.70378e-06
5.11441e-06
8.45176e-07
7.89491e-08
-4.56402e-07
-1.78894e-07
1.02887e-06
-7.91161e-07
1.07305e-07
9.3819e-07
1.77272e-06
1.42537e-06
-5.21378e-07
3.4517e-08
2.02122e-06
-1.5485e-07
1.04912e-06
6.44242e-07
-2.02789e-06
-1.67437e-07
2.38886e-07
-1.9807e-06
-8.15904e-07
1.59482e-07
-4.19795e-07
-5.83028e-07
4.97753e-07
-3.64509e-07
-1.25791e-06
1.04027e-06
-1.20602e-06
-1.79218e-06
8.44825e-07
-1.09697e-06
-2.42784e-07
2.12646e-06
7.78183e-07
1.91965e-07
7.66097e-07
1.54943e-06
1.17225e-06
1.12454e-06
1.15149e-06
3.54358e-07
1.3493e-06
6.16371e-07
1.0759e-06
1.48794e-06
8.39138e-07
1.90717e-07
1.53659e-06
1.07578e-06
1.02691e-06
1.8871e-06
-6.86886e-07
5.37375e-08
3.38189e-07
9.29132e-07
-2.70717e-07
5.86556e-09
5.61378e-08
4.35568e-07
-6.5691e-08
-1.43579e-07
5.39608e-07
-8.67406e-08
1.12886e-06
-4.80235e-07
2.82029e-07
3.56764e-07
1.48034e-06
8.58078e-07
1.80078e-07
7.17359e-07
-3.02037e-07
-6.20801e-07
-1.76708e-07
-5.91914e-07
1.3311e-07
-6.25274e-07
-2.40922e-07
3.74208e-07
2.68593e-08
-3.43023e-07
1.02468e-06
-2.99159e-07
-8.0485e-07
4.96452e-07
-1.52112e-06
-3.05948e-07
-2.01382e-07
2.14958e-07
6.07233e-07
4.13535e-07
8.9276e-07
3.27558e-07
6.05e-07
6.82776e-07
3.68346e-07
0.000132008
-0.00015962
-7.40683e-06
0.000123731
7.98375e-05
-6.23178e-06
0.000102811
-7.25054e-05
2.12735e-06
4.94857e-05
-0.000110628
1.0583e-05
5.7529e-05
4.25394e-05
8.66721e-06
3.91057e-05
-0.000133396
4.67206e-05
6.04609e-07
7.302e-05
-5.36243e-06
-9.61062e-06
-1.56373e-05
-4.22097e-05
-1.95333e-06
3.11096e-05
-1.46569e-05
9.22962e-06
3.74612e-05
-8.10823e-05
8.627e-06
0.000115528
4.54607e-05
-0.0001385
-4.52102e-06
0.00013084
-0.000187619
3.84823e-06
1.95563e-05
-8.73e-05
-4.57621e-06
-5.08559e-05
-6.72803e-06
-8.50609e-06
6.25232e-05
4.30081e-05
1.07107e-05
4.82651e-06
1.33269e-06
9.94782e-05
1.4497e-05
0.000128219
6.41988e-05
-1.07786e-05
3.28393e-05
-1.59803e-05
-7.99288e-06
1.77375e-06
1.34704e-05
-1.59477e-05
-7.0469e-05
-4.46825e-06
0.000151515
-0.000107308
-8.66444e-07
-3.809e-06
3.73728e-06
1.64564e-06
-1.72855e-06
-2.21023e-07
1.06472e-06
-1.83339e-06
1.17369e-06
4.77818e-06
-2.09423e-06
6.4644e-06
6.12279e-06
2.92604e-06
5.63467e-06
2.61583e-06
-2.89144e-06
3.2299e-06
2.81576e-06
4.874e-06
-3.781e-06
1.32509e-06
-1.32229e-06
-8.00613e-06
3.96274e-06
-5.0032e-06
-3.47005e-06
6.72134e-06
-3.72917e-06
3.17398e-06
-2.83196e-06
2.0396e-06
-3.87316e-07
-1.28237e-06
8.53837e-07
-2.5069e-07
-2.33528e-06
1.32597e-06
2.59143e-06
-2.35298e-06
-3.20011e-06
-1.91004e-06
-6.35381e-06
-2.9954e-06
-1.60891e-06
3.24022e-06
4.79136e-06
1.743e-06
-5.90036e-06
8.63e-06
2.41244e-06
3.61778e-06
2.81015e-06
-1.02685e-06
8.86758e-07
-6.57852e-07
3.02035e-06
-5.33405e-07
-1.84368e-06
-4.75036e-07
-7.50693e-06
-4.18518e-06
-7.99834e-07
-8.31886e-06
-8.24816e-07
2.1996e-06
1.62366e-06
1.87278e-06
-8.30419e-07
1.23884e-07
6.87678e-07
-1.10126e-06
1.328e-06
1.06662e-06
5.54672e-07
3.3048e-06
1.00025e-06
-5.6198e-07
2.17991e-06
2.56491e-06
2.01398e-06
3.25619e-07
7.51327e-07
1.222e-06
-3.61863e-09
5.25395e-07
2.18279e-06
5.03246e-07
1.58101e-06
1.70979e-06
2.6009e-06
2.82123e-06
9.88795e-07
-1.33893e-07
-1.19168e-06
-8.32106e-07
1.92107e-06
-1.52646e-07
-4.06444e-08
1.0662e-06
8.62193e-08
2.39522e-07
1.3334e-06
-1.15103e-06
-2.15701e-06
1.23129e-06
-2.09923e-06
-1.73521e-06
5.31836e-07
4.12639e-07
2.8912e-06
7.36694e-07
-1.34895e-06
7.54313e-07
1.29922e-06
-3.07659e-07
1.00349e-07
-6.96973e-07
1.09703e-06
1.11826e-06
1.38905e-06
2.15617e-06
1.69604e-06
-8.37786e-07
9.34681e-07
-2.02999e-06
6.93637e-07
1.03714e-06
-7.75657e-07
1.41022e-06
4.47732e-07
1.14393e-06
-6.07093e-07
2.38728e-07
1.51299e-07
-1.80084e-07
4.93378e-07
9.52933e-07
7.83089e-07
1.07336e-06
8.03112e-07
-1.25476e-07
7.12102e-07
1.37993e-06
1.00527e-06
4.04212e-08
2.29267e-07
6.5174e-07
-1.01798e-07
3.60053e-07
1.17093e-06
2.10307e-07
3.6652e-07
6.07056e-07
1.28999e-06
8.94251e-07
2.6613e-07
2.59078e-07
-3.24417e-07
-5.51068e-07
7.15925e-07
-1.95479e-10
-9.06462e-08
4.48628e-07
-2.18375e-08
-5.33319e-08
6.92245e-07
-1.41751e-06
-5.96491e-07
8.57881e-07
-2.3717e-06
-3.5724e-07
7.24848e-08
6.97356e-07
8.58923e-07
8.8998e-08
-1.1108e-06
8.34726e-07
4.2718e-07
-7.81503e-07
1.70701e-07
-9.93756e-08
2.8235e-07
1.01034e-06
4.76553e-07
9.71856e-07
8.17661e-07
-2.10586e-07
2.51205e-07
-5.47678e-07
1.70736e-07
5.61281e-07
1.15482e-07
7.11454e-07
2.29728e-07
4.29783e-07
4.01726e-07
1.59839e-07
6.30451e-07
4.48184e-07
7.51493e-07
-4.41101e-07
2.2004e-07
3.60591e-07
1.51263e-08
8.09747e-09
1.39948e-07
-9.01596e-08
1.8783e-07
4.65629e-07
-3.2232e-07
1.31002e-07
8.98258e-07
3.84474e-07
4.91793e-07
1.32001e-08
-2.80244e-07
-1.55127e-07
3.08824e-07
-2.21007e-07
3.38447e-07
-2.77053e-07
5.07233e-07
-2.48349e-07
2.52879e-07
-5.90214e-07
-2.7214e-08
-5.46821e-08
3.0262e-07
4.23597e-07
3.69388e-07
3.04044e-07
-4.70028e-07
7.12121e-07
5.67101e-07
-3.05054e-07
2.1106e-07
-1.1526e-07
4.99257e-07
3.53431e-07
2.9094e-07
-2.58584e-08
6.09377e-07
4.88258e-07
5.6783e-08
2.8474e-07
1.75928e-07
6.32244e-07
2.01379e-07
3.63383e-07
7.18473e-07
2.34885e-07
3.39652e-08
-1.07796e-07
4.76136e-07
-1.40795e-07
4.11477e-07
-2.47941e-07
3.98869e-07
-7.95233e-07
4.60489e-07
-1.0494e-06
1.51873e-07
2.63805e-07
6.74315e-08
-5.16391e-07
3.45638e-07
-2.40456e-07
1.12556e-07
7.92023e-08
5.56438e-07
4.51802e-07
4.54053e-07
1.89119e-07
2.76316e-07
3.37007e-07
5.67419e-05
-5.26148e-05
-4.22981e-06
7.14244e-05
-7.77054e-06
2.66214e-05
-6.96948e-07
-3.01334e-05
-7.50765e-06
-0.000103792
-1.30003e-05
-0.000169488
-1.41071e-05
9.74923e-05
8.36832e-06
0.000204584
6.13121e-06
9.93077e-05
-1.45994e-05
6.40358e-06
-1.00485e-05
1.82906e-05
6.81277e-06
6.57335e-05
1.45136e-05
6.51976e-05
-1.02834e-06
-4.66214e-05
-5.2201e-06
-5.25934e-05
3.37299e-06
-0.000186797
-3.87486e-06
-0.000270405
-1.32424e-05
-7.98444e-05
1.12457e-06
-6.5154e-05
-2.00547e-07
-0.000102393
-2.3114e-06
0.000165611
7.84196e-06
0.000128199
1.59327e-05
7.17286e-05
-5.10054e-06
-6.79041e-05
-9.80719e-06
-0.000103514
-5.53436e-06
5.55817e-06
1.39341e-05
0.000180157
9.36252e-06
3.90212e-06
2.76776e-06
-7.19086e-06
-2.50733e-06
-7.70308e-07
-2.52595e-06
1.64108e-06
-8.29032e-07
2.70048e-06
-1.48354e-06
-2.85807e-06
2.53844e-08
-8.39447e-06
-6.0777e-06
2.7528e-06
-2.4517e-06
8.31653e-06
-1.01838e-06
-4.23832e-07
-9.38319e-07
-7.79813e-06
-4.45711e-06
-1.39279e-06
-5.68089e-06
7.24675e-06
-3.54678e-07
3.98433e-06
3.57746e-06
-3.05809e-06
-7.62668e-07
2.61655e-06
-4.09026e-06
1.05298e-06
-2.56298e-06
-6.6323e-06
-2.95522e-06
-2.69059e-06
-4.78596e-06
-1.56835e-06
-2.12822e-06
-3.29344e-06
6.65267e-07
1.50979e-06
2.62328e-06
8.21905e-06
6.07652e-06
3.72216e-06
2.56911e-06
-2.72819e-06
-2.84335e-06
-5.39189e-06
-4.937e-06
-1.52453e-06
-5.26712e-07
1.00944e-06
-2.48279e-06
-2.35579e-06
-1.19922e-06
5.87402e-07
-1.20717e-06
-5.26431e-07
-1.32686e-06
-6.2982e-07
-3.73445e-08
-1.36278e-07
-9.11529e-07
1.03724e-06
-1.38319e-07
2.60748e-07
-2.7293e-06
-6.92817e-07
-1.49684e-06
3.2848e-07
-1.79989e-08
1.2809e-06
-6.64581e-07
7.9938e-07
-1.79022e-06
-9.89581e-07
-2.17953e-06
-4.13482e-07
6.20587e-08
8.9743e-07
1.43584e-06
7.86753e-07
-6.51775e-07
-7.15643e-08
-1.31155e-06
-2.71961e-07
-1.29368e-06
-5.03274e-07
-1.38748e-06
-1.05159e-06
-3.00649e-06
-1.80562e-06
-8.3906e-07
-1.37334e-06
9.83286e-07
-1.85652e-07
1.43904e-06
1.32591e-06
3.22026e-06
1.75993e-06
1.83057e-06
1.2087e-06
-1.19243e-06
2.9656e-07
-1.85949e-06
9.77239e-07
-2.67834e-07
9.41921e-07
-1.41995e-06
-8.34331e-07
-6.18074e-07
8.47053e-08
-5.14086e-07
-4.05582e-07
-3.97877e-07
-1.82216e-07
-1.02108e-07
2.40374e-07
-3.71823e-07
8.37104e-07
7.65993e-08
3.06583e-07
-8.08927e-07
-7.7238e-07
-4.13734e-07
2.36326e-07
-1.41892e-08
4.32491e-07
-2.04975e-07
3.40445e-07
-5.22153e-07
-4.82199e-07
-7.46412e-07
-5.03246e-08
-1.00049e-07
5.75027e-07
2.67629e-07
2.11243e-07
-2.89133e-07
1.53116e-07
-5.27871e-07
-9.06223e-09
-6.71845e-07
-1.88891e-07
-5.08726e-07
-1.42164e-06
-9.13788e-07
-1.87703e-06
-3.04463e-07
-1.10453e-06
3.09903e-07
-2.04551e-07
5.62676e-07
9.28179e-07
9.83193e-07
1.54767e-06
4.31142e-07
9.32369e-07
-2.93915e-07
5.15716e-07
-4.72369e-07
6.50078e-07
-1.56642e-07
2.08564e-07
-4.24903e-07
-5.50647e-07
-4.41182e-07
1.95391e-07
-2.8048e-07
-1.66917e-07
-3.66628e-08
3.3456e-07
1.39009e-07
-2.71163e-07
2.07251e-07
2.92562e-07
4.0856e-07
3.09636e-08
1.70105e-07
3.37419e-07
4.93618e-08
8.9935e-09
-2.43172e-07
-3.50307e-07
-8.02821e-07
-9.51034e-07
-5.67567e-07
1.87936e-09
4.71664e-07
6.61332e-07
4.47149e-07
4.22411e-07
4.48748e-07
3.57116e-07
0.000168748
-9.71962e-06
2.88296e-05
-2.20667e-05
7.34381e-06
0.000102727
6.41775e-06
-6.71889e-06
7.62018e-06
5.86784e-06
4.22368e-06
5.09465e-06
)
;

boundaryField
{
    top_fluid_surface
    {
        type            calculated;
        value           nonuniform List<scalar> 
64
(
-4.42322e-05
-1.18208e-05
4.38506e-06
9.84653e-05
6.8738e-05
-0.000155598
0.000163342
-2.41816e-05
-0.000369306
-9.31262e-05
-0.000167524
-0.000129037
3.11892e-05
1.44826e-05
0.000144858
-7.64729e-05
-8.51778e-05
-4.04353e-05
9.53908e-05
3.54332e-05
-9.05552e-06
-0.000103208
2.79917e-05
-4.62315e-05
-0.000139251
-0.00013929
-6.78761e-05
-0.000149282
1.81246e-05
9.80791e-05
-1.7118e-05
-0.000156875
0.000162389
0.000118226
0.000146161
0.000107415
0.000126824
0.000123669
-0.000274643
-0.000242568
0.000194596
8.92559e-05
1.27353e-05
-2.04916e-05
0.000126093
0.000113586
5.70332e-05
0.000263663
0.000114043
-0.000243596
4.6559e-05
4.15592e-05
-0.000273755
1.62227e-05
0.000219742
0.000179484
4.33872e-05
-0.00015979
-0.000280225
0.000112276
-4.96815e-05
0.000120704
7.33357e-05
0.00011812
)
;
    }
    bottom_fluid_surface
    {
        type            calculated;
        value           uniform 0;
    }
    lateral_surface_1
    {
        type            calculated;
        value           uniform 0;
    }
    lateral_surface_2
    {
        type            calculated;
        value           uniform 0;
    }
    lateral_surface_3
    {
        type            calculated;
        value           uniform 0;
    }
    lateral_surface_4
    {
        type            calculated;
        value           uniform 0;
    }
}


// ************************************************************************* //
