/*--------------------------------*- C++ -*----------------------------------*\
| =========                 |                                                 |
| \\      /  F ield         | OpenFOAM: The Open Source CFD Toolbox           |
|  \\    /   O peration     | Version:  v1612+                                |
|   \\  /    A nd           | Web:      www.OpenFOAM.com                      |
|    \\/     M anipulation  |                                                 |
\*---------------------------------------------------------------------------*/
FoamFile
{
    version     2.0;
    format      ascii;
    class       volVectorField;
    location    "3.9";
    object      U;
}
// * * * * * * * * * * * * * * * * * * * * * * * * * * * * * * * * * * * * * //

dimensions      [0 1 -1 0 0 0 0];

internalField   nonuniform List<vector> 
320
(
(-3.98287e-06 -1.02376e-05 4.27135e-06)
(4.03463e-07 -4.02775e-06 -1.15548e-05)
(-4.75533e-06 -2.33501e-06 -1.99457e-05)
(4.17774e-06 5.86028e-06 -6.41967e-06)
(0.000197855 -2.87542e-05 -0.000192548)
(0.000363021 -3.45918e-05 -0.000105983)
(0.000428884 -5.00947e-05 -1.09828e-05)
(0.000168516 8.13483e-05 -2.07757e-05)
(0.000375043 -9.46887e-05 0.000128662)
(0.000105559 -0.000129159 -5.14303e-05)
(1.96398e-05 -0.000127003 -9.54374e-05)
(0.000169811 -0.000140207 -2.53957e-05)
(-8.17487e-05 2.13997e-05 -0.00020546)
(8.22703e-06 -0.000370235 -0.000191821)
(-0.000205485 -0.000238725 5.67954e-05)
(-0.000117019 -0.000211223 -3.60365e-05)
(-9.85245e-06 -1.98807e-06 2.34186e-05)
(2.94771e-06 1.87379e-06 1.57254e-05)
(1.72552e-05 2.64974e-07 9.19946e-07)
(2.82723e-06 1.14429e-05 -4.61261e-06)
(8.897e-06 -8.3576e-06 -9.5984e-06)
(9.44457e-06 -6.5328e-07 1.37975e-05)
(-1.70498e-06 -1.0084e-06 2.68111e-06)
(1.22894e-05 -7.61764e-06 -6.67375e-06)
(-5.965e-06 5.31126e-06 2.38443e-05)
(-5.29491e-06 -1.78937e-05 1.43553e-05)
(-1.2238e-05 -1.34052e-05 -3.9938e-06)
(-1.46954e-05 -1.43277e-05 -1.80368e-06)
(1.25932e-06 -3.24788e-06 1.5047e-05)
(-4.30884e-06 -3.70626e-06 9.31873e-06)
(-4.36767e-06 -1.04954e-06 -1.96455e-06)
(3.3092e-06 -1.75064e-06 -3.31604e-06)
(-1.53574e-06 3.28908e-06 -4.24948e-06)
(5.03944e-07 5.8631e-07 9.25043e-06)
(6.0277e-06 4.42291e-07 9.33948e-07)
(-3.07142e-06 7.80478e-06 -7.05967e-06)
(1.99222e-06 -3.13824e-06 1.10982e-05)
(-1.32597e-06 4.94867e-06 7.47416e-06)
(3.90305e-06 1.98571e-06 -3.59171e-06)
(4.66803e-06 1.89174e-06 1.38357e-06)
(-2.01162e-06 -6.52463e-06 6.40881e-07)
(3.09232e-07 -3.19661e-06 -3.81724e-06)
(-2.57749e-06 -1.50888e-06 -3.9189e-06)
(1.97497e-06 2.57328e-06 -2.72169e-06)
(1.45551e-06 -2.36902e-06 3.34561e-06)
(-3.29406e-06 -2.69463e-06 2.16561e-07)
(-2.92863e-06 -1.12681e-06 -6.41786e-08)
(1.40003e-06 -1.2556e-06 2.51624e-07)
(-8.18884e-07 2.05501e-06 -1.00056e-06)
(9.2661e-07 8.33263e-07 2.62609e-06)
(3.87311e-06 -1.32348e-07 1.10267e-07)
(-2.08054e-06 4.59868e-06 -1.06561e-06)
(1.75893e-06 -2.26217e-06 2.71906e-06)
(-2.3869e-07 2.64217e-06 9.56885e-07)
(3.01871e-06 8.36397e-07 -8.26935e-07)
(3.31677e-06 1.19791e-06 -8.28944e-07)
(-0.000120506 -0.000290501 0.000159957)
(-5.62691e-05 -3.17016e-05 -7.63081e-05)
(0.000169109 -0.00013233 -0.000101574)
(0.000159587 4.73738e-05 -2.53951e-05)
(0.000206448 0.000224094 6.82691e-05)
(0.000305853 -2.53787e-05 0.000268011)
(0.000183997 -2.84543e-05 0.000208031)
(8.95564e-05 -0.000386746 0.000373667)
(4.72297e-05 -0.000408952 -0.00013048)
(0.000217055 6.98833e-05 -3.13237e-05)
(9.25358e-05 9.77116e-05 3.55794e-05)
(0.000308698 -3.7503e-05 0.000156069)
(0.000313647 -5.48601e-05 -0.000154227)
(2.43083e-05 4.233e-05 1.64313e-05)
(0.00020917 -0.000212113 2.20051e-05)
(-0.000173989 -0.000155512 8.01328e-05)
(8.71216e-05 -9.07052e-05 7.3074e-05)
(2.96443e-05 2.19898e-05 0.000102491)
(9.05608e-05 5.7528e-05 3.94591e-05)
(0.000344204 0.000101551 6.04071e-05)
(-5.02811e-06 -7.24195e-06 -1.79448e-05)
(-1.02614e-05 -1.96281e-06 9.6065e-06)
(2.22088e-06 -1.86251e-05 7.5698e-06)
(5.28791e-06 -1.65836e-05 1.23692e-07)
(-7.83068e-06 6.12034e-06 -1.43478e-05)
(1.26899e-05 -5.87791e-07 -2.1493e-05)
(-1.0066e-05 3.75467e-06 -1.18494e-05)
(-1.46305e-05 -4.92642e-06 -3.84131e-05)
(3.88578e-06 -1.44333e-05 -7.33728e-06)
(1.18894e-05 -7.00026e-06 2.23808e-05)
(-4.52818e-06 4.75114e-06 -3.68784e-06)
(1.44473e-05 -4.32645e-06 -1.85175e-05)
(9.34641e-06 -2.62195e-06 2.15828e-05)
(-4.13948e-06 7.36108e-06 -9.95401e-06)
(4.46839e-06 -3.96096e-06 -4.21019e-06)
(-1.43939e-05 -8.77384e-06 -4.67516e-06)
(4.98613e-06 -8.45073e-06 -1.29519e-05)
(3.36352e-06 -2.49214e-06 -1.69927e-05)
(7.27727e-06 5.22107e-06 -1.56592e-06)
(2.22226e-05 9.7612e-06 -1.98238e-06)
(2.90157e-06 2.96031e-06 -7.34614e-06)
(1.61481e-06 5e-07 7.26344e-06)
(-1.79463e-06 3.59818e-06 5.82053e-06)
(2.60223e-07 4.86939e-07 5.21849e-07)
(3.22392e-06 -7.33448e-06 -7.6474e-06)
(-8.16179e-07 -6.56759e-07 -1.16534e-05)
(2.46427e-06 -1.19525e-06 -4.32119e-06)
(8.01373e-06 3.0556e-06 -2.14578e-05)
(1.59298e-06 1.13566e-05 -2.8157e-06)
(-2.11459e-07 7.62745e-06 1.92079e-05)
(9.37847e-06 -5.22218e-06 -2.03862e-06)
(-3.04106e-06 8.39576e-07 -1.22025e-05)
(-1.17372e-06 2.26165e-06 1.39528e-05)
(4.47979e-06 6.12019e-07 -9.17099e-06)
(-4.79352e-07 4.02334e-06 -5.49846e-06)
(8.1179e-06 1.99903e-06 -4.36154e-06)
(-1.58883e-06 -4.23971e-07 -1.01133e-05)
(-3.57015e-06 -4.24304e-06 -8.99498e-06)
(-1.61437e-06 -4.24954e-06 2.01028e-06)
(-6.63912e-06 -1.74538e-06 -1.02976e-06)
(1.75088e-06 1.80075e-06 -2.64969e-06)
(1.88093e-06 7.85388e-07 2.07506e-06)
(-9.32992e-07 2.28617e-06 -1.13896e-06)
(-2.40951e-07 5.06385e-08 5.93157e-07)
(2.05833e-06 -4.35108e-06 -1.93154e-06)
(-1.90907e-07 -1.05366e-06 -3.83743e-06)
(5.72249e-07 -1.08683e-06 -1.98971e-06)
(5.18034e-06 2.09985e-06 -5.03825e-06)
(1.28529e-06 6.91185e-06 -4.84435e-07)
(-3.80688e-08 4.33938e-06 3.23643e-06)
(6.22529e-06 -3.0598e-06 -9.85497e-07)
(-1.79047e-06 2.63874e-07 -3.034e-06)
(-4.47631e-07 1.10208e-06 2.12393e-06)
(3.48249e-06 -5.80843e-07 -1.8156e-06)
(-8.97307e-08 2.65764e-06 -9.15e-07)
(5.6464e-06 8.77489e-07 -1.75335e-06)
(-1.4585e-07 -2.49094e-07 -2.3741e-06)
(-1.46337e-06 -2.9692e-06 -1.91884e-06)
(-1.19291e-07 -3.63689e-06 7.89432e-08)
(-4.38063e-06 -1.32469e-06 8.09042e-08)
(-1.10126e-06 -3.0677e-06 2.39995e-07)
(9.1691e-07 -1.09538e-06 -1.00803e-06)
(-1.00556e-06 -6.72249e-07 -1.59229e-06)
(1.04067e-06 1.53964e-06 -6.09116e-07)
(3.22088e-07 -1.64462e-06 1.9093e-06)
(-1.15801e-06 -7.70467e-07 1.48063e-06)
(-3.8842e-07 -5.91906e-07 -3.65463e-07)
(1.26894e-06 -8.69018e-07 -3.19877e-07)
(4.54386e-07 6.02332e-07 -7.8404e-07)
(9.86659e-07 1.67151e-07 9.41182e-07)
(2.19149e-06 3.95288e-07 -1.8474e-07)
(-6.57812e-07 1.42558e-06 -6.3742e-07)
(1.34713e-06 -5.57339e-07 1.30178e-06)
(3.15648e-07 1.09619e-06 9.4232e-07)
(1.41811e-06 2.3227e-07 -6.27605e-08)
(1.77688e-06 5.35917e-07 2.75922e-07)
(1.13409e-06 8.17956e-07 -9.93915e-07)
(2.05122e-07 -1.35034e-07 8.05502e-07)
(-1.35812e-07 6.31661e-07 7.62179e-07)
(1.08359e-06 -3.93522e-07 1.33452e-07)
(7.93932e-07 -1.96044e-06 -5.36542e-07)
(-4.10101e-08 -5.85122e-07 -1.09531e-06)
(5.49028e-07 -2.52571e-07 -1.01336e-06)
(1.97276e-06 1.25736e-06 -2.06956e-06)
(9.34589e-07 2.92958e-06 -3.3205e-07)
(6.37431e-07 2.04402e-06 1.8091e-06)
(2.98868e-06 -1.29494e-06 -3.39278e-07)
(-2.17758e-07 5.56073e-07 -1.34708e-06)
(-5.29284e-08 5.64469e-07 1.37667e-06)
(1.40902e-06 2.75147e-07 -8.9261e-07)
(-1.14545e-07 1.49121e-06 -6.58895e-07)
(2.14728e-06 3.32209e-07 -1.07872e-06)
(-3.60565e-07 -6.01278e-07 -1.13071e-06)
(-6.41858e-07 -1.60647e-06 -1.44728e-06)
(-5.70473e-07 -1.92864e-06 9.19077e-08)
(-2.10249e-06 -8.07264e-07 9.18778e-08)
(0.000581506 0.000141504 -6.19672e-05)
(1.61866e-05 -8.76413e-05 0.000242408)
(4.1589e-05 5.0765e-06 -6.26966e-05)
(0.000284823 -0.000185283 8.60751e-05)
(7.31795e-05 -0.000110017 6.38804e-05)
(0.000174833 -9.89988e-05 5.04946e-05)
(-0.000195973 -7.83165e-05 -7.65606e-05)
(-0.000176338 0.000177196 -0.000225331)
(-0.000242666 -7.2169e-05 0.000141337)
(-0.000222429 -0.000133216 0.000156987)
(-0.00034802 -0.000229505 -6.68318e-05)
(-6.90881e-05 -1.07172e-06 -0.000151488)
(6.01983e-05 0.000302059 0.000158385)
(0.000162334 -0.000121713 0.000171556)
(0.000251322 -0.000223429 -4.45519e-05)
(0.000213601 -0.000155538 -0.000104916)
(0.000172656 -0.000344107 -0.000185159)
(8.97737e-05 -2.06801e-05 -9.652e-05)
(7.52896e-05 -0.00012067 -0.000196258)
(0.000191225 -7.12047e-05 -5.70591e-05)
(0.000157126 -0.000102307 -0.000202994)
(0.000125731 -0.000322165 -6.18048e-05)
(4.66883e-05 -0.000100862 6.20932e-05)
(0.000179743 -0.000167155 -0.000119969)
(-3.07048e-05 -0.000234979 7.29191e-05)
(-7.6619e-05 0.000101719 9.93199e-05)
(1.42278e-05 0.000202126 -8.30866e-05)
(2.39255e-05 0.000151295 -0.000269536)
(1.57193e-05 7.10864e-06 5.35694e-06)
(-2.97092e-06 2.64868e-06 -1.74154e-05)
(1.53029e-06 5.05168e-06 1.18567e-05)
(1.75682e-05 -9.14328e-06 -1.64569e-05)
(-7.4911e-06 -1.0296e-05 -1.45444e-05)
(-1.83908e-05 3.63551e-06 1.18428e-05)
(-1.57994e-05 2.64738e-07 1.80026e-05)
(-1.91696e-05 1.44964e-05 1.67995e-05)
(-7.42389e-06 -1.97114e-06 -1.18683e-05)
(-2.0554e-05 -1.58778e-05 6.58268e-06)
(-2.70538e-05 5.59238e-06 3.95531e-05)
(-1.00339e-05 2.58657e-05 1.75176e-05)
(1.32443e-05 1.26827e-05 -2.13447e-05)
(9.64914e-06 -7.91682e-06 -8.88968e-06)
(1.18158e-05 -4.32149e-06 2.58814e-05)
(6.76935e-06 -7.84339e-06 -9.66989e-06)
(5.66761e-06 -1.56196e-05 -4.50847e-07)
(6.02038e-07 9.35967e-07 1.14896e-06)
(-4.62626e-06 -6.87466e-06 1.10151e-05)
(-1.87911e-07 1.42227e-06 3.37573e-06)
(3.97523e-06 -2.21879e-06 2.24309e-05)
(3.34571e-07 -6.84582e-06 -1.00704e-05)
(1.09158e-06 5.82867e-06 -2.50772e-05)
(1.49375e-05 -1.37146e-07 1.77198e-05)
(9.40555e-06 -1.11142e-05 1.08064e-05)
(6.31445e-06 4.53409e-06 -3.75575e-06)
(8.71767e-06 1.20025e-06 1.45951e-05)
(-2.24627e-06 -3.85585e-06 9.10251e-06)
(-5.93549e-06 -1.10384e-06 2.15227e-06)
(2.42281e-06 8.31782e-07 -8.0404e-06)
(6.2062e-07 -6.25365e-07 4.50707e-06)
(-4.29618e-06 1.82616e-06 -6.85438e-06)
(6.56527e-06 1.87617e-06 -6.52003e-06)
(5.54802e-06 -4.47894e-06 1.21026e-05)
(3.33965e-06 -4.48134e-07 1.2086e-05)
(7.37048e-06 -5.87666e-06 1.04266e-05)
(4.79789e-06 -1.80899e-06 -6.1843e-06)
(6.2181e-06 7.07919e-06 -5.22658e-07)
(1.30719e-05 2.41797e-06 2.55511e-05)
(5.58119e-06 -7.63922e-06 1.09687e-05)
(-5.92363e-06 -4.35052e-06 -8.59281e-06)
(-6.3959e-06 2.24754e-06 -3.15051e-06)
(2.46551e-06 2.71986e-06 1.99402e-05)
(7.29186e-06 -4.29421e-07 -8.66256e-06)
(-1.45599e-06 4.8064e-06 -4.05789e-06)
(-2.84403e-06 -2.01398e-06 -1.18005e-06)
(2.30541e-07 6.47663e-06 5.88701e-06)
(-3.48021e-07 2.23537e-06 2.05467e-06)
(-3.53586e-06 6.3454e-06 1.42738e-05)
(5.74047e-07 9.07821e-06 -9.93808e-06)
(1.51847e-06 -4.24732e-06 -2.0639e-05)
(-5.67235e-06 -6.73895e-06 6.47249e-06)
(-4.79611e-06 1.95995e-06 8.72329e-06)
(5.31111e-07 -1.17827e-06 -3.20502e-06)
(-1.72459e-06 -1.3618e-06 7.78508e-06)
(9.14654e-07 1.5354e-06 5.40778e-06)
(-4.19414e-06 -8.67699e-07 7.42843e-07)
(1.20669e-06 1.43845e-07 -3.44091e-06)
(9.70072e-07 -3.23505e-07 2.29486e-06)
(-2.55933e-06 1.0547e-06 -2.96124e-06)
(3.70862e-06 1.30283e-06 -9.46672e-07)
(3.7501e-06 -2.89484e-06 1.49061e-06)
(1.88198e-06 -3.88977e-07 3.26033e-06)
(4.38785e-06 -3.89037e-06 3.05861e-06)
(2.3427e-06 -2.6129e-06 -9.31245e-07)
(2.82862e-06 4.11553e-06 1.89651e-06)
(7.54499e-06 2.768e-06 4.87643e-06)
(3.49676e-06 -4.38503e-06 3.19223e-06)
(-3.75188e-06 -2.61497e-06 -1.80249e-06)
(-3.45752e-06 1.31113e-06 -1.30189e-07)
(1.73012e-06 1.01681e-06 4.88472e-06)
(5.00213e-06 -4.57071e-07 -1.43611e-06)
(-2.88754e-07 2.23995e-06 3.4237e-07)
(-1.23581e-06 -1.95877e-06 4.37387e-07)
(2.0336e-07 3.02814e-06 2.94645e-06)
(-3.03155e-07 1.32036e-06 6.37466e-07)
(-1.63907e-06 3.24156e-06 3.48671e-06)
(2.82131e-07 5.36871e-06 -1.41195e-06)
(1.07199e-06 -2.31832e-06 -3.32094e-06)
(-2.91364e-06 -4.46755e-06 2.04331e-06)
(-3.14645e-06 8.62945e-07 1.62384e-06)
(9.18485e-07 -1.7194e-06 -6.73302e-08)
(-1.22901e-06 -2.27415e-06 1.6351e-06)
(-3.09787e-08 3.30327e-07 4.72928e-07)
(-2.14878e-06 -4.2077e-07 5.09352e-07)
(1.10465e-06 3.08172e-07 -9.46301e-07)
(5.08386e-07 -3.91328e-07 7.82839e-07)
(-8.99517e-07 4.90779e-09 -2.6955e-07)
(2.20368e-06 3.72382e-07 -8.11628e-07)
(1.27862e-06 -1.11518e-06 1.25787e-06)
(1.48221e-06 -1.12314e-07 1.60407e-06)
(2.48507e-06 -1.71315e-06 1.38888e-06)
(1.72949e-06 -8.3681e-07 -5.74162e-07)
(2.23339e-06 1.14474e-06 -4.71011e-07)
(3.1268e-06 9.87885e-07 2.32138e-06)
(1.96391e-06 -1.16817e-06 1.20735e-06)
(-9.70954e-07 -1.06566e-06 -9.95833e-07)
(-1.14577e-06 7.0969e-07 -3.18702e-07)
(1.16387e-06 8.84517e-07 1.88621e-06)
(2.47461e-06 1.83256e-07 -8.88318e-07)
(3.32086e-07 1.39859e-06 -5.02187e-07)
(-3.76883e-07 -3.66583e-07 -2.13036e-07)
(4.20393e-07 1.72254e-06 4.07472e-07)
(1.96497e-07 6.22043e-07 1.82646e-08)
(-7.67891e-07 1.4115e-06 9.10875e-07)
(2.15653e-08 2.22593e-06 -9.04466e-07)
(-3.3169e-08 -8.03361e-07 -2.19422e-06)
(-1.114e-06 -1.69294e-06 6.11557e-07)
(-1.12483e-06 2.23591e-08 5.0031e-07)
(5.14828e-07 -9.24715e-07 -3.40678e-07)
(-1.20914e-07 -7.60363e-07 1.19423e-06)
(5.61727e-07 2.61867e-07 1.17983e-06)
(0.000120204 0.000146365 -0.00013839)
(0.000147841 2.48242e-05 7.55174e-05)
(0.000461819 3.33237e-05 -2.17193e-05)
(0.000297562 -0.000323477 0.000104865)
(5.93954e-06 6.90923e-06 8.67143e-06)
(4.47445e-06 1.21146e-05 -1.86678e-05)
(1.56685e-05 -2.17795e-06 -2.43905e-05)
(7.48242e-06 -1.15424e-05 -1.22235e-05)
)
;

boundaryField
{
    top_fluid_surface
    {
        type            pressureInletOutletVelocity;
        value           nonuniform List<vector> 
64
(
(0 0 -0.000192548)
(0 0 -0.000105983)
(0.000428884 -5.00947e-05 -1.09828e-05)
(0 0 -2.07757e-05)
(0.000375043 -9.46887e-05 0.000128662)
(0 0 -5.14303e-05)
(0 0 -9.54374e-05)
(0 0 -2.53957e-05)
(0 0 -0.00020546)
(0 0 -0.000191821)
(-0.000205485 -0.000238725 5.67954e-05)
(0 0 -3.60365e-05)
(-0.000120506 -0.000290501 0.000159957)
(0 0 -7.63081e-05)
(0 0 -0.000101574)
(0 0 -2.53951e-05)
(0.000206448 0.000224094 6.82691e-05)
(0.000305853 -2.53787e-05 0.000268011)
(0.000183997 -2.84543e-05 0.000208031)
(8.95564e-05 -0.000386746 0.000373667)
(0 0 -0.00013048)
(0 0 -3.13237e-05)
(9.25358e-05 9.77116e-05 3.55794e-05)
(0.000308698 -3.7503e-05 0.000156069)
(0 0 -0.000154227)
(2.43083e-05 4.233e-05 1.64313e-05)
(0.00020917 -0.000212113 2.20051e-05)
(-0.000173989 -0.000155512 8.01328e-05)
(8.71216e-05 -9.07052e-05 7.3074e-05)
(2.96443e-05 2.19898e-05 0.000102491)
(9.05608e-05 5.7528e-05 3.94591e-05)
(0.000344204 0.000101551 6.04071e-05)
(0 0 -6.19672e-05)
(1.61866e-05 -8.76413e-05 0.000242408)
(0 0 -6.26966e-05)
(0.000284823 -0.000185283 8.60751e-05)
(7.31795e-05 -0.000110017 6.38804e-05)
(0.000174833 -9.89988e-05 5.04946e-05)
(0 0 -7.65606e-05)
(0 0 -0.000225331)
(-0.000242666 -7.2169e-05 0.000141337)
(-0.000222429 -0.000133216 0.000156987)
(0 0 -6.68318e-05)
(0 0 -0.000151488)
(6.01983e-05 0.000302059 0.000158385)
(0.000162334 -0.000121713 0.000171556)
(0 0 -4.45519e-05)
(0 0 -0.000104916)
(0 0 -0.000185159)
(0 0 -9.652e-05)
(0 0 -0.000196258)
(0 0 -5.70591e-05)
(0 0 -0.000202994)
(0 0 -6.18048e-05)
(4.66883e-05 -0.000100862 6.20932e-05)
(0 0 -0.000119969)
(-3.07048e-05 -0.000234979 7.29191e-05)
(-7.6619e-05 0.000101719 9.93199e-05)
(0 0 -8.30866e-05)
(0 0 -0.000269536)
(0 0 -0.00013839)
(0.000147841 2.48242e-05 7.55174e-05)
(0 0 -2.17193e-05)
(0.000297562 -0.000323477 0.000104865)
)
;
    }
    bottom_fluid_surface
    {
        type            noSlip;
    }
    lateral_surface_1
    {
        type            noSlip;
    }
    lateral_surface_2
    {
        type            noSlip;
    }
    lateral_surface_3
    {
        type            noSlip;
    }
    lateral_surface_4
    {
        type            noSlip;
    }
}


// ************************************************************************* //
