/*--------------------------------*- C++ -*----------------------------------*\
| =========                 |                                                 |
| \\      /  F ield         | OpenFOAM: The Open Source CFD Toolbox           |
|  \\    /   O peration     | Version:  v1612+                                |
|   \\  /    A nd           | Web:      www.OpenFOAM.com                      |
|    \\/     M anipulation  |                                                 |
\*---------------------------------------------------------------------------*/
FoamFile
{
    version     2.0;
    format      ascii;
    class       volScalarField;
    location    "9.75";
    object      p_rgh;
}
// * * * * * * * * * * * * * * * * * * * * * * * * * * * * * * * * * * * * * //

dimensions      [1 -1 -2 0 0 0 0];

internalField   nonuniform List<scalar> 
1116
(
10646.6
10658.5
10657.2
10624.4
10615.2
10643.3
11317.6
11332.1
11350.7
11338.2
11355.5
11353.9
12225.4
12215.5
12217.9
12231.3
12236.1
12217.8
12545.1
12542.2
12542.1
12545.3
12547.2
12539.3
12859.7
12859
12856.7
12856.4
12855.5
12849.6
13252.2
13251.1
13248.8
13248
13246.1
13243.5
13948.1
13947.8
13947.3
13947.9
13945.2
13947.3
14984.3
14986.8
14986.5
14987.6
14987.4
14983.9
16188
16160.8
16173
16175.4
16173
16150.3
17310.9
17311.4
17307.4
17297.3
17297.9
17333.8
18342.8
18338.8
18330.2
18328.7
18332.5
18341.2
17687.6
17596.5
17619.8
17659.9
17601.2
17609.3
5497.06
5521.28
5505
5493.2
5490.37
5497.5
5918.74
5884.38
5888.82
5942.31
5985.01
5878.5
6017.23
5917.06
5924.05
6039.39
6106.25
5908.09
6547.15
6461.3
6443.05
6519.34
6533.7
6396.99
6996.09
6951.52
6928.86
6969.3
6959.26
6880.36
7677.31
7667.15
7657.88
7669.23
7656.86
7627.34
8760.96
8754.29
8756.6
8771.45
8775.58
8757.79
11105
11097.4
11100.5
11115.9
11132.3
11119.1
16006.5
16015
16003.4
15990.5
15984.4
16005.1
17730
17707.9
17708.9
17699.6
17682
17730.1
18858.7
18838.9
18833.9
18843.3
18852.7
18886.2
16026.4
16001.6
15995.9
16023.1
15959.9
15927.8
-2.46147
-2.322
-2.32099
-2.3606
-2.24871
-2.2808
-4.74519
-4.4885
-4.47
-4.84906
-4.99102
-4.58906
-7.04977
-6.89643
-6.80809
-6.87215
-7.06627
-6.75027
-7.12976
-7.19107
-7.10406
-6.87791
-6.82526
-6.96262
-6.48328
-6.64821
-6.63139
-6.45176
-6.42393
-6.54893
-6.59
-6.74655
-6.81539
-6.70072
-6.80169
-6.87695
-0.919957
-0.909388
-1.07016
-1.16089
-1.30736
-1.10147
113.436
113.538
113.195
112.867
112.908
113.655
356.463
352.098
351.094
350.873
349.836
353.151
2405.66
2421.76
2423.74
2395.28
2335.99
2495.69
14523.9
13896.2
13926.6
13740.9
13665.1
13961.9
17581
17630.9
17658.9
17660
17657.2
17628.4
7.8178
7.76592
7.76274
7.85766
7.98753
7.79634
7.64891
7.63376
7.63033
7.61606
7.73365
7.65652
7.67425
7.83463
7.76513
7.65422
7.61336
7.75893
5.76151
5.88237
5.87027
5.79326
5.79004
5.91512
4.17124
4.24348
4.24301
4.21816
4.23601
4.30729
-0.110721
-0.126677
-0.132921
-0.122334
-0.106814
-0.0265545
-9.85589
-9.51833
-9.68881
-9.86147
-9.67728
-9.82874
4.13673
4.09929
3.91211
3.80139
3.9056
3.7336
10.5471
9.36317
8.72241
8.91043
8.66225
9.34505
47.2313
35.7767
33.1885
31.6732
30.2606
29.9162
738.492
234.184
241.957
215.464
200.663
222.294
18215.5
17749.2
17697.9
17582.4
17469
17738.9
1165.89
1189.32
1173.74
1090.06
1000.99
931.839
1192.49
1211.07
1183.5
1129.17
1072.7
1005.04
1246.28
1248.55
1220.22
1204.28
1185.75
1138.9
1311.46
1290.29
1282.48
1285.84
1259.85
1260.35
1372.56
1340.73
1385.19
1360.18
1293.61
1314.3
1435.91
1408.9
1425.35
1401.45
1316.78
1335.1
1483.58
1418.07
1449.61
1458.22
1364.08
1379.81
1586.05
1456.57
1516.47
1440.7
1431.49
1487.49
1641.04
1589.55
1477.3
1247.13
1620.18
1700.1
1246.55
1445.72
1315.63
1038.25
1336.01
1485.08
956.928
1011.61
1089.38
1040.61
1054.68
1180.68
862.305
873.85
914.369
911.06
898.182
954.985
314.007
464.035
527.281
275.25
120.121
64.2534
372.775
504.51
447.96
318.663
209.732
147.242
468.619
524.229
511.933
490.096
389.823
312.226
633.354
651.99
702.737
752.882
666.799
505.844
760.396
928.366
1196.96
933.163
701.252
619.279
944.394
1093.4
994.295
836.219
584.427
581.394
1321.4
1091.38
872.72
821.611
445.107
560.64
1909.65
1239.82
1127.3
928.719
458.833
689.579
1244.17
1837.93
1573.06
659.672
1154.42
1166.34
646.259
1809.32
1446.78
437.736
1124.13
1342.24
733.93
1288.59
974.998
628.254
650.887
1080.85
756.707
721.856
646.083
632.56
614.286
639.25
-0.382709
-0.871176
-0.612956
-0.767248
0.339131
1.76624
-0.587916
-0.873357
-0.078942
0.0281981
0.174591
1.20212
38.0554
-0.485161
-0.0104836
0.0170922
-0.588288
0.246417
41.5975
-1.19079
-0.554608
-1.13263
-1.89868
-1.77368
1.85079
1.04924
0.800209
-0.0930176
-0.34772
-0.602753
2.77756
40.3222
18.6248
3.43324
3.66033
4.18552
6.81606
4.11173
48.4124
7.23857
7.46753
8.30195
20.189
12.2837
12.9857
10.0283
8.06575
10.2854
219.44
34.3958
545.597
290.741
10.6279
19.7199
1113.14
1377.45
911.778
139.42
609.337
660.33
943.651
1585.33
731.344
286.448
364.358
968.531
546.037
634.629
461.479
419.791
471.223
558.399
1.4871
0.146499
-0.468844
1.31854
3.15346
4.52359
1.17
-0.209014
-0.412338
0.482534
1.77964
3.0156
0.496767
-0.000978311
-0.131004
0.0607142
0.329193
1.83491
-1.36416
-1.25981
-1.35941
-1.61138
-1.89091
-1.05077
-3.19169
-3.51016
-2.90421
-2.26107
-3.11482
-2.46588
-4.92799
-7.18822
-2.75038
-1.61209
-2.98035
-1.27972
-1.94752
-7.10115
-1.70104
1.19488
-0.492406
2.37662
1.34905
-3.60771
1.42909
2.12976
0.998294
4.41229
46.2136
7.3526
8.62516
323
84.7661
20.2767
178.609
112.383
582.968
120.495
511.181
156.366
665.752
1128.85
335.093
171.88
355.057
761.473
389.826
377.547
268.808
284.414
553.185
401.584
1.58059
0.934916
1.1511
1.35246
1.50248
-0.700227
7.46061
3.83764
2.51943
7.28097
7.95155
5.27242
0.803066
-4.7758
-4.50337
-4.99551
0.554197
1.26411
-2.68709
-3.00951
-3.10119
-2.85161
-2.60795
-2.675
-1.09052
-1.17926
-1.36672
-1.14899
-1.20578
-1.22422
-5.58971
-5.36752
-5.37796
-5.51114
-5.87047
-5.94518
-1.71914
-1.68864
-1.70096
-1.68708
-1.68991
-1.68634
-1.04353
-1.02618
-1.03252
-1.04118
-1.05299
-1.05424
-5.1888
-5.17451
-5.17588
-5.19865
-5.24294
-5.24058
-2.25606
-2.25362
-2.26209
-2.23915
-2.23851
-2.21796
-2.09964
-2.10055
-2.10996
-2.11348
-2.12142
-2.11764
-5.78606
-5.77945
-5.78569
-5.80226
-5.83104
-5.83593
-2.22812
-2.23085
-2.23488
-2.24102
-2.23798
-2.23925
-2.49496
-2.50215
-2.50063
-2.51534
-2.5173
-2.52306
-6.0875
-6.09865
-6.09884
-6.10721
-6.11343
-6.11289
-2.97695
-2.98827
-2.99928
-2.99549
-2.99587
-3.02723
-3.47141
-3.42668
-3.43312
-3.45951
-3.4865
-3.4713
-6.41473
-6.42522
-6.43422
-6.45673
-6.47729
-6.4822
-0.345731
-0.302373
-0.360083
-0.37959
-0.346644
-0.458805
-2.1082
-2.00032
-2.047
-2.12159
-2.12637
-2.16331
-6.49843
-6.6386
-6.54335
-6.54982
-6.54758
-6.57184
2.99324
3.35334
2.96025
3.28217
3.27503
3.69788
-1.69828
-0.699847
-0.900482
-0.951282
-0.908632
-0.330205
-4.10671
-4.8057
-4.44367
-4.6266
-4.87737
-5.18477
9.91145
11.3333
9.83257
9.91532
10.5692
11.7873
18.6861
16.7653
16.6481
16.4994
15.8646
15.5891
-9.99894
-11.5159
-10.2231
-9.95993
-10.0163
-10.1909
40.8955
32.1701
34.006
30.9365
29.4289
30.8956
21.255
18.3017
20.2222
18.476
17.7392
18.7071
-7.30937
-8.29781
-7.74903
-8.43925
-8.52992
-8.36626
197.066
86.107
84.9067
80.3209
77.8082
76.9754
159.691
8.48194
16.0277
10.897
6.99636
15.0266
40.4884
-14.0945
-18.3165
-15.673
-16.3921
-16.4224
4779.31
10002.8
9170.31
7982.38
8938.17
9124.56
-74.3668
-48.2089
-60.7358
-58.5762
-54.2483
-55.0516
-33.5814
-38.6281
-36.5065
-32.957
-31.1051
-33.3617
1085.42
1085.68
1072.2
1063.33
1042.84
1067.99
400.251
243.365
132.111
85.7825
76.044
239.957
-3.68176
-8.91319
-9.73984
-8.04797
-6.86976
-6.53053
935.662
914.762
958.621
914.148
778.346
833.303
173.748
117.179
158.83
233.491
175.762
106.573
0.638131
-7.02768
-9.8203
-3.86039
-4.20359
-2.02657
1051.59
1065.12
1058.73
1001.97
926.773
947.034
1134.09
1079.84
1037.17
1154.89
1151.12
975.55
259.899
170.749
171.259
238.167
215.282
151.899
3314.21
5839.65
3600.5
3279.26
5120.82
4443.92
1449.29
1960.43
1431.3
1228.13
1434.18
1477.64
66.5923
31.6769
43.9403
52.8973
32.333
42.5448
9760.35
10540.1
10757.1
10079
10500.1
10477
13.0562
1052.31
-6.92211
-9.06681
162.496
114.456
-29.9621
-24.9465
-28.2313
-28.2426
-26.7715
-28.0489
9679.59
10298.7
10785.9
10622.9
10499.6
10448.8
-25.5518
1081.03
-15.8045
-15.9098
127.27
9.53459
-17.1208
-14.3609
-20.7303
-22.1395
-22.877
-22.9968
0.145658
-0.0070714
0.286081
0.603443
0.39783
0.578062
-0.0394283
0.0254439
0.396454
0.135904
0.1393
0.202768
-0.433147
-0.432451
-0.297973
-0.375415
-0.414484
-0.402718
-0.0726222
-0.317082
-0.514396
-0.257412
0.154099
0.621065
-0.435425
-0.499176
-0.568604
-0.407896
-0.284201
-0.0812356
-0.877754
-0.93527
-0.852858
-0.86213
-0.877333
-0.807298
-0.860345
-0.522947
-0.365364
-0.250613
-0.0897179
0.162668
-0.649858
-0.618549
-0.584749
-0.540321
-0.458985
-0.36058
-1.07369
-1.12268
-1.02961
-1.04666
-1.03404
-0.969904
-3.041
-1.83904
-1.30489
-1.18849
-1.29376
-1.37287
-1.32123
-1.1548
-1.02611
-0.986975
-1.02145
-1.08465
-1.27903
-1.37412
-1.30358
-1.29178
-1.27976
-1.14858
-3.74437
-2.71502
-1.30599
-0.87604
-1.54254
-1.19678
-1.00046
-0.775035
-0.473421
-0.407351
-0.54026
-0.494
-0.93725
-1.17364
-1.17003
-1.09239
-0.954374
-0.620183
-3.05028
-3.59428
-0.828133
0.529678
-0.770878
0.897952
0.707227
0.940747
1.08159
1.23371
1.0475
1.56966
0.0247745
-0.410693
-0.743974
-0.625108
-0.319539
0.223906
2.32959
1.17061
2.82617
5.63517
2.33682
5.129
5.87653
6.18661
4.54536
4.48312
4.03532
5.06185
0.971026
0.469533
-0.302975
-0.296222
-0.136151
0.263651
5.66381
3.43399
5.88142
7.31486
7.51081
9.36776
7.74023
8.25825
8.36221
8.66339
9.0727
9.53676
2.48356
1.98567
0.426427
0.24707
0.351962
0.291913
91.2857
19.6115
43.8198
209.454
44.6806
15.6285
1.84414
5.87827
8.39486
11.5942
5.76913
13.3429
-6.12118
-6.94542
-6.58331
-4.48494
-3.44094
-2.1615
172.078
80.675
183.932
217.095
334.485
301.469
70.8149
13.1336
122.976
230.338
143.068
62.814
-8.02231
-9.10113
10.79
182.952
-2.34624
-7.73291
250.034
516.963
273.122
142.21
493.768
794.222
219.651
-11.8743
154.514
202.811
548.675
430.477
105.014
-24.7093
25.1301
146.233
133.339
-17.3255
1001.12
553.795
214.567
434.922
1012.16
1010.15
851.881
768.011
275.834
287.113
544.037
648.478
56.4163
174.564
161.805
-5.22309
-5.70093
5.01674
)
;

boundaryField
{
    seabed_topleft_surface
    {
        type            fixedFluxPressure;
        gradient        uniform 0;
        value           nonuniform List<scalar> 
72
(
10646.6
10658.5
10657.2
10624.4
10615.2
10643.3
11317.6
11332.1
11350.7
11338.2
11355.5
11353.9
12225.4
12215.5
12217.9
12231.3
12236.1
12217.8
12545.1
12542.2
12542.1
12545.3
12547.2
12539.3
12859.7
12859
12856.7
12856.4
12855.5
12849.6
13252.2
13251.1
13248.8
13248
13246.1
13243.5
13948.1
13947.8
13947.3
13947.9
13945.2
13947.3
14984.3
14986.8
14986.5
14987.6
14987.4
14983.9
16188
16160.8
16173
16175.4
16173
16150.3
17310.9
17311.4
17307.4
17297.3
17297.9
17333.8
18342.8
18338.8
18330.2
18328.7
18332.5
18341.2
17687.6
17596.5
17619.8
17659.9
17601.2
17609.3
)
;
    }
    seabed_topright_surface
    {
        type            fixedFluxPressure;
        gradient        uniform 0;
        value           nonuniform List<scalar> 
72
(
1165.89
1189.32
1173.74
1090.06
1000.99
931.839
1192.49
1211.07
1183.5
1129.17
1072.7
1005.04
1246.28
1248.55
1220.22
1204.28
1185.75
1138.9
1311.46
1290.29
1282.48
1285.84
1259.85
1260.35
1372.56
1340.73
1385.19
1360.18
1293.61
1314.3
1435.91
1408.9
1425.35
1401.45
1316.78
1335.1
1483.58
1418.07
1449.61
1458.22
1364.08
1379.81
1586.05
1456.57
1516.47
1440.7
1431.49
1487.49
1641.04
1589.55
1477.3
1247.13
1620.18
1700.1
1246.55
1445.72
1315.63
1038.25
1336.01
1485.08
956.928
1011.61
1089.38
1040.61
1054.68
1180.68
862.305
873.85
914.369
911.06
898.182
954.985
)
;
    }
    breakwater_top_surface
    {
        type            fixedFluxPressure;
        gradient        uniform 0;
        value           nonuniform List<scalar> 
36
(
1085.42
1085.68
1072.2
1063.33
1042.84
1067.99
935.662
914.762
958.621
914.148
778.346
833.303
1051.59
1065.12
1058.73
1001.97
926.773
947.034
3314.21
5839.65
3600.5
3279.26
5120.82
4443.92
9760.35
10540.1
10757.1
10079
10500.1
10477
9679.59
10298.7
10785.9
10622.9
10499.6
10448.8
)
;
    }
    breakwater_left_surface
    {
        type            fixedFluxPressure;
        gradient        uniform 0;
        value           nonuniform List<scalar> 
24
(
17687.6
17596.5
17619.8
17659.9
17601.2
17609.3
16026.4
16001.6
15995.9
16023.1
15959.9
15927.8
17581
17630.9
17658.9
17660
17657.2
17628.4
18215.5
17749.2
17697.9
17582.4
17469
17738.9
)
;
    }
    breakwater_right_surface
    {
        type            fixedFluxPressure;
        gradient        uniform 0;
        value           nonuniform List<scalar> 
24
(
862.305
873.85
914.369
911.06
898.182
954.985
756.707
721.856
646.083
632.56
614.286
639.25
546.037
634.629
461.479
419.791
471.223
558.399
389.826
377.547
268.808
284.414
553.185
401.584
)
;
    }
    water_front_surface
    {
        type            fixedFluxPressure;
        gradient        uniform 0;
        value           nonuniform List<scalar> 
186
(
10646.6
11317.6
12225.4
12545.1
12859.7
13252.2
13948.1
14984.3
16188
17310.9
18342.8
17687.6
5497.06
5918.74
6017.23
6547.15
6996.09
7677.31
8760.96
11105
16006.5
17730
18858.7
16026.4
-2.46147
-4.74519
-7.04977
-7.12976
-6.48328
-6.59
-0.919957
113.436
356.463
2405.66
14523.9
17581
7.8178
7.64891
7.67425
5.76151
4.17124
-0.110721
-9.85589
4.13673
10.5471
47.2313
738.492
18215.5
1165.89
1192.49
1246.28
1311.46
1372.56
1435.91
1483.58
1586.05
1641.04
1246.55
956.928
862.305
314.007
372.775
468.619
633.354
760.396
944.394
1321.4
1909.65
1244.17
646.259
733.93
756.707
-0.382709
-0.587916
38.0554
41.5975
1.85079
2.77756
6.81606
20.189
219.44
1113.14
943.651
546.037
1.4871
1.17
0.496767
-1.36416
-3.19169
-4.92799
-1.94752
1.34905
46.2136
178.609
665.752
389.826
1.58059
7.46061
0.803066
-2.68709
-1.09052
-5.58971
-1.71914
-1.04353
-5.1888
-2.25606
-2.09964
-5.78606
-2.22812
-2.49496
-6.0875
-2.97695
-3.47141
-6.41473
-0.345731
-2.1082
-6.49843
2.99324
-1.69828
-4.10671
9.91145
18.6861
-9.99894
40.8955
21.255
-7.30937
197.066
159.691
40.4884
4779.31
-74.3668
-33.5814
1085.42
400.251
-3.68176
935.662
173.748
0.638131
1051.59
1134.09
259.899
3314.21
1449.29
66.5923
9760.35
13.0562
-29.9621
9679.59
-25.5518
-17.1208
0.145658
-0.0394283
-0.433147
-0.0726222
-0.435425
-0.877754
-0.860345
-0.649858
-1.07369
-3.041
-1.32123
-1.27903
-3.74437
-1.00046
-0.93725
-3.05028
0.707227
0.0247745
2.32959
5.87653
0.971026
5.66381
7.74023
2.48356
91.2857
1.84414
-6.12118
172.078
70.8149
-8.02231
250.034
219.651
105.014
1001.12
851.881
56.4163
)
;
    }
    water_back_surface
    {
        type            fixedFluxPressure;
        gradient        uniform 0;
        value           nonuniform List<scalar> 
186
(
10643.3
11353.9
12217.8
12539.3
12849.6
13243.5
13947.3
14983.9
16150.3
17333.8
18341.2
17609.3
5497.5
5878.5
5908.09
6396.99
6880.36
7627.34
8757.79
11119.1
16005.1
17730.1
18886.2
15927.8
-2.2808
-4.58906
-6.75027
-6.96262
-6.54893
-6.87695
-1.10147
113.655
353.151
2495.69
13961.9
17628.4
7.79634
7.65652
7.75893
5.91512
4.30729
-0.0265545
-9.82874
3.7336
9.34505
29.9162
222.294
17738.9
931.839
1005.04
1138.9
1260.35
1314.3
1335.1
1379.81
1487.49
1700.1
1485.08
1180.68
954.985
64.2534
147.242
312.226
505.844
619.279
581.394
560.64
689.579
1166.34
1342.24
1080.85
639.25
1.76624
1.20212
0.246417
-1.77368
-0.602753
4.18552
8.30195
10.2854
19.7199
660.33
968.531
558.399
4.52359
3.0156
1.83491
-1.05077
-2.46588
-1.27972
2.37662
4.41229
20.2767
156.366
761.473
401.584
-0.700227
5.27242
1.26411
-2.675
-1.22422
-5.94518
-1.68634
-1.05424
-5.24058
-2.21796
-2.11764
-5.83593
-2.23925
-2.52306
-6.11289
-3.02723
-3.4713
-6.4822
-0.458805
-2.16331
-6.57184
3.69788
-0.330205
-5.18477
11.7873
15.5891
-10.1909
30.8956
18.7071
-8.36626
76.9754
15.0266
-16.4224
9124.56
-55.0516
-33.3617
1067.99
239.957
-6.53053
833.303
106.573
-2.02657
947.034
975.55
151.899
4443.92
1477.64
42.5448
10477
114.456
-28.0489
10448.8
9.53459
-22.9968
0.578062
0.202768
-0.402718
0.621065
-0.0812356
-0.807298
0.162668
-0.36058
-0.969904
-1.37287
-1.08465
-1.14858
-1.19678
-0.494
-0.620183
0.897952
1.56966
0.223906
5.129
5.06185
0.263651
9.36776
9.53676
0.291913
15.6285
13.3429
-2.1615
301.469
62.814
-7.73291
794.222
430.477
-17.3255
1010.15
648.478
5.01674
)
;
    }
    water_left_surface
    {
        type            fixedFluxPressure;
        gradient        uniform 0;
        value           nonuniform List<scalar> 
42
(
10646.6
10658.5
10657.2
10624.4
10615.2
10643.3
5497.06
5521.28
5505
5493.2
5490.37
5497.5
-2.46147
-2.322
-2.32099
-2.3606
-2.24871
-2.2808
7.8178
7.76592
7.76274
7.85766
7.98753
7.79634
1.58059
0.934916
1.1511
1.35246
1.50248
-0.700227
7.46061
3.83764
2.51943
7.28097
7.95155
5.27242
0.803066
-4.7758
-4.50337
-4.99551
0.554197
1.26411
)
;
    }
    water_right_surface
    {
        type            fixedFluxPressure;
        gradient        uniform 0;
        value           nonuniform List<scalar> 
42
(
1165.89
1189.32
1173.74
1090.06
1000.99
931.839
314.007
464.035
527.281
275.25
120.121
64.2534
-0.382709
-0.871176
-0.612956
-0.767248
0.339131
1.76624
1.4871
0.146499
-0.468844
1.31854
3.15346
4.52359
0.145658
-0.0070714
0.286081
0.603443
0.39783
0.578062
-0.0394283
0.0254439
0.396454
0.135904
0.1393
0.202768
-0.433147
-0.432451
-0.297973
-0.375415
-0.414484
-0.402718
)
;
    }
    water_top_surface
    {
        type            totalPressure;
        rho             rho;
        psi             none;
        gamma           1;
        p0              uniform 0;
        value           nonuniform List<scalar> 
180
(
0
-2.24268
-2.02453
-1.86389
0
0
-5.69446
-5.41852
-5.43875
-5.53135
-5.8967
-5.98577
-4.69136
-4.68942
-4.69812
-4.70136
-4.72824
-4.74707
-5.85139
-5.85298
-5.86138
-5.86884
-5.90237
-5.91331
-6.51888
-6.53976
-6.53661
-6.53916
-6.54869
-6.56116
-7.5237
-7.54404
-7.53246
-7.5461
-7.5504
-7.55058
-7.95772
-8.25836
-8.15227
-8.21351
-8.17648
-8.19878
-8.84694
-10.1518
-9.45664
-9.05605
-9.37127
-10.0361
-5.34285
-14.4066
-7.22754
-5.66905
-8.69591
-12.0125
0
0
0
0
0
0
0
0
0
0
0
0
0
0
0
0
0
0
0
0
0
0
0
0
0
0
0
0
0
0
0
0
0
0
0
0
0
0
0
0
0
0
-16.5398
-22.7154
-17.9662
-19.8225
-13.5994
-14.0752
-8.05226
-4.39916
-0.404537
-0.414056
0
0
-0.669304
-0.669494
-0.335119
-0.657806
-0.779141
-0.718206
-1.28715
-1.35556
-1.40406
-1.41166
-1.3274
-1.22291
-1.30347
-1.40341
-1.49646
-1.51006
-1.43007
-1.35626
-1.30275
-1.47929
-1.63461
-1.73447
-1.72992
-1.53016
-0.897816
-1.2148
-1.47254
-1.6616
-1.63477
-1.10858
-0.48678
-1.00885
-1.36105
-1.68478
-1.5846
-0.787307
-0.10118
-0.685985
-1.23313
-1.39278
-1.29908
-0.442219
-0.168433
-1.32302
-1.78637
-2.23527
-1.78675
-0.544459
-5.6593
-8.52703
-4.40634
-8.0187
-5.90529
-1.41134
-1.19428
-0.381709
0
0
0
-0.992777
0
0
0
0
0
0
0
0
0
0
0
0
)
;
    }
}


// ************************************************************************* //
