/*--------------------------------*- C++ -*----------------------------------*\
| =========                 |                                                 |
| \\      /  F ield         | OpenFOAM: The Open Source CFD Toolbox           |
|  \\    /   O peration     | Version:  v1612+                                |
|   \\  /    A nd           | Web:      www.OpenFOAM.com                      |
|    \\/     M anipulation  |                                                 |
\*---------------------------------------------------------------------------*/
FoamFile
{
    version     2.0;
    format      ascii;
    class       surfaceScalarField;
    location    "9.75";
    object      phi;
}
// * * * * * * * * * * * * * * * * * * * * * * * * * * * * * * * * * * * * * //

dimensions      [0 3 -1 0 0 0 0];

internalField   nonuniform List<scalar> 
2916
(
-0.0107053
-0.190296
0.201002
0.00455013
-0.212177
0.196921
0.0317764
-0.218678
0.191452
0.0130407
-0.178588
0.197324
-0.0323977
-0.158627
0.204065
-0.218117
0.185719
0.00138214
-0.337583
0.145905
-0.00128382
-0.350806
0.141296
-0.00728941
-0.353651
0.140978
-0.00355283
-0.334391
0.152067
-0.00377138
-0.322506
0.164098
-0.360323
0.138435
0.00193615
-0.327563
-0.0119567
-0.00233622
-0.334855
-0.0116793
-0.0101542
-0.335114
-0.0107191
-0.00502149
-0.328366
-0.0111576
0.0017981
-0.323519
-0.0058068
-0.346701
-0.0118243
0.00085828
-0.275186
-0.0532347
-0.0010377
-0.281545
-0.0514135
-0.00521935
-0.281912
-0.0490206
-0.00332787
-0.277556
-0.0527019
0.000841222
-0.275079
-0.0526091
-0.295578
-0.0502823
0.000502531
-0.221223
-0.054466
-0.000357256
-0.226929
-0.0537566
-0.0022713
-0.227559
-0.052439
-0.00151346
-0.222775
-0.0555382
-0.000667895
-0.219829
-0.0560961
-0.240234
-0.056011
0.000796777
-0.162851
-0.0591686
4.66176e-05
-0.167899
-0.0582798
-0.000768808
-0.168814
-0.0579295
-0.000304015
-0.162836
-0.0604037
-0.00132672
-0.15791
-0.060896
-0.179133
-0.0624285
0.00194924
-0.128638
-0.0361627
0.000583686
-0.130886
-0.0356473
0.000509231
-0.13308
-0.035659
-3.65179e-05
-0.125613
-0.0366781
-0.00236665
-0.118473
-0.037107
-0.141988
-0.0395111
0.00270782
-0.0891548
-0.0421906
0.000827099
-0.08722
-0.0417852
-0.000941528
-0.0892624
-0.0420491
-0.000510122
-0.085233
-0.0408111
0.00110712
-0.0816418
-0.0384483
-0.0950345
-0.0458466
2.6916e-05
0.00263477
-0.0918164
0.000631034
0.000148415
-0.0879726
0.000463025
0.000545254
-0.0896397
-0.00190489
0.00417695
-0.087042
-0.00199766
0.00315393
-0.084703
-0.00250303
-0.0945291
-0.00665185
-0.0648412
0.0741278
0.00181127
-0.0855211
0.0772064
0.00620569
-0.0821501
0.078301
-0.000248527
-0.0616987
0.0723299
-0.00953408
-0.0566166
0.0690561
-0.0895555
0.0775185
-0.00641379
-0.178251
0.119823
0.00365431
-0.203384
0.107794
0.00629991
-0.197884
0.113088
0.00181526
-0.174871
0.117657
0.0010554
-0.168073
0.112216
-0.20409
0.11559
0.0303735
-0.208624
0.00500895
-0.178019
-0.000527879
-0.192347
0.0191734
-0.194572
0.0135805
-0.16248
-0.19051
-0.00956871
-0.12958
0.340151
-0.0322729
-0.086445
0.306071
-0.0566062
-0.0882195
0.304005
-0.0311274
-0.168488
0.340333
0.0226802
-0.192954
0.343211
-0.0959757
0.304375
-0.00134372
-0.0750649
0.0927331
0.00436372
-0.0409881
0.0901312
0.0125116
-0.0450479
0.0896587
0.00714629
-0.0798983
0.0688424
0.00457597
-0.0825645
0.0562793
-0.0449521
0.0919873
0.0115485
0.0433453
-0.141915
0.00781731
0.0687853
-0.117721
0.0116584
0.0602476
-0.119856
0.0174536
0.0503134
-0.147164
0.0250255
0.0582717
-0.154215
0.0729762
-0.104727
0.00899885
0.272431
-0.29132
0.00978775
0.287225
-0.270643
0.0116551
0.281192
-0.271833
0.01731
0.283547
-0.29159
0.0227645
0.29488
-0.294672
0.303462
-0.258004
0.00500658
0.553854
-0.340895
0.00431066
0.562651
-0.328486
0.00133879
0.560723
-0.328998
0.00904432
0.562458
-0.342155
0.0208671
0.568905
-0.341944
0.588136
-0.319818
0.00251626
0.803198
-0.311029
-0.000275098
0.808933
-0.30177
-0.00707028
0.810226
-0.300637
0.00087885
0.807666
-0.313561
0.0141446
0.808712
-0.313968
0.837087
-0.297234
0.00183309
0.971643
-0.206441
-0.00117407
0.974877
-0.198585
-0.00915994
0.978127
-0.195573
-0.0039367
0.970992
-0.205227
0.0095257
0.964254
-0.206111
1.00056
-0.193458
0.00249288
0.975218
-0.048258
0.00042363
0.977342
-0.0421809
-0.00467386
0.980119
-0.0389444
-0.00272726
0.971281
-0.043047
0.00701946
0.962584
-0.0465252
0.995492
-0.0337599
0.00446641
0.79164
0.087294
0.00237049
0.80183
0.0896347
0.00299592
0.799666
0.0901881
0.00137258
0.797291
0.0885717
-0.00293366
0.798392
0.0837948
0.802192
0.0958374
0.00218015
0.399841
0.463747
0.00197834
0.420404
0.458835
0.0100442
0.410858
0.459043
0.00120171
0.42381
0.454653
-0.0220515
0.437568
0.453134
0.399059
0.4586
-0.000711305
0.0133139
0.507062
0.0085461
0.00852622
0.510414
0.0119223
0.00511609
0.515454
-0.00345954
0.0337843
0.523064
-0.0274615
0.0417626
0.532023
-0.0122266
0.499414
0.0224561
-0.217766
0.00450329
-0.15154
-0.00314522
-0.179582
0.0166616
-0.180594
0.0166372
-0.120693
-0.186099
0.0193993
0.925617
-0.604865
0.010529
0.960669
-0.645727
-0.0562548
0.990168
-0.619379
-0.0478148
0.926368
-0.594475
0.0655061
0.891481
-0.66159
0.989884
-0.620002
0.0126846
2.3749
-1.36924
0.0281237
2.40922
-1.37386
0.000416326
2.436
-1.32847
-0.0118872
2.40712
-1.3996
0.0296045
2.4075
-1.50123
2.41704
-1.30556
-0.0238779
3.93541
-1.67854
0.0154504
3.93368
-1.6815
0.0376364
3.95773
-1.66377
0.0204628
3.97704
-1.69991
0.010209
3.98958
-1.72604
3.95638
-1.63386
-0.0302642
5.58714
-1.91278
-0.0127439
5.55235
-1.90684
0.00764265
5.56546
-1.89995
0.000955178
5.60566
-1.91352
0.0123186
5.61375
-1.93021
5.57226
-1.86157
-0.0208954
7.34705
-2.07991
-0.0197804
7.303
-2.08025
-0.0131658
7.30925
-2.07941
-0.00896897
7.34509
-2.08578
0.0131359
7.34349
-2.0938
7.32033
-2.05476
-0.00502655
9.16435
-2.1233
-0.00990709
9.11882
-2.11272
-0.0187231
9.12702
-2.1096
-0.00312198
9.15035
-2.13443
0.0188374
9.14404
-2.13647
9.14326
-2.10133
-0.00489047
10.5979
-1.63515
0.004135
10.5465
-1.63528
0.000770576
10.5619
-1.6271
0.0133331
10.5802
-1.64764
0.022842
10.5711
-1.6427
10.585
-1.6123
-0.0231378
9.01737
1.55546
0.0252929
9.02421
1.43166
0.0351562
9.03649
1.47662
0.0044055
9.0486
1.51931
-0.0054484
9.09274
1.44172
9.00164
1.54411
0.0683451
4.09205
4.94427
0.0340763
4.22882
4.9193
0.0230127
4.22031
4.91744
0.00947668
4.22593
4.92478
-0.0516879
4.2776
4.96009
4.16298
4.88281
0.0490639
1.30028
3.20645
0.011577
1.31503
3.41011
0.00599785
1.31013
3.3748
-0.00147954
1.31414
3.37392
-0.0227413
1.33545
3.41655
1.27668
3.32216
0.0140554
0.283291
1.51
0.0068667
0.214655
1.61798
0.0147938
0.212859
1.6048
-0.0186995
0.238842
1.63186
-0.0612334
0.249188
1.66082
0.172957
1.5419
-0.00855001
0.0740742
-0.00812187
0.0626871
-0.0142195
0.0393747
-0.00270097
0.0467292
0.0418292
0.0839655
0.0286871
0.103143
-0.35337
-0.354637
0.0632939
-0.406014
-0.199863
-0.0805968
-0.397002
-0.0784862
-0.0384055
-0.373695
-0.262971
0.109946
-0.375833
-0.43411
-0.437977
-0.0720796
0.0404913
-0.223376
-1.53972
0.00840602
-0.226943
-1.52084
-0.00188643
-0.254407
-1.46077
-0.00950571
-0.234697
-1.53098
-0.0256868
-0.235677
-1.62521
-0.298258
-1.47097
-0.00277688
-0.402548
-1.49659
0.0217388
-0.403623
-1.52934
0.0352178
-0.411775
-1.51988
0.0295447
-0.414538
-1.51439
0.00742423
-0.421688
-1.5179
-0.415531
-1.50916
-0.00633759
-0.620236
-1.68875
-0.000680785
-0.615267
-1.70085
0.00514443
-0.620805
-1.69674
-0.00510995
-0.626727
-1.69108
-0.0281799
-0.625718
-1.70311
-0.62538
-1.67991
0.00325314
-0.790509
-1.9129
0.00265739
-0.772292
-1.92263
-0.00462072
-0.773006
-1.91993
-0.00740472
-0.794058
-1.91567
-0.0141094
-0.789728
-1.92309
-0.783008
-1.91124
0.0058346
-0.676359
-2.24329
0.0085375
-0.648853
-2.23886
0.00603194
-0.644147
-2.23595
0.00252081
-0.679434
-2.24554
-0.00738203
-0.667007
-2.24929
-0.663716
-2.228
-0.0677625
0.595231
-2.83898
0.0190852
0.479144
-2.85012
0.0612613
0.529528
-2.84296
0.0208236
0.5722
-2.85884
0.0606849
0.486732
-2.83631
0.61727
-2.8326
-0.143815
3.71715
-1.42265
0.00331593
3.47468
-1.711
0.046324
3.55604
-1.5929
-0.0451489
3.66734
-1.48435
-0.0110469
3.55746
-1.66311
3.66103
-1.5107
0.011768
4.30809
4.34157
0.0488656
4.45772
3.89917
0.0165787
4.48911
4.01666
-0.0223359
4.54832
4.08271
-0.0703209
4.53101
4.03453
4.57633
3.89719
0.358808
2.35037
4.80536
0.146142
2.9805
5.09999
0.0567879
3.034
4.91926
0.0337259
3.01723
4.92807
0.0156815
3.0188
4.94681
3.08468
4.8295
0.465822
0.64495
2.7496
0.169948
0.916166
3.97819
0.0580637
0.88106
3.86963
0.0134363
0.881603
3.81211
-0.0265389
0.899475
3.82012
0.863907
3.73613
0.134321
0.584704
0.0478432
1.06533
0.0229515
0.945326
0.00488257
0.946402
0.00382464
0.984498
0.896419
-0.027438
0.212256
-0.184818
0.0927104
0.2456
-0.365749
0.235775
0.251334
-0.394399
0.0975965
0.254003
-0.115825
0.0208703
0.161071
-0.0843451
0.132959
-0.112088
0.0126171
0.415018
-0.215379
0.139136
0.440082
-0.321001
0.315758
0.40257
-0.327858
0.250499
0.310027
0.00923631
0.146142
0.27713
-0.0117023
0.26382
0.0152805
0.0808671
0.546847
-0.212696
0.0993446
0.680115
-0.258511
0.271661
0.491304
-0.261051
0.382926
0.251511
-0.0527492
0.155438
0.43575
0.0688681
0.369056
0.0502022
0.221238
0.563221
-0.237612
0.190492
0.901234
-0.190372
0.298534
0.450267
-0.0670052
0.288309
0.261737
-3.368e-07
0.0129248
0.702185
0.0089483
0.452071
-0.0700902
0.347739
0.591195
-0.375712
0.38206
0.982415
-0.115502
0.342732
0.254821
0.234773
0.0120389
0.350105
0.242325
-0.19391
0.920509
-0.0123747
0.533707
-0.275546
0.478459
0.709356
-0.596621
0.498275
0.968282
-0.00568296
-0.00176415
0.0405062
0.714354
-0.276031
0.386718
0.237653
-0.316588
1.02146
-0.0603945
0.62816
-0.411041
0.539874
0.965358
-0.795876
0.612991
0.981867
-0.0867011
0.378302
0.0785742
0.19662
-0.0877193
0.870885
-0.0181453
-0.313387
1.32604
-0.0789162
0.81073
-0.495957
0.562229
1.33865
-0.935522
0.596992
1.22185
-0.274744
0.296018
0.488368
-0.10882
-0.514729
1.75524
-0.0736121
-0.516581
1.83672
-0.50882
1.06162
-0.767469
0.143384
1.68658
-0.491312
0.55248
1.57283
-0.760076
-0.0556348
1.10666
-0.0101726
-1.58687
2.3433
0.943178
-0.97857
2.12552
-0.897104
1.17976
-1.09671
-0.769136
1.88917
0.566542
-0.108143
1.85405
-0.942216
-0.0350135
1.01564
0.0178863
-2.2796
1.30129
3.2866
-1.33083
1.43256
-0.255811
0.79423
-0.9453
-1.78832
1.54583
2.13167
-1.47707
1.74795
-0.205159
-0.749261
0.45308
-0.165249
-1.02817
0.284912
1.29528
-0.678973
0.470121
0.613244
0.595947
-0.48069
0.424239
1.12159
0.284472
1.88772
-0.184809
0.922362
-0.292949
0.393051
-0.267052
0.444224
0.328896
-0.513104
0.0389336
0.289352
-0.143995
0.0712178
-0.806075
0.510742
0.0588186
-1.10795
0.818331
0.0279114
-0.451324
0.591925
-0.0117427
0.153803
0.00290756
0.47693
-0.81709
0.222382
0.418263
-0.406597
0.327991
-0.988266
0.203728
0.144129
-1.02349
0.818211
0.090883
-0.668219
1.05153
0.126224
-0.382987
0.114931
0.954786
-0.464266
0.416486
0.0574659
-0.339471
0.409745
-0.46506
-0.20224
0.166866
-0.421017
0.45088
0.174918
-0.789904
1.1275
0.319628
-0.801158
0.33856
0.954074
-0.475949
0.632013
0.0228098
-0.428263
0.558063
-0.386376
0.0125456
0.361354
-0.702302
0.572714
0.373637
-0.758888
1.07677
0.575435
-0.750917
0.568648
0.776594
-0.54205
0.840361
-0.0420111
-0.26029
0.780169
-0.619367
0.496857
0.578674
-0.739695
0.815843
0.62687
-0.329893
0.76407
0.78068
-0.165846
0.695766
0.361406
-0.210919
1.0978
-0.643143
0.104117
0.844981
-0.385531
0.296836
0.620789
0.479519
0.733871
0.849442
-0.421954
0.632172
0.915997
-0.0940123
0.757381
0.159516
-0.0827011
1.41983
-1.0352
0.0287764
1.01489
-0.368092
-0.0224867
0.908667
-0.0399948
0.721298
1.31311
-1.22559
0.70905
1.12578
-0.276454
0.96299
0.00748303
-0.383484
1.48037
-0.612579
-0.575377
1.5674
-0.635354
-0.320073
1.59284
-1.04829
0.687825
2.12611
-1.89451
0.715195
1.72381
-1.13422
1.45417
-0.54345
-0.31969
1.40819
-0.0994378
-0.345516
2.25393
-1.42079
-0.355604
1.90771
-0.314962
-0.229108
2.29914
0.643648
0.144718
2.25357
-1.80068
2.029
-1.52683
0.418778
1.39293
0.163015
0.390971
2.49048
-1.15095
0.0509284
1.80117
0.464471
-0.378482
1.70617
4.30898
-0.413018
1.98107
0.0512203
2.24454
-1.57385
0.63707
1.50959
1.37795
1.24364
2.14242
-0.463673
1.04803
1.03376
0.797775
-0.439214
0.441676
4.04702
-0.751968
0.886985
2.02008
1.9469
-0.935018
0.811946
1.81923
2.55661
2.28547
1.18553
3.32721
-0.88491
2.90516
-1.24679
1.69309
1.029
0.42168
-0.033552
-0.0987752
0.31302
0.163439
-0.860853
-0.525645
0.0654841
-0.334771
-1.0046
-0.0706538
0.0982839
-0.67227
-0.0289681
-0.149555
0.00572365
-0.201063
0.0838297
0.287821
0.0130615
-0.190408
0.738551
-1.28914
-0.578269
0.531396
-1.10154
-0.687414
0.444729
-1.07445
-0.431883
0.430938
-1.09842
0.35122
0.177408
0.188934
0.859178
-0.702824
0.157633
1.21963
-0.914833
-0.0246277
0.940813
-0.648173
-0.128342
0.993887
-1.23535
-0.0701896
1.00969
-1.43806
1.01484
0.220269
0.0653385
1.35761
-0.540962
0.208659
1.29673
-0.606803
0.297578
1.19907
-1.04947
0.349293
1.40182
-1.21853
0.282472
1.55669
-1.2311
1.51167
0.562238
-0.715055
1.74227
0.288389
-0.413398
1.23204
-0.856332
0.4081
1.09882
-1.46094
0.789647
1.63656
-0.946182
0.789402
1.90249
-0.511394
1.65728
1.0052
-1.55362
2.31083
0.341912
-0.984966
1.46978
-1.19192
0.464529
0.961187
-0.832348
1.03573
1.5812
-0.937799
1.11242
1.95607
-0.22429
1.76784
1.16137
-1.23732
2.02751
0.485446
-1.17836
1.95265
-0.90993
0.185176
0.980201
-1.42254
1.08191
1.23421
-1.77534
1.32798
1.93265
-0.499107
1.98797
1.11534
-0.562021
0.36198
1.61497
-0.702731
1.93969
-0.481688
0.320437
1.45846
-2.54972
1.13657
1.77299
-3.24941
1.02098
2.03107
-1.11705
1.81949
0.646004
-1.16055
0.645389
0.777701
-1.01139
2.09177
-1.72203
0.0798201
2.13308
-2.0808
0.604225
1.61576
0.276465
0.518909
1.77149
-1.45578
1.68636
-0.874792
-0.414239
1.30736
-0.0847183
-0.761134
2.29114
-1.00342
-1.28056
1.6277
1.48928
-0.0212949
0.138648
4.52683
0.518816
0.144981
1.13761
1.82192
-1.19059
1.07579
1.23683
0.372685
0.776831
2.01017
0.116258
-0.106798
0.764128
2.54498
-0.633347
-1.14429
5.8565
0.186807
-1.05325
2.39816
1.49444
-0.420732
0.929638
2.12642
2.89001
2.33527
2.02858
4.95276
-0.77575
4.56521
-0.948125
0.81221
1.57532
0.39193
0.0455233
-0.536228
0.246059
0.0597319
-0.774711
-0.287099
-0.180131
0.37852
-0.367483
-0.0972644
0.275934
-0.150743
0.156269
-0.522562
0.0959058
-0.447711
0.476278
0.365743
-0.783434
0.321443
0.131872
-1.20644
-0.155368
0.199964
-1.00483
-0.5816
0.262305
-1.00779
-0.720141
0.294842
-1.09845
0.240404
-0.687229
-0.19767
0.86786
-1.00727
-0.187404
0.442742
-1.23597
-0.0586634
0.435384
-1.01233
-0.200086
0.30763
-1.13925
-0.541339
0.425369
-1.22734
0.755087
-0.835753
-0.433259
1.50512
-0.74496
-0.386885
0.976808
-1.18724
-0.207424
0.510967
-1.30452
-0.163177
0.383351
-1.3385
-0.379198
0.744377
-1.33408
1.29208
-0.353952
-0.308243
1.86868
0.233071
-0.622826
1.56284
-1.12778
-0.468118
0.560027
-1.66471
-0.175714
0.591614
-1.44685
-0.0841158
1.16602
-1.02464
1.3754
0.837757
-0.324467
1.48335
1.05171
-1.08826
2.11439
-0.97968
-0.496587
0.940023
-1.80402
-0.056711
0.782009
-1.56807
0.194986
1.53602
-0.845985
1.32693
1.40483
0.150385
0.0930042
1.72541
-0.480909
1.94687
-0.111123
-0.32224
1.13267
-1.77385
-0.00821259
0.618049
-1.92541
0.318851
1.60975
-0.899906
1.39704
1.36408
0.440216
-1.14692
2.41467
0.450102
0.870032
0.585265
-0.164097
1.19835
-2.00121
-0.732583
0.638322
-2.7012
-0.455683
1.14165
-0.925848
0.758484
0.828878
-0.261146
-0.607821
0.499748
-0.726042
1.4019
-1.789
-0.831253
1.28204
-2.05928
0.348607
0.218513
-0.483586
0.871898
0.748914
-1.58634
0.91643
-0.160838
-1.15411
0.565385
-0.103818
-2.28535
1.8945
-0.364781
-2.01198
0.615685
1.88226
-0.119646
-1.90906
4.76208
1.14919
-1.55159
2.16928
0.967119
-0.0920906
0.272494
0.52965
0.135926
-0.650583
1.41121
1.52262
-1.8198
0.0735506
4.25633
-0.900765
-2.33701
5.36541
0.492999
-2.00294
1.45574
0.576366
0.463021
1.55319
1.10288
2.6272
2.67248
2.26671
5.3868
0.713066
3.78184
-0.640601
0.162939
1.51108
0.0459016
-0.294573
-0.105966
0.0736379
-0.11286
-0.11474
0.0175741
0.100406
-0.12283
0.0942528
-0.218334
-0.121317
0.15694
-0.352048
-0.144751
0.26827
-0.183411
-0.527414
0.167379
0.0654611
-0.109952
-0.746048
0.215724
0.405585
-0.655269
0.240135
0.709632
-0.689108
0.166725
0.303586
0.024846
0.0291495
0.538366
0.0334878
-0.477662
-0.0913456
-0.085949
0.0395991
0.322895
0.0549288
0.694824
0.0173048
0.316869
-0.121755
-0.120889
0.0428197
-1.89003
0.201524
0.0243872
-1.84045
0.223297
0.0212927
-1.80042
0.219913
0.0196283
-1.85733
0.206698
-0.0129843
-1.92365
0.186304
-1.86293
0.195561
-0.0655701
-1.82037
0.0613634
-0.00133969
-1.77442
0.0854676
0.117053
-1.76694
0.0882604
0.142106
-1.79072
0.0750555
0.0446962
-1.8419
0.0448047
-1.837
0.0522579
-0.0612968
-0.01178
-0.00808011
0.00512586
0.0677592
0.00825278
0.108334
-0.00189585
0.04538
-0.0290368
-0.0267774
0.00489732
-1.63567
0.335708
0.00442189
-1.65161
0.346044
0.013124
-1.65258
0.34391
0.0132614
-1.64506
0.337227
-0.00652381
-1.63917
0.327355
-1.6488
0.328674
6.02228e-05
-1.63689
0.0625178
0.00416738
-1.63957
0.0693265
0.010162
-1.64036
0.0700552
0.0162527
-1.6394
0.063307
0.0109166
-1.63878
0.0497546
-1.64111
0.0554861
-0.00321157
0.0266409
0.000782848
0.03325
0.00864157
0.0332081
0.0121456
0.0290816
0.00270329
0.0204119
0.016806
0.00227978
-1.84233
0.487005
0.00536783
-1.84645
0.488553
0.0120485
-1.84753
0.488017
0.0119103
-1.84274
0.489024
-0.00671447
-1.84628
0.489147
-1.84107
0.483123
0.000277434
-1.86001
0.0799193
0.00381755
-1.86047
0.0798078
0.00795755
-1.86089
0.0792745
0.0114308
-1.86197
0.0790657
0.00517667
-1.86694
0.0766699
-1.86159
0.0811862
-0.00169235
0.030099
0.00161427
0.0314302
0.00641817
0.0307858
0.00767383
0.0303894
0.00167573
0.0293406
0.0284898
0.00542131
-1.98519
0.553879
0.00440363
-1.99207
0.559007
0.00930164
-1.99065
0.55384
0.00670671
-1.98681
0.562753
-0.000858957
-1.98824
0.561867
-1.98732
0.558349
0.00481921
-1.96177
0.0516778
0.00122721
-1.96647
0.0577951
0.00153715
-1.96478
0.0530921
0.00332919
-1.96566
0.0561187
0.00504512
-1.96743
0.054145
-1.96547
0.0643795
0.00173245
0.0291194
0.000608742
0.0317102
0.00175966
0.030041
0.00146165
0.0306322
-0.000438488
0.0308462
0.0314279
-0.00354048
-2.20064
0.514766
0.00295659
-2.19895
0.512598
0.00981425
-2.20005
0.511076
0.00296208
-2.19786
0.521929
-0.00589999
-2.20247
0.523909
-2.19322
0.517664
-0.0038758
-2.14247
-0.00261494
-0.000542296
-2.14057
-0.00392188
0.00391459
-2.14074
-0.0106771
0.00494539
-2.14202
-0.000755077
-0.00231318
-2.14281
0.00174383
-2.13571
0.0045543
0.00335213
-0.0137481
0.000777078
-0.000365579
0.00319914
-0.00869227
0.00541018
-0.00723044
0.00409167
-0.00360942
0.00693304
0.0415168
-2.23404
-0.131691
0.0155909
-2.28228
-0.0293183
0.00918496
-2.27328
-0.0521876
0.0321814
-2.27351
-0.0863962
0.0649894
-2.25872
-0.0864821
-2.25042
0.000469332
0.0291991
-2.12006
-0.145789
0.00608819
-2.16852
-0.0945722
0.0205595
-2.15847
-0.139966
0.0372281
-2.16595
-0.124984
0.0450222
-2.15692
-0.107851
-2.15494
-0.0459104
0.0256708
0.00494771
-0.00269461
0.0641946
-0.00240188
0.0227796
0.00493235
0.0174621
0.00757252
0.029971
0.0556368
-0.164717
-2.62798
1.23836
0.0144072
-2.98842
1.06898
0.00656718
-2.79734
1.16009
-0.0977664
-2.66789
1.20148
-0.175897
-2.83275
1.16129
-2.83153
1.1454
-0.16479
-2.29765
-0.311322
-0.0106344
-2.53425
-0.702891
0.0499737
-2.38721
-0.610699
-0.00630804
-2.29673
-0.439863
-0.0717455
-2.36766
-0.507511
-2.45535
-0.493836
0.106676
-0.138545
-0.0185803
0.0795934
-0.00279059
-0.0407355
0.0853245
-0.0752785
0.100664
-0.0207323
0.115493
-0.348747
2.12216
3.80651
0.0406048
0.629905
3.94889
0.00863501
1.18015
4.02858
-0.24664
1.37449
4.16498
-0.327423
1.07463
4.20197
0.635365
4.0798
0.100076
-0.273593
1.98435
0.178507
-1.87379
1.72238
0.015464
-0.990962
1.72346
-0.205044
-0.762848
1.91798
-0.23751
-1.23402
1.83361
-1.78107
1.68509
0.0935912
1.3585
-0.198344
1.45734
-0.13987
1.04892
-0.0661876
0.998141
-0.00593926
1.01242
1.03553
0.607212
6.29027
1.71439
0.20622
5.89325
3.55663
0.217076
5.56198
3.37499
0.0306476
5.51642
3.76305
-0.156985
5.44747
3.88895
5.16125
3.59106
0.787207
5.65301
1.83441
0.407858
4.48472
3.51025
0.30033
4.029
3.36397
0.0158102
3.94446
3.77447
-0.235984
3.61606
3.9168
3.09475
3.5156
0.940389
1.9116
0.695671
3.65597
0.408929
3.29716
0.0218802
3.32709
-0.20415
3.34106
3.07818
1.0298
4.19673
-0.762538
0.495457
7.15128
0.917882
0.301506
7.10899
0.329581
0.127737
6.9646
0.78434
-0.0159034
6.91516
0.937544
6.84446
0.466837
0.994675
5.27003
-0.233564
0.750758
8.27351
2.63194
0.579026
7.97127
2.67343
0.277686
7.72907
3.31133
-0.0276102
7.47994
3.65731
7.39278
2.93967
0.21013
0.276348
0.426759
3.39995
0.46137
3.53352
0.299213
3.6955
0.01216
4.01692
3.49079
0.307809
-1.45018
0.964534
0.0889186
0.514652
1.68745
0.0912006
-0.196187
1.46881
0.0800475
0.391957
1.34994
-0.0314984
0.514295
1.51929
-0.12438
1.45614
-0.182962
-1.914
0.413217
-1.55711
2.69929
1.82146
-0.743723
1.49841
0.165438
0.235718
2.38397
0.339881
-0.139666
2.91919
1.62781
1.78402
0.891609
-2.01484
0.221306
-1.21319
1.47413
-1.02174
1.51686
-0.188437
1.72357
0.148866
2.66505
1.94794
0.136514
0.397341
-0.597672
0.063817
0.312693
0.448569
-0.633101
0.00835374
0.299038
0.416872
-0.713992
0.310775
0.115335
0.394956
-0.856175
0.644921
-0.175497
0.402501
-0.971063
0.859394
0.402904
-0.769719
0.191318
0.432249
0.937719
-0.669005
-0.303622
0.513737
1.03412
-0.998116
0.331079
0.372837
1.04298
-1.10307
0.617867
0.0213603
1.1688
-1.27051
0.848141
-0.345285
1.24243
-1.28446
0.811187
1.16076
-0.887938
-0.215198
0.50202
-0.273228
-0.251153
0.452846
-0.679625
0.775965
0.181398
-0.704094
1.07153
-0.0625124
-0.547377
0.751313
-0.223757
-0.269488
0.355084
0.0599792
-0.346715
0.114454
0.837133
-1.54926
0.101899
0.889861
-1.51041
0.131635
0.809802
-1.55353
0.138715
0.760544
-1.6238
0.0182439
0.813238
-1.66383
0.861584
-1.61306
0.243578
1.59844
-1.67389
0.264933
1.5423
-1.6719
0.200346
1.43459
-1.66327
0.00143609
1.46198
-1.77303
-0.194972
1.4541
-1.72892
1.36878
-1.5901
0.0711133
-0.694019
-0.105213
-0.654991
-0.306632
-0.573261
-0.388984
-0.725015
-0.265069
-0.653204
-0.388736
0.0823208
0.704484
-2.33606
0.126073
0.588197
-2.14236
0.118118
0.673005
-2.21858
0.0966237
0.629695
-2.232
0.0440517
0.554702
-2.16596
0.658031
-2.22704
-0.00758444
1.26921
-2.23104
0.155267
0.971661
-2.21822
0.148941
1.05861
-2.04255
0.011739
1.10939
-2.11552
-0.0255226
0.946546
-2.0835
1.00714
-1.96474
-0.0993649
-1.76665
0.0143176
-1.7522
0.0462706
-1.5469
-0.122966
-1.67024
-0.133727
-1.7262
-1.42576
0.0183261
0.18218
-2.53657
-0.0529332
0.0449542
-2.11605
-0.0329874
0.12906
-2.36758
0.0208984
0.10255
-2.38844
0.031481
0.00322739
-2.17977
0.10121
-2.29677
-0.198662
0.272229
-2.12242
0.145794
-0.053583
-2.46414
0.0807199
0.0269716
-1.87539
-0.0946106
0.0585763
-1.89622
0.0187251
-0.14005
-2.05356
0.0298951
-1.8747
-0.333113
-1.93384
-0.108173
-2.18471
-0.0279105
-1.83722
-0.243232
-1.79108
-0.153904
-2.08923
-1.88373
0.0740485
-0.800624
-1.81
-0.203529
-0.0579538
-1.78052
-0.102735
-0.616028
-1.85235
0.0390045
-0.753403
-1.77677
0.0402981
-0.440739
-1.74032
-0.45156
-1.80491
-0.508753
-1.34695
-1.06735
0.499455
-1.25172
-2.27858
0.0737271
-1.58295
-0.482741
-0.406676
-1.75848
-0.410739
-0.0239581
-1.36387
-1.51314
-1.38055
-0.969665
-0.369871
-0.896704
-0.0800211
-1.53078
-0.143562
-1.30096
-0.301789
-1.24339
-0.0719573
-1.89477
-1.51114
0.162008
-1.00747
-0.245321
0.314261
-0.105496
-0.523365
0.0884838
-0.620815
0.0275275
-0.160076
-0.321245
-0.461839
-1.19977
-0.0789619
-0.525732
-0.221124
-0.698506
-0.158208
-0.754588
-0.0163486
-0.187266
-0.415649
-0.523106
-0.224256
-0.336835
-0.23157
0.00862283
-0.155714
-0.480457
0.0999444
-0.423733
-0.633832
0.127142
-0.131475
0.0229995
0.0632648
0.235555
-0.292944
0.201851
0.147914
-0.675266
0.240347
-0.458952
0.159157
-0.0274348
-0.579166
0.126144
-0.167786
-0.631079
0.1376
0.00422428
-0.250226
0.101216
0.0573202
-0.493569
0.147531
-0.0680576
-0.680212
0.130325
-0.634879
0.107871
-0.0199276
0.0677646
-0.0855962
0.0618326
0.03481
0.0742866
0.0999509
0.0629844
0.0412158
0.0547648
0.0559529
0.076489
-0.882507
0.12253
-0.0589971
-1.00883
0.0650174
-0.165658
-0.937846
0.102948
-0.158462
-0.963611
0.150476
-0.155957
-1.02364
0.163025
-0.793906
0.109879
0.0709431
-0.876652
0.0493479
0.0299054
-0.930896
0.100705
-0.0337798
-0.883927
0.110983
-0.0593812
-0.898303
0.107825
-0.119907
-0.92763
0.0948463
-0.866648
0.0607059
0.00161723
0.0581221
-0.032983
0.0569269
0.0115034
0.0519913
0.0392864
0.0459403
0.00602775
0.0427193
0.0426611
-0.18363
-0.871387
0.170277
-0.184656
-1.12708
-0.0428484
-0.0767293
-1.00337
-0.0139422
-0.0338463
-1.02473
-0.00692573
-0.0519851
-1.07679
0.030617
-0.91001
0.132151
0.132062
-0.87187
-0.0822301
0.0379326
-0.921544
-0.010696
-0.0268255
-0.88672
0.0590951
-0.0722086
-0.930535
0.059015
-0.109946
-0.949253
0.0050472
-0.900092
-0.0591586
-0.00107278
0.0623717
-0.0337204
0.0759348
0.00853637
0.0594046
0.0179217
0.04683
-0.0145046
0.0419479
0.0202781
-0.265563
-0.792171
0.483051
-0.122601
-1.35117
-0.0218847
-0.0774814
-1.23247
-0.131106
-0.0640567
-1.20862
-0.150225
-0.117168
-1.30023
0.0498745
-0.845703
0.506735
0.240153
-0.869006
-0.245547
0.0873294
-0.99158
-0.217458
-0.0493694
-0.978546
-0.0581297
-0.106014
-1.02978
-0.063188
-0.184251
-1.07896
-0.137986
-0.95204
-0.137074
0.0393453
0.0286132
-0.0128665
0.0687713
-0.00494649
0.0518155
-0.0125987
0.0325404
-0.054569
0.0113003
-0.0401177
0.0405463
-0.237941
0.913517
0.0555553
-1.33352
0.168844
-0.134291
-1.41332
-0.192648
-0.225022
-1.3315
-0.174837
-0.282187
-1.24176
0.324166
0.0563074
1.006
0.412178
-0.646638
-0.249027
0.187312
-0.97898
-0.347128
-0.122778
-1.00423
-0.157125
-0.348104
-1.03237
-0.136999
-0.533009
-1.05536
-0.139484
-0.656141
0.0423654
0.118269
-0.0100987
0.0140439
0.039431
-0.06069
0.0524056
-0.100139
0.0261708
-0.16035
-0.00658146
-0.0520082
0.699855
0.560236
0.705134
0.413383
-0.907463
0.383098
0.00663101
-1.56543
-0.0244915
-0.325934
-1.43613
0.0257857
-0.390976
-1.18315
0.726368
0.664943
1.3549
0.657402
-0.221534
-0.124658
0.540309
-0.907495
-0.230003
0.0299756
-1.07669
-0.13553
-0.4367
-1.05026
-0.0561904
-0.772634
-1.01151
0.0248082
-0.375864
0.31054
0.274627
0.0272287
0.13548
0.0408286
-0.070376
0.0767866
-0.159254
0.0584361
-0.234747
0.0187263
0.0152972
1.12211
1.42646
-0.118038
1.10935
0.1545
0.130227
0.434607
-1.33851
0.214915
-0.178234
-1.30078
0.0139906
-0.428111
-0.997487
1.07383
0.74902
1.54185
0.854045
0.383143
0.0646187
1.03883
-0.551866
0.291577
0.317032
-1.04054
0.2883
-0.342652
-0.899582
0.202297
-0.804342
-0.812497
0.301509
-0.169743
0.424962
0.364381
0.293136
0.259724
0.232633
-0.0555859
0.20941
-0.171094
0.184882
-0.233164
0.145972
0.130551
1.02662
1.86999
-0.599969
1.50895
0.418562
-0.1854
0.447403
-1.39154
0.666791
-1.05155
-1.70718
0.518929
-1.07391
-0.770922
0.941258
0.491507
0.805311
0.912992
0.525135
0.496479
1.35947
-0.617547
0.88121
0.388962
-1.16699
1.03425
-0.63345
-1.10527
0.622797
-0.858016
-0.747561
0.502715
-0.106777
0.165229
0.454028
0.676958
0.440122
0.508541
-0.0679985
0.582889
-0.299689
0.464918
-0.252663
0.386309
0.356108
0.495534
-0.579436
-0.0163205
-0.401831
-1.75318
0.676149
-1.04207
-1.9326
1.18035
0.342145
-1.7409
0.392031
0.438531
-1.35751
0.616049
0.562956
0.52005
0.355566
-1.22149
0.782967
0.0725615
-2.00951
1.42054
-0.681259
-1.47397
1.32945
-0.319995
-1.85625
0.376885
-0.6041
-1.3131
0.742401
-0.00450755
0.128593
0.409997
0.889105
0.0629602
1.10118
-0.585442
1.41222
-0.825501
1.039
-0.846633
0.965804
0.441331
-0.738319
-0.335504
0.953684
-2.58025
0.379058
1.77424
-2.24863
2.33378
0.397212
0.14043
4.42422
-1.65917
1.21772
2.6716
-0.963557
0.366381
1.2793
-0.962066
-0.407265
1.81679
-1.85641
0.401873
2.29207
-1.45583
2.62866
0.633989
0.0542824
4.46181
-1.17082
0.837835
2.26613
0.364322
0.00105931
1.33175
-0.661417
2.06626
-0.645619
2.06017
-0.470989
1.39281
-1.07655
0.130467
-0.409344
1.21773
0.897731
-0.0731436
0.357599
0.805154
-1.31752
3.32622
1.21502
-1.71132
5.46082
-0.413477
-0.251394
4.27654
-2.03023
0.336989
1.89512
-1.99132
1.23352
0.845789
-1.27713
1.84366
1.60787
-1.23523
4.69996
0.876424
-0.42769
6.01244
-0.725171
0.310494
4.27807
-1.91054
0.0743545
3.59111
-1.09552
1.4397
1.19992
-2.04135
1.99605
-0.762426
1.33654
0.132423
-0.324122
-0.264529
-1.40133
-0.998248
-0.145123
0.935831
0.916172
1.05567
1.59825
3.21377
1.87822
5.00413
1.52507
2.74969
-0.182618
0.738701
2.36557
0.138258
2.22166
1.02084
3.53868
1.90569
4.01198
1.38523
2.20776
-0.108306
1.9479
3.24199
-0.0652805
0.484684
0.0817052
-0.204096
-0.39694
)
;

boundaryField
{
    seabed_topleft_surface
    {
        type            calculated;
        value           uniform 0;
    }
    seabed_topright_surface
    {
        type            calculated;
        value           uniform 0;
    }
    breakwater_top_surface
    {
        type            calculated;
        value           uniform 0;
    }
    breakwater_left_surface
    {
        type            calculated;
        value           uniform 0;
    }
    breakwater_right_surface
    {
        type            calculated;
        value           uniform 0;
    }
    water_front_surface
    {
        type            calculated;
        value           uniform 0;
    }
    water_back_surface
    {
        type            calculated;
        value           uniform 0;
    }
    water_left_surface
    {
        type            calculated;
        value           uniform 0;
    }
    water_right_surface
    {
        type            calculated;
        value           uniform 0;
    }
    water_top_surface
    {
        type            calculated;
        value           nonuniform List<scalar> 
180
(
0.736386
-1.17736
-1.11904
-1.07834
0.524555
0.976124
-1.83864
-1.79317
-1.7961
-1.81209
-1.87166
-1.88573
-1.6721
-1.67169
-1.67318
-1.67388
-1.67879
-1.68199
-1.86177
-1.86196
-1.86327
-1.86454
-1.86987
-1.8716
-1.96252
-1.96563
-1.96519
-1.9656
-1.96704
-1.96885
-2.10296
-2.10592
-2.10443
-2.10637
-2.10703
-2.10712
-2.16443
-2.20471
-2.19023
-2.19797
-2.19314
-2.19607
-2.26083
-2.42439
-2.33948
-2.29211
-2.3323
-2.41454
-1.86423
-2.9596
-2.13909
-1.90995
-2.32742
-2.70705
4.15953
2.53082
2.0675
2.00256
1.51345
0.847962
6.69515
8.31289
7.7003
7.52282
7.09114
6.99233
0.15589
3.82346