/*--------------------------------*- C++ -*----------------------------------*\
| =========                 |                                                 |
| \\      /  F ield         | OpenFOAM: The Open Source CFD Toolbox           |
|  \\    /   O peration     | Version:  v1612+                                |
|   \\  /    A nd           | Web:      www.OpenFOAM.com                      |
|    \\/     M anipulation  |                                                 |
\*---------------------------------------------------------------------------*/
FoamFile
{
    version     2.0;
    format      ascii;
    class       volScalarField;
    location    "9.55";
    object      p_rgh;
}
// * * * * * * * * * * * * * * * * * * * * * * * * * * * * * * * * * * * * * //

dimensions      [1 -1 -2 0 0 0 0];

internalField   nonuniform List<scalar> 
320
(
-9800.21
-9800.21
-9800.2
-9800.21
-0.00304294
-0.00142707
-0.00016094
-0.000816127
-0.00074808
-0.00311572
-0.00333449
-0.00295205
-0.0057062
0.00107703
0.00393048
0.000494345
-9799.74
-9799.74
-9799.74
-9799.76
-9799.73
-9799.73
-9799.73
-9799.74
-9799.73
-9799.77
-9799.88
-9799.81
-9800.21
-9800.2
-9800.21
-9800.22
-9800.21
-9800.2
-9800.2
-9800.2
-9800.2
-9800.2
-9800.2
-9800.21
-9800.2
-9800.2
-9800.2
-9800.2
-9800.2
-9800.2
-9800.21
-9800.21
-9800.21
-9800.2
-9800.2
-9800.2
-9800.2
-9800.2
-9800.19
-9800.2
-0.00462017
-0.00220883
-0.00285021
-0.00307646
0.0188898
0.0216922
0.0238588
0.0262144
-0.00346327
-0.00335405
0.022493
0.021629
0.000369438
0.0106509
0.0137004
0.012182
0.00955661
0.00205379
-0.0014925
0.00879898
-9799.72
-9799.75
-9799.78
-9799.71
-9799.95
-9799.98
-9799.98
-9799.98
-9799.76
-9799.69
-9799.99
-9799.98
-9799.76
-9799.95
-9799.97
-9799.97
-9799.94
-9799.89
-9799.75
-9799.91
-9800.2
-9800.21
-9800.18
-9800.2
-9800.19
-9800.19
-9800.2
-9800.2
-9800.2
-9800.2
-9800.19
-9800.19
-9800.2
-9800.18
-9800.18
-9800.18
-9800.18
-9800.19
-9800.21
-9800.2
-9800.2
-9800.21
-9800.19
-9800.2
-9800.19
-9800.2
-9800.2
-9800.2
-9800.2
-9800.2
-9800.2
-9800.19
-9800.2
-9800.19
-9800.18
-9800.19
-9800.19
-9800.19
-9800.21
-9800.2
-9800.2
-9800.2
-9800.2
-9800.2
-9800.2
-9800.2
-9800.2
-9800.2
-9800.2
-9800.2
-9800.2
-9800.2
-9800.2
-9800.2
-9800.2
-9800.2
-9800.19
-9800.21
-9800.2
-9800.21
-9800.19
-9800.19
-9800.2
-9800.2
-9800.2
-9800.2
-9800.2
-9800.2
-9800.2
-9800.19
-9800.19
-9800.19
-9800.19
-9800.19
-9800.21
-9800.23
-4.62077e-05
-0.00462807
-0.0103087
-0.00456373
-0.00750212
0.00597119
-0.0119751
-0.00303585
-0.00408297
-0.00976921
-0.00198931
-0.000620026
-0.00761022
-0.00234571
-0.00111928
-0.00277208
0.00140182
-0.0021321
0.00022622
-0.00733078
-0.00802405
-0.00621155
-0.0135857
-0.00772164
-0.00596305
-0.00234577
-2.55132e-05
-0.0146295
-9799.76
-9799.73
-9799.69
-9799.78
-9799.67
-9799.84
-9799.67
-9799.76
-9799.75
-9799.7
-9799.73
-9799.72
-9799.69
-9799.79
-9799.75
-9799.73
-9799.75
-9799.74
-9799.8
-9799.73
-9799.73
-9799.73
-9799.69
-9799.75
-9799.76
-9799.76
-9799.76
-9799.66
-9800.2
-9800.2
-9800.22
-9800.18
-9800.2
-9800.19
-9800.2
-9800.2
-9800.2
-9800.2
-9800.2
-9800.21
-9800.21
-9800.19
-9800.2
-9800.2
-9800.21
-9800.2
-9800.19
-9800.19
-9800.19
-9800.19
-9800.2
-9800.19
-9800.19
-9800.2
-9800.21
-9800.22
-9800.19
-9800.18
-9800.22
-9800.2
-9800.21
-9800.2
-9800.2
-9800.2
-9800.2
-9800.21
-9800.21
-9800.2
-9800.2
-9800.2
-9800.2
-9800.2
-9800.2
-9800.2
-9800.19
-9800.19
-9800.19
-9800.19
-9800.2
-9800.19
-9800.19
-9800.19
-9800.2
-9800.23
-9800.2
-9800.15
-9800.18
-9800.19
-9800.21
-9800.2
-9800.2
-9800.19
-9800.2
-9800.2
-9800.2
-9800.2
-9800.2
-9800.2
-9800.2
-9800.2
-9800.2
-9800.2
-9800.19
-9800.2
-9800.2
-9800.19
-9800.19
-9800.19
-9800.19
-9800.19
-9800.21
-9800.25
-0.00276069
-0.0020814
-0.00140546
-0.00573619
-9799.74
-9799.72
-9799.75
-9799.69
)
;

boundaryField
{
    top_fluid_surface
    {
        type            totalPressure;
        rho             rho;
        psi             none;
        gamma           1;
        p0              uniform 0;
        value           nonuniform List<scalar> 
64
(
-5.30873e-09
-2.46395e-09
-1.95054e-10
-4.09169e-08
-1.11626e-09
-3.86753e-09
-4.89518e-09
-2.78829e-09
-1.80268e-08
-6.53197e-10
0
0
-4.7965e-09
-3.12243e-09
-3.15058e-09
-1.86612e-09
0
0
0
0
-3.03474e-09
-2.40655e-09
0
0
-1.55458e-09
0
0
0
0
0
-1.09551e-09
0
-1.32292e-10
-3.67873e-09
-2.49037e-08
-5.05672e-10
-1.72833e-09
0
-5.83706e-08
-7.5006e-09
-2.52085e-09
-4.51388e-08
-9.38097e-09
-6.91359e-10
-1.71889e-08
-1.54029e-10
-2.46634e-09
-3.82826e-09
-4.14475e-10
-1.93509e-09
-6.45687e-10
-2.06152e-08
-2.56486e-08
-9.85059e-09
-3.48309e-08
-1.97471e-08
-9.62952e-09
-1.33261e-09
-7.9141e-10
-6.86281e-08
-7.55712e-09
-1.43308e-09
-7.88082e-10
-8.07306e-09
)
;
    }
    bottom_fluid_surface
    {
        type            fixedFluxPressure;
        gradient        uniform 0;
        value           nonuniform List<scalar> 
64
(
-9800.2
-9800.2
-9800.2
-9800.2
-9800.2
-9800.2
-9800.2
-9800.2
-9800.2
-9800.2
-9800.2
-9800.2
-9800.2
-9800.2
-9800.2
-9800.2
-9800.19
-9800.21
-9800.2
-9800.21
-9800.19
-9800.19
-9800.2
-9800.2
-9800.2
-9800.2
-9800.2
-9800.2
-9800.2
-9800.19
-9800.19
-9800.19
-9800.19
-9800.19
-9800.21
-9800.23
-9800.2
-9800.15
-9800.18
-9800.19
-9800.21
-9800.2
-9800.2
-9800.19
-9800.2
-9800.2
-9800.2
-9800.2
-9800.2
-9800.2
-9800.2
-9800.2
-9800.2
-9800.2
-9800.19
-9800.2
-9800.2
-9800.19
-9800.19
-9800.19
-9800.19
-9800.19
-9800.21
-9800.25
)
;
    }
    lateral_surface_1
    {
        type            fixedFluxPressure;
        gradient        uniform 0;
        value           nonuniform List<scalar> 
40
(
-4.62077e-05
-0.00462807
-0.0103087
-0.00456373
-0.00750212
0.00597119
-0.0119751
-0.0146295
-9799.76
-9799.73
-9799.69
-9799.78
-9799.67
-9799.84
-9799.67
-9799.66
-9800.2
-9800.2
-9800.22
-9800.18
-9800.2
-9800.19
-9800.2
-9800.22
-9800.19
-9800.18
-9800.22
-9800.2
-9800.21
-9800.2
-9800.2
-9800.23
-9800.2
-9800.15
-9800.18
-9800.19
-9800.21
-9800.2
-9800.2
-9800.25
)
;
    }
    lateral_surface_2
    {
        type            fixedFluxPressure;
        gradient        uniform 0;
        value           nonuniform List<scalar> 
40
(
-0.00234571
-0.00111928
-0.00277208
0.00140182
-0.0021321
0.00022622
-0.00733078
-0.00802405
-9799.79
-9799.75
-9799.73
-9799.75
-9799.74
-9799.8
-9799.73
-9799.73
-9800.19
-9800.2
-9800.2
-9800.21
-9800.2
-9800.19
-9800.19
-9800.19
-9800.2
-9800.2
-9800.2
-9800.2
-9800.2
-9800.19
-9800.19
-9800.19
-9800.2
-9800.2
-9800.2
-9800.2
-9800.2
-9800.19
-9800.2
-9800.2
)
;
    }
    lateral_surface_3
    {
        type            fixedFluxPressure;
        gradient        uniform 0;
        value           nonuniform List<scalar> 
40
(
-0.0119751
-0.00303585
-0.00408297
-0.00976921
-0.00198931
-0.000620026
-0.00761022
-0.00234571
-9799.67
-9799.76
-9799.75
-9799.7
-9799.73
-9799.72
-9799.69
-9799.79
-9800.2
-9800.2
-9800.2
-9800.2
-9800.2
-9800.21
-9800.21
-9800.19
-9800.2
-9800.2
-9800.2
-9800.21
-9800.21
-9800.2
-9800.2
-9800.2
-9800.2
-9800.19
-9800.2
-9800.2
-9800.2
-9800.2
-9800.2
-9800.2
)
;
    }
    lateral_surface_4
    {
        type            fixedFluxPressure;
        gradient        uniform 0;
        value           nonuniform List<scalar> 
40
(
-0.00802405
-0.00621155
-0.0135857
-0.00772164
-0.00596305
-0.00234577
-2.55132e-05
-0.0146295
-9799.73
-9799.73
-9799.69
-9799.75
-9799.76
-9799.76
-9799.76
-9799.66
-9800.19
-9800.19
-9800.2
-9800.19
-9800.19
-9800.2
-9800.21
-9800.22
-9800.19
-9800.19
-9800.2
-9800.19
-9800.19
-9800.19
-9800.2
-9800.23
-9800.2
-9800.19
-9800.19
-9800.19
-9800.19
-9800.19
-9800.21
-9800.25
)
;
    }
}


// ************************************************************************* //
