/*--------------------------------*- C++ -*----------------------------------*\
| =========                 |                                                 |
| \\      /  F ield         | OpenFOAM: The Open Source CFD Toolbox           |
|  \\    /   O peration     | Version:  v1612+                                |
|   \\  /    A nd           | Web:      www.OpenFOAM.com                      |
|    \\/     M anipulation  |                                                 |
\*---------------------------------------------------------------------------*/
FoamFile
{
    version     2.0;
    format      ascii;
    class       volScalarField;
    location    "1.1";
    object      p_rgh;
}
// * * * * * * * * * * * * * * * * * * * * * * * * * * * * * * * * * * * * * //

dimensions      [1 -1 -2 0 0 0 0];

internalField   nonuniform List<scalar> 
1116
(
44646.2
44646.2
44646.3
44646.3
44646.2
44646.2
43442.3
43442.3
43442.4
43442.4
43442.5
43442.5
40540.5
40540.5
40540.6
40540.7
40540.8
40540.8
35570.2
35570.3
35570.3
35570.5
35570.6
35570.6
26141.3
26141.5
26141.5
26141.6
26141.7
26141.7
12176.4
12176.6
12176.6
12176.6
12176.6
12176.5
2794.91
2795.11
2795.1
2795.08
2795.08
2794.86
236.354
236.369
236.374
236.373
236.372
236.364
97.3753
97.3711
97.3694
97.368
97.3677
97.3682
97.0903
97.09
97.0902
97.0911
97.0908
97.0895
84.9304
84.9303
84.9311
84.933
84.9345
84.9344
75.0998
75.1027
75.1048
75.1061
75.107
75.1071
45327
45327
45327
45327
45326.9
45326.8
43634.5
43634.5
43634.5
43634.5
43634.4
43634.4
40214
40214
40214.1
40214.2
40214.2
40214.1
33969.5
33969.6
33969.7
33969.8
33969.9
33969.9
16734.5
16734.7
16734.8
16734.8
16734.9
16734.8
1678.28
1678.41
1678.4
1678.39
1678.37
1678.32
-166.63
-166.62
-166.617
-166.615
-166.612
-166.607
-60.4736
-60.4775
-60.481
-60.4807
-60.4797
-60.4737
59.8924
59.8912
59.8854
59.881
59.8774
59.8696
79.4982
79.4971
79.4966
79.498
79.4999
79.5001
69.3227
69.3231
69.325
69.3279
69.3317
69.334
62.7764
62.7808
62.7848
62.7879
62.7903
62.7914
46954.3
46954.2
46954.2
46954.1
46954.1
46954.1
44355
44355
44354.9
44354.8
44354.7
44354.8
40080.8
40080.8
40080.8
40080.8
40080.8
40080.7
30374.6
30374.7
30374.8
30374.8
30374.9
30375
4242.1
4242.29
4242.32
4242.32
4242.34
4242.43
29.7584
29.7559
29.7573
29.7578
29.7605
29.7665
-91.3171
-91.3164
-91.314
-91.3123
-91.3107
-91.3089
-52.8743
-52.8749
-52.8771
-52.8779
-52.8789
-52.8792
20.2552
20.2573
20.256
20.2562
20.2589
20.2577
43.599
43.5975
43.5966
43.596
43.5959
43.5969
46.3935
46.3951
46.3978
46.4007
46.4038
46.4061
44.0688
44.0715
44.0749
44.0781
44.0803
44.0808
47791.5
47791.4
47791.4
47791.4
47791.3
47791.4
45859.3
45859.3
45859.3
45859.3
45859.3
45859.2
36029.1
36029
36029
36029.1
36029.2
36029.2
6549.74
6549.84
6549.89
6549.93
6550.04
6550.18
-2.19805
-2.18304
-2.17487
-2.17769
-2.18321
-2.18684
-4.37686
-4.37491
-4.37231
-4.37242
-4.374
-4.37612
-37.8499
-37.8498
-37.8488
-37.8474
-37.8468
-37.8465
-18.5099
-18.5091
-18.5099
-18.5105
-18.5107
-18.5106
11.303
11.3021
11.3015
11.3001
11.2991
11.2982
25.6407
25.6387
25.6371
25.6354
25.6345
25.6342
29.7264
29.7272
29.7283
29.7301
29.7318
29.7331
28.2205
28.2214
28.2228
28.2245
28.2255
28.2255
0.0901212
0.0901402
0.0901345
0.0901185
0.0901003
0.0900865
0.0945518
0.0945314
0.0945073
0.0944837
0.0944621
0.0944431
0.103594
0.103541
0.103511
0.103497
0.10349
0.103488
0.117917
0.117856
0.117839
0.117846
0.117866
0.117891
0.138259
0.138222
0.138224
0.138253
0.138294
0.138335
0.16521
0.165204
0.165219
0.165253
0.165291
0.165328
0.19901
0.199022
0.199034
0.199051
0.199068
0.199085
0.23943
0.239435
0.239433
0.239427
0.239423
0.239421
0.285772
0.285758
0.285741
0.285722
0.285707
0.285698
0.334902
0.334868
0.334842
0.334818
0.334798
0.334788
0.379034
0.378982
0.37895
0.378923
0.378902
0.378892
0.41356
0.413513
0.413485
0.413467
0.413457
0.413458
0.0857182
0.0857321
0.0857212
0.0856995
0.0856741
0.0856487
0.0900105
0.0899934
0.0899706
0.0899469
0.0899236
0.0899015
0.098833
0.0987968
0.0987789
0.0987719
0.0987732
0.0987811
0.112941
0.11291
0.11291
0.112931
0.112964
0.113006
0.13319
0.133179
0.133199
0.133238
0.133288
0.133344
0.160322
0.160328
0.16035
0.160385
0.160426
0.160468
0.194778
0.194779
0.194787
0.194799
0.194815
0.194834
0.236385
0.236366
0.236354
0.236345
0.236342
0.236347
0.283792
0.283754
0.283729
0.283709
0.283698
0.283698
0.335686
0.335631
0.335598
0.335572
0.335556
0.335553
0.389125
0.389061
0.389026
0.388998
0.388978
0.388974
0.437499
0.437443
0.437416
0.437407
0.437412
0.437438
0.0770933
0.0771079
0.0770967
0.0770746
0.0770482
0.0770221
0.0811165
0.0811079
0.0810899
0.081069
0.081047
0.0810249
0.0894313
0.0894133
0.089405
0.089403
0.0894062
0.0894122
0.102856
0.102845
0.102854
0.102877
0.102908
0.102942
0.122404
0.122406
0.122428
0.122463
0.122504
0.122547
0.149232
0.149232
0.149248
0.149274
0.149305
0.149338
0.184785
0.184764
0.184764
0.184772
0.184788
0.18481
0.231284
0.231243
0.231229
0.231225
0.231233
0.231252
0.292807
0.29275
0.292726
0.292714
0.292714
0.292726
0.370712
0.370642
0.370607
0.370582
0.370564
0.370564
0.454467
0.454385
0.454348
0.454322
0.454307
0.454316
0.538979
0.53892
0.538907
0.538921
0.538962
0.539032
0.0646686
0.0646825
0.0646725
0.0646523
0.0646278
0.0646028
0.0682302
0.0682294
0.0682162
0.0681985
0.0681779
0.0681552
0.0756336
0.0756304
0.0756275
0.0756262
0.0756257
0.0756242
0.0877016
0.0877047
0.0877158
0.0877323
0.0877508
0.0877683
0.105563
0.105568
0.105584
0.105606
0.10563
0.105653
0.130696
0.130685
0.130693
0.130707
0.130726
0.130749
0.164948
0.164915
0.16491
0.164917
0.164936
0.164964
0.210405
0.210354
0.210343
0.21035
0.210371
0.210403
0.268368
0.268299
0.268277
0.268275
0.268286
0.26831
0.343094
0.343001
0.342963
0.342946
0.342947
0.34297
0.445082
0.444989
0.444961
0.444959
0.444982
0.445037
0.562219
0.562241
0.562299
0.562378
0.56249
0.562636
60241.8
60241.8
60241.8
60241.7
60241.7
60241.7
51427.6
51427.6
51427.5
51427.5
51427.4
51427.2
34321.2
34321.4
34321.4
34321.3
34321.4
34321.7
46943.7
46943.7
46943.8
46943.7
46943.8
46943.7
13416.7
13416.9
13416.8
13416.8
13416.8
13416.9
-137.104
-137.114
-137.117
-137.117
-137.128
-137.156
6603.32
6603.31
6603.31
6603.33
6603.41
6603.42
32.6198
32.6242
32.6294
32.6326
32.6323
32.6295
-33.1005
-33.0991
-33.0992
-33.0994
-33.0993
-33.0968
52.3342
52.3359
52.343
52.3503
52.3505
52.3407
57.456
57.4556
57.4588
57.4625
57.462
57.4551
5.15065
5.15058
5.14899
5.14791
5.14704
5.14666
-7.60871
-7.60888
-7.6074
-7.60625
-7.60651
-7.60809
19.545
19.5448
19.5443
19.544
19.5429
19.5423
5.48627
5.48577
5.48509
5.48448
5.4838
5.4831
-7.62912
-7.62928
-7.62869
-7.62829
-7.62867
-7.62911
-1.8283
-1.82909
-1.82976
-1.83011
-1.83082
-1.83103
0.51953
0.519325
0.518827
0.518275
0.517904
0.517666
-15.6658
-15.6664
-15.6666
-15.6664
-15.6664
-15.6665
-4.65637
-4.6565
-4.65618
-4.65582
-4.65564
-4.65548
-0.959653
-0.959634
-0.959542
-0.959538
-0.959539
-0.959517
-3.70638
-3.70694
-3.70609
-3.70563
-3.70564
-3.7056
-0.121159
-0.120683
-0.120281
-0.120057
-0.119863
-0.119589
-0.269687
-0.269205
-0.268973
-0.268925
-0.268833
-0.268669
8.76011
8.76004
8.75937
8.75815
8.75721
8.75665
5.03976
5.04037
5.0398
5.03891
5.03831
5.03805
1.3799
1.37981
1.3795
1.37916
1.37898
1.37898
15.9169
15.9165
15.915
15.9135
15.9125
15.9118
8.6055
8.60471
8.60368
8.60295
8.60257
8.60245
2.51999
2.51927
2.51876
2.51851
2.51848
2.51862
17.8041
17.8036
17.8033
17.8036
17.8041
17.8044
9.62579
9.62523
9.62513
9.62539
9.62581
9.62613
3.0414
3.04124
3.04126
3.04142
3.0417
3.04197
15.503
15.5031
15.5039
15.505
15.5057
15.5061
9.13701
9.13739
9.13788
9.13835
9.13872
9.13892
3.10932
3.10959
3.10981
3.10998
3.11012
3.11022
1.67969
1.67966
1.67971
1.67977
1.67984
1.67989
1.25865
1.25869
1.25877
1.25886
1.25894
1.25899
0.489379
0.489412
0.489445
0.489486
0.489522
0.489527
2.36225
2.36233
2.36241
2.36242
2.36241
2.36239
1.78316
1.78325
1.78333
1.78337
1.78336
1.78333
0.686503
0.686529
0.686556
0.686561
0.686546
0.686511
3.27746
3.27763
3.27772
3.27763
3.27744
3.2773
2.49516
2.49528
2.49531
2.49521
2.49504
2.49491
0.952403
0.952439
0.952443
0.952392
0.952314
0.952257
4.54861
4.54886
4.54894
4.5488
4.54849
4.54824
3.46605
3.46619
3.46615
3.46592
3.46564
3.46543
1.30359
1.30363
1.30359
1.30348
1.30335
1.30327
5.98568
5.98594
5.98611
5.98603
5.98576
5.98552
4.72236
4.72253
4.7225
4.72231
4.72204
4.72181
1.7491
1.74912
1.74907
1.74896
1.74882
1.74871
6.92209
6.92243
6.92276
6.92296
6.92301
6.92299
6.22063
6.22093
6.22109
6.22114
6.22112
6.2211
2.30518
2.30525
2.30527
2.30525
2.3052
2.30514
0.0490151
0.0490246
0.0490157
0.0489987
0.0489777
0.0489554
0.030638
0.0306411
0.0306335
0.0306211
0.0306057
0.0305886
0.0105527
0.0105516
0.0105479
0.0105428
0.0105362
0.0105278
0.0518411
0.0518431
0.0518332
0.0518183
0.0517995
0.051777
0.0324623
0.0324627
0.0324551
0.0324438
0.0324289
0.03241
0.0111986
0.0111972
0.0111938
0.011189
0.0111825
0.0111734
0.0577523
0.0577564
0.0577546
0.0577507
0.0577442
0.0577344
0.0362972
0.0363003
0.0362973
0.0362912
0.0362819
0.0362688
0.0125665
0.0125662
0.0125641
0.0125608
0.0125558
0.0125483
0.0674969
0.0675047
0.0675112
0.067517
0.067521
0.0675218
0.0426651
0.0426695
0.0426697
0.0426676
0.0426627
0.0426542
0.0148549
0.0148548
0.0148534
0.0148509
0.0148469
0.0148408
0.0822251
0.0822281
0.0822348
0.0822424
0.0822497
0.0822555
0.052416
0.0524156
0.0524149
0.0524136
0.0524113
0.0524078
0.0183998
0.0183981
0.0183963
0.0183942
0.0183916
0.0183884
0.103793
0.10378
0.103781
0.103786
0.103796
0.103811
0.0669986
0.0669891
0.0669873
0.066989
0.0669939
0.0670021
0.0237943
0.0237912
0.0237905
0.023791
0.023793
0.0237967
0.135592
0.135563
0.135561
0.135572
0.135593
0.135623
0.0890129
0.088998
0.0890015
0.0890124
0.08903
0.0890525
0.0321279
0.0321263
0.03213
0.0321363
0.0321448
0.0321549
0.184225
0.184184
0.184183
0.184199
0.184227
0.184262
0.123153
0.123133
0.123138
0.123153
0.123174
0.123198
0.0454225
0.045421
0.0454259
0.0454334
0.0454423
0.045453
0.26216
0.262096
0.262081
0.262086
0.262104
0.262135
0.177857
0.177819
0.177811
0.177815
0.177829
0.177858
0.0674794
0.0674697
0.0674684
0.0674704
0.0674778
0.0674974
0.392001
0.391909
0.391877
0.391876
0.391903
0.391959
0.269532
0.269481
0.26947
0.269482
0.269522
0.269598
0.105532
0.105523
0.105524
0.105533
0.105558
0.105611
0.61749
0.617424
0.617422
0.617468
0.617561
0.617694
0.437541
0.43754
0.437576
0.437648
0.437756
0.437896
0.175289
0.175309
0.175337
0.175376
0.175431
0.175498
1.00154
1.00154
1.00159
1.00169
1.00184
1.00202
0.74146
0.741527
0.741627
0.741753
0.741882
0.741985
0.299852
0.299888
0.299941
0.299995
0.30003
0.30003
)
;

boundaryField
{
    seabed_topleft_surface
    {
        type            fixedFluxPressure;
        gradient        uniform 0;
        value           nonuniform List<scalar> 
72
(
44646.2
44646.2
44646.3
44646.3
44646.2
44646.2
43442.3
43442.3
43442.4
43442.4
43442.5
43442.5
40540.5
40540.5
40540.6
40540.7
40540.8
40540.8
35570.2
35570.3
35570.3
35570.5
35570.6
35570.6
26141.3
26141.5
26141.5
26141.6
26141.7
26141.7
12176.4
12176.6
12176.6
12176.6
12176.6
12176.5
2794.91
2795.11
2795.1
2795.08
2795.08
2794.86
236.354
236.369
236.374
236.373
236.372
236.364
97.3753
97.3711
97.3694
97.368
97.3677
97.3682
97.0903
97.09
97.0902
97.0911
97.0908
97.0895
84.9304
84.9303
84.9311
84.933
84.9345
84.9344
75.0998
75.1027
75.1048
75.1061
75.107
75.1071
)
;
    }
    seabed_topright_surface
    {
        type            fixedFluxPressure;
        gradient        uniform 0;
        value           nonuniform List<scalar> 
72
(
0.0901212
0.0901402
0.0901345
0.0901185
0.0901003
0.0900865
0.0945518
0.0945314
0.0945073
0.0944837
0.0944621
0.0944431
0.103594
0.103541
0.103511
0.103497
0.10349
0.103488
0.117917
0.117856
0.117839
0.117846
0.117866
0.117891
0.138259
0.138222
0.138224
0.138253
0.138294
0.138335
0.16521
0.165204
0.165219
0.165253
0.165291
0.165328
0.19901
0.199022
0.199034
0.199051
0.199068
0.199085
0.23943
0.239435
0.239433
0.239427
0.239423
0.239421
0.285772
0.285758
0.285741
0.285722
0.285707
0.285698
0.334902
0.334868
0.334842
0.334818
0.334798
0.334788
0.379034
0.378982
0.37895
0.378923
0.378902
0.378892
0.41356
0.413513
0.413485
0.413467
0.413457
0.413458
)
;
    }
    breakwater_top_surface
    {
        type            fixedFluxPressure;
        gradient        uniform 0;
        value           nonuniform List<scalar> 
36
(
1.67969
1.67966
1.67971
1.67977
1.67984
1.67989
2.36225
2.36233
2.36241
2.36242
2.36241
2.36239
3.27746
3.27763
3.27772
3.27763
3.27744
3.2773
4.54861
4.54886
4.54894
4.5488
4.54849
4.54824
5.98568
5.98594
5.98611
5.98603
5.98576
5.98552
6.92209
6.92243
6.92276
6.92296
6.92301
6.92299
)
;
    }
    breakwater_left_surface
    {
        type            fixedFluxPressure;
        gradient        uniform 0;
        value           nonuniform List<scalar> 
24
(
75.0998
75.1027
75.1048
75.1061
75.107
75.1071
62.7764
62.7808
62.7848
62.7879
62.7903
62.7914
44.0688
44.0715
44.0749
44.0781
44.0803
44.0808
28.2205
28.2214
28.2228
28.2245
28.2255
28.2255
)
;
    }
    breakwater_right_surface
    {
        type            fixedFluxPressure;
        gradient        uniform 0;
        value           nonuniform List<scalar> 
24
(
0.41356
0.413513
0.413485
0.413467
0.413457
0.413458
0.437499
0.437443
0.437416
0.437407
0.437412
0.437438
0.538979
0.53892
0.538907
0.538921
0.538962
0.539032
0.562219
0.562241
0.562299
0.562378
0.56249
0.562636
)
;
    }
    water_front_surface
    {
        type            fixedFluxPressure;
        gradient        uniform 0;
        value           nonuniform List<scalar> 
186
(
44646.2
43442.3
40540.5
35570.2
26141.3
12176.4
2794.91
236.354
97.3753
97.0903
84.9304
75.0998
45327
43634.5
40214
33969.5
16734.5
1678.28
-166.63
-60.4736
59.8924
79.4982
69.3227
62.7764
46954.3
44355
40080.8
30374.6
4242.1
29.7584
-91.3171
-52.8743
20.2552
43.599
46.3935
44.0688
47791.5
45859.3
36029.1
6549.74
-2.19805
-4.37686
-37.8499
-18.5099
11.303
25.6407
29.7264
28.2205
0.0901212
0.0945518
0.103594
0.117917
0.138259
0.16521
0.19901
0.23943
0.285772
0.334902
0.379034
0.41356
0.0857182
0.0900105
0.098833
0.112941
0.13319
0.160322
0.194778
0.236385
0.283792
0.335686
0.389125
0.437499
0.0770933
0.0811165
0.0894313
0.102856
0.122404
0.149232
0.184785
0.231284
0.292807
0.370712
0.454467
0.538979
0.0646686
0.0682302
0.0756336
0.0877016
0.105563
0.130696
0.164948
0.210405
0.268368
0.343094
0.445082
0.562219
60241.8
51427.6
34321.2
46943.7
13416.7
-137.104
6603.32
32.6198
-33.1005
52.3342
57.456
5.15065
-7.60871
19.545
5.48627
-7.62912
-1.8283
0.51953
-15.6658
-4.65637
-0.959653
-3.70638
-0.121159
-0.269687
8.76011
5.03976
1.3799
15.9169
8.6055
2.51999
17.8041
9.62579
3.0414
15.503
9.13701
3.10932
1.67969
1.25865
0.489379
2.36225
1.78316
0.686503
3.27746
2.49516
0.952403
4.54861
3.46605
1.30359
5.98568
4.72236
1.7491
6.92209
6.22063
2.30518
0.0490151
0.030638
0.0105527
0.0518411
0.0324623
0.0111986
0.0577523
0.0362972
0.0125665
0.0674969
0.0426651
0.0148549
0.0822251
0.052416
0.0183998
0.103793
0.0669986
0.0237943
0.135592
0.0890129
0.0321279
0.184225
0.123153
0.0454225
0.26216
0.177857
0.0674794
0.392001
0.269532
0.105532
0.61749
0.437541
0.175289
1.00154
0.74146
0.299852
)
;
    }
    water_back_surface
    {
        type            fixedFluxPressure;
        gradient        uniform 0;
        value           nonuniform List<scalar> 
186
(
44646.2
43442.5
40540.8
35570.6
26141.7
12176.5
2794.86
236.364
97.3682
97.0895
84.9344
75.1071
45326.8
43634.4
40214.1
33969.9
16734.8
1678.32
-166.607
-60.4737
59.8696
79.5001
69.334
62.7914
46954.1
44354.8
40080.7
30375
4242.43
29.7665
-91.3089
-52.8792
20.2577
43.5969
46.4061
44.0808
47791.4
45859.2
36029.2
6550.18
-2.18684
-4.37612
-37.8465
-18.5106
11.2982
25.6342
29.7331
28.2255
0.0900865
0.0944431
0.103488
0.117891
0.138335
0.165328
0.199085
0.239421
0.285698
0.334788
0.378892
0.413458
0.0856487
0.0899015
0.0987811
0.113006
0.133344
0.160468
0.194834
0.236347
0.283698
0.335553
0.388974
0.437438
0.0770221
0.0810249
0.0894122
0.102942
0.122547
0.149338
0.18481
0.231252
0.292726
0.370564
0.454316
0.539032
0.0646028
0.0681552
0.0756242
0.0877683
0.105653
0.130749
0.164964
0.210403
0.26831
0.34297
0.445037
0.562636
60241.7
51427.2
34321.7
46943.7
13416.9
-137.156
6603.42
32.6295
-33.0968
52.3407
57.4551
5.14666
-7.60809
19.5423
5.4831
-7.62911
-1.83103
0.517666
-15.6665
-4.65548
-0.959517
-3.7056
-0.119589
-0.268669
8.75665
5.03805
1.37898
15.9118
8.60245
2.51862
17.8044
9.62613
3.04197
15.5061
9.13892
3.11022
1.67989
1.25899
0.489527
2.36239
1.78333
0.686511
3.2773
2.49491
0.952257
4.54824
3.46543
1.30327
5.98552
4.72181
1.74871
6.92299
6.2211
2.30514
0.0489554
0.0305886
0.0105278
0.051777
0.03241
0.0111734
0.0577344
0.0362688
0.0125483
0.0675218
0.0426542
0.0148408
0.0822555
0.0524078
0.0183884
0.103811
0.0670021
0.0237967
0.135623
0.0890525
0.0321549
0.184262
0.123198
0.045453
0.262135
0.177858
0.0674974
0.391959
0.269598
0.105611
0.617694
0.437896
0.175498
1.00202
0.741985
0.30003
)
;
    }
    water_left_surface
    {
        type            fixedFluxPressure;
        gradient        uniform 0;
        value           nonuniform List<scalar> 
42
(
44646.2
44646.2
44646.3
44646.3
44646.2
44646.2
45327
45327
45327
45327
45326.9
45326.8
46954.3
46954.2
46954.2
46954.1
46954.1
46954.1
47791.5
47791.4
47791.4
47791.4
47791.3
47791.4
60241.8
60241.8
60241.8
60241.7
60241.7
60241.7
51427.6
51427.6
51427.5
51427.5
51427.4
51427.2
34321.2
34321.4
34321.4
34321.3
34321.4
34321.7
)
;
    }
    water_right_surface
    {
        type            fixedFluxPressure;
        gradient        uniform 0;
        value           nonuniform List<scalar> 
42
(
0.0901212
0.0901402
0.0901345
0.0901185
0.0901003
0.0900865
0.0857182
0.0857321
0.0857212
0.0856995
0.0856741
0.0856487
0.0770933
0.0771079
0.0770967
0.0770746
0.0770482
0.0770221
0.0646686
0.0646825
0.0646725
0.0646523
0.0646278
0.0646028
0.0490151
0.0490246
0.0490157
0.0489987
0.0489777
0.0489554
0.030638
0.0306411
0.0306335
0.0306211
0.0306057
0.0305886
0.0105527
0.0105516
0.0105479
0.0105428
0.0105362
0.0105278
)
;
    }
    water_top_surface
    {
        type            totalPressure;
        rho             rho;
        psi             none;
        gamma           1;
        p0              uniform 0;
        value           nonuniform List<scalar> 
180
(
0
0
0
0
0
0
-49.9383
-49.9452
-49.9397
-49.9434
-49.9516
-49.933
-28.7141
-28.7117
-28.713
-28.7141
-28.7121
-28.7012
-11.506
-11.5074
-11.5148
-11.5185
-11.5209
-11.5209
-0.754777
-0.755496
-0.755865
-0.756392
-0.757029
-0.757336
0
0
0
0
0
0
0
0
0
0
0
0
0
0
0
0
0
0
0
0
0
0
0
0
0
0
0
0
0
0
0
0
0
0
0
0
0
0
0
0
0
0
0
0
0
0
0
0
0
0
0
0
0
0
0
0
0
0
0
0
0
0
0
0
0
0
0
0
0
0
0
0
0
0
0
0
0
0
0
0
0
0
0
0
0
0
0
0
0
0
0
0
0
0
0
0
0
0
0
0
0
0
0
0
0
0
0
0
0
0
0
0
0
0
0
0
0
0
0
0
0
0
0
0
0
0
0
0
0
0
0
0
0
0
0
0
0
0
0
0
0
0
0
0
0
0
0
0
0
0
)
;
    }
}


// ************************************************************************* //
