/*--------------------------------*- C++ -*----------------------------------*\
| =========                 |                                                 |
| \\      /  F ield         | OpenFOAM: The Open Source CFD Toolbox           |
|  \\    /   O peration     | Version:  v1612+                                |
|   \\  /    A nd           | Web:      www.OpenFOAM.com                      |
|    \\/     M anipulation  |                                                 |
\*---------------------------------------------------------------------------*/
FoamFile
{
    version     2.0;
    format      ascii;
    class       surfaceScalarField;
    location    "1.1";
    object      phi;
}
// * * * * * * * * * * * * * * * * * * * * * * * * * * * * * * * * * * * * * //

dimensions      [0 3 -1 0 0 0 0];

internalField   nonuniform List<scalar> 
2916
(
1.48861e-07
0.30635
-0.30635
-7.05728e-08
0.306351
-0.306351
-3.52718e-08
0.306351
-0.306351
4.09123e-07
0.30635
-0.306351
7.50644e-07
0.30635
-0.30635
0.30635
-0.306349
9.23778e-07
0.715595
-0.409247
9.23697e-07
0.715598
-0.409247
1.19405e-06
0.715597
-0.409247
1.28842e-06
0.715597
-0.409246
1.06793e-06
0.715596
-0.409246
0.715595
-0.409243
2.92846e-06
1.30958
-0.593983
5.26727e-06
1.30958
-0.593983
5.94428e-06
1.30958
-0.59398
5.11187e-06
1.30958
-0.593978
2.85115e-06
1.30958
-0.593977
1.30957
-0.593975
-1.43399e-07
2.09305
-0.783477
4.99471e-06
2.09306
-0.783482
7.26553e-06
2.09305
-0.783478
7.00178e-06
2.09305
-0.783477
5.1147e-06
2.09305
-0.783475
2.09305
-0.783474
7.71458e-07
3.01212
-0.91907
8.61924e-06
3.01214
-0.919092
1.19012e-05
3.01214
-0.919087
1.26387e-05
3.01214
-0.919086
1.07348e-05
3.01214
-0.919088
3.01214
-0.919077
3.01394e-06
4.12703
-1.11491
1.16805e-06
4.12708
-1.11493
-2.56368e-06
4.12707
-1.11493
-1.0551e-05
4.12707
-1.11492
-1.11147e-05
4.12708
-1.11494
4.12706
-1.11493
3.95091e-05
6.18107
-2.05408
3.31552e-05
6.18107
-2.05399
-4.16786e-06
6.18106
-2.05396
-3.18951e-05
6.18106
-2.05397
-2.21781e-05
6.18111
-2.05404
6.18104
-2.054
-8.83233e-05
5.07223
1.10893
-3.52991e-05
5.07209
1.10893
-1.8767e-05
5.0721
1.10895
-4.62238e-05
5.07214
1.10894
6.84644e-06
5.0722
1.10885
5.07204
1.10901
4.39432e-05
3.38538
1.6868
-5.27942e-05
3.3853
1.68689
-4.85055e-05
3.38527
1.68683
-8.35875e-06
3.38532
1.68678
2.85686e-05
3.38541
1.68674
3.38523
1.68684
0.00010478
1.89065
1.49462
0.000130153
1.89082
1.49446
0.00015641
1.89082
1.49441
0.000198763
1.89085
1.49442
0.000185929
1.89091
1.49451
1.89082
1.49459
0.000197972
0.876163
1.0143
0.000363836
0.876379
1.01428
0.00043722
0.876389
1.01435
0.000447455
0.876381
1.01446
0.000346625
0.87637
1.01464
0.876342
1.01483
3.94063e-05
0.876128
0.000141803
0.876268
0.000208133
0.876321
0.000225058
0.876365
0.000171522
0.876431
0.876517
-2.19085e-07
0.245429
-0.551779
-1.11788e-06
0.245429
-0.551779
-1.43121e-06
0.245428
-0.551779
-9.4175e-07
0.245427
-0.551779
-2.41103e-07
0.245427
-0.551778
0.245428
-0.551777
1.99653e-06
0.605668
-0.769488
1.17808e-06
0.605671
-0.769488
7.66001e-07
0.605669
-0.769487
-1.17172e-07
0.605668
-0.769486
-1.01883e-06
0.605668
-0.769485
0.605666
-0.769483
8.13045e-06
1.08777
-1.07609
8.17543e-06
1.08778
-1.07609
6.9439e-06
1.08778
-1.07609
5.1888e-06
1.08778
-1.07609
3.46235e-06
1.08778
-1.07609
1.08778
-1.07608
6.05043e-06
1.84529
-1.541
1.04535e-05
1.84531
-1.54101
9.41197e-06
1.84531
-1.54101
7.21971e-06
1.84531
-1.541
5.96796e-06
1.84531
-1.541
1.84531
-1.541
-4.31144e-06
3.10904
-2.18281
1.19696e-05
3.10908
-2.18288
1.76365e-05
3.10908
-2.18287
1.5713e-05
3.10909
-2.18286
1.16566e-05
3.10909
-2.18287
3.1091
-2.18285
1.89196e-05
4.10378
-2.10967
1.21192e-05
4.10393
-2.10978
2.32664e-06
4.10394
-2.10978
2.4179e-08
4.10395
-2.10978
-3.3873e-06
4.10397
-2.10982
4.10403
-2.10987
-1.91702e-05
4.26089
-2.21117
-0.000113312
4.26112
-2.21108
-0.000153425
4.26111
-2.21108
-0.00019308
4.26111
-2.21109
-0.000261282
4.26123
-2.21122
4.26092
-2.21115
-0.000159214
3.85168
1.51829
-0.000273688
3.85181
1.51836
-0.000223592
3.85172
1.51828
-0.000173343
3.85173
1.51827
-0.000252158
3.85195
1.51821
3.85144
1.51824
-8.04876e-05
2.33096
3.2076
-0.000134369
2.33111
3.20764
-0.000136123
2.33103
3.20753
-0.000116606
2.33105
3.20744
-8.16398e-05
2.33123
3.20743
2.33087
3.20732
0.00019898
1.28907
2.53633
0.000311447
1.28927
2.53619
0.000286203
1.2893
2.53616
0.000239613
1.28934
2.53618
0.000224724
1.28943
2.53633
1.28936
2.53634
0.00013202
0.617716
1.68552
0.000140445
0.617952
1.68558
0.0001012
0.617999
1.68569
5.82032e-05
0.618015
1.68583
5.54022e-05
0.618031
1.68604
0.618016
1.68623
-0.000137121
1.49397
-7.56892e-05
1.49415
-4.83607e-06
1.49425
3.00455e-05
1.49435
4.0126e-05
1.49446
1.49458
1.74052e-06
0.100544
-0.652324
1.6003e-06
0.100545
-0.652324
2.00826e-06
0.100544
-0.652323
2.29333e-06
0.100543
-0.652322
1.29449e-06
0.100544
-0.652322
0.100545
-0.65232
7.01578e-06
0.305435
-0.974386
6.55702e-06
0.305444
-0.974387
5.45992e-06
0.305444
-0.974386
4.34338e-06
0.305444
-0.974385
2.49287e-06
0.305446
-0.974385
0.305447
-0.974382
1.06539e-05
0.661274
-1.43194
8.99435e-06
0.661297
-1.43195
4.83216e-06
0.661299
-1.43194
2.83803e-06
0.661299
-1.43194
4.27612e-06
0.661299
-1.43194
0.661298
-1.43193
1.73648e-05
1.62592
-2.50567
1.83598e-05
1.62597
-2.50569
1.64697e-05
1.62597
-2.50567
1.82572e-05
1.62597
-2.50568
1.77444e-05
1.62597
-2.50568
1.62597
-2.50565
2.86867e-05
2.90448
-3.4614
3.44879e-05
2.90462
-3.46153
2.12456e-05
2.90463
-3.46151
1.31842e-05
2.90463
-3.46151
3.00887e-06
2.90465
-3.46153
2.90466
-3.46155
5.34036e-05
1.75908
-0.964321
-1.95385e-06
1.75931
-0.964425
5.79196e-06
1.75925
-0.964402
1.3824e-05
1.75925
-0.964417
-1.65835e-05
1.75937
-0.964512
1.75944
-0.964661
-7.13132e-05
0.240504
-0.692529
-0.00020176
0.240872
-0.692508
-0.000156824
0.24075
-0.692629
-0.000113805
0.240762
-0.692637
-0.000208073
0.24098
-0.692725
0.240954
-0.692862
-8.78633e-05
-0.40592
2.1648
-5.78503e-05
-0.405677
2.16487
-6.75118e-05
-0.405781
2.16482
-8.59177e-05
-0.405763
2.16482
-0.000184887
-0.405499
2.1648
-0.405641
2.16464
1.79598e-06
-0.107599
2.90928
0.000171951
-0.107556
2.90934
0.000141452
-0.10754
2.90932
4.43851e-05
-0.107496
2.90928
4.6112e-05
-0.107385
2.90931
-0.107406
2.90912
9.38808e-05
0.24048
2.18816
4.95822e-05
0.240567
2.18812
-5.03141e-05
0.240608
2.18812
-0.000127384
0.240636
2.18813
-0.000104081
0.240693
2.18822
0.240678
2.18815
-0.000103683
0.171288
1.75482
-0.000229619
0.171384
1.75489
-0.000287211
0.171386
1.75497
-0.000297881
0.171382
1.75509
-0.000214632
0.171374
1.75528
0.171318
1.75538
-0.000183965
1.66544
-0.00019389
1.66554
-0.000155863
1.6656
-0.000104169
1.66568
-4.13191e-05
1.66578
1.66586
9.14734e-06
-0.235162
-0.417171
7.33406e-06
-0.235157
-0.417166
6.37148e-06
-0.235156
-0.417166
5.4331e-06
-0.235156
-0.417165
3.61881e-06
-0.235154
-0.417165
-0.235152
-0.417164
8.86231e-06
-0.200819
-1.00874
8.45072e-06
-0.20081
-1.00873
5.50951e-06
-0.200805
-1.00873
3.35381e-06
-0.200805
-1.00873
2.80647e-06
-0.200802
-1.00874
-0.200808
-1.00872
7.57061e-06
0.549094
-2.18186
5.62581e-06
0.549126
-2.18188
5.29534e-06
0.549131
-2.18188
4.87919e-06
0.549131
-2.18188
4.55177e-06
0.549131
-2.18187
0.549118
-2.18185
2.58606e-06
2.16668
-4.12326
1.04282e-05
2.16673
-4.1233
1.50958e-05
2.16675
-4.1233
-1.46997e-06
2.16676
-4.12329
-1.76226e-05
2.16676
-4.12329
2.16669
-4.12324
0.000132541
1.12153
-2.41639
0.000107964
1.12182
-2.4166
7.78775e-05
1.1218
-2.41653
7.57527e-05
1.1218
-2.41655
4.40572e-05
1.12185
-2.41659
1.12177
-2.41659
-2.3046e-05
-0.25361
0.410838
-3.62452e-05
-0.253442
0.410846
3.86214e-05
-0.253521
0.410847
8.79235e-05
-0.253507
0.410842
7.03661e-05
-0.253393
0.410753
-0.253356
0.410532
-8.15916e-06
-1.80866
0.862526
0.000187991
-1.80871
0.862566
0.000256359
-1.80875
0.862519
0.000260361
-1.80869
0.862542
0.000147516
-1.80854
0.862541
-1.80844
0.862374
7.47108e-05
-1.38666
1.74272
0.000212334
-1.38676
1.74277
0.000179061
-1.38671
1.74282
0.000105559
-1.38663
1.74284
3.9394e-05
-1.3865
1.74282
-1.38642
1.74266
7.92849e-05
-0.555822
2.07836
5.97717e-05
-0.555872
2.07847
5.48881e-06
-0.555791
2.07847
-5.91817e-05
-0.55571
2.07843
-1.82742e-05
-0.555613
2.07839
-0.555535
2.07822
-8.34226e-07
-0.146577
1.77891
-0.000168932
-0.146536
1.77896
-0.000268744
-0.14652
1.77895
-0.000303703
-0.146504
1.77895
-0.000206231
-0.146489
1.77901
-0.146497
1.77891
-0.000176004
-0.0267448
1.63517
-0.000304841
-0.0267113
1.63519
-0.000372003
-0.0267208
1.63523
-0.000359267
-0.0267347
1.63531
-0.000241688
-0.0267536
1.63543
-0.0268031
1.63545
-0.000107499
1.6388
-0.000120456
1.63884
-0.000116031
1.63887
-8.97786e-05
1.63893
-4.38709e-05
1.63899
1.63901
-3.31454e-07
-0.000613263
0.000613595
7.93992e-08
-0.000613149
0.000613634
2.28965e-07
-0.000613086
0.000613663
2.68325e-07
-0.000613077
0.000613673
1.99553e-07
-0.000613067
0.000613701
-0.000613039
0.000613737
2.0831e-07
-0.00125031
0.000637559
2.96076e-07
-0.00125026
0.000637565
3.0695e-07
-0.00125026
0.000637568
2.86395e-07
-0.0012503
0.000637563
2.60268e-07
-0.00125036
0.000637571
-0.0012504
0.000637576
5.94916e-07
-0.00193392
0.000683255
2.9589e-07
-0.00193399
0.00068322
1.54934e-07
-0.00193405
0.000683185
6.72506e-08
-0.00193413
0.000683159
1.07772e-08
-0.00193422
0.000683143
-0.00193426
0.000683115
5.14517e-07
-0.00268033
0.000745431
3.16998e-08
-0.00268051
0.000745373
-1.8674e-07
-0.00268057
0.000745333
-2.84368e-07
-0.00268063
0.000745299
-3.13623e-07
-0.00268066
0.000745278
-0.00268062
0.00074525
1.66827e-08
-0.0034947
0.000813461
-2.9951e-07
-0.00349487
0.000813422
-3.94041e-07
-0.00349486
0.000813407
-4.11679e-07
-0.00349482
0.000813404
-3.92282e-07
-0.00349474
0.000813416
-0.00349458
0.000813425
-4.23727e-07
-0.00436173
0.000866799
-3.39074e-07
-0.00436176
0.00086684
-2.04633e-07
-0.00436167
0.00086686
-1.13226e-07
-0.00436152
0.00086691
-7.26669e-08
-0.00436138
0.000866965
-0.00436116
0.000867018
-3.94856e-07
-0.00523101
0.000869761
4.26271e-08
-0.00523089
0.000869857
2.87538e-07
-0.00523075
0.000869918
4.17245e-07
-0.00523063
0.000869972
3.97665e-07
-0.00523053
0.000870025
-0.00523036
0.000870067
7.15519e-08
-0.00600547
0.000775122
5.09128e-07
-0.00600536
0.000775166
7.3766e-07
-0.00600527
0.000775189
7.99558e-07
-0.00600524
0.000775187
6.5198e-07
-0.00600522
0.000775181
-0.00600512
0.000775156
6.73218e-07
-0.00645123
0.000445823
8.00348e-07
-0.00645122
0.000445646
8.69915e-07
-0.0064512
0.000445603
7.91463e-07
-0.00645123
0.000445561
5.34734e-07
-0.00645125
0.000445541
-0.00645114
0.000445538
1.16857e-06
-0.00604623
-0.000406062
8.40162e-07
-0.00604634
-0.000406271
7.12304e-07
-0.00604638
-0.000406291
5.15604e-07
-0.00604642
-0.000406285
2.23029e-07
-0.00604643
-0.00040624
-0.00604621
-0.000406138
1.41613e-06
-0.00432863
-0.00171974
7.50756e-07
-0.00432887
-0.00171974
4.78912e-07
-0.00432892
-0.00171966
2.38711e-07
-0.00432897
-0.00171958
-2.99652e-08
-0.00432896
-0.00171944
-0.00432873
-0.00171918
8.03159e-07
-0.00433074
1.84802e-07
-0.00433072
-1.17307e-07
-0.00433071
-3.10316e-07
-0.00433069
-4.71504e-07
-0.00433065
-0.00433049
-2.88944e-07
-0.000614039
0.00122855
1.37715e-07
-0.000613956
0.00122857
2.97788e-07
-0.000613917
0.00122858
3.54755e-07
-0.000613924
0.00122858
3.55633e-07
-0.000613932
0.00122858
-0.000613935
0.00122856
1.77236e-07
-0.00125618
0.00128036
2.80912e-07
-0.00125617
0.00128034
3.14315e-07
-0.0012562
0.00128033
3.05598e-07
-0.00125627
0.00128032
2.97437e-07
-0.00125635
0.00128031
-0.00125643
0.00128029
3.88658e-07
-0.00195412
0.00138052
1.61114e-07
-0.00195421
0.00138048
4.45657e-08
-0.00195428
0.00138045
-5.13208e-08
-0.00195436
0.00138044
-1.39135e-07
-0.00195446
0.00138044
-0.00195451
0.00138043
2.12645e-07
-0.00273003
0.00151991
-1.70306e-07
-0.00273018
0.00151987
-3.31701e-07
-0.00273021
0.00151986
-4.33623e-07
-0.00273024
0.00151986
-5.17131e-07
-0.00273024
0.00151989
-0.00273017
0.00151992
-1.34492e-07
-0.00359685
0.00167917
-3.89525e-07
-0.00359693
0.00167919
-4.46199e-07
-0.00359688
0.00167921
-4.60124e-07
-0.00359679
0.00167926
-4.53105e-07
-0.00359667
0.00167932
-0.00359648
0.00167936
-2.21894e-07
-0.00454682
0.00181671
-1.54398e-07
-0.00454678
0.00181681
-8.77312e-08
-0.00454665
0.00181686
-1.64638e-08
-0.0045465
0.00181692
3.99076e-08
-0.00454635
0.00181698
-0.00454614
0.00181698
1.09655e-07
-0.00552174
0.00184541
3.53042e-07
-0.0055217
0.00184551
5.0378e-07
-0.0055216
0.00184552
5.6856e-07
-0.0055215
0.00184552
5.3339e-07
-0.00552142
0.00184549
-0.00552128
0.00184541
6.74516e-07
-0.00635527
0.00160905
8.00468e-07
-0.00635534
0.00160895
8.3876e-07
-0.00635532
0.00160887
7.46896e-07
-0.00635534
0.00160877
5.19857e-07
-0.00635535
0.00160868
-0.00635527
0.00160856
1.11839e-06
-0.00684041
0.000930036
9.18608e-07
-0.00684067
0.000929758
8.26136e-07
-0.00684072
0.000929627
6.00547e-07
-0.00684074
0.000929528
2.20449e-07
-0.0068407
0.000929479
-0.00684047
0.000929501
1.19714e-06
-0.00679287
-0.000455967
7.68779e-07
-0.00679314
-0.000456363
6.53638e-07
-0.00679318
-0.000456357
4.35231e-07
-0.00679315
-0.000456251
4.95965e-08
-0.00679303
-0.00045603
-0.00679261
-0.000455623
1.24244e-06
-0.00504672
-0.00346934
6.2256e-07
-0.00504699
-0.00346923
4.33781e-07
-0.005047
-0.00346897
2.00077e-07
-0.00504696
-0.00346867
-1.73808e-07
-0.00504684
-0.00346828
-0.00504651
-0.00346767
4.41328e-07
-0.00938051
-1.92556e-07
-0.00938046
-4.65782e-07
-0.00938035
-6.76414e-07
-0.00938022
-9.46691e-07
-0.00938004
-0.0093796
-2.96312e-07
-0.000589388
0.00181892
1.5531e-07
-0.000589331
0.00181895
3.20028e-07
-0.000589309
0.00181896
3.86751e-07
-0.000589322
0.00181895
3.85117e-07
-0.000589336
0.00181894
-0.000589338
0.0018189
7.29011e-08
-0.00121337
0.00190516
2.40553e-07
-0.00121338
0.00190516
2.92874e-07
-0.00121341
0.00190515
3.08615e-07
-0.00121348
0.00190514
3.20192e-07
-0.00121357
0.00190514
-0.00121363
0.00190511
1.55511e-07
-0.0019084
0.00207529
4.94497e-08
-0.00190848
0.00207526
-9.78665e-09
-0.00190853
0.00207525
-5.09033e-08
-0.00190861
0.00207526
-8.30684e-08
-0.00190868
0.00207528
-0.0019087
0.00207528
5.8272e-09
-0.00271059
0.00232121
-2.39759e-07
-0.00271067
0.00232121
-3.20623e-07
-0.00271068
0.00232122
-3.63221e-07
-0.00271067
0.00232126
-3.72754e-07
-0.00271065
0.00232132
-0.00271057
0.00232136
-9.44821e-08
-0.00365472
0.00262256
-2.57765e-07
-0.00365471
0.00262263
-3.02384e-07
-0.00365463
0.00262267
-2.97076e-07
-0.00365454
0.00262274
-2.6243e-07
-0.00365445
0.00262282
-0.0036543
0.00262285
1.51371e-07
-0.00477431
0.00293603
8.3927e-08
-0.00477424
0.00293614
8.37534e-08
-0.00477414
0.00293618
9.36861e-08
-0.00477405
0.00293621
8.27732e-08
-0.00477399
0.00293624
-0.00477389
0.00293618
6.82954e-07
-0.00611206
0.00318287
5.48772e-07
-0.0061121
0.00318289
4.84588e-07
-0.00611207
0.00318284
3.79065e-07
-0.00611208
0.00318277
2.10306e-07
-0.00611211
0.00318268
-0.00611207
0.00318253
1.15378e-06
-0.00777119
0.00326702
7.33234e-07
-0.00777142
0.00326684
5.23936e-07
-0.00777147
0.00326667
2.73593e-07
-0.00777153
0.00326651
-3.05791e-08
-0.00777156
0.00326637
-0.00777144
0.00326625
1.2383e-06
-0.00960985
0.00276641
6.30921e-07
-0.00961018
0.00276605
3.78629e-07
-0.0096102
0.00276589
1.08112e-07
-0.00961016
0.00276581
-2.21094e-07
-0.00961006
0.00276582
-0.00960971
0.00276594
1.28428e-06
-0.0101819
0.000112854
5.86281e-07
-0.0101822
0.000112572
3.49508e-07
-0.0101821
0.000112649
8.66913e-08
-0.010182
0.00011283
-2.05736e-07
-0.0101817
0.000113093
-0.0101812
0.000113492
1.05587e-06
-0.00841308
-0.00524162
3.02752e-07
-0.00841339
-0.00524153
1.14509e-07
-0.00841334
-0.00524123
-1.31323e-07
-0.00841316
-0.00524087
-4.69838e-07
-0.00841295
-0.00524049
-0.00841263
-0.00523997
-9.23892e-08
-0.017796
-6.2341e-07
-0.0177968
-7.68568e-07
-0.0177968
-9.7825e-07
-0.0177966
-1.30364e-06
-0.0177964
-0.0177958
-2.87517e-07
-0.000534342
0.00235431
1.41852e-07
-0.000534312
0.00235437
3.02612e-07
-0.000534301
0.00235437
3.72715e-07
-0.000534314
0.00235436
3.84019e-07
-0.000534325
0.00235434
-0.00053432
0.00235429
-3.72107e-08
-0.00110994
0.00248177
1.7925e-07
-0.00110996
0.00248181
2.5911e-07
-0.00111
0.0024818
3.04496e-07
-0.00111005
0.00248179
3.50209e-07
-0.00111012
0.00248179
-0.00111015
0.00248174
-4.24825e-08
-0.0017735
0.00273907
-8.70988e-09
-0.00177356
0.0027391
2.24173e-09
-0.00177359
0.0027391
2.08511e-08
-0.00177364
0.00273912
5.13966e-08
-0.00177368
0.00273914
-0.00177367
0.00273913
-1.30964e-07
-0.00258083
0.00312831
-1.83047e-07
-0.00258084
0.00312836
-1.91195e-07
-0.00258082
0.00312839
-1.71111e-07
-0.0025808
0.00312844
-1.20598e-07
-0.00258078
0.0031285
-0.00258071
0.00312851
-1.28754e-08
-0.0036011
0.00364251
-8.73745e-08
-0.00360104
0.0036426
-9.49526e-08
-0.00360096
0.00364265
-7.34351e-08
-0.00360089
0.0036427
-3.96505e-08
-0.00360085
0.00364276
-0.00360078
0.00364274
4.61322e-07
-0.00490377
0.0042381
2.68274e-07
-0.00490371
0.00423818
1.835e-07
-0.00490365
0.00423818
1.0807e-07
-0.00490364
0.00423817
1.22965e-08
-0.00490367
0.00423816
-0.00490365
0.00423806
1.05666e-06
-0.00650921
0.00478679
5.43386e-07
-0.00650929
0.00478677
2.7469e-07
-0.0065093
0.00478667
2.24478e-08
-0.00650936
0.00478657
-2.41333e-07
-0.00650944
0.00478648
-0.0065094
0.00478632
1.28546e-06
-0.00825937
0.00501446
4.55349e-07
-0.00825957
0.0050143
3.22604e-08
-0.00825955
0.00501414
-3.18988e-07
-0.00825956
0.00501401
-6.19978e-07
-0.00825954
0.00501393
-0.00825931
0.00501384
1.28981e-06
-0.00986499
0.00436845
3.85126e-07
-0.00986512
0.00436827
-1.20468e-08
-0.00986496
0.00436817
-3.27264e-07
-0.00986477
0.00436814
-5.82788e-07
-0.00986456
0.00436818
-0.00986411
0.00436823
1.3384e-06
-0.0116124
0.00185637
5.46835e-07
-0.0116124
0.00185624
2.94836e-07
-0.0116122
0.00185629
2.87846e-08
-0.0116118
0.00185641
-3.2776e-07
-0.0116115
0.00185656
-0.011611
0.00185669
1.05429e-06
-0.00973138
-0.00712642
3.62052e-07
-0.00973176
-0.00712632
2.86608e-07
-0.00973174
-0.00712609
-1.50672e-09
-0.00973149
-0.00712579
-6.91999e-07
-0.0097312
-0.00712552
-0.00973081
-0.00712514
-1.44256e-06
-0.0275289
-1.53949e-06
-0.0275321
-1.25483e-06
-0.0275324
-1.31877e-06
-0.0275319
-1.97879e-06
-0.0275312
-0.0275303
1.58199e-05
0.137895
-0.555082
1.23307e-05
0.13791
-0.555072
8.60824e-06
0.137909
-0.555071
6.54324e-06
0.137909
-0.555072
8.54192e-06
0.137908
-0.555075
0.137909
-0.555065
1.8847e-05
2.26866
-2.13079
1.18609e-05
2.26868
-2.13077
1.09908e-05
2.26868
-2.13077
1.40381e-05
2.26868
-2.13077
2.90668e-05
2.26868
-2.13079
2.26868
-2.13074
1.81927e-05
-4.06306
2.03704e-05
-4.06305
1.89208e-05
-4.06305
2.32368e-05
-4.06305
3.2505e-05
-4.06306
-4.06302
6.7964e-06
-1.15024
-0.413589
-5.36797e-07
-1.15025
-0.413548
2.99245e-07
-1.15025
-0.41356
1.93262e-06
-1.15025
-0.413562
1.28204e-05
-1.15024
-0.413579
-1.15026
-0.413512
4.87274e-06
-3.70661
0.425579
-7.5648e-06
-3.70653
0.425527
-4.73311e-06
-3.70654
0.425522
-5.11887e-06
-3.70657
0.425546
-2.87061e-05
-3.70656
0.42555
-3.70642
0.42539
-2.10099e-05
-2.61217
-5.19041e-05
-2.61217
-7.44781e-05
-2.61216
-0.000104958
-2.61216
-0.000153406
-2.61219
-2.61211
2.01552e-05
-3.39703
0.801554
-4.80179e-06
-3.39701
0.801604
-3.00378e-06
-3.39702
0.801584
-1.52728e-05
-3.39701
0.801583
-2.46699e-05
-3.39701
0.801571
-3.39703
0.801641
8.77829e-05
-3.22252
0.250985
4.78331e-05
-3.22252
0.251068
3.42052e-05
-3.22254
0.251046
6.93314e-05
-3.22254
0.251049
0.000135967
-3.22261
0.251083
-3.22264
0.251132
-6.21903e-05
-1.56638
-6.84513e-05
-1.56642
-6.06748e-05
-1.5664
-4.46351e-05
-1.56638
-7.16062e-05
-1.56634
-1.56631
6.81736e-05
-4.19656
0.874793
7.99269e-05
-4.19672
0.875013
5.40199e-05
-4.19674
0.875046
-1.37155e-06
-4.19674
0.875088
-2.31776e-05
-4.1968
0.875104
-4.19671
0.875089
0.000127682
-3.21062
-0.735077
0.000102722
-3.21071
-0.734904
8.76137e-05
-3.21076
-0.734909
7.97205e-05
-3.21079
-0.734879
0.000107137
-3.21091
-0.734832
-3.21082
-0.734652
6.67935e-05
-2.13505
6.64557e-05
-2.13511
3.59057e-05
-2.13513
2.40747e-05
-2.13513
-1.29126e-05
-2.13511
-2.13506
9.72922e-05
-0.827017
-0.714672
5.38742e-05
-0.827152
-0.714407
5.08802e-05
-0.827117
-0.714368
4.22216e-05
-0.827131
-0.714326
1.26686e-07
-0.827192
-0.714264
-0.827219
-0.714286
-6.78402e-06
-0.0440947
-1.51799
-3.8089e-05
-0.0440511
-1.51798
-5.26151e-05
-0.0440422
-1.51796
-4.10165e-05
-0.0440484
-1.51797
-5.75214e-05
-0.0440727
-1.51794
-0.0440663
-1.51786
6.90713e-06
-1.5276
1.12236e-05
-1.52765
9.72571e-06
-1.52767
1.00442e-05
-1.52768
1.41541e-05
-1.52769
-1.52766
-0.000120496
1.03529
-1.33901
-5.16733e-05
1.03537
-1.339
5.22195e-05
1.03537
-1.33899
0.000137845
1.0354
-1.33897
0.000154759
1.03541
-1.33894
1.03531
-1.33891
-6.46524e-05
0.614545
-1.09719
-3.67913e-05
0.614586
-1.09722
-2.18936e-05
0.614605
-1.09722
-2.39117e-06
0.614634
-1.09722
2.16576e-05
0.614659
-1.09722
0.614653
-1.09718
-1.58715e-05
-0.928629
-2.09122e-05
-0.928661
-2.86332e-05
-0.928673
-2.87026e-05
-0.928688
-1.24733e-05
-0.928703
-0.928684
-1.65713e-05
0.660379
-1.13685
6.70089e-05
0.660393
-1.13691
0.000104116
0.660396
-1.13691
0.000124656
0.660434
-1.13688
0.000119514
0.660462
-1.13685
0.660371
-1.13679
-3.40621e-06
0.339037
-0.775842
-1.00321e-05
0.339044
-0.775867
-1.71751e-05
0.339047
-0.775872
-3.25658e-06
0.33906
-0.775863
2.16159e-05
0.339069
-0.775857
0.339045
-0.775828
1.71047e-06
-0.645741
-8.77323e-07
-0.645768
-4.46291e-07
-0.645773
3.18953e-06
-0.645774
8.78413e-06
-0.645777
-0.645756
4.01066e-05
1.36746
-0.761622
6.14571e-05
1.36751
-0.761669
7.7231e-05
1.36754
-0.761649
8.3575e-05
1.36756
-0.761606
7.88307e-05
1.36754
-0.761568
1.36747
-0.761509
-8.29095e-06
1.02894
-0.43731
-1.84847e-05
1.02897
-0.437323
-1.14278e-05
1.02898
-0.43732
1.03976e-05
1.02899
-0.437313
2.14475e-05
1.02898
-0.437309
1.02895
-0.437293
-4.40481e-06
-0.311303
-7.51389e-06
-0.311313
-6.85533e-06
-0.311311
-1.01479e-06
-0.311311
2.60753e-06
-0.31131
-0.311299
1.68022e-05
1.48807
-0.171352
1.11375e-05
1.48818
-0.171358
4.48097e-06
1.48817
-0.171339
5.88516e-06
1.48814
-0.171318
2.40326e-05
1.48811
-0.171298
1.48802
-0.171274
-2.274e-05
1.17543
-0.124641
3.37061e-06
1.17548
-0.124641
2.09621e-05
1.17548
-0.124639
3.42394e-05
1.17546
-0.124643
3.53294e-05
1.17545
-0.12465
1.17541
-0.124651
-2.39382e-05
-0.146866
-1.52426e-05
-0.14687
-1.25531e-06
-0.146868
8.68824e-06
-0.14687
1.07008e-05
-0.146872
-0.146868
-3.26691e-05
1.46181
0.145791
-6.89559e-05
1.46185
0.145797
-0.000104914
1.46185
0.145801
-0.000107204
1.46185
0.145796
-5.06328e-05
1.46186
0.145796
1.4618
0.145783
-1.48575e-05
1.2464
0.090787
-1.33024e-05
1.24643
0.0907852
-9.15146e-06
1.24643
0.0907814
-3.99815e-06
1.24643
0.090774
7.39012e-06
1.24643
0.0907673
1.2464
0.0907592
-5.41016e-06
-0.0135693
-2.51415e-06
-0.01357
6.34626e-06
-0.013571
1.10972e-05
-0.0135722
9.90561e-06
-0.013574
-0.0135746
-6.11734e-05
1.3515
0.429519
-0.000123065
1.35153
0.429526
-0.000163057
1.35155
0.429528
-0.000164098
1.35158
0.429527
-9.9436e-05
1.35163
0.429532
1.35161
0.429515
-1.42436e-05
1.15961
0.282698
-3.5656e-05
1.15963
0.282703
-4.54252e-05
1.15964
0.282703
-4.46633e-05
1.15965
0.282704
-2.22972e-05
1.15967
0.282708
1.15965
0.282699
5.00431e-06
0.0668406
4.63666e-06
0.0668422
3.77744e-06
0.0668418
3.34953e-06
0.0668422
4.05398e-06
0.0668428
0.0668404
-3.39721e-05
1.22462
0.843721
-6.43521e-05
1.22465
0.84374
-7.95782e-05
1.22467
0.843749
-7.68395e-05
1.22469
0.843761
-5.26689e-05
1.22472
0.843771
1.22472
0.843756
-1.07538e-05
1.00249
0.504839
-2.3058e-05
1.00252
0.504854
-3.41277e-05
1.00253
0.504858
-3.50437e-05
1.00254
0.504864
-2.19563e-05
1.00255
0.504869
1.00253
0.504858
1.66471e-06
0.13972
-1.79591e-07
0.139725
-3.97683e-06
0.139726
-5.64693e-06
0.139727
-3.33349e-06
0.139728
0.139724
-1.77902e-07
0.0402534
-0.150937
0.110684
-4.11341e-07
0.040254
-0.150941
0.110686
-3.43823e-07
0.040254
-0.150941
0.110687
-4.45527e-07
0.040254
-0.150941
0.110686
-3.11614e-07
0.0402539
-0.150941
0.110686
0.0402532
-0.150937
0.110684
-6.13818e-07
0.069881
-0.112469
0.082842
-6.08596e-07
0.0698824
-0.112471
0.0828438
-6.55164e-07
0.0698825
-0.112472
0.0828439
-6.49208e-07
0.0698826
-0.112472
0.0828439
-3.90376e-07
0.0698827
-0.112471
0.0828438
0.0698814
-0.112469
0.0828421
-3.87039e-07
-0.0414576
0.0303823
-1.96604e-07
-0.0414581
0.030383
-2.2908e-07
-0.0414583
0.030383
-2.55499e-07
-0.0414584
0.030383
-8.2454e-09
-0.0414584
0.030383
-0.0414574
0.0303825
-6.23566e-07
0.0570177
-0.207955
-5.12494e-07
0.0570189
-0.20796
-2.74696e-07
0.057019
-0.207961
-1.79118e-07
0.0570189
-0.207961
1.35293e-07
0.0570188
-0.20796
0.0570178
-0.207955
-4.33182e-07
0.0993069
-0.154757
-6.10823e-07
0.0993089
-0.15476
-7.2643e-07
0.099309
-0.154761
-4.51321e-07
0.0993089
-0.15476
4.95249e-08
0.0993089
-0.15476
0.099307
-0.154756
-8.41136e-08
-0.0560282
-3.39614e-07
-0.0560293
-4.02719e-07
-0.0560295
-1.71963e-07
-0.0560295
3.19351e-07
-0.0560294
-0.0560282
-7.29204e-07
0.0805124
-0.288466
-8.67586e-07
0.080514
-0.288474
-5.22905e-07
0.0805143
-0.288475
-7.65734e-08
0.0805144
-0.288476
2.7834e-07
0.0805143
-0.288475
0.0805128
-0.288469
-3.07002e-07
0.139554
-0.213798
-5.68175e-07
0.139557
-0.213803
-5.32289e-07
0.139557
-0.213804
-2.35478e-07
0.139557
-0.213804
2.8687e-07
0.139556
-0.213803
0.139554
-0.213799
-9.94234e-10
-0.0748114
-4.97645e-07
-0.0748132
-4.75268e-07
-0.0748134
-2.16875e-07
-0.0748133
1.61709e-07
-0.0748132
-0.074812
-2.39417e-06
0.112973
-0.401438
-2.9647e-06
0.112975
-0.401449
-2.47988e-06
0.112976
-0.401451
-1.47973e-06
0.112976
-0.401453
-2.24448e-07
0.112976
-0.401454
0.112974
-0.401444
-1.34849e-06
0.194933
-0.295756
-1.33397e-06
0.194936
-0.295764
-1.60427e-06
0.194936
-0.295765
-1.60374e-06
0.194936
-0.295767
-7.7992e-07
0.194936
-0.295767
0.194932
-0.29576
-2.27719e-08
-0.0980076
-6.3432e-07
-0.0980103
-9.49757e-07
-0.0980105
-9.57282e-07
-0.0980107
-7.08006e-07
-0.0980108
-0.0980089
-3.63612e-06
0.154964
-0.556397
-5.00647e-06
0.154967
-0.556414
-5.35011e-06
0.154967
-0.556418
-4.4369e-06
0.154968
-0.556423
-2.18354e-06
0.154968
-0.556427
0.154965
-0.556415
-4.12624e-06
0.268581
-0.40937
-4.28199e-06
0.268587
-0.409383
-4.63452e-06
0.268588
-0.409386
-4.81915e-06
0.268588
-0.40939
-2.79916e-06
0.268589
-0.409393
0.268584
-0.409384
-7.3532e-07
-0.12569
-1.75798e-06
-0.125693
-2.58742e-06
-0.125694
-2.74595e-06
-0.125695
-1.84744e-06
-0.125695
-0.125692
2.22447e-06
0.287324
-3.95439e-07
0.287332
-4.27113e-06
0.287334
-4.48711e-06
0.287337
-2.84435e-06
0.287341
0.287336
-1.59118e-06
0.382796
-3.53615e-06
0.382805
-6.28011e-06
0.382807
-7.18967e-06
0.382809
-4.57092e-06
0.382811
0.382805
-2.21501e-06
-3.48176e-06
-4.23361e-06
-4.66351e-06
-3.2987e-06
-2.08673e-07
0.00274426
-0.000388983
1.33742e-07
0.00274434
-0.000388968
2.63861e-07
0.00274434
-0.000388964
3.28118e-07
0.00274432
-0.000388974
3.52918e-07
0.0027443
-0.00038898
0.00274423
-0.00038897
-7.80214e-08
0.00299531
-0.000250318
1.20652e-07
0.00299539
-0.000250315
1.99876e-07
0.00299538
-0.000250314
2.46417e-07
0.00299535
-0.000250319
2.78103e-07
0.00299532
-0.000250319
0.00299523
-0.000250306
1.50015e-08
-8.92711e-05
6.25351e-08
-8.9273e-05
8.54865e-08
-8.92738e-05
1.07927e-07
-8.92751e-05
1.40329e-07
-8.92747e-05
-8.92694e-05
-8.11603e-08
0.0029062
-0.000812363
1.36269e-07
0.00290627
-0.000812391
2.25911e-07
0.00290626
-0.00081242
2.89181e-07
0.00290625
-0.000812454
3.60812e-07
0.00290624
-0.000812492
0.00290617
-0.00081251
-3.43687e-08
0.003183
-0.00052629
1.13328e-07
0.00318307
-0.000526311
1.79458e-07
0.00318306
-0.000526325
2.37335e-07
0.00318304
-0.00052634
3.10676e-07
0.003183
-0.000526355
0.00318291
-0.000526356
1.80381e-08
-0.000188961
5.67415e-08
-0.000188968
7.89496e-08
-0.000188972
1.08036e-07
-0.000188975
1.54729e-07
-0.000188977
-0.000188974
-1.29121e-07
0.0032403
-0.00131301
1.65621e-09
0.00324037
-0.00131304
6.12778e-08
0.00324039
-0.00131305
1.20427e-07
0.0032404
-0.00131307
1.93752e-07
0.00324041
-0.00131309
0.00324036
-0.00131308
-8.05217e-08
0.00357578
-0.000861115
4.22523e-08
0.00357586
-0.000861128
1.05634e-07
0.00357587
-0.00086113
1.69694e-07
0.00357586
-0.000861131
2.51159e-07
0.00357584
-0.000861134
0.00357575
-0.000861117
-4.79902e-10
-0.000312797
3.94417e-08
-0.000312798
6.46891e-08
-0.000312796
9.84874e-08
-0.000312794
1.49542e-07
-0.000312791
-0.000312783
-1.53331e-07
0.00376817
-0.00195255
-7.07398e-08
0.00376827
-0.00195253
-1.83018e-08
0.0037683
-0.0019525
4.61641e-08
0.00376833
-0.00195248
1.26573e-07
0.00376836
-0.00195246
0.00376831
-0.00195243
-6.44473e-08
0.00421312
-0.00130553
3.92921e-08
0.00421322
-0.0013055
1.01619e-07
0.00421322
-0.00130548
1.67911e-07
0.00421322
-0.00130547
2.44541e-07
0.0042132
-0.00130547
0.0042131
-0.00130546
1.52738e-08
-0.000482349
5.2021e-08
-0.000482342
7.81133e-08
-0.000482336
1.11367e-07
-0.000482333
1.56745e-07
-0.000482337
-0.000482344
7.31042e-08
0.00452435
-0.00283435
7.35603e-08
0.00452444
-0.00283429
9.13927e-08
0.00452446
-0.00283425
1.16391e-07
0.00452448
-0.00283423
1.33527e-07
0.0045245
-0.00283424
0.00452442
-0.00283424
1.2982e-07
0.00516695
-0.00194795
1.46847e-07
0.00516703
-0.00194792
1.65014e-07
0.00516702
-0.00194792
1.7826e-07
0.005167
-0.00194793
1.81492e-07
0.00516698
-0.00194798
0.00516687
-0.00194802
8.23711e-08
-0.000735476
8.43468e-08
-0.000735483
9.02548e-08
-0.000735494
9.25765e-08
-0.000735514
9.06293e-08
-0.000735548
-0.000735583
5.61743e-07
0.00556038
-0.00415743
2.97875e-07
0.00556043
-0.00415743
1.69925e-07
0.00556041
-0.00415743
5.03026e-08
0.00556038
-0.00415749
-9.19921e-08
0.00556036
-0.00415758
0.00556024
-0.00415761
3.9417e-07
0.00656443
-0.0029527
1.81007e-07
0.00656447
-0.00295274
7.44862e-08
0.00656443
-0.00295279
-3.82026e-08
0.00656441
-0.00295287
-1.60317e-07
0.0065644
-0.00295296
0.00656429
-0.002953
1.08495e-07
-0.00114181
3.37019e-08
-0.00114186
-1.12328e-08
-0.00114189
-6.6369e-08
-0.00114193
-1.30743e-07
-0.00114198
-0.001142
9.10883e-07
0.00696058
-0.00633333
2.52186e-07
0.00696057
-0.00633347
-9.00076e-08
0.0069605
-0.00633352
-3.73927e-07
0.00696044
-0.00633361
-6.12783e-07
0.00696042
-0.0063337
0.00696029
-0.00633364
4.24464e-07
0.00863246
-0.00462643
-5.10307e-08
0.0086325
-0.00462656
-2.94514e-07
0.00863248
-0.0046266
-4.88094e-07
0.0086325
-0.00462666
-6.21988e-07
0.00863255
-0.00462671
0.00863247
-0.00462663