/*--------------------------------*- C++ -*----------------------------------*\
| =========                 |                                                 |
| \\      /  F ield         | OpenFOAM: The Open Source CFD Toolbox           |
|  \\    /   O peration     | Version:  v1612+                                |
|   \\  /    A nd           | Web:      www.OpenFOAM.com                      |
|    \\/     M anipulation  |                                                 |
\*---------------------------------------------------------------------------*/
FoamFile
{
    version     2.0;
    format      ascii;
    class       volVectorField;
    location    "1.1";
    object      U;
}
// * * * * * * * * * * * * * * * * * * * * * * * * * * * * * * * * * * * * * //

dimensions      [0 1 -1 0 0 0 0];

internalField   nonuniform List<vector> 
1116
(
(0.329345 2.91205e-07 -0.340697)
(0.329346 2.02286e-07 -0.340698)
(0.329346 -8.69068e-08 -0.340698)
(0.329345 1.42573e-07 -0.340699)
(0.329345 4.73069e-07 -0.340699)
(0.329345 3.43915e-07 -0.340698)
(0.887207 6.68713e-07 -0.448317)
(0.88721 8.64078e-07 -0.448318)
(0.88721 1.20314e-06 -0.448318)
(0.88721 1.56935e-06 -0.448318)
(0.887209 1.29369e-06 -0.448317)
(0.887208 1.17727e-07 -0.448315)
(2.02027 1.36373e-06 -0.65115)
(2.02028 4.08293e-06 -0.651151)
(2.02028 6.41824e-06 -0.651148)
(2.02028 6.10294e-06 -0.651146)
(2.02028 4.24753e-06 -0.651143)
(2.02027 7.64249e-07 -0.651141)
(3.28216 -1.60304e-06 -0.890661)
(3.28217 1.83395e-06 -0.890668)
(3.28216 6.99598e-06 -0.890664)
(3.28216 7.96363e-06 -0.890661)
(3.28216 6.38743e-06 -0.890659)
(3.28216 2.77407e-06 -0.890656)
(4.68681 -1.94161e-07 -0.979563)
(4.68682 4.34335e-06 -0.97958)
(4.68682 9.34166e-06 -0.979576)
(4.68682 1.36868e-05 -0.979576)
(4.68681 1.25717e-05 -0.979579)
(4.68682 6.86613e-06 -0.979569)
(6.40749 6.63384e-06 -1.44533)
(6.40756 4.4277e-06 -1.44529)
(6.40756 -4.7936e-06 -1.44528)
(6.40756 -1.26087e-06 -1.44528)
(6.40757 -1.58416e-05 -1.4453)
(6.40755 -1.27643e-05 -1.44528)
(8.39236 4.61989e-05 -1.72568)
(8.39249 5.3907e-05 -1.72564)
(8.39245 -1.08585e-07 -1.72562)
(8.39245 -1.10345e-05 -1.72562)
(8.39251 -3.94032e-05 -1.72566)
(8.39241 -2.43857e-05 -1.72562)
(12.5501 -4.16405e-05 0.0215654)
(12.5498 -4.05838e-05 0.0213943)
(12.5498 -4.07682e-05 0.0214546)
(12.5499 -2.75606e-05 0.0214833)
(12.55 -3.54555e-05 0.0214091)
(12.55 1.72058e-05 0.0217275)
(10.6058 2.64066e-05 1.09807)
(10.6055 -7.99626e-06 1.09816)
(10.6054 -7.3348e-05 1.09808)
(10.6055 -2.16917e-05 1.09799)
(10.6056 5.53384e-06 1.09791)
(10.605 5.0418e-05 1.09806)
(4.85532 4.90526e-05 1.48611)
(4.85549 0.000113887 1.48595)
(4.85548 0.000145344 1.48591)
(4.8556 0.000212292 1.48593)
(4.85579 0.000195751 1.48604)
(4.85557 9.25296e-05 1.48615)
(2.8108 8.39476e-05 1.0894)
(2.8113 0.000283911 1.0894)
(2.81133 0.00041379 1.08947)
(2.81136 0.000465024 1.08958)
(2.8114 0.000426824 1.08976)
(2.81135 0.000185307 1.08997)
(1.1357 3.7249e-05 0.902143)
(1.13595 0.000103622 0.902309)
(1.13596 0.000168979 0.902369)
(1.13594 0.000221341 0.902421)
(1.13591 0.000210392 0.902492)
(1.13588 9.37792e-05 0.902582)
(0.269179 6.35104e-08 -0.876558)
(0.269179 -5.13163e-07 -0.876559)
(0.269178 -1.22771e-06 -0.87656)
(0.269176 -1.23741e-06 -0.87656)
(0.269176 -9.26447e-07 -0.87656)
(0.269176 -1.86865e-07 -0.876557)
(0.654741 1.46787e-06 -1.17472)
(0.654743 1.87647e-06 -1.17472)
(0.65474 9.38237e-07 -1.17472)
(0.654737 3.05239e-07 -1.17471)
(0.654737 -9.08082e-07 -1.17471)
(0.654737 -9.97921e-07 -1.17471)
(1.76099 3.34691e-06 -1.70158)
(1.761 9.8142e-06 -1.70158)
(1.76099 8.67056e-06 -1.70157)
(1.76099 5.26814e-06 -1.70156)
(1.76099 4.03625e-06 -1.70156)
(1.76099 2.5229e-06 -1.70155)
(2.38553 5.08098e-07 -2.28465)
(2.38557 1.1005e-05 -2.28467)
(2.38557 9.87972e-06 -2.28465)
(2.38557 8.73156e-06 -2.28465)
(2.38556 5.13017e-06 -2.28465)
(2.38556 6.64992e-06 -2.28465)
(3.87866 -5.56384e-06 -3.03319)
(3.87869 1.97482e-06 -3.03326)
(3.87869 1.63759e-05 -3.03325)
(3.87869 1.70091e-05 -3.03324)
(3.87869 1.38749e-05 -3.03325)
(3.87869 6.63137e-06 -3.03322)
(6.30391 2.4669e-05 -3.55235)
(6.30406 1.45282e-05 -3.55247)
(6.30406 -6.88558e-07 -3.55245)
(6.30407 5.53065e-06 -3.55244)
(6.30407 -1.08993e-06 -3.5525)
(6.30405 -1.26661e-05 -3.55249)
(7.20762 5.4404e-05 -5.30928)
(7.20823 -5.18968e-05 -5.30901)
(7.20831 -0.000180573 -5.30893)
(7.20835 -0.000124861 -5.30895)
(7.20848 -0.000251998 -5.30918)
(7.20859 -0.00021196 -5.30897)
(11.822 -0.000113433 2.36195)
(11.8223 -0.000254171 2.36213)
(11.8221 -0.0002664 2.36209)
(11.8221 -0.000143118 2.36205)
(11.8223 -0.000238906 2.36186)
(11.8212 -0.000143788 2.36199)
(6.41614 -4.33049e-05 4.95811)
(6.41647 -0.000138302 4.95827)
(6.41623 -0.000172076 4.95816)
(6.41625 -5.53078e-05 4.95807)
(6.41676 -0.000127732 4.95802)
(6.4157 -8.30562e-05 4.95804)
(3.52565 8.10283e-05 4.22902)
(3.52589 0.000256539 4.22873)
(3.52583 0.000302744 4.22863)
(3.52594 0.000278901 4.22866)
(3.52623 0.000251599 4.22887)
(3.52602 0.000111784 4.22899)
(2.49226 7.98922e-05 2.72576)
(2.49279 0.000156117 2.72581)
(2.49294 0.00011822 2.726)
(2.49304 7.77725e-05 2.72626)
(2.49318 7.70078e-05 2.72662)
(2.4932 4.28599e-05 2.72702)
(1.17757 -6.95353e-05 2.35845)
(1.17788 -0.00010892 2.35878)
(1.17795 -3.62096e-05 2.35893)
(1.17797 2.17568e-05 2.35908)
(1.178 4.36846e-05 2.35925)
(1.178 2.20845e-05 2.35945)
(0.112196 1.20757e-06 -1.11808)
(0.112196 1.53951e-06 -1.11808)
(0.112195 1.55162e-06 -1.11807)
(0.112194 2.02943e-06 -1.11807)
(0.112194 2.04529e-06 -1.11807)
(0.112195 1.08042e-06 -1.11807)
(0.196088 3.02595e-06 -1.77375)
(0.196091 8.06036e-06 -1.77375)
(0.196087 6.29334e-06 -1.77375)
(0.196086 2.97639e-06 -1.77375)
(0.196089 3.61775e-06 -1.77374)
(0.196091 3.12548e-06 -1.77374)
(0.938984 3.77609e-06 -2.36859)
(0.939022 1.41657e-05 -2.36859)
(0.939025 4.58732e-06 -2.36858)
(0.939028 4.118e-06 -2.36857)
(0.939032 1.34449e-06 -2.36857)
(0.939034 7.1204e-06 -2.36856)
(1.16089 1.41687e-05 -3.59444)
(1.16094 1.71872e-05 -3.59447)
(1.16094 1.82781e-05 -3.59445)
(1.16094 1.16641e-05 -3.59445)
(1.16094 2.44042e-05 -3.59446)
(1.16093 1.23082e-05 -3.59444)
(3.68196 4.23413e-05 -5.07664)
(3.6821 2.3864e-05 -5.07683)
(3.68211 3.7337e-05 -5.0768)
(3.68211 2.07964e-08 -5.07679)
(3.68211 2.3029e-05 -5.0768)
(3.6821 -1.24459e-05 -5.07677)
(5.6061 5.40758e-05 -4.06451)
(5.60635 7.04988e-06 -4.06481)
(5.60633 1.0081e-05 -4.0648)
(5.60633 -7.65662e-06 -4.06482)
(5.60641 2.45283e-05 -4.06492)
(5.60643 -1.95534e-05 -4.06507)
(0.846639 -1.71831e-05 -3.76962)
(0.847436 -0.000142611 -3.76958)
(0.84719 -0.000204896 -3.76972)
(0.847231 -7.19184e-05 -3.76975)
(0.847614 -0.000157083 -3.77)
(0.847832 -0.000157557 -3.77011)
(0.743738 -9.15082e-05 4.76202)
(0.744406 -9.65068e-05 4.76211)
(0.744155 -5.76103e-05 4.76193)
(0.744133 -3.31124e-05 4.7619)
(0.744547 -0.000160886 4.76186)
(0.744227 -0.000145146 4.76177)
(0.246105 -2.37162e-05 6.49965)
(0.246238 8.38278e-05 6.49966)
(0.246131 0.000154289 6.49948)
(0.246216 9.96328e-05 6.49935)
(0.246691 4.09372e-05 6.49941)
(0.246473 2.52041e-06 6.4991)
(1.29721 5.60046e-05 4.68744)
(1.2973 9.36084e-05 4.68723)
(1.29742 7.90755e-07 4.68722)
(1.29756 -0.000102082 4.68727)
(1.29788 -0.000108287 4.68755)
(1.29789 -4.53572e-05 4.68747)
(1.15877 -3.246e-05 3.35269)
(1.15902 -0.000150675 3.35283)
(1.15911 -0.000254299 3.35303)
(1.15918 -0.00028049 3.35329)
(1.15929 -0.000252864 3.35369)
(1.15926 -0.000109687 3.35397)
(0.908447 -0.000102441 3.07158)
(0.908596 -0.000195003 3.07185)
(0.908603 -0.000162348 3.072)
(0.908605 -0.000114418 3.07217)
(0.908602 -6.86546e-05 3.07237)
(0.908547 -2.69065e-05 3.07255)
(-0.326951 5.11509e-06 -1.69255)
(-0.326951 8.95083e-06 -1.69255)
(-0.326951 6.60969e-06 -1.69255)
(-0.32695 4.39325e-06 -1.69255)
(-0.326948 4.80982e-06 -1.69255)
(-0.326946 2.61605e-06 -1.69255)
(-0.595525 3.99874e-06 -2.08055)
(-0.595501 1.15708e-05 -2.08055)
(-0.595498 5.20075e-06 -2.08055)
(-0.595497 4.28802e-06 -2.08055)
(-0.595494 1.38292e-06 -2.08055)
(-0.595487 3.75435e-06 -2.08054)
(-0.49993 5.44427e-06 -2.97063)
(-0.499922 6.05859e-06 -2.97064)
(-0.49991 5.05424e-06 -2.97064)
(-0.499907 4.14353e-06 -2.97064)
(-0.499899 6.3687e-06 -2.97063)
(-0.499926 2.11269e-06 -2.9706)
(1.77206 2.56835e-05 -5.96442)
(1.77218 -1.83501e-05 -5.96444)
(1.77219 3.65087e-05 -5.96441)
(1.77218 -1.07618e-05 -5.96441)
(1.77218 1.15643e-05 -5.96441)
(1.77216 -4.67116e-05 -5.96433)
(4.13611 0.000188493 -6.94715)
(4.13628 0.000115069 -6.94748)
(4.13633 0.000101409 -6.94742)
(4.13636 2.18358e-05 -6.94744)
(4.13635 0.000104698 -6.9475)
(4.13613 -3.02568e-05 -6.94753)
(1.29629 -1.54501e-06 0.0355988)
(1.29718 -3.35064e-05 0.0354761)
(1.29699 1.99693e-06 0.0355177)
(1.29699 4.97058e-05 0.0354816)
(1.29722 8.51875e-05 0.0352045)
(1.29703 1.92269e-05 0.034733)
(-2.74814 -8.8933e-05 1.33197)
(-2.74821 6.79056e-05 1.33207)
(-2.74836 0.000262529 1.33192)
(-2.74829 0.00024025 1.33193)
(-2.74803 0.000220626 1.33186)
(-2.7478 8.47624e-05 1.33154)
(-2.72569 1.20751e-05 3.92664)
(-2.7258 0.000160043 3.92675)
(-2.72576 0.000202764 3.92676)
(-2.72564 0.000127706 3.92678)
(-2.72536 7.5722e-05 3.92674)
(-2.72531 8.92876e-06 3.92632)
(-0.999983 2.80573e-05 4.81127)
(-1.00017 8.44985e-05 4.81146)
(-1.00004 4.74066e-05 4.81142)
(-0.999873 -4.9984e-05 4.81133)
(-0.999626 -3.99125e-05 4.8113)
(-0.999468 -1.10913e-08 4.81091)
(0.218721 2.70276e-05 3.73771)
(0.218795 -6.54258e-05 3.73773)
(0.21893 -0.000220144 3.73773)
(0.219054 -0.000283142 3.73775)
(0.21922 -0.000255607 3.73792)
(0.219253 -0.000101636 3.73772)
(0.598158 -7.75057e-05 3.20969)
(0.598295 -0.000231244 3.20979)
(0.598318 -0.000328529 3.2099)
(0.598341 -0.000344717 3.21009)
(0.598376 -0.000294205 3.21039)
(0.598292 -0.000124476 3.21049)
(0.719972 -6.51751e-05 3.1411)
(0.720024 -0.000115799 3.14124)
(0.720013 -0.000104776 3.14133)
(0.720004 -9.22639e-05 3.14146)
(0.71999 -6.44317e-05 3.14161)
(0.719928 -2.58882e-05 3.14171)
(0.000606013 -1.21332e-07 0.000613676)
(0.000605906 -1.40288e-07 0.000613697)
(0.000605849 1.3883e-07 0.000613714)
(0.000605842 2.90238e-07 0.000613721)
(0.000605835 2.24819e-07 0.000613743)
(0.000605815 9.25515e-08 0.000613765)
(0.00184131 1.19441e-07 0.000637622)
(0.00184115 2.21286e-07 0.000637612)
(0.00184109 2.72929e-07 0.000637608)
(0.00184112 3.23018e-07 0.000637598)
(0.00184118 2.65191e-07 0.000637601)
(0.00184119 1.18908e-07 0.000637593)
(0.00314529 2.80932e-07 0.000683234)
(0.00314531 3.97952e-07 0.00068318)
(0.00314537 2.06724e-07 0.000683142)
(0.00314549 1.23492e-07 0.000683109)
(0.00314564 3.7378e-08 0.000683088)
(0.00314572 9.58495e-09 0.000683044)
(0.0045563 2.07816e-07 0.000744827)
(0.00455656 2.03812e-07 0.000744749)
(0.00455668 -6.83831e-08 0.000744703)
(0.00455682 -1.98075e-07 0.00074466)
(0.00455694 -2.85778e-07 0.000744631)
(0.00455695 -1.45654e-07 0.000744587)
(0.00609616 -6.49237e-08 0.000810972)
(0.00609652 -1.89139e-07 0.000810918)
(0.00609657 -3.0656e-07 0.000810898)
(0.00609658 -3.8438e-07 0.00081089)
(0.00609654 -3.81563e-07 0.000810898)
(0.00609635 -1.72708e-07 0.000810902)
(0.00775652 -3.04844e-07 0.000859563)
(0.00775673 -4.1989e-07 0.000859581)
(0.00775665 -2.17798e-07 0.000859596)
(0.00775646 -1.56353e-07 0.000859642)
(0.00775623 -6.82715e-08 0.000859696)
(0.00775586 -7.73443e-09 0.00085975)
(0.00947946 -2.68545e-07 0.000851287)
(0.00947941 -2.6947e-07 0.000851336)
(0.00947922 1.55285e-07 0.000851392)
(0.00947895 3.63009e-07 0.000851447)
(0.0094787 4.203e-07 0.000851514)
(0.0094783 2.19904e-07 0.00085157)
(0.0111363 4.31137e-08 0.000737262)
(0.0111361 2.37797e-07 0.000737249)
(0.0111359 5.70603e-07 0.00073727)
(0.0111358 7.71811e-07 0.000737269)
(0.0111357 7.22212e-07 0.000737275)
(0.0111354 3.31062e-07 0.000737266)
(0.0124399 4.33508e-07 0.000477912)
(0.0124398 7.65564e-07 0.000477699)
(0.0124398 7.59652e-07 0.000477656)
(0.0124398 8.32967e-07 0.000477609)
(0.0124398 6.52248e-07 0.000477588)
(0.0124396 2.48251e-07 0.000477561)
(0.0126588 6.80934e-07 -4.84985e-05)
(0.012659 1.03186e-06 -4.88516e-05)
(0.012659 6.89184e-07 -4.88836e-05)
(0.012659 6.19469e-07 -4.88753e-05)
(0.012659 3.58866e-07 -4.88015e-05)
(0.0126586 7.4751e-08 -4.86853e-05)
(0.0113855 8.10779e-07 -0.00143195)
(0.0113859 1.10615e-06 -0.001432)
(0.0113859 5.41961e-07 -0.0014319)
(0.011386 3.72189e-07 -0.00143179)
(0.0113859 1.01154e-07 -0.00143159)
(0.0113853 -4.25617e-08 -0.00143127)
(0.00593675 4.60597e-07 -0.00416042)
(0.00593702 5.28844e-07 -0.00416039)
(0.0059371 9.69173e-09 -0.00416038)
(0.00593716 -2.1754e-07 -0.00416037)
(0.00593714 -4.14646e-07 -0.00416032)
(0.00593677 -2.43399e-07 -0.00416013)
(0.000594309 -9.38964e-08 0.00179307)
(0.00059423 -7.77703e-08 0.00179311)
(0.000594192 1.9202e-07 0.00179313)
(0.0005942 3.50987e-07 0.00179314)
(0.000594211 3.37782e-07 0.00179316)
(0.000594218 1.57856e-07 0.00179317)
(0.00180888 9.58206e-08 0.00186659)
(0.00180879 1.97269e-07 0.00186656)
(0.00180878 2.6028e-07 0.00186655)
(0.00180885 3.1845e-07 0.00186653)
(0.00180895 2.87579e-07 0.00186653)
(0.00180904 1.28178e-07 0.0018665)
(0.0031011 1.79581e-07 0.0020082)
(0.00310118 2.28387e-07 0.00200811)
(0.00310128 7.80597e-08 0.00200804)
(0.00310144 1.3461e-08 0.002008)
(0.00310163 -8.05499e-08 0.00200798)
(0.00310175 -6.45758e-08 0.00200793)
(0.00451796 7.28103e-08 0.00220362)
(0.0045182 -1.31949e-08 0.0022035)
(0.0045183 -2.37626e-07 0.00220345)
(0.00451842 -3.63389e-07 0.00220341)
(0.00451853 -4.4522e-07 0.00220341)
(0.0045185 -2.3335e-07 0.0022034)
(0.00609459 -1.28654e-07 0.00242138)
(0.00609482 -2.87805e-07 0.00242135)
(0.0060948 -3.72458e-07 0.00242134)
(0.00609473 -4.38793e-07 0.00242139)
(0.00609462 -4.12071e-07 0.00242146)
(0.00609434 -1.8663e-07 0.0024215)
(0.00784235 -1.85126e-07 0.00259815)
(0.00784238 -2.68556e-07 0.00259827)
(0.00784219 -1.19011e-07 0.00259834)
(0.00784194 -3.84137e-08 0.00259844)
(0.00784166 5.36023e-08 0.00259855)
(0.00784126 5.61119e-08 0.00259861)
(0.00971254 1.3646e-08 0.00260973)
(0.00971239 1.59748e-07 0.00260988)
(0.00971214 3.98043e-07 0.00260994)
(0.00971191 5.35625e-07 0.00260999)
(0.0097117 5.60994e-07 0.00261002)
(0.0097114 2.76427e-07 0.00261)
(0.0115429 3.86864e-07 0.00221482)
(0.0115429 7.39972e-07 0.0022147)
(0.0115428 7.5759e-07 0.00221462)
(0.0115427 7.76768e-07 0.00221452)
(0.0115427 6.13647e-07 0.00221443)
(0.0115425 2.39212e-07 0.00221431)
(0.0130759 5.76429e-07 0.000919726)
(0.0130763 1.01382e-06 0.000919184)
(0.0130764 8.26515e-07 0.000918978)
(0.0130765 7.09743e-07 0.000918817)
(0.0130765 3.84355e-07 0.000918733)
(0.0130762 5.96821e-08 0.000918746)
(0.0141917 5.56284e-07 -0.00206793)
(0.0141923 9.54e-07 -0.00206859)
(0.0141924 7.044e-07 -0.00206866)
(0.0141924 5.53985e-07 -0.00206863)
(0.0141922 2.33912e-07 -0.00206845)
(0.0141915 -2.04871e-08 -0.00206804)
(0.0141606 6.05699e-07 -0.00650001)
(0.0141612 9.21679e-07 -0.00649999)
(0.0141612 5.27997e-07 -0.00649972)
(0.014161 3.25215e-07 -0.00649942)
(0.0141606 2.15177e-08 -0.00649897)
(0.0141595 -1.11152e-07 -0.00649813)
(0.00935273 2.07988e-07 -0.0146589)
(0.00935306 1.35272e-07 -0.0146589)
(0.00935306 -3.16118e-07 -0.0146588)
(0.00935297 -5.60954e-07 -0.0146586)
(0.00935278 -8.15802e-07 -0.0146584)
(0.00935215 -4.63211e-07 -0.0146578)
(0.000557649 -9.98635e-08 0.00290423)
(0.000557595 -6.97675e-08 0.00290427)
(0.000557573 2.07009e-07 0.00290428)
(0.000557588 3.63049e-07 0.00290427)
(0.000557603 3.5911e-07 0.00290427)
(0.000557609 1.68591e-07 0.00290422)
(0.00170344 3.77604e-08 0.00303521)
(0.0017034 1.1939e-07 0.0030352)
(0.00170342 2.26299e-07 0.00303517)
(0.0017035 3.00935e-07 0.00303515)
(0.0017036 2.93393e-07 0.00303515)
(0.00170367 1.37389e-07 0.0030351)
(0.00294287 7.23284e-08 0.00329186)
(0.00294296 7.48006e-08 0.0032918)
(0.00294305 8.08861e-09 0.00329177)
(0.00294319 -1.46428e-08 0.00329176)
(0.00294335 -5.94734e-08 0.00329178)
(0.00294343 -3.89551e-08 0.00329178)
(0.00434206 -2.32229e-08 0.00365839)
(0.00434222 -1.28712e-07 0.00365835)
(0.00434229 -2.56059e-07 0.00365835)
(0.00434235 -3.25371e-07 0.0036584)
(0.0043424 -3.37168e-07 0.00365848)
(0.00434233 -1.6215e-07 0.00365854)
(0.00596958 -9.14376e-08 0.00409398)
(0.00596964 -2.26207e-07 0.00409407)
(0.00596957 -2.76066e-07 0.00409413)
(0.00596945 -2.84274e-07 0.00409424)
(0.00596933 -2.42684e-07 0.00409438)
(0.0059691 -9.96495e-08 0.00409445)
(0.00789985 4.95702e-08 0.00450867)
(0.00789975 6.6059e-08 0.00450887)
(0.00789956 6.52741e-08 0.00450895)
(0.00789936 9.66832e-08 0.00450904)
(0.0078992 1.07957e-07 0.00450912)
(0.00789896 5.97928e-08 0.00450908)
(0.0102318 3.77094e-07 0.00473127)
(0.0102317 6.03195e-07 0.00473137)
(0.0102316 4.62753e-07 0.00473133)
(0.0102315 4.19334e-07 0.00473126)
(0.0102315 2.83053e-07 0.00473116)
(0.0102314 9.99976e-08 0.00473094)
(0.0131663 5.85507e-07 0.00449609)
(0.0131666 9.21882e-07 0.00449577)
(0.0131667 5.88044e-07 0.00449551)
(0.0131668 3.89474e-07 0.00449527)
(0.0131669 9.96015e-08 0.00449506)
(0.0131668 -3.6975e-08 0.00449486)
(0.0168426 5.70283e-07 0.003494)
(0.0168432 8.92171e-07 0.00349332)
(0.0168433 4.94481e-07 0.00349304)
(0.0168434 2.3326e-07 0.00349287)
(0.0168434 -6.50256e-08 0.00349285)
(0.0168429 -1.22988e-07 0.00349304)
(0.0196938 5.55035e-07 0.00121686)
(0.0196945 8.9852e-07 0.00121632)
(0.0196945 4.84827e-07 0.00121641)
(0.0196942 1.94069e-07 0.00121669)
(0.0196938 -4.46996e-08 0.00121713)
(0.0196929 -8.83686e-08 0.00121787)
(0.0213138 4.20961e-07 -0.00403188)
(0.0213144 6.4034e-07 -0.00403156)
(0.0213141 2.54285e-07 -0.00403093)
(0.0213135 -2.31262e-08 -0.0040302)
(0.0213128 -2.78115e-07 -0.00402937)
(0.0213116 -1.98161e-07 -0.00402824)
(0.014032 -1.51517e-07 -0.0164002)
(0.0140324 -3.83404e-07 -0.0164004)
(0.0140323 -6.81381e-07 -0.0164002)
(0.0140319 -8.34698e-07 -0.0163999)
(0.0140315 -1.08675e-06 -0.0163995)
(0.0140308 -5.29196e-07 -0.0163987)
(0.000491644 -1.02522e-07 0.0038991)
(0.000491616 -6.50417e-08 0.00389919)
(0.000491605 1.96235e-07 0.00389919)
(0.000491619 3.34822e-07 0.00389917)
(0.000491632 3.45414e-07 0.00389915)
(0.00049163 1.65657e-07 0.00389907)
(0.00150964 -1.92558e-08 0.00409848)
(0.00150963 4.51815e-08 0.00409852)
(0.00150966 1.89689e-07 0.0040985)
(0.00150973 2.756e-07 0.00409848)
(0.0015098 3.00629e-07 0.00409847)
(0.00150984 1.50647e-07 0.0040984)
(0.00263705 -2.60827e-08 0.00449717)
(0.00263713 -4.25394e-08 0.00449718)
(0.00263721 -6.58669e-09 0.00449717)
(0.0026373 2.27846e-08 0.00449719)
(0.0026374 3.49856e-08 0.00449723)
(0.00263744 2.2564e-08 0.00449722)
(0.00396342 -7.60558e-08 0.00508969)
(0.00396349 -1.70848e-07 0.00508974)
(0.00396351 -1.83227e-07 0.00508978)
(0.00396352 -1.69188e-07 0.00508986)
(0.00396353 -1.28055e-07 0.00508997)
(0.00396345 -4.6602e-08 0.00509002)
(0.00560366 -1.59057e-08 0.00584867)
(0.0056036 -7.57884e-08 0.00584882)
(0.00560349 -1.02343e-07 0.0058489)
(0.00560339 -7.7624e-08 0.00584901)
(0.00560331 -4.12812e-08 0.00584913)
(0.00560317 -5.14979e-09 0.00584914)
(0.00770131 2.52146e-07 0.00668716)
(0.00770117 3.47223e-07 0.00668733)
(0.00770103 1.89666e-07 0.00668737)
(0.00770094 1.49594e-07 0.0066874)
(0.00770093 6.43796e-08 0.00668741)
(0.00770086 1.03057e-08 0.00668727)
(0.0103799 5.44542e-07 0.00737476)
(0.0103799 7.65689e-07 0.00737473)
(0.0103799 3.58123e-07 0.00737459)
(0.01038 1.43903e-07 0.00737444)
(0.0103801 -1.21942e-07 0.00737428)
(0.0103801 -1.29639e-07 0.00737399)
(0.0136002 6.25652e-07 0.00733802)
(0.0136006 8.35214e-07 0.00733766)
(0.0136006 2.3031e-07 0.00733733)
(0.0136007 -1.34292e-07 0.00733706)
(0.0136008 -4.60483e-07 0.00733686)
(0.0136006 -3.12114e-07 0.0073367)
(0.0171644 5.49126e-07 0.00534688)
(0.0171648 7.86102e-07 0.00534631)
(0.0171647 2.25606e-07 0.00534606)
(0.0171645 -1.7143e-07 0.00534596)
(0.0171643 -4.15803e-07 0.00534604)
(0.0171636 -2.71467e-07 0.00534627)
(0.0218699 5.10562e-07 -0.00150956)
(0.0218702 8.62374e-07 -0.00150995)
(0.0218697 4.8175e-07 -0.00150978)
(0.0218692 1.17394e-07 -0.00150941)
(0.0218685 -1.05325e-07 -0.00150891)
(0.0218675 -1.18691e-07 -0.00150824)
(0.0278938 3.68222e-07 -0.0206719)
(0.0278942 6.06705e-07 -0.0206718)
(0.0278938 4.10757e-07 -0.0206712)
(0.0278929 1.25436e-07 -0.0206705)
(0.027892 -3.38321e-07 -0.0206698)
(0.0278906 -3.72059e-07 -0.0206687)
(0.027474 -8.00124e-07 -0.0627199)
(0.0274754 -1.51937e-06 -0.0627242)
(0.0274754 -1.26352e-06 -0.0627244)
(0.0274748 -1.18849e-06 -0.0627237)
(0.0274741 -1.54183e-06 -0.0627226)
(0.027473 -9.62195e-07 -0.0627208)
(-0.596343 9.03316e-06 0.610351)
(-0.596335 1.68405e-05 0.610369)
(-0.596333 8.3569e-06 0.610365)
(-0.596336 6.40973e-06 0.610366)
(-0.596338 6.25771e-06 0.610366)
(-0.59633 6.9082e-06 0.610367)
(-2.52669 8.09239e-06 -0.445436)
(-2.52669 2.03781e-05 -0.445415)
(-2.52668 5.78801e-06 -0.445413)
(-2.52668 1.2938e-05 -0.445414)
(-2.52668 1.76798e-05 -0.445417)
(-2.52671 2.42662e-05 -0.445417)
(-3.60555 9.92658e-06 11.0628)
(-3.6055 2.28866e-05 11.0629)
(-3.60549 1.61591e-05 11.0629)
(-3.60549 1.7048e-05 11.0629)
(-3.60549 2.9321e-05 11.0629)
(-3.60547 2.66141e-05 11.0629)
(-1.77124 6.22273e-06 -1.27339)
(-1.77121 1.39987e-06 -1.27338)
(-1.77121 -4.56709e-07 -1.27338)
(-1.77121 -8.32293e-07 -1.27338)
(-1.77122 8.74552e-06 -1.27338)
(-1.77119 4.59635e-06 -1.27336)
(-5.61785 3.02896e-05 -3.24427)
(-5.61776 -2.23773e-05 -3.2443)
(-5.61778 8.43826e-06 -3.24429)
(-5.61779 -1.43541e-05 -3.24429)
(-5.61784 7.26649e-06 -3.24427)
(-5.61761 -4.51991e-05 -3.24434)
(-10.0262 3.53626e-05 -9.99316)
(-10.0262 -7.39777e-05 -9.99304)
(-10.0261 3.20357e-05 -9.993)
(-10.0261 -7.64634e-05 -9.993)
(-10.0262 -0.000127572 -9.99287)
(-10.0259 -0.000184119 -9.99292)
(-0.369458 5.17889e-05 -5.06161)
(-0.369307 -2.46987e-05 -5.06164)
(-0.369357 2.04697e-05 -5.06164)
(-0.369363 -2.72197e-05 -5.06163)
(-0.369428 1.10309e-05 -5.06162)
(-0.369157 -7.31613e-05 -5.06157)
(4.18876 9.80702e-05 -5.97176)
(4.18857 4.2172e-05 -5.97166)
(4.18861 7.09242e-05 -5.97169)
(4.18867 7.68439e-06 -5.97166)
(4.18874 0.000111655 -5.97171)
(4.18819 -3.83175e-06 -5.9717)
(-2.37327 -1.90943e-05 -7.57732)
(-2.37332 -6.76319e-05 -7.57731)
(-2.37329 -6.89168e-05 -7.57739)
(-2.37326 -5.46873e-05 -7.57742)
(-2.37318 -5.66426e-05 -7.57758)
(-2.37324 -1.32886e-05 -7.57769)
(2.31057 5.86614e-05 -8.23588)
(2.31067 4.30669e-05 -8.23605)
(2.31064 0.000130516 -8.23603)
(2.31066 8.33629e-06 -8.236)
(2.31066 6.00191e-06 -8.236)
(2.31075 -0.0001303 -8.23587)
(0.211244 5.55723e-05 -7.97002)
(0.211651 0.00011033 -7.97039)
(0.211493 0.000136147 -7.97051)
(0.211498 7.36934e-05 -7.97056)
(0.21157 8.35903e-05 -7.97081)
(0.211954 -9.58821e-06 -7.97057)
(-3.62748 5.01222e-05 -4.79723)
(-3.62758 7.4119e-05 -4.79726)
(-3.62755 2.89564e-05 -4.79727)
(-3.62752 4.43514e-05 -4.79732)
(-3.62747 -9.96235e-06 -4.79748)
(-3.62735 -1.50342e-05 -4.79744)
(2.469 0.000112372 -3.1648)
(2.46982 2.53715e-05 -3.16525)
(2.46998 0.000101846 -3.16511)
(2.4701 8.67127e-06 -3.16514)
(2.47018 5.25775e-05 -3.16527)
(2.47002 -8.28124e-05 -3.16526)
(-3.31565 3.23467e-05 0.954644)
(-3.31548 -4.50929e-05 0.95469)
(-3.31536 -3.42398e-05 0.954688)
(-3.3153 -5.91868e-05 0.95467)
(-3.31521 -4.34957e-05 0.954606)
(-3.31497 -3.93037e-05 0.954512)
(-4.68837 -5.26379e-06 -1.23253)
(-4.68851 7.48889e-06 -1.23245)
(-4.68855 1.43227e-05 -1.23241)
(-4.68856 8.15088e-06 -1.23241)
(-4.68853 6.97596e-06 -1.23241)
(-4.68842 8.73475e-06 -1.23233)
(-4.52042 -0.000119669 1.67702)
(-4.52032 -0.000106262 1.67715)
(-4.52031 3.05429e-05 1.67713)
(-4.52025 7.03647e-05 1.67716)
(-4.52013 0.000162899 1.67713)
(-4.52012 0.000114738 1.67683)
(-2.66407 -8.4266e-05 2.33454)
(-2.66415 -5.67427e-05 2.3347)
(-2.66415 -6.72698e-06 2.3347)
(-2.66418 -2.40035e-05 2.33474)
(-2.66417 9.85524e-06 2.33478)
(-2.66405 3.79477e-05 2.33471)
(-1.86665 -9.64482e-06 0.0123418)
(-1.86672 -1.72865e-05 0.0123647)
(-1.86676 -2.82664e-05 0.0124015)
(-1.86682 -2.69086e-05 0.0124447)
(-1.86688 -2.27366e-05 0.0124784)
(-1.86686 -4.61638e-06 0.0124956)
(-1.60747 -5.9723e-05 1.44509)
(-1.60757 1.26515e-05 1.44513)
(-1.60756 0.000115034 1.4451)
(-1.60753 8.63006e-05 1.44518)
(-1.60752 0.000138272 1.44524)
(-1.60742 8.25909e-05 1.44498)
(-1.53724 -8.0876e-06 1.00066)
(-1.53729 -6.18661e-06 1.00069)
(-1.53729 -7.87255e-06 1.00069)
(-1.53727 -2.1201e-05 1.00074)
(-1.53726 1.5981e-05 1.00077)
(-1.53718 2.52869e-05 1.0007)
(-1.80525 2.07921e-06 0.0949371)
(-1.80532 5.49301e-07 0.0949328)
(-1.80531 6.88956e-07 0.0949281)
(-1.80531 -2.32518e-06 0.0949198)
(-1.80531 8.03936e-06 0.0949115)
(-1.80524 8.10138e-06 0.0948909)
(-2.40737 -1.1431e-05 2.52379)
(-2.4075 5.50079e-05 2.5239)
(-2.40748 9.00621e-05 2.524)
(-2.40739 5.49524e-05 2.52405)
(-2.40729 8.67828e-05 2.52403)
(-2.40715 5.77469e-05 2.52385)
(-1.32744 6.09024e-06 2.34565)
(-1.32747 -1.05157e-05 2.34573)
(-1.32749 -2.3003e-05 2.34577)
(-1.32748 -4.35272e-06 2.34578)
(-1.32747 2.24841e-05 2.34577)
(-1.32743 2.18713e-05 2.34568)
(-0.724666 7.21166e-06 1.28552)
(-0.724691 -3.8541e-06 1.28554)
(-0.724702 -1.27827e-05 1.28555)
(-0.724709 -5.26361e-06 1.28554)
(-0.724713 3.68686e-06 1.28553)
(-0.724695 3.43598e-06 1.2855)
(-0.706249 2.031e-05 3.1452)
(-0.7063 1.6781e-05 3.14547)
(-0.706264 1.12574e-06 3.14548)
(-0.706198 -5.06659e-06 3.14541)
(-0.706139 1.70075e-05 3.14532)
(-0.706051 2.52165e-05 3.14508)
(-0.469239 -4.10169e-06 2.44635)
(-0.469264 -9.45226e-06 2.44646)
(-0.469256 4.89064e-06 2.44646)
(-0.469253 2.39777e-05 2.44643)
(-0.469259 3.92393e-05 2.44639)
(-0.469245 2.69369e-05 2.44629)
(-0.499474 -1.72023e-05 1.87089)
(-0.499501 -2.38945e-05 1.87091)
(-0.4995 -7.81482e-06 1.8709)
(-0.499503 2.69973e-06 1.87089)
(-0.499505 1.29705e-05 1.87088)
(-0.499487 9.88218e-06 1.87084)
(0.00109206 2.50039e-06 2.96266)
(0.00110205 -4.6337e-05 2.96276)
(0.00112968 -9.72334e-05 2.96274)
(0.00114173 -0.000106733 2.96273)
(0.00115972 -7.8341e-05 2.96276)
(0.00116372 -2.03649e-05 2.96262)
(-0.0178837 -1.47028e-05 2.51869)
(-0.017891 -2.05617e-05 2.51875)
(-0.0178935 -9.57205e-06 2.51874)
(-0.0179066 -9.01555e-06 2.51874)
(-0.017922 5.19028e-06 2.51874)
(-0.0179311 1.11484e-05 2.51868)
(-0.108359 -1.17499e-05 2.0601)
(-0.108357 -9.99111e-06 2.06012)
(-0.108354 5.42683e-06 2.06012)
(-0.108354 7.94069e-06 2.06012)
(-0.108356 1.45903e-05 2.06013)
(-0.108352 9.36509e-06 2.06011)
(0.534029 -3.39406e-05 2.77823)
(0.534039 -9.24388e-05 2.77826)
(0.534043 -0.000134709 2.77831)
(0.534035 -0.000156322 2.77841)
(0.534037 -0.000128049 2.77856)
(0.533995 -4.9469e-05 2.77857)
(0.339667 -1.56247e-05 2.32297)
(0.339677 -2.7908e-05 2.32301)
(0.339676 -3.32091e-05 2.32304)
(0.339673 -4.39057e-05 2.32308)
(0.339671 -2.89748e-05 2.32313)
(0.339655 -6.15542e-06 2.3231)
(0.0492894 6.70011e-07 1.99482)
(0.0492959 4.21591e-06 1.99486)
(0.0492958 5.27095e-06 1.99487)
(0.0492953 1.88835e-06 1.99489)
(0.0492938 5.50737e-06 1.99492)
(0.0492906 5.2884e-06 1.99489)
(1.31762 -2.5976e-05 2.73597)
(1.31765 -4.92377e-05 2.73602)
(1.31766 -6.03639e-05 2.73608)
(1.31767 -7.20877e-05 2.73615)
(1.31769 -6.54604e-05 2.73625)
(1.31766 -3.00981e-05 2.73626)
(0.854988 -3.48353e-06 2.00997)
(0.855014 -1.23612e-05 2.01002)
(0.85502 -2.58806e-05 2.01004)
(0.855029 -3.31467e-05 2.01007)
(0.855039 -2.80911e-05 2.0101)
(0.855015 -1.03017e-05 2.01007)
(0.23319 3.27702e-06 1.71527)
(0.233194 2.88524e-06 1.71531)
(0.233193 -2.60568e-06 1.71532)
(0.233192 -5.11665e-06 1.71534)
(0.233192 -4.16119e-06 1.71535)
(0.233182 -8.86175e-07 1.71533)
(0.25946 -3.69861e-08 0.0634014)
(0.259466 -1.09615e-07 0.0634023)
(0.259466 -6.48674e-07 0.0634022)
(0.259466 -6.1034e-07 0.0634021)
(0.259465 -8.18134e-07 0.063402)
(0.259459 -8.96223e-08 0.0634008)
(0.193655 -4.07941e-07 0.169304)
(0.193659 -8.43426e-07 0.169307)
(0.193659 -9.53224e-07 0.169307)
(0.193659 -1.05563e-06 0.169307)
(0.193659 -8.74667e-07 0.169307)
(0.193654 -2.90608e-07 0.169304)
(0.071303 -2.95819e-07 0.241828)
(0.0713042 -4.40256e-07 0.241833)
(0.0713044 -3.12431e-07 0.241833)
(0.0713044 -4.05464e-07 0.241834)
(0.0713044 -2.03339e-07 0.241834)
(0.0713028 2.52216e-09 0.241829)
(0.354933 1.38591e-07 0.0900763)
(0.354941 -1.70012e-07 0.0900778)
(0.354942 -9.83665e-07 0.0900779)
(0.354942 -4.18511e-07 0.0900776)
(0.354941 -4.84464e-07 0.0900774)
(0.354934 2.02832e-07 0.0900758)
(0.264153 1.53619e-07 0.241323)
(0.264158 -4.57851e-07 0.241328)
(0.264158 -1.19665e-06 0.241328)
(0.264158 -1.12778e-06 0.241328)
(0.264157 -4.00764e-07 0.241328)
(0.264151 1.72549e-07 0.241323)
(0.0967461 2.07481e-07 0.340262)
(0.0967476 -1.87294e-07 0.340268)
(0.096748 -6.68123e-07 0.340269)
(0.096748 -5.67889e-07 0.340269)
(0.0967479 8.11553e-08 0.340269)
(0.0967457 3.1677e-07 0.340262)
(0.493088 8.14739e-07 0.128443)
(0.4931 4.21373e-08 0.128446)
(0.493103 -1.96646e-06 0.128446)
(0.493103 -8.00791e-07 0.128446)
(0.493103 -5.15681e-07 0.128445)
(0.493092 3.90508e-07 0.128443)
(0.364376 9.78626e-07 0.341547)
(0.364384 1.2268e-07 0.341554)
(0.364385 -1.44352e-06 0.341554)
(0.364385 -1.04558e-06 0.341554)
(0.364385 -2.32861e-07 0.341553)
(0.364377 2.59916e-07 0.341547)
(0.12981 7.00951e-07 0.473213)
(0.129812 -3.52575e-08 0.473222)
(0.129813 -1.13609e-06 0.473223)
(0.129813 -7.69165e-07 0.473222)
(0.129813 -4.84968e-08 0.473222)
(0.12981 2.16414e-07 0.473212)
(0.659116 1.331e-07 0.176605)
(0.659134 -2.20658e-06 0.176607)
(0.659138 -5.54466e-06 0.176607)
(0.659141 -3.21076e-06 0.176607)
(0.659142 -2.48725e-06 0.176607)
(0.659129 -3.91721e-07 0.176603)
(0.498277 8.09905e-07 0.483315)
(0.498292 -1.09979e-06 0.483324)
(0.498294 -3.37643e-06 0.483325)
(0.498296 -2.71704e-06 0.483325)
(0.498297 -2.74729e-06 0.483325)
(0.498287 -1.39438e-06 0.483315)
(0.171135 1.14768e-06 0.652179)
(0.171139 6.37725e-08 0.652192)
(0.17114 -1.85829e-06 0.652193)
(0.171141 -1.66915e-06 0.652192)
(0.171141 -1.64776e-06 0.652191)
(0.171139 -9.16764e-07 0.652177)
(0.910869 -1.63396e-06 0.251368)
(0.910894 -4.01372e-06 0.251373)
(0.910897 -8.48867e-06 0.251374)
(0.910902 -7.02758e-06 0.251374)
(0.910906 -7.48874e-06 0.251375)
(0.910886 -2.55855e-06 0.251369)
(0.690564 -1.68919e-06 0.668256)
(0.690584 -5.34611e-06 0.668269)
(0.690588 -7.3845e-06 0.668271)
(0.690592 -7.05598e-06 0.668272)
(0.690595 -7.5921e-06 0.668274)
(0.69058 -3.99331e-06 0.668261)
(0.22273 6.2578e-07 0.886197)
(0.222737 -1.43108e-06 0.886215)