/*--------------------------------*- C++ -*----------------------------------*\
| =========                 |                                                 |
| \\      /  F ield         | OpenFOAM: The Open Source CFD Toolbox           |
|  \\    /   O peration     | Version:  v1612+                                |
|   \\  /    A nd           | Web:      www.OpenFOAM.com                      |
|    \\/     M anipulation  |                                                 |
\*---------------------------------------------------------------------------*/
FoamFile
{
    version     2.0;
    format      ascii;
    class       volScalarField;
    location    "9.3";
    object      p;
}
// * * * * * * * * * * * * * * * * * * * * * * * * * * * * * * * * * * * * * //

dimensions      [1 -1 -2 0 0 0 0];

internalField   nonuniform List<scalar> 
1116
(
6121.61
6128.07
6131.52
6128.83
6127.86
6135.3
6660.22
6668.17
6667.54
6664.64
6649.27
6671.89
7873.95
7884.42
7885.7
7876.6
7864.42
7888.34
9054.89
9059.93
9062.02
9056.58
9051.14
9066.19
10036.9
10042.3
10044.6
10041.6
10044.3
10068.3
10659.9
10648.3
10645.1
10651.7
10644.7
10617.5
11261.6
11254.4
11249.8
11248.2
11237.3
11218.8
11656
11655.3
11652.7
11648.6
11646.8
11648.3
12274.4
12276
12277.3
12275.6
12282.9
12297.7
13626.1
13635.2
13629.4
13626.5
13629.6
13630.9
13430.2
13470.6
13458.9
13451.6
13465.5
13467.6
13895.9
13891
13895.3
13896.2
13889.1
13899.8
1046.69
1053.44
1055.92
1054.63
1058.06
1059.26
1249.66
1262.88
1262.17
1249.71
1248.36
1260.31
1667.78
1681.92
1685.98
1671.03
1663.93
1679.92
2220.44
2230.37
2233.28
2221.55
2210.54
2227.04
2686.99
2685.14
2684.04
2692.41
2690.74
2687.12
3124.28
3118.13
3114.05
3126.96
3126.58
3120.88
3340.08
3339.44
3335.85
3335.58
3338.84
3332.18
3569
3563.17
3561.73
3558.41
3559.02
3551.4
4158.43
4156.62
4156.36
4144.65
4138.21
4158.48
4781.24
4810.31
4792.59
4768.58
4768.33
4791.86
5254.73
5322.58
5313.95
5311.36
5316.91
5339.76
8110.32
8101.56
8112.11
8118
8104.95
8117.38
-19.1867
-19.144
-19.2824
-19.4074
-19.2881
-19.5341
-19.6436
-19.484
-19.3753
-19.7082
-19.6321
-19.5299
-22.1528
-21.9228
-21.8104
-21.9182
-22.0326
-21.5013
-20.6104
-20.6115
-20.5394
-20.6207
-20.6475
-20.5449
-18.0466
-18.0825
-18.059
-18.1029
-18.1103
-18.0171
-22.4561
-22.1941
-22.204
-22.381
-22.5342
-21.7018
-53.8288
-53.1358
-53.1469
-53.8736
-54.5052
-52.0562
54.9564
55.5012
55.3429
54.4214
52.979
56.2561
334.678
335.149
334.529
334.867
335.118
335.528
733.117
731.896
733.631
746.187
761.523
732.003
1526.82
1630.03
1636.28
1634.97
1643.51
1642.57
5874.96
5869.65
5881.87
5897.9
5919.57
5837.89
-20.3042
-20.3536
-20.39
-20.3249
-20.2631
-20.5434
-20.4414
-20.4042
-20.4969
-20.4964
-20.3319
-20.7519
-20.1604
-20.1362
-20.2395
-20.1328
-20.0871
-20.465
-23.5305
-23.5633
-23.6158
-23.5084
-23.4007
-23.8461
-30.7385
-30.7613
-30.7972
-30.7123
-30.6463
-30.9167
-41.1844
-41.093
-41.1118
-41.0774
-41.074
-41.0194
-103.881
-103.122
-102.902
-103.605
-103.186
-102.895
-163.957
-163.314
-163.233
-164.117
-164.058
-163.683
-159.877
-161.755
-162.042
-161.126
-161.24
-161.869
-13.5006
-17.0767
-16.6223
-14.4736
-13.5669
-17.5497
225.602
217.059
220.056
225.921
229.376
217.443
1576.89
1555.54
1571.5
1589.53
1606.44
1560.18
1005.65
1006.75
994.146
940.857
923.351
928.001
1006.57
1001.94
956.338
924.917
890.522
887.251
1028.5
1012.26
963.03
953.537
920.175
933.121
1061.53
1015.39
1015.01
1018.28
946.405
1008.54
1114.37
1056.13
1060.16
1105.63
1004.65
1122.71
1162.23
1134.7
1166.89
1284.18
1232.95
1325.49
1220.99
1168.1
1281.9
1390.71
1475.82
1502.99
1109.52
1153.34
1128.26
1045.36
1145.71
1266.7
856.573
954.312
904.01
844.193
899.829
959.907
694.905
703.316
703.962
718.683
718.324
729.469
570.481
550.668
544.967
572.804
598.05
586.425
486.967
480.066
470.138
498.871
521.035
505.778
213.502
243.436
223.514
159.706
148.327
148.161
204.343
231.794
214.711
170.594
133.858
107.502
252.85
251.307
233.383
221.417
184.528
143.494
312.985
281.866
282.296
257.525
210.642
222.106
379.597
298.156
295.028
333.223
226.631
322.192
438.049
356.271
376.107
447.393
350.595
430.229
496.124
347.958
339.623
421.507
475.049
657.68
565.313
371.839
366.108
489.581
465.101
595.166
524.792
466.529
465.578
543.514
580.785
572.127
514.282
498.908
474.139
493.959
500.635
506.442
440.753
430.486
392.295
416.589
418.055
423.745
366.555
377.818
369.36
391.72
394.864
399.71
-22.0224
-23.0623
-24.9527
-26.7657
-23.438
-21.6492
-20.3769
-21.2645
-22.3937
-22.8039
-20.1022
-19.511
-12.8301
-16.4175
-16.0978
-18.0476
-17.3754
-17.2037
-5.34761
-7.47056
-11.3376
-14.193
-14.4444
-14.5901
-6.5351
-9.01219
-3.61312
-8.83464
-9.69405
-6.79899
2.34236
-4.09045
24.216
8.46535
-3.94781
-2.79468
27.43
27.7533
166.03
141.213
35.7031
75.692
78.5715
87.1103
92.3609
151.846
113.362
245.595
196.143
123.397
172.959
261.681
251.714
251.385
328.7
277.353
297.088
325.836
336.031
357.555
315.327
299.686
291.712
336.938
333.187
340.375
306.738
302
299.182
305.015
311.219
324.449
-32.3788
-32.5249
-33.3691
-33.1622
-32.0991
-30.9961
-31.514
-31.1546
-31.9234
-32.6142
-31.1851
-29.7338
-32.7855
-32.3268
-31.8503
-31.3091
-30.9839
-30.0105
-35.2884
-36.2364
-33.7718
-31.93
-32.0491
-30.8765
-37.9275
-42.4998
-34.9425
-34.1119
-35.8269
-34.4595
-41.5686
-50.0782
-37.2833
-38.983
-41.2363
-41.888
-39.786
-50.1695
-35.854
-37.6052
-41.855
-41.583
-25.0181
-31.1711
5.1276
-5.2927
-26.2252
-32.3933
18.8689
10.3605
57.4867
114.912
54.5637
13.7369
75.1971
46.241
98.1473
132.379
127.193
110.818
163.032
132.637
129.375
135.718
134.03
164.259
184.399
162.014
128.392
120.669
128.656
145.093
-43.6903
-43.9092
-44.1532
-43.9365
-43.7487
-44.1779
-52.2883
-51.8272
-51.8507
-51.7741
-52.2151
-51.9351
-70.3435
-69.646
-69.6992
-69.9707
-70.715
-70.9208
-44.3584
-44.4908
-44.5287
-44.3857
-44.3175
-44.3819
-57.4773
-57.6079
-57.6034
-57.5176
-57.4859
-57.3526
-74.7064
-74.3652
-74.2174
-74.6317
-75.1416
-75.136
-45.4655
-45.4513
-45.4601
-45.4514
-45.446
-45.4589
-57.3597
-57.3686
-57.363
-57.3584
-57.3667
-57.3842
-72.8511
-72.8538
-72.8469
-72.8558
-72.8781
-72.8817
-50.098
-50.0786
-50.0813
-50.0522
-50.07
-50.0378
-61.5968
-61.6096
-61.6125
-61.6058
-61.626
-61.6247
-76.0055
-76.0022
-75.9986
-76.0127
-76.0458
-76.0171
-57.6538
-57.6332
-57.6273
-57.5422
-57.5496
-57.5365
-67.6808
-67.6968
-67.7064
-67.6572
-67.6702
-67.674
-79.0131
-79.0274
-79.018
-79.0067
-79.0046
-78.9885
-69.9212
-69.8133
-69.8262
-69.4466
-69.3694
-69.5495
-77.6518
-77.6953
-77.7894
-77.5819
-77.5869
-77.505
-83.1257
-83.1347
-83.1306
-83.1156
-83.1202
-83.0972
-113.75
-113.502
-113.531
-114.04
-114.035
-113.601
-100.701
-100.656
-100.851
-100.961
-100.941
-101.002
-88.7004
-89.2071
-89.0225
-89.0037
-88.9474
-89.4068
-170.013
-171.015
-170.867
-170.705
-171.942
-172.225
-125.608
-125.667
-126.904
-126.056
-126.893
-126.266
-83.3271
-83.9969
-83.7921
-83.6714
-83.9075
-84.727
-179.083
-180.013
-181.334
-181.862
-182.78
-181.087
-98.7285
-97.7553
-100.011
-99.7743
-99.8827
-97.8104
-70.9414
-71.4894
-71.7132
-70.8722
-71.8277
-72.1188
-66.3306
-75.9872
-77.2652
-77.3924
-80.1258
-79.7064
-53.8039
-58.9233
-58.5079
-57.5001
-59.7446
-60.4631
-63.71
-63.5721
-64.2419
-64.0772
-64.203
-63.1122
29.3871
17.3347
20.7244
22.8103
21.4696
18.8792
-36.2108
-38.0746
-36.2258
-35.4535
-35.3749
-36.3201
-56.3288
-54.5064
-54.0748
-54.8855
-54.2122
-53.5712
469.317
303.047
367.721
439.094
412.135
357.372
-99.7994
-95.0045
-89.4853
-87.0456
-85.7992
-85.3537
-82.1236
-74.6163
-73.2892
-76.173
-72.2279
-70.9307
59.3177
54.3987
45.3359
42.0509
40.3098
37.8206
-48.1175
-49.4502
-50.9779
-51.8549
-51.6094
-51.0383
-64.4794
-65.5975
-67.3505
-68.1105
-67.3818
-66.1184
56.6671
55.4647
52.8944
50.9365
49.9244
52.4792
-45.9268
-46.3141
-47.0148
-47.8742
-47.4002
-46.8675
-62.9436
-63.2208
-63.5228
-63.4409
-62.9735
-63.0316
73.1422
72.7513
71.3024
70.6465
69.9336
69.4171
-44.6321
-45.0213
-45.3932
-45.4519
-45.0448
-44.469
-61.7212
-61.7496
-61.7152
-61.4082
-61.0729
-61.0324
117.525
119.454
117.946
118.337
118.725
117.241
-36.3789
-36.842
-37.2243
-36.7884
-36.562
-36.82
-62.1272
-62.0419
-61.9784
-61.7657
-61.5502
-61.5597
266.378
273.296
269.674
264.778
263.683
270.998
-11.7658
-12.0337
-13.1178
-9.65141
-9.29823
-13.975
-63.7689
-63.4151
-63.4083
-63.342
-63.1226
-62.9966
372.374
386.107
389.979
376.552
373.718
392.244
-43.9418
-32.5082
-31.5587
-35.5776
-32.7261
-30.4055
-65.3688
-66.2232
-66.004
-65.2613
-64.9538
-65.476
-42.5636
-42.4164
-41.2326
-40.7598
-41.0967
-41.5158
-53.4936
-53.383
-52.9425
-53.1659
-53.2208
-53.2604
-64.3627
-64.4491
-64.1381
-64.3457
-64.4779
-64.4798
-42.7905
-42.5038
-42.219
-42.2743
-41.9916
-41.9938
-53.9039
-53.8568
-53.8666
-53.8419
-53.7845
-53.6879
-65.0641
-65.1559
-65.0489
-65.0898
-65.1862
-65.1395
-44.1686
-43.0545
-42.15
-42.1837
-42.1893
-42.4257
-54.2989
-54.1253
-53.9832
-53.9664
-53.9291
-53.9647
-65.3523
-65.5137
-65.3789
-65.4658
-65.526
-65.4469
-44.6518
-43.8268
-42.8325
-41.8981
-42.4687
-42.3175
-54.0111
-54.0113
-54.0208
-54.0053
-54.219
-54.1256
-65.6884
-66.0349
-66.0155
-66.0554
-66.0724
-65.7803
-43.8166
-44.5646
-43.7509
-42.3106
-43.8359
-42.7242
-52.3403
-52.8091
-53.4961
-53.7651
-54.0114
-52.9406
-66.1341
-66.7269
-66.9128
-66.8295
-66.6452
-65.9777
-42.2923
-46.1919
-45.2438
-44.2914
-45.9978
-44.5927
-49.6291
-50.9645
-52.5363
-53.522
-54.3376
-53.2574
-66.9626
-67.9091
-68.3395
-68.2764
-68.0796
-67.3271
-40.9031
-46.822
-46.8757
-47.5801
-49.3258
-49.5226
-48.2325
-50.2174
-52.9933
-55.1266
-56.7593
-56.5279
-68.407
-69.4625
-71.1351
-70.4181
-69.7416
-68.9548
-42.1403
-45.8644
-39.8399
-34.2303
-45.7885
-49.1304
-57.7751
-61.2798
-65.7716
-68.2038
-69.2842
-67.0751
-73.4153
-76.5566
-79.4454
-80.0324
-77.3713
-75.4582
-18.5538
-46.0051
-34.8431
-27.7632
-39.9606
-45.454
-65.3861
-78.1821
-88.8399
-88.4689
-81.9594
-73.7453
-80.406
-80.8327
-88.8089
-89.9009
-88.2633
-85.2014
5.39338
-34.7454
-16.5998
-2.55119
-8.42804
-32.2493
-54.379
-70.5421
-70.1596
-70.2764
-68.4631
-72.6085
-84.8114
-86.8983
-89.362
-93.5457
-89.7188
-83.9779
35.4662
-1.84059
11.3312
15.588
7.8311
17.7298
-46.152
-56.7239
-49.2179
-47.6537
-50.4555
-55.8243
-76.6443
-77.5244
-76.606
-76.7942
-75.7106
-78.0268
57.3768
35.3547
8.96997
4.45094
16.5034
24.6212
-47.332
-54.3987
-62.452
-61.4526
-56.0851
-50.6819
-67.3228
-69.5648
-72.3404
-72.6935
-70.9263
-68.8601
)
;

boundaryField
{
    seabed_topleft_surface
    {
        type            calculated;
        value           nonuniform List<scalar> 
72
(
9769.38
9784.07
9793.97
9765.75
9753.58
9795.41
10564.9
10580.6
10588.4
10574.2
10563.2
10593.6
12450
12468.1
12472.9
12453.5
12436.9
12476.6
13767
13772.1
13774
13768.5
13763
13778
14749
14754.4
14756.5
14753.5
14756.1
14779.8
15371.5
15359.8
15356.5
15363
15355.9
15328.3
15972.4
15965.1
15960.4
15958.7
15947.8
15929.2
16365.9
16365.8
16363
16357.7
16349.3
16358.7
16434.4
16419.1
16430
16422.9
16437.8
16455.4
17432.6
17441.1
17435.8
17433.6
17437.6
17437.9
17238.2
17278.3
17267.2
17260.6
17274.8
17276.5
17263.5
17226.2
17249
17261.1
17226.5
17249.7
)
;
    }
    seabed_topright_surface
    {
        type            calculated;
        value           nonuniform List<scalar> 
72
(
1491.25
1493.12
1480.36
1427.45
1409.26
1412.69
1492.94
1488.91
1443.22
1411.56
1376.32
1369.83
1515.5
1499.78
1450.35
1440.89
1407.62
1420.49
1548.72
1502.74
1502.23
1505.58
1433.79
1495.85
1601.44
1543.3
1466.26
1512.42
1491.95
1609.7
1649.16
1621.76
1426.1
1691.12
1719.94
1811.79
1707.8
1655.07
1769.06
1641.27
1919.45
1988.62
1444.52
1583.59
1440.79
1103.49
1273.03
1533.11
983.506
1116.62
1065.07
887.941
944.845
1152.26
725.07
777.539
845.116
763.625
768.213
905.118
628.144
572.262
637.144
697.261
698.913
750.307
545.519
504.036
554.303
624.893
649.364
634.185
)
;
    }
    breakwater_top_surface
    {
        type            calculated;
        value           nonuniform List<scalar> 
36
(
159.623
155.188
143.97
138.128
134.202
128.703
156.894
156.967
154.422
149.529
141.87
149.726
180.746
180.311
178.31
177.752
177.097
176.58
221.78
223.391
222.181
221.832
222.2
221.375
371.95
380.696
376.202
371.508
371.464
377.61
847.311
809.065
821.52
864.32
863.145
809.204
)
;
    }
    breakwater_left_surface
    {
        type            calculated;
        value           nonuniform List<scalar> 
24
(
13907.4
13902.4
13906.8
13907.7
13900.5
13911.3
8119.13
8110.21
8120.8
8126.76
8113.57
8126.09
5883.61
5878.25
5890.42
5906.51
5928.12
5846.44
1584.72
1563.03
1579.1
1597.28
1614.02
1567.77
)
;
    }
    breakwater_right_surface
    {
        type            calculated;
        value           nonuniform List<scalar> 
24
(
487.167
480.148
470.426
499.302
521.474
506.218
366.666
377.875
369.395
391.756
394.902
399.749
306.774
302.035
299.221
305.12
311.352
324.519
184.5
162.091
128.498
120.83
128.817
145.238
)
;
    }
    water_front_surface
    {
        type            calculated;
        value           nonuniform List<scalar> 
186
(
6121.61
6660.22
7873.95
9054.89
10036.9
10659.9
11261.6
11656
12274.4
13626.1
13430.2
13895.9
1046.69
1249.66
1667.78
2220.44
2686.99
3124.28
3340.08
3569
4158.43
4781.24
5254.73
8110.32
-19.1867
-19.6436
-22.1528
-20.6104
-18.0466
-22.4561
-53.8288
54.9564
334.678
733.117
1526.82
5874.96
-20.3042
-20.4414
-20.1604
-23.5305
-30.7385
-41.1844
-103.881
-163.957
-159.877
-13.5006
225.602
1576.89
1005.65
1006.57
1028.5
1061.53
1114.37
1162.23
1220.99
1109.52
856.573
694.905
570.481
486.967
213.502
204.343
252.85
312.985
379.597
438.049
496.124
565.313
524.792
514.282
440.753
366.555
-22.0224
-20.3769
-12.8301
-5.34761
-6.5351
2.34236
27.43
78.5715
196.143
328.7
315.327
306.738
-32.3788
-31.514
-32.7855
-35.2884
-37.9275
-41.5686
-39.786
-25.0181
18.8689
75.1971
163.032
184.399
-43.6903
-52.2883
-70.3435
-44.3584
-57.4773
-74.7064
-45.4655
-57.3597
-72.8511
-50.098
-61.5968
-76.0055
-57.6538
-67.6808
-79.0131
-69.9212
-77.6518
-83.1257
-113.75
-100.701
-88.7004
-170.013
-125.608
-83.3271
-179.083
-98.7285
-70.9414
-66.3306
-53.8039
-63.71
29.3871
-36.2108
-56.3288
469.317
-99.7994
-82.1236
59.3177
-48.1175
-64.4794
56.6671
-45.9268
-62.9436
73.1422
-44.6321
-61.7212
117.525
-36.3789
-62.1272
266.378
-11.7658
-63.7689
372.374
-43.9418
-65.3688
-42.5636
-53.4936
-64.3627
-42.7905
-53.9039
-65.0641
-44.1686
-54.2989
-65.3523
-44.6518
-54.0111
-65.6884
-43.8166
-52.3403
-66.1341
-42.2923
-49.6291
-66.9626
-40.9031
-48.2325
-68.407
-42.1403
-57.7751
-73.4153
-18.5538
-65.3861
-80.406
5.39338
-54.379
-84.8114
35.4662
-46.152
-76.6443
57.3768
-47.332
-67.3228
)
;
    }
    water_back_surface
    {
        type            calculated;
        value           nonuniform List<scalar> 
186
(
6135.3
6671.89
7888.34
9066.19
10068.3
10617.5
11218.8
11648.3
12297.7
13630.9
13467.6
13899.8
1059.26
1260.31
1679.92
2227.04
2687.12
3120.88
3332.18
3551.4
4158.48
4791.86
5339.76
8117.38
-19.5341
-19.5299
-21.5013
-20.5449
-18.0171
-21.7018
-52.0562
56.2561
335.528
732.003
1642.57
5837.89
-20.5434
-20.7519
-20.465
-23.8461
-30.9167
-41.0194
-102.895
-163.683
-161.869
-17.5497
217.443
1560.18
928.001
887.251
933.121
1008.54
1122.71
1325.49
1502.99
1266.7
959.907
729.469
586.425
505.778
148.161
107.502
143.494
222.106
322.192
430.229
657.68
595.166
572.127
506.442
423.745
399.71
-21.6492
-19.511
-17.2037
-14.5901
-6.79899
-2.79468
75.692
245.595
251.385
357.555
340.375
324.449
-30.9961
-29.7338
-30.0105
-30.8765
-34.4595
-41.888
-41.583
-32.3933
13.7369
110.818
164.259
145.093
-44.1779
-51.9351
-70.9208
-44.3819
-57.3526
-75.136
-45.4589
-57.3842
-72.8817
-50.0378
-61.6247
-76.0171
-57.5365
-67.674
-78.9885
-69.5495
-77.505
-83.0972
-113.601
-101.002
-89.4068
-172.225
-126.266
-84.727
-181.087
-97.8104
-72.1188
-79.7064
-60.4631
-63.1122
18.8792
-36.3201
-53.5712
357.372
-85.3537
-70.9307
37.8206
-51.0383
-66.1184
52.4792
-46.8675
-63.0316
69.4171
-44.469
-61.0324
117.241
-36.82
-61.5597
270.998
-13.975
-62.9966
392.244
-30.4055
-65.476
-41.5158
-53.2604
-64.4798
-41.9938
-53.6879
-65.1395
-42.4257
-53.9647
-65.4469
-42.3175
-54.1256
-65.7803
-42.7242
-52.9406
-65.9777
-44.5927
-53.2574
-67.3271
-49.5226
-56.5279
-68.9548
-49.1304
-67.0751
-75.4582
-45.454
-73.7453
-85.2014
-32.2493
-72.6085
-83.9779
17.7298
-55.8243
-78.0268
24.6212
-50.6819
-68.8601
)
;
    }
    water_left_surface
    {
        type            calculated;
        value           nonuniform List<scalar> 
42
(
6134.1
6140.6
6144.06
6141.29
6140.28
6147.84
1050.18
1056.96
1059.45
1058.16
1061.58
1062.81
-19.1705
-19.1277
-19.2662
-19.3912
-19.2718
-19.5179
-20.2869
-20.3371
-20.3736
-20.308
-20.2459
-20.5271
-43.6903
-43.9092
-44.1532
-43.9365
-43.7487
-44.1779
-52.2883
-51.8272
-51.8507
-51.7741
-52.2151
-51.9351
-70.3435
-69.646
-69.6992
-69.9707
-70.715
-70.9208
)
;
    }
    water_right_surface
    {
        type            calculated;
        value           nonuniform List<scalar> 
42
(
1007.31
1008.42
995.811
942.524
925.015
929.661
214.257
244.299
224.341
160.277
148.865
148.692
-22.0062
-23.0462
-24.9357
-26.7495
-23.4219
-21.633
-32.363
-32.509
-33.3533
-33.1463
-32.0832
-30.9803
-42.5636
-42.4164
-41.2326
-40.7598
-41.0967
-41.5158
-53.4936
-53.383
-52.9425
-53.1659
-53.2208
-53.2604
-64.3627
-64.4491
-64.1381
-64.3457
-64.4779
-64.4798
)
;
    }
    water_top_surface
    {
        type            calculated;
        value           nonuniform List<scalar> 
180
(
-77.554
-70.6928
-71.3222
-69.1637
-77.2033
-77.0525
-81.4027
-81.0335
-80.8758
-81.2777
-81.6454
-81.4563
-78.5723
-78.5999
-78.6191
-78.6155
-78.6411
-78.6929
-81.9368
-81.9608
-81.9681
-81.9521
-82.0344
-81.9488
-84.0873
-84.1299
-84.1279
-84.1112
-84.1376
-84.1108
-87.3839
-87.3104
-87.296
-87.3427
-87.356
-87.1806
-89.4563
-90.213
-90.2695
-90.0474
-89.8356
-89.8831
-75.084
-82.9911
-80.1956
-77.1461
-76.9888
-83.109
-68.982
-69.3784
-68.9643
-68.9628
-68.8671
-69.814
-68.956
-68.7248
-68.9308
-68.9299
-68.8475
-68.6751
-69.8406
-69.6185
-69.5447
-69.8156
-70.645
-69.6481
-71.6265
-71.3946
-71.3352
-72.0371
-72.2837
-71.3896
-68.6757
-68.698
-70.0158
-71.4134
-70.1633
-68.689
-68.6757
-68.6757
-68.7148
-68.7834
-68.7594
-68.6786
-68.6757
-68.6757
-68.7112
-68.7549
-68.7171
-68.6786
-68.7098
-68.7141
-68.7496
-68.792
-68.7517
-68.7032
-70.8118
-70.5408
-70.4378
-71.5808
-71.7997
-70.0702
-71.3953
-76.5738
-73.8666
-71.8017
-73.0298
-74.0975
-69.883
-70.0602
-69.3007
-70.0071
-70.3815
-70.179
-70.9479
-71.1246
-71.232
-71.3058
-71.2745
-71.0669
-70.8245
-71.1216
-71.3079
-71.5086
-71.4838
-71.337
-70.6865
-71.1462
-71.7077
-72.1047
-72.0376
-71.5792
-70.5126
-71.4132
-72.3525
-72.9326
-72.6607
-71.6067
-70.9765
-72.9482
-74.1289
-74.6056
-73.9665
-72.1423
-72.4584
-76.5969
-79.8575
-77.2493
-74.9189
-72.0085
-75.5853
-82.1065
-73.5292
-81.4243
-75.6524
-71.5352
-72.1716
-70.0169
-97.6352
-93.8947
-85.1731
-69.5696
-99.8785
-89.581
-77.3411
-104.418
-101.58
-68.698
-111.915
-82.9189
-70.4978
-71.2471
-71.7354
-70.7859
-68.7099
-68.7716
-70.008
-70.786
-69.4857
-68.7171
)
;
    }
}


// ************************************************************************* //
