/*--------------------------------*- C++ -*----------------------------------*\
| =========                 |                                                 |
| \\      /  F ield         | OpenFOAM: The Open Source CFD Toolbox           |
|  \\    /   O peration     | Version:  v1612+                                |
|   \\  /    A nd           | Web:      www.OpenFOAM.com                      |
|    \\/     M anipulation  |                                                 |
\*---------------------------------------------------------------------------*/
FoamFile
{
    version     2.0;
    format      ascii;
    class       surfaceScalarField;
    location    "9.3";
    object      phi;
}
// * * * * * * * * * * * * * * * * * * * * * * * * * * * * * * * * * * * * * //

dimensions      [0 3 -1 0 0 0 0];

internalField   nonuniform List<scalar> 
2916
(
-0.00576366
-0.0434676
0.0492313
0.00416961
-0.0650713
0.0551381
0.023879
-0.0709808
0.0512715
0.0114091
-0.0293632
0.0418331
-0.0233848
-0.00944203
0.0442359
-0.0682086
0.0448239
0.00267158
-0.130701
0.0845619
0.00266209
-0.145571
0.0805096
-0.00152776
-0.150158
0.0833665
0.000463883
-0.128247
0.0968922
-0.0083817
-0.116028
0.115431
-0.156264
0.0796741
0.00103237
-0.130289
-0.00144464
-0.00055044
-0.137267
-0.00672127
-0.00677496
-0.139209
-0.00472436
-0.00401894
-0.132088
0.00108472
-0.00181632
-0.127364
0.00913371
-0.149904
-0.00817664
-0.00263499
-0.0792844
-0.0483694
-0.00224138
-0.0847415
-0.0529194
-0.00365554
-0.0855668
-0.0522277
-0.00479905
-0.0810099
-0.0499343
-0.00418994
-0.0781983
-0.0497748
-0.0960744
-0.0580196
-0.00262847
0.0066204
-0.0832763
-0.00158261
-0.000135511
-0.0856519
-0.000730547
-0.000619051
-0.0857997
-0.00309389
0.00613388
-0.0847804
-0.00559014
0.0101887
-0.0858908
-0.00961195
-0.0920527
-0.000694662
0.11538
-0.108065
-0.000303151
0.108973
-0.1095
0.000570497
0.108656
-0.110148
-0.000308146
0.115115
-0.108102
-0.00211581
0.120167
-0.108171
0.1027
-0.114427
0.00111376
0.212137
-0.0978709
0.000220964
0.208102
-0.0982361
0.000770027
0.20725
-0.0991433
0.000334315
0.212712
-0.0971614
-0.00106017
0.217816
-0.0962541
0.202179
-0.100539
0.00277502
0.305184
-0.0958221
-0.000102983
0.305613
-0.094633
-0.00138066
0.304487
-0.0959594
-0.000454776
0.305893
-0.0941065
0.00110262
0.305854
-0.0895951
0.301783
-0.0985013
-0.00145531
0.323717
-0.0170776
-0.000389447
0.321505
-0.0169579
-0.000267668
0.321701
-0.0173354
-0.00270306
0.324476
-0.0161478
-0.00353555
0.321636
-0.0149502
0.319501
-0.0212537
-0.00864937
0.189733
0.142634
-0.000740443
0.172285
0.141312
0.00205469
0.173862
0.145043
-0.00157338
0.191453
0.13665
-0.00494972
0.195486
0.129526
0.166855
0.147696
-0.0084211
-0.146977
0.345131
-8.26077e-05
-0.171314
0.33526
0.00172331
-0.167322
0.339379
0.000138015
-0.144115
0.337154
0.00185176
-0.135614
0.329386
-0.173844
0.342551
0.021336
-0.168313
-0.000265894
-0.149712
-0.00579055
-0.161798
0.0134516
-0.163357
0.0184741
-0.140636
-0.15537
0.0214734
0.0276658
9.20418e-05
-0.0345726
0.0747078
0.0364762
-0.112321
0.0788205
0.0501994
-0.0496906
-0.0200057
-0.000791502
0.0705393
-0.0529788
-0.0230153
0.0646003
0.0507629
5.2429e-05
0.0945229
0.0176523
0.0104766
0.122216
0.0225771
0.0383149
0.118806
0.0155429
0.0155463
0.0883804
0.0112746
-0.0222239
0.0897399
0.0104829
0.113945
0.00810574
-0.0135655
0.155175
-0.0485314
0.0105415
0.174243
-0.0828549
0.0561833
0.166378
-0.0979385
0.0255314
0.160992
-0.0408749
-0.032474
0.171841
-0.014962
0.173943
-0.100649
-0.0115635
0.353127
-0.234758
0.00279781
0.366342
-0.25938
0.0251241
0.362737
-0.270912
0.0106181
0.360865
-0.235301
-0.0136191
0.370647
-0.224343
0.377661
-0.275357
-0.00615997
0.64768
-0.371669
-0.000327058
0.65721
-0.382353
0.00296937
0.657652
-0.384012
-0.000569814
0.651658
-0.372034
2.76783e-05
0.655543
-0.371384
0.672931
-0.387295
-0.00466328
0.931353
-0.387074
-0.000894562
0.937424
-0.393482
0.000181045
0.939385
-0.392957
-0.0016521
0.931848
-0.386459
0.00142696
0.93043
-0.386137
0.94955
-0.389619
-0.0026168
1.13002
-0.293925
-0.00138349
1.13578
-0.297824
-9.06272e-05
1.13707
-0.298123
-0.00113382
1.13031
-0.294583
0.00158181
1.12452
-0.293061
1.1435
-0.292905
0.00339267
1.19266
-0.161853
-0.00121612
1.20215
-0.156393
-0.00201162
1.20004
-0.158127
0.000297278
1.19577
-0.161873
0.00431586
1.19321
-0.162305
1.20269
-0.153381
0.00266212
1.12155
0.0513755
-0.0010241
1.13361
0.055265
-0.000168386
1.12808
0.0537598
1.03147e-05
1.13041
0.0490304
-0.00221067
1.13481
0.0456744
1.12521
0.0540193
-0.00341397
0.839002
0.428592
0.000273357
0.855432
0.415803
0.00547395
0.843046
0.42488
-0.00194784
0.857151
0.417335
-0.0171037
0.871436
0.408055
0.827598
0.428205
-0.00592116
0.314739
0.875315
-0.000571183
0.309747
0.875595
0.0038549
0.305469
0.87253
-0.00581421
0.336729
0.867246
-0.0292218
0.345638
0.878592
0.288096
0.852832
0.0161512
0.130275
-0.00450557
0.180693
-0.0185426
0.157709
0.0120856
0.142744
0.0392533
0.177834
0.17198
0.0418893
1.05379
-1.09559
0.0363514
1.10024
-1.05822
-0.0692762
1.15931
-1.00349
-0.0396161
1.04429
-1.07474
0.166254
0.960004
-1.18889
1.17449
-0.957476
-0.00548957
2.7913
-1.71436
0.00935735
2.81245
-1.70448
0.00232534
2.84845
-1.66657
0.00910877
2.7733
-1.72452
0.13038
2.70872
-1.85951
2.87986
-1.56688
-0.0264106
4.72017
-1.95099
0.0104423
4.73092
-2.03818
0.0250121
4.7651
-2.02915
0.0423125
4.70008
-1.98496
0.0918703
4.6336
-1.9894
4.85345
-1.98237
-0.00520779
6.9016
-2.41098
0.0152674
6.91154
-2.46047
0.0329611
6.93615
-2.45966
0.0468606
6.87942
-2.42854
0.105506
6.8034
-2.45279
7.06738
-2.38377
0.00916591
9.45725
-2.93648
0.0201442
9.47828
-2.96007
0.0269059
9.49688
-2.95151
0.0443434
9.43995
-2.95001
0.0953332
9.3621
-2.98107
9.64909
-2.87368
0.00308083
12.5783
-3.51122
0.0199306
12.5785
-3.51053
0.0231128
12.5973
-3.49654
0.0363138
12.5649
-3.52461
0.0484327
12.4938
-3.52995
12.7533
-3.44535
-0.0285716
15.2075
-2.89449
0.00902032
15.2256
-2.98252
0.038058
15.2398
-2.9697
0.0215773
15.1986
-2.91178
-0.0186675
15.1768
-2.93583
15.3546
-2.91293
-0.0185852
13.201
1.86315
0.055008
13.1883
1.80725
0.145337
13.2059
1.78549
0.061051
13.2773
1.84373
-0.205109
13.4678
1.81287
13.1893
1.80681
0.00516431
6.86885
6.3784
0.0512214
6.82477
6.37278
0.089148
6.8493
6.37241
0.0173393
6.94781
6.45029
-0.114604
7.10255
6.54285
6.79337
6.33536
-0.0171723
2.90546
4.40915
-0.00885272
2.87047
4.36178
-0.00357115
2.87424
4.39466
-0.0279061
2.94543
4.44405
-0.0196918
3.01618
4.48621
2.81341
4.38847
-0.0395168
0.745967
3.07433
-0.0184054
0.745008
2.97995
-0.00304681
0.730545
3.00087
-0.025543
0.762046
3.07313
-0.0383926
0.793828
3.1138
0.682089
2.94576
0.00812029
0.868122
-0.00171642
0.935537
-0.0197778
0.906316
0.000184716
0.884828
0.0576819
0.914165
0.911751
0.0520998
-0.404066
-0.743626
0.0648156
-0.459819
-0.611122
0.007896
-0.440706
-0.505862
-0.00809799
-0.399877
-0.658873
0.0322366
-0.401915
-0.827309
-0.485168
-0.440072
0.000362873
-0.0925414
-2.02625
-0.00252005
-0.122127
-2.03929
0.0378398
-0.153686
-1.99395
0.0207265
-0.0905323
-2.01676
-0.0171853
-0.0689741
-2.15454
-0.1898
-1.87944
0.022762
-0.0351629
-2.03113
0.0244572
-0.0502574
-2.11175
-0.0284951
-0.0392363
-2.09065
0.0167158
-0.0458453
-2.07486
0.099591
-0.0565529
-2.0847
0.00498544
-2.07757
0.00420986
0.0294727
-2.47983
-0.0168832
0.0169094
-2.50655
-0.0418993
0.020426
-2.4943
-0.0339689
0.0163584
-2.49867
-0.0036166
-0.000845545
-2.53885
0.0657298
-2.44813
-0.0108487
0.239053
-3.13522
-0.021609
0.214215
-3.14662
-0.0486145
0.232634
-3.13671
-0.0433975
0.2103
-3.14916
-0.0167363
0.171552
-3.18012
0.268227
-3.09291
-0.0193143
0.792704
-4.04556
-0.0192313
0.740077
-4.03648
-0.0475519
0.784438
-4.02002
-0.0258669
0.730503
-4.0665
0.00220724
0.677194
-4.06367
0.822165
-3.99708
-0.09769
3.25786
-5.26195
-0.0177395
3.12086
-5.44326
0.0443378
3.14927
-5.39661
-0.00672556
3.16675
-5.29696
-0.0311503
3.08885
-5.32306
3.21578
-5.3377
-0.195686
6.41038
-1.09369
0.0470451
6.29497
-1.60959
0.26633
6.3003
-1.58483
0.043092
6.42123
-1.18751
-0.133753
6.447
-1.36843
6.32409
-1.43526
0.0337259
6.41963
6.33543
0.0672828
6.39082
6.24338
0.112886
6.38122
6.24588
0.0443963
6.55318
6.38683
-0.0875616
6.72069
6.40112
6.35882
6.21307
0.0518581
3.95908
6.81785
-0.00798454
3.92011
6.89232
-0.0343309
3.92223
6.87999
-0.0275589
4.01953
6.97093
0.0306362
4.12048
7.02822
3.88658
6.89135
0.0307938
0.828834
6.17378
-0.0592247
0.896416
6.09366
-0.0785341
0.842348
6.10006
-0.0561423
0.882983
6.18728
0.0465501
0.936375
6.19521
0.796857
6.08203
0.00405004
1.69291
0.0034675
1.83253
-0.00365487
1.75579
-0.00508556
1.76924
0.0263028
1.81915
1.73491
0.0977665
0.36388
-0.461647
-0.0311684
0.38086
-0.251925
-0.176857
0.364635
-0.218946
-0.397594
0.374136
-0.153399
-0.350201
0.263788
-0.311182
0.255497
-0.605698
0.128941
0.695159
-0.46022
-0.013589
0.667236
-0.143846
-0.0249013
0.553305
-0.177358
-0.082526
0.437537
-0.00577652
-0.255048
0.506448
-0.070138
0.553677
-0.553228
0.122975
0.859212
-0.287029
-0.0200464
0.991392
-0.181134
0.146208
0.639735
-0.252684
0.149079
0.384098
0.0505678
-0.227739
0.782157
0.101108
0.733666
-0.407727
0.358003
0.870789
-0.36958
0.267074
1.07016
0.0121633
0.183716
0.406375
0.316718
-0.0307413
0.444708
0.153848
-0.33287
1.03321
0.051079
0.877431
-0.476635
0.51853
0.863222
-0.510962
0.523251
0.850367
0.215069
-0.0457564
0.0830005
0.892382
-0.31711
0.474261
0.2418
-0.437102
1.23562
-0.0824236
1.10543
-0.665099
0.486019
0.929266
-0.552063
0.522214
0.596688
0.217483
-0.152985
-0.0605745
0.818775
-0.48421
0.664207
0.141278
-0.496191
1.59187
-0.344264
1.32792
-0.718682
0.654881
0.966866
-0.692481
0.97811
0.416779
-0.14332
0.999192
-0.193581
0.111925
-0.340943
1.66777
0.336576
-0.777856
2.35423
-0.325447
1.26067
-0.710605
0.246437
1.1972
-0.47677
0.82554
0.368235
-0.53056
1.09767
-0.284274
-0.181439
-0.869296
2.28595
1.34879
-1.30076
2.51864
0.267046
0.519133
-0.559221
-0.829727
1.61672
0.410204
-0.481918
0.529509
-0.509083
0.164927
-0.554181
-0.376938
-0.646575
1.37172
1.72573
-0.856786
1.35331
1.37554
-0.233423
-0.10423
-0.592058
0.837792
1.37099
-1.57297
0.989986
0.520434
-1.5213
-0.703924
0.0980716
-0.542381
-0.442659
0.835464
0.0687693
-0.452046
1.19421
-0.5219
0.357246
-0.0159103
-0.0282884
0.88199
-1.2586
0.561382
1.67129
-1.72845
-0.537775
0.303702
-0.838646
-0.8416
-0.490865
0.251762
-0.834416
-0.708038
-0.381654
0.111516
0.210771
-0.239059
-0.448217
1.22037
-0.887483
-0.0985094
-0.488931
-1.24015
-0.00894127
-1.31441
-0.390595
0.131817
0.281112
-0.874575
-0.19011
0.211557
-0.141556
-1.12562
0.052123
0.664442
-1.02357
0.228971
-0.484417
-0.226556
0.289323
-1.39752
0.296914
-1.12917
-0.134889
0.57475
-0.61897
-0.523069
0.45747
-0.00157898
-1.29489
0.216102
0.430482
-0.743515
0.378629
-0.706808
0.230949
0.544714
-1.29999
0.583297
-0.608662
-0.429109
0.718628
-0.00179765
-0.506613
0.704681
-0.350841
-0.628508
0.426503
-0.34119
-0.373228
0.420468
-0.246551
0.327488
0.706649
-0.761543
0.756537
-0.253479
-0.414856
0.920309
-0.156404
-0.447845
0.888711
-0.138878
-0.154245
0.605946
-0.156324
0.109609
0.619199
-0.308737
0.314776
0.729087
-0.176526
0.759437
-0.16476
-0.354927
1.23683
-0.472553
-0.421868
1.06041
0.110309
-0.264645
0.722489
0.618616
0.3726
1.14298
-0.919229
0.494644
1.00194
-0.47732
0.887708
-0.298726
-0.452898
1.66398
-0.526314
-0.554631
1.51826
-0.138633
-0.611433
1.1291
0.468966
-0.0587377
1.63383
-0.902262
0.487226
1.62945
-1.51774
1.38398
-0.727732
-0.30216
1.85595
-0.582296
-0.455424
2.16783
-0.639622
-0.943517
1.55181
0.17731
-0.674062
2.11127
-0.410327
0.00580205
2.31087
-1.68672
2.09904
-1.41986
0.413655
1.66012
-0.694591
0.322604
2.5997
-0.871384
-0.775318
1.92876
0.539525
-1.08542
2.53771
1.23246
-0.625662
2.53201
-0.413853
2.26214
-1.34798
0.758031
1.62512
-0.312832
1.52839
2.07485
-0.754584
0.720619
1.60614
0.753462
-0.539606
2.24279
3.28087
-0.322967
1.89926
1.79164
2.22824
-0.393294
1.11975
1.58363
0.292724
1.89907
1.09515
0.720809
1.25195
0.586635
1.76469
0.434358
0.997246
2.8986
0.380118
0.061146
3.08656
2.03291
0.932692
1.05473
0.641701
0.769186
1.12849
0.12929
2.56339
-0.449429
-0.350005
2.81826
-0.396878
-0.124759
0.57859
0.390263
-0.88992
-0.544112
0.767129
1.76756
0.462894
-0.0602531
1.27819
0.534366
0.582578
0.247091
0.133068
-0.915404
-0.654167
-1.41709
-0.277633
0.211181
0.0149966
-1.10075
0.467246
0.120714
-0.518334
-0.179869
-0.0754138
1.38697
-0.571221
-0.0847249
-0.00834049
-0.228896
-0.0759724
-1.66388
0.0976851
-1.45575
-0.350813
0.454994
-0.708154
-0.347032
0.644733
-0.529378
-0.216914
-0.0354371
0.260388
-0.123084
0.12161
-1.00697
-0.0518481
0.307965
-1.75517
0.6116
-1.17442
0.0822409
0.805782
-0.434826
0.283468
0.447443
-0.354777
0.237802
-0.135653
-0.195308
0.280478
0.465939
-0.633556
0.27991
0.777868
-1.23088
1.20254
-0.564505
-0.678283
1.07086
0.256796
-0.562881
0.299939
-0.106776
0.162175
-0.0181944
-0.998839
0.366947
0.783058
-0.830629
0.315063
1.10509
-0.45186
0.66527
0.68757
-1.54083
1.22893
0.91021
-1.28081
0.786788
-0.636559
0.359747
0.432821
-1.47295
1.12702
0.746316
-1.64976
1.03357
1.31115
-0.589926
-0.140798
1.54091
-2.39871
1.39712
1.7042
-1.71908
1.49503
-1.5265
0.215267
1.31679
-2.34936
1.8876
1.33499
-3.16327
1.93503
1.43241
-1.68643
0.337815
0.72868
-3.11451
1.64563
2.2837
-2.22171
2.16264
-2.20003
-0.369972
2.31653
-2.67416
1.38204
2.3251
-3.15244
1.50412
2.19264
-2.56905
2.01775
-1.59567
-2.26074
2.20589
1.00589
-1.58009
2.80386
-2.19325
-1.3101
2.59312
-0.00705773
-0.368574
2.2006
0.415428
0.301106
2.26532
-1.15621
2.76436
-1.79349
-0.565358
2.66313
-0.204712
-0.486551
2.80708
-0.836617
-0.869279
2.10182
1.62749
-0.642813
1.53956
3.71544
-0.0930768
1.61703
1.8902
2.96408
-0.686085
0.622982
2.99295
-0.660079
1.40773
1.97806
0.765086
0.873277
0.472962
3.928
-0.220087
-0.464268
5.99579
-0.517015
-0.300717
5.30124
2.72207
0.657683
1.60718
2.01927
0.135689
1.93975
0.582672
3.62622
0.248314
-0.950235
5.93289
-0.0884791
-1.26377
1.71488
-0.0290629
-1.33557
0.431326
0.612397
3.84817
1.75988
0.199135
2.53581
0.341112
1.89751
-0.0648474
0.650192
-0.931854
-0.78738
-1.31509
-0.452616
-0.370215
0.0569656
-0.787503
0.0584954
0.0711359
-1.01818
0.938174
-0.11398
0.621274
1.06625
-0.109798
-0.0266171
0.532857
-0.00205609
-1.12843
0.010827
-0.933718
-0.339535
0.731863
-1.04352
0.177839
0.495286
-1.4709
0.764175
0.549259
-0.989186
0.575039
0.363588
-1.29122
0.181687
0.199376
-1.56324
0.310401
-1.29231
-0.389069
1.49433
-0.808221
-0.219473
1.33213
-1.36122
0.0803937
1.12188
-1.06779
0.350453
0.8248
-1.36483
0.141103
0.746889
-1.56904
1.01812
-1.13112
-0.0907744
1.73785
0.104044
-0.32376
2.36882
-0.910481
-0.245615
1.69109
-1.64619
-0.100478
1.43255
-1.58351
-0.145225
1.6981
-1.35832
1.34492
0.215544
0.169475
1.41489
1.0637
-0.0625471
2.95496
-0.990681
0.204009
2.14018
-2.18861
0.184694
1.74685
-1.94475
0.217406
2.24139
-1.16593
1.63234
1.47089
0.281001
0.934293
1.9038
0.498004
2.63264
-1.42119
1.09097
2.0225
-2.82464
0.954886
1.68221
-2.96255
0.969335
2.25997
-1.71946
2.40663
0.923724
0.384377
0.675818
2.1578
0.412512
2.29431
-1.88985
1.18319
2.11041
-3.53275
1.6884
2.11291
-4.08836
1.21625
2.35678
-2.19371
2.46086
-0.433648
-0.357363
0.791705
1.24736
-1.2623
2.76194
-1.75594
-0.439354
2.79041
-1.51
0.52164
2.24763
-0.680284
0.781636
2.11646
-1.17588
2.3504
-0.901397
-1.50785
2.05981
0.0350297
-2.37653
3.00612
-0.212117
-1.65946
2.17482
1.526
-0.17347
1.36665
3.11043
0.629236
1.33934
1.86461
2.63091
-0.337353
-0.926561
2.60691
-0.280615
-1.57047
2.23709
2.17803
-1.3497
0.161686
5.72036
-0.768449
-0.487871
7.26906
-0.0740606
0.116634
5.82955
2.32636
0.88817
0.921679
1.39922
0.421698
1.88699
0.819026
4.07897
1.56983
-0.861111
7.27285
0.0179566
-1.20905
3.98793
-1.07963
-1.04423
2.68977
0.751827
4.34307
1.80098
-0.202627
2.72376
0.237352
2.04588
-0.248074
0.659732
-0.754757
-0.651345
-1.04824
-0.352135
0.0464346
-0.686572
-0.103489
0.036012
-0.484871
-0.115829
-0.0576865
-0.321984
-0.0901798
-0.0148062
-0.572817
-0.128936
0.0599766
-0.75285
-0.149242
-0.218135
-0.161961
-0.394648
-0.188145
-0.10378
-0.0630326
-0.775273
-0.0412129
0.407302
-0.795488
0.00316983
0.4447
-0.526009
-0.0842048
0.0670609
-0.235566
-0.139645
-0.0753037
-0.0757703
-0.395453
-0.133262
-0.0317671
-0.011405
0.420423
0.035749
0.548821
-0.0698847
0.204344
-0.158167
-0.151777
0.0225887
-2.49237
0.340039
-0.0177211
-2.47871
0.363894
-0.00788216
-2.45198
0.358018
-0.00937697
-2.48352
0.339327
-0.0681257
-2.56857
0.323531
-2.40308
0.293551
-0.0201711
-2.65996
0.0839834
-0.00875516
-2.63502
0.103688
0.0492359
-2.61848
0.111677
0.0467014
-2.65164
0.0864436
-0.0443387
-2.68844
0.071273
-2.61479
0.0915976
-0.053583
0.00239978
-0.0117159
0.0128719
0.075145
0.0140664
0.0767623
0.00545978
0.00635304
-0.00626435
-0.00926059
0.0214172
-2.26219
0.549675
0.0195781
-2.29964
0.553623
0.0279361
-2.29391
0.552916
0.024851
-2.28289
0.550447
0.00327532
-2.2826
0.543
-2.30217
0.521425
0.0103579
-2.38949
0.200924
0.0101785
-2.39968
0.203911
0.0186932
-2.3994
0.208648
0.0208034
-2.3981
0.199541
0.0176724
-2.3995
0.191304
-2.40017
0.207281
0.0010281
0.0317523
0.000356263
0.0369518
0.00176781
0.0385492
0.00220292
0.0318561
-0.000453007
0.0249478
0.0241562
0.00458907
-2.63541
0.700668
0.00110425
-2.64584
0.696396
0.00927674
-2.64301
0.693452
-0.00182781
-2.6356
0.698479
-0.0428788
-2.6532
0.698408
-2.62878
0.659198
0.00219065
-2.77799
0.341313
0.000143589
-2.78021
0.340336
0.00536059
-2.77933
0.339746
0.00846903
-2.77786
0.338697
-0.00303592
-2.78696
0.336565
-2.76469
0.340152
-0.0032953
0.0528
-0.00180576
0.053336
0.00293627
0.0532651
0.00205981
0.0521649
-0.00549528
0.051269
0.050942
0.000871035
-3.02133
0.585915
-0.000108375
-3.02863
0.579396
0.000829975
-3.02772
0.58353
-0.0038239
-3.02069
0.574662
-0.0221312
-3.02891
0.565507
-3.01759
0.561748
0.00435065
-3.028
0.343626
0.000871392
-3.03138
0.346558
-0.00160508
-3.03138
0.345882
-0.000752373
-3.02865
0.345806
-0.00321856
-3.03272
0.342845
-3.02289
0.342241
0.000415538
0.0346166
-0.00152246
0.0381453
-0.00184331
0.0361887
-0.00188036
0.0360514
-0.00368647
0.0352766
0.036695
0.00180919
-3.62377
0.162321
0.00249437
-3.61237
0.154612
-0.0113482
-3.60384
0.181195
-0.00259091
-3.62555
0.124952
0.00708821
-3.62408
0.116235
-3.58993
0.161681
0.00306185
-3.39787
0.114667
-0.00191883
-3.38604
0.1252
-0.0115858
-3.38606
0.137763
-0.00747225
-3.39162
0.107768
-0.0134324
-3.39582
0.12054
-3.36655
0.105429
-0.000163689
-0.0564135
-0.002339
-0.0452459
-0.000820657
-0.0523675
-0.00051344
-0.0525351
-0.00432631
-0.0522392
-0.0444512
-0.0107222
-4.51612
-0.572792
0.0129951
-4.67623
-0.63614
0.00322728
-4.64039
-0.565266
0.00398354
-4.56101
-0.611754
0.00463436
-4.58187
-0.625598
-4.58839
-0.582993
0.0267364
-3.79718
-0.631013
0.0145432
-3.8697
-0.669139
-0.0313612
-3.88205
-0.574669
-0.022004
-3.84433
-0.618274
-0.0127219
-3.8348
-0.635821
-3.82892
-0.666766
0.0425309
-0.434389
-0.00896734
-0.338548
-0.0159148
-0.399876
0.00442734
-0.407361
0.0406939
-0.430458
-0.333106
-0.113088
-3.13468
1.58129
0.0110982
-3.81587
1.44596
0.064203
-3.74157
1.53838
0.00331175
-3.33119
1.59282
-0.103516
-3.48775
1.60055
-3.61716
1.49539
-0.263909
-2.45156
-1.05023
0.0275956
-3.28459
-1.49193
-0.0049886
-3.11711
-1.16655
-0.19073
-2.72554
-1.03818
-0.357573
-2.73214
-1.22459
-3.22616
-1.41534
-0.0404745
-0.967593
-0.0538389
-0.803471
-0.0210694
-1.03362
-0.019042
-0.97474
0.0230885
-1.06489
-0.714968
-0.0142149
4.26275
3.66819
0.0723652
3.73595
3.8668
0.0708385
3.92926
3.85653
0.0550579
4.1133
3.88212
-0.0877377
4.09773
4.04673
3.72824
3.89249
-0.337975
2.56846
0.982036
0.215106
0.879278
0.811665
0.0329163
1.99418
0.95072
-0.371084
2.41946
1.05967
-0.63514
2.12754
1.00965
0.800122
0.877641
-0.324912
0.136357
0.148394
0.192126
0.00460336
-0.0293698
-0.517791
0.125294
-0.648843
-0.03731
0.203528
0.417744
7.74286
2.32542
0.0922742
7.78238
3.30222
0.0037533
7.67424
3.1508
0.100949
7.79509
2.96076
0.0105243
7.8478
3.31757
7.66943
3.12493
0.496611
7.09074
1.13754
0.0589922
6.94709
2.08457
-0.147873
6.98558
1.84624
0.0769559
7.05288
1.57705
0.0470031
7.08408
1.80333
6.77579
1.81828
0.281475
0.66524
0.0752189
1.20606
-0.161419
0.957618
-0.0242504
0.855637
-0.0727482
0.804079
0.946188
0.475063
7.97107
0.0530652
-0.0407847
8.58554
1.3262
-0.14238
8.38072
0.971732
0.000244887
8.36208
0.643334
0.07871
8.45268
0.981634
8.32734
0.958324
0.574758
7.66129
0.872567
-0.0416881
8.93007
2.35648
-0.240169
8.50985
1.91559
0.0434399
8.25568
1.39984
0.251315
8.35482
1.69332
8.50169
1.89525
0.310434
0.708089
-0.0396195
1.54016
-0.16919
1.18787
0.0732171
0.915437
0.20418
0.947166
1.16532
0.216944
-0.282775
1.8118
-0.0416205
1.48097
1.93633
-0.147368
1.01641
1.81685
0.0276606
0.368972
1.86857
0.144226
0.773562
1.91066
1.03712
1.80034
0.108287
-0.625174
1.10668
-0.27127
2.6631
1.5539
-0.317365
1.64229
1.33581
0.0241484
0.149123
1.27818
0.211287
0.879553
1.40019
1.83867
1.30498
-0.967399
0.420809
-0.199194
0.966632
0.203322
0.803491
-0.287837
0.592523
-0.305535
0.729801
0.799876
0.0435496
-0.148243
-0.506402
0.611096
0.0774139
-0.311356
-0.543779
0.821271
0.0369989
-0.565428
-0.569045
1.17489
-0.0187661
-0.644558
-0.610209
1.31053
-0.0503556
-0.594081
-0.646637
1.27231
-0.394349
-0.63055
0.974543
0.451855
0.0122047
-0.118729
-0.493574
0.726573
-0.0429337
-0.379631
-0.16351
0.590019
-0.119947
-0.667511
0.358583
0.233622
-0.0215594
-0.753273
0.48667
-0.0282762
0.00507843
-0.307689
-0.0295734
-0.0167546
0.204817
-0.61069
0.282042
0.0671757
-0.463774
0.65481
-0.0263438
-0.607476
0.711445
-0.00389085
-0.635536
0.397706
0.303396
-0.893119
0.0935186
0.531312
-1.08526
0.513383
-0.900524
0.0194053
-0.291478
-0.23433
0.0296425
-0.310126
-0.24389
0.0282491
-0.301865
-0.265786
0.00481435
-0.308005
-0.278769
-0.0255568
-0.336495
-0.279771
-0.390816
-0.265291
0.136459
0.0573769
-0.604043
0.15443
0.0140069
-0.721735
-0.00374708
0.022019
-0.833219
-0.270258
0.0823414
-0.877111
-0.256508
0.067428
-0.725364
0.0229519
-0.465459
-0.0255852
-0.301076
-0.0886298
-0.356904
-0.131274
-0.343543
-0.0958383
-0.172755
-0.0157386
-0.0746231
-0.0684616
0.00684647
0.03691
-0.278086
0.0159284
0.0428436
-0.295816
0.0046102
0.0377871
-0.292255
-0.00719052
0.0320281
-0.298996
-0.00731301
0.0228099
-0.302458
0.0162128
-0.288817
0.0620026
0.341783
-0.970919
0.0580422
0.339959
-1.01489
-0.029079
0.335058
-1.04337
-0.134493
0.335522
-1.07519
-0.135902
0.344989
-1.04613
0.352841
-0.93799
-0.0325166
-0.459345
-0.0927337
-0.481853
-0.155763
-0.475708
-0.118369
-0.428309
-0.0416839
-0.398351
-0.36474
-0.00505777
0.353659
-0.626688
0.00844027
0.349001
-0.658315
0.00587188
0.345769
-0.635456
-0.00306193
0.356339
-0.646402
-0.00363432
0.356503
-0.658388
0.343163
-0.635614
0.000127906
0.682592
-1.29998
0.00818452
0.653515
-1.32746
-0.0365038
0.653448
-1.30636
-0.0350958
0.66746
-1.38772
0.0143052
0.672021
-1.41105
0.658208
-1.23873
-0.0383726
-0.554818
-0.0417081
-0.63158
-0.0589772
-0.618321
-0.0454786
-0.595418
-0.00462837
-0.602719
-0.549773
-0.0300417
0.621181
-1.21783
0.0102896
0.586789
-1.28543
0.00673456
0.581215
-1.21312
-0.00167945
0.603222
-1.24121
0.00625221
0.598474
-1.26479
0.58165
-1.21101
-0.0372471
0.827404
-1.46895
0.00015201
0.79962
-1.57769
-0.0390918
0.790261
-1.47616
-0.0248651
0.783909
-1.58263
0.0591286
0.767653
-1.66423
0.812655
-1.41061
-0.0728295
-0.572737
-0.0304613
-0.804829
-0.0387662
-0.738642
-0.0358921
-0.692386
0.0183277
-0.757231
-0.688314
0.00202206
0.591953
-0.0119114
0.664829
-0.017827
0.609651
0.00204895
0.607489
0.019591
0.628322
0.608921
-0.0626524
0.292333
-0.014679
0.593071
-0.0114819
0.466103
-0.0179232
0.309476
0.0172839
0.329077
0.520581
-0.110369
-0.048561
-0.0217952
-0.0608655
-0.0153334
-0.204603
-0.601053
0.0181531
-0.393989
-0.949994
0.121201
0.310438
-0.205233
0.12208
0.680807
-0.621034
0.224048
0.359117
-1.0277
0.220968
-0.703448
0.128846
0.0608071
-0.744804
0.0829443
-0.0870645
-0.926809
0.124687
0.0455272
-0.395022
0.0571971
0.026038
-0.744929
0.143384
-0.115846
-1.03156
0.145744
-0.918294
0.0990003
0.0146654
0.0835251
-0.0827904
0.0731903
0.0719664
0.0605269
0.141853
0.0703604
0.0446704
0.0661021
0.0666619
-0.0381184
-1.14733
0.160083
-0.100277
-1.31434
0.0267977
0.10715
-1.21041
0.135879
0.159079
-1.29825
0.179155
0.0900183
-1.41771
0.144495
-1.20439
0.130941
0.106586
-1.14102
-0.0299453
0.0895924
-1.2142
0.0415454
0.00582541
-1.1644
0.094953
-0.039647
-1.21773
0.108334
-0.100433
-1.29704
0.0858574
-1.21551
0.0096891
0.0242861
0.0725268
-0.00476417
0.0863007
0.0420305
0.0721823
0.0698893
0.0651523
0.0131147
0.0598428
0.048889
-0.122244
-0.960932
0.435039
-0.0982516
-1.49327
0.134854
0.181443
-1.35754
0.145926
0.254047
-1.39957
0.141298
0.175004
-1.50961
0.164109
-1.26679
0.441612
0.248529
-1.07242
-0.166988
0.124706
-1.2286
-0.0993
0.0114349
-1.17441
0.0250993
-0.0445171
-1.2743
0.0390131
-0.0880238
-1.35065
-0.0295922
-1.26545
-0.0796668
0.0478255
0.0766257
-0.00786171
0.112918
0.0388436
0.0937102
0.0409409
0.0775472
-0.0229273
0.0568584
0.0103974
0.235308
-0.516438
0.820213
0.447444
-1.53039
0.54263
0.271257
-1.68394
0.359857
0.0480801
-1.6246
0.405566
-0.156575
-1.68581
0.696253
-0.797944
1.29852
0.466034
-0.990423
-0.159036
0.29305
-1.30858
-0.14813
-0.0302449
-1.3619
0.0263585
-0.181723
-1.46216
0.0280509
-0.319628
-1.5236
-0.0538954
-1.27143
0.0741887
0.111916
0.065971
0.0180215
0.107811
-0.00412797
0.0901939
-0.0307357
0.0611184
-0.0995981
0.0072443
-0.054331
0.983594
-0.0436702
0.943985
1.14985
-1.51103
0.896723
0.556651
-1.9378
0.702251
-0.114113
-1.71735
0.848921
-0.443162
-1.64651
1.50587
-0.0194381
2.34569
0.67656
-0.901519
0.0222513
0.438419
-1.43907
0.0180502
-0.0815917
-1.58144
0.190002
-0.378621
-1.6176
0.225333
-0.68077
-1.63065
0.232394
-1.12638
0.500355
0.162638
0.0540683
0.0271699
0.0839339
-0.0843578
0.0961598
-0.112782
0.055171
-0.182542
-0.0223052
-0.0464522
1.76054
0.189511
0.897729
1.86787
-1.63613
1.00433
1.05805
-2.23001
0.917433
-0.14815
-1.95853
1.0511
-0.57901
-1.72044
1.93771
-0.150401
2.8408
0.861202
-0.955494
0.306053
0.665049
-1.76945
0.347514
0.0862041
-1.95306
0.491902
-0.355369
-1.85683
0.565204
-0.70384
-1.81483
0.67525
-1.22349
0.8696
0.211885
0.0732291
0.0499239
0.0773521
-0.123517
0.116165
-0.155119
0.100876
-0.23625
0.011308
-0.0681011
2.39147
0.0846759
0.579383
2.4282
-1.75634
0.834095
1.38907
-3.03698
1.46079
-0.324371
-2.87674
1.55292
-0.678174
-1.7483
1.84611
-0.38351
2.11249
1.14711
-1.15151
0.395121
1.21951
-2.22151
0.740281
0.195678
-2.77353
1.25229
-0.843748
-2.28612
1.01401
-1.01444
-1.85898
0.956627
-1.14256
0.6142
0.35876
0.0827376
0.257025
0.125247
-0.292822
0.455775
-0.468397
0.237438
-0.420259
0.0249786
-0.215908
1.49288
-0.42063
0.754499
0.841568
-2.14097
1.87043
0.226929
-2.1812
2.74663
0.372696
-1.89706
2.62392
0.0596445
-1.19093
2.17421
-0.605864
1.8766
1.01462
-1.53617
0.496046
0.927618
-2.79025
1.47656
-0.438479
-1.80572
2.24291
-0.717626
-2.48673
1.88283
-0.755229
-1.57391
1.3772
-1.01421
0.267314
0.49254
0.0936267
0.166143
0.47679
-0.656356
1.21578
-0.886697
0.737162
-0.585685
0.196023
-0.478788
-0.735789
-0.407575
1.93289
-1.55826
-0.28935
2.77014
-0.931504
0.869887
2.77598
0.349184
2.04102
2.41264
0.745888
1.42624
2.21587
0.0443473
2.24079
-0.401167
-0.816798
1.30643
-0.611321
-0.612011
2.00937
-0.819829
1.18011
2.14119
-0.0646686
1.13923
2.02946
0.23628
0.679943
1.82255
-0.157366
0.705307
0.151304
0.593376
-0.0524691
0.983887
-0.972718
1.10439
-1.06426
0.8928
-0.849136
0.417367
-0.660239
-1.59131
0.564455
2.67914
-2.94615
3.39743
2.90557
-2.25732
6.14161
1.66591
-0.545321
6.8461
1.1236
0.718589
5.38195
1.39956
1.45655
2.391
-1.83695
1.44697
2.26087
-2.72519
3.80072
2.49433
-1.93619
5.63987
1.85393
-0.277757
5.70685
1.51028
1.02857
4.43752
1.46065
1.8774
1.31302
-1.4013
1.43408
-2.02842
1.65927
-1.41566
1.29887
-0.704524
1.05476
-0.308574
0.681576
-0.106225
-0.0569419
1.68117
1.4766
0.526793
5.11081
1.29
0.944468
8.56562
-0.0445413
-0.111685
6.66191
-0.494223
-0.873484
5.24923
-0.398093
4.82801
1.03258
-0.761916
2.9655
1.73846
-0.754572
5.81511
1.78269
-0.0390455
8.55999
1.14403
-0.131718
7.47459
0.790268
-0.161037
6.07111
0.668089
4.85273
1.12727
-0.849822
1.10994
-1.00559
1.6591
-0.434847
1.5548
-0.182377
1.35892
-0.10512
1.04305
0.439431
0.764834
1.12024
1.40668
1.70677
1.12893
1.16002
0.429952
0.760533
-0.168395
0.424321
1.48659
0.662893
1.70223
1.34684
2.642
1.45757
2.5519
1.14604
2.349
0.13346
2.07542
2.13662
0.619182
1.29221
1.49878
1.11032
0.321346
)
;

boundaryField
{
    seabed_topleft_surface
    {
        type            calculated;
        value           uniform 0;
    }
    seabed_topright_surface
    {
        type            calculated;
        value           uniform 0;
    }
    breakwater_top_surface
    {
        type            calculated;
        value           uniform 0;
    }
    breakwater_left_surface
    {
        type            calculated;
        value           uniform 0;
    }
    breakwater_right_surface
    {
        type            calculated;
        value           uniform 0;
    }
    water_front_surface
    {
        type            calculated;
        value           uniform 0;
    }
    water_back_surface
    {
        type            calculated;
        value           uniform 0;
    }
    water_left_surface
    {
        type            calculated;
        value           uniform 0;
    }
    water_right_surface
    {
        type            calculated;
        value           uniform 0;
    }
    water_top_surface
    {
        type            calculated;
        value           nonuniform List<scalar> 
180
(
0.340571
-1.12755
-1.28342
-0.584522
0.267079
0.280818
-2.74204
-2.70117
-2.68366
-2.7286
-2.76994
-2.75095
-2.41987
-2.4231
-2.42529
-2.42493
-2.42805
-2.43404
-2.79575
-2.79809
-2.79878
-2.79729
-2.80572
-2.79697
-3.01023
-3.01425
-3.01398
-3.01249
-3.01492
-3.01234
-3.30668
-3.30047
-3.29902
-3.30335
-3.30449
-3.28973
-3.46173
-3.5249
-3.5276
-3.50985
-3.49285
-3.49957
-1.87789
-2.8063
-2.51613
-2.16019
-2.13983
-2.82121
1.78942
-0.589628
1.13372
1.84182
1.23101
-0.767218
6.28039
6.13941
6.23523
6.18537
6.29119
5.96038
7.308
8.94602
8.40917
7.95347
8.08077
8.48675
0.629505
2.46842
1.62416
0.9632
1.11462
1.89858
0.126761
0.218117
0.462845
0.881902
0.86321