/*--------------------------------*- C++ -*----------------------------------*\
| =========                 |                                                 |
| \\      /  F ield         | OpenFOAM: The Open Source CFD Toolbox           |
|  \\    /   O peration     | Version:  v1612+                                |
|   \\  /    A nd           | Web:      www.OpenFOAM.com                      |
|    \\/     M anipulation  |                                                 |
\*---------------------------------------------------------------------------*/
FoamFile
{
    version     2.0;
    format      ascii;
    class       volVectorField;
    location    "9.3";
    object      U;
}
// * * * * * * * * * * * * * * * * * * * * * * * * * * * * * * * * * * * * * //

dimensions      [0 1 -1 0 0 0 0];

internalField   nonuniform List<vector> 
1116
(
(0.0113855 0.00428562 0.162132)
(-0.0401179 -0.0158198 0.16584)
(-0.0544322 0.0245764 0.157)
(0.0551686 0.0249705 0.159483)
(0.106341 -0.00253062 0.165565)
(-0.04089 -0.0462679 0.150145)
(-0.182429 0.0134906 0.340754)
(-0.220778 -0.00708628 0.357876)
(-0.232177 0.0118071 0.36798)
(-0.168619 -0.0147191 0.349093)
(-0.135429 0.0149163 0.356402)
(-0.235429 -0.0276252 0.360684)
(-0.277731 0.00635537 0.161927)
(-0.295236 -0.00359978 0.165741)
(-0.300036 0.00258805 0.17467)
(-0.280975 -0.0169674 0.159685)
(-0.266802 0.00706556 0.16191)
(-0.320414 -0.00923929 0.164253)
(-0.222401 -0.00024737 -0.0798376)
(-0.232756 -0.00428991 -0.0865262)
(-0.234553 0.000319676 -0.0849274)
(-0.226953 -0.00845771 -0.0832581)
(-0.222442 -0.00248766 -0.0829514)
(-0.257277 -0.00411664 -0.0916058)
(-0.11355 -0.000667852 -0.250921)
(-0.124899 -0.00432718 -0.257219)
(-0.126361 0.00144484 -0.258278)
(-0.115028 -0.00313625 -0.252048)
(-0.109098 -0.00366341 -0.25163)
(-0.144543 -0.00595413 -0.261739)
(0.0721731 0.000492469 -0.283444)
(0.0585775 -0.00239726 -0.286838)
(0.0580949 0.00184156 -0.288503)
(0.0716525 -0.000213835 -0.282885)
(0.0802394 -0.000297961 -0.283827)
(0.0462243 -0.00499919 -0.287757)
(0.308368 0.00286996 -0.225617)
(0.296183 -0.00100285 -0.229556)
(0.295227 0.00148245 -0.231103)
(0.30792 3.52722e-05 -0.22516)
(0.319313 0.000545764 -0.223847)
(0.284687 -0.0025152 -0.228252)
(0.475823 0.0052229 -0.165338)
(0.469192 -1.71062e-05 -0.176724)
(0.466217 -0.000166239 -0.176927)
(0.478417 -0.00271355 -0.16542)
(0.488959 0.00179856 -0.155032)
(0.455784 0.000578386 -0.184265)
(0.706345 -0.00174782 -0.0415456)
(0.710743 -0.00143501 -0.0500602)
(0.709774 0.00064422 -0.0480555)
(0.706923 -0.0012763 -0.0434201)
(0.698705 -0.00379095 -0.0427314)
(0.70682 -0.00360122 -0.05943)
(0.69393 -0.0101354 -0.114267)
(0.680768 -0.00484323 -0.104607)
(0.683557 0.0027943 -0.0998204)
(0.694489 0.00101578 -0.121585)
(0.686993 -0.00386907 -0.140331)
(0.676398 -0.00533892 -0.0902201)
(-0.175281 -0.0097289 -0.511453)
(-0.22567 -0.00275725 -0.523183)
(-0.220991 0.00187061 -0.518447)
(-0.170982 0.000740382 -0.516552)
(-0.155665 -4.32291e-05 -0.535791)
(-0.233949 0.00308938 -0.503184)
(-0.701922 0.0240031 -1.08296)
(-0.745915 0.0149198 -1.07503)
(-0.734557 -0.0151619 -1.07895)
(-0.699091 0.00455196 -1.08681)
(-0.688626 0.0190037 -1.08835)
(-0.739333 0.0209119 -1.06313)
(-0.0860353 0.00233009 -0.0134489)
(0.0341267 0.0388224 0.0041134)
(0.0412287 -0.109647 5.14354e-05)
(-0.243456 -0.0995812 -0.0362197)
(-0.371895 0.0101833 -0.0345353)
(0.00742061 0.116548 -0.0153904)
(0.184978 -0.036475 -0.0579433)
(0.250085 0.0376501 -0.0875194)
(0.257077 -0.0170947 -0.0864754)
(0.159614 0.0831119 -0.0209621)
(0.15102 -0.0558855 0.0412594)
(0.233475 0.019837 -0.0928087)
(0.216483 -0.0387097 -0.170605)
(0.263488 0.0167581 -0.194877)
(0.244358 0.00620941 -0.19361)
(0.220768 0.092571 -0.157361)
(0.238582 -0.0486044 -0.131401)
(0.247181 -0.00493164 -0.199264)
(0.432532 -0.0224589 -0.100265)
(0.460618 0.00296253 -0.108316)
(0.447079 0.00344493 -0.106683)
(0.452132 0.0409082 -0.102573)
(0.480657 -0.0236787 -0.10476)
(0.473744 0.00232552 -0.123179)
(0.989888 -0.0112954 -0.0616036)
(1.01155 -7.20886e-05 -0.0642438)
(1.00961 -0.00087462 -0.0640609)
(1.00185 0.00795899 -0.0652841)
(1.01454 -0.00948936 -0.0702411)
(1.04207 0.00944252 -0.0841417)
(1.59021 -0.00695958 -0.10558)
(1.60708 -0.00209026 -0.10772)
(1.61052 -0.000279381 -0.108887)
(1.5929 0.00111201 -0.105757)
(1.59328 -0.00488114 -0.104993)
(1.63388 0.00711018 -0.124363)
(2.04064 -0.00283159 -0.136565)
(2.04905 -0.00191817 -0.13389)
(2.05351 -0.00102395 -0.136128)
(2.0399 0.000799286 -0.134466)
(2.03476 -0.00238874 -0.131683)
(2.0664 0.00468748 -0.144612)
(2.4078 0.00352514 -0.188629)
(2.42252 0.00207785 -0.173991)
(2.42261 -0.00395306 -0.178604)
(2.41007 -0.000334707 -0.183239)
(2.39474 0.00117377 -0.176639)
(2.43221 0.00581578 -0.182274)
(2.32535 0.00537223 -0.0350716)
(2.35332 -0.000183874 -0.0269369)
(2.3435 -0.00120234 -0.0301525)
(2.33754 0.000594912 -0.0304578)
(2.34151 -0.00082739 -0.0261715)
(2.34749 -0.00190428 -0.0353496)
(2.34782 -0.000767909 0.592157)
(2.36903 -0.00373157 0.579072)
(2.35634 0.00378439 0.587307)
(2.36859 0.00558174 0.577057)
(2.37903 -0.0101531 0.569266)
(2.33953 -0.017833 0.587665)
(1.22844 -0.00552435 1.72405)
(1.27336 -0.00153055 1.70349)
(1.23856 -0.000847987 1.7113)
(1.27708 0.00812621 1.70247)
(1.32431 -0.0195106 1.69615)
(1.197 -0.0319325 1.70737)
(0.735462 0.0101355 0.313592)
(0.67499 0.0168337 0.381091)
(0.683588 -0.023604 0.335746)
(0.779333 -0.00973133 0.33842)
(0.790617 0.0288702 0.432846)
(0.650002 0.0532231 0.348419)
(0.620915 -0.0466061 -0.157975)
(0.749187 0.136908 -0.0310104)
(0.943277 -0.0771943 0.0293321)
(0.580637 -0.0653441 -0.134717)
(0.385085 0.0114425 -0.233327)
(0.954187 0.260219 0.0477738)
(3.93896 -0.0671234 -0.100452)
(4.01693 0.0611673 -0.0410787)
(4.07993 -0.0356809 -0.0570576)
(3.93428 0.0320515 -0.158624)
(3.77395 -0.00683021 -0.245572)
(4.12129 0.252882 -0.063701)
(7.62612 -0.0823784 -0.264571)
(7.62175 0.0422956 -0.398004)
(7.6898 -0.0203843 -0.473555)
(7.57926 0.060268 -0.256997)
(7.46552 0.00030025 -0.196309)
(7.80351 0.212426 -0.473262)
(11.6862 -0.0622213 -1.17914)
(11.6844 0.0507569 -1.29148)
(11.7376 -0.0144481 -1.34388)
(11.6318 0.0698947 -1.18123)
(11.5024 0.0156703 -1.13542)
(11.9507 0.192434 -1.32609)
(16.0451 -0.044331 -1.87044)
(16.0711 0.0582223 -1.92645)
(16.1104 -0.0151402 -1.93513)
(16.0141 0.0616788 -1.87281)
(15.8535 0.02076 -1.87047)
(16.4207 0.169783 -1.90599)
(21.3758 -0.0411958 -2.07631)
(21.4371 0.0527215 -2.10465)
(21.4769 -0.0135698 -2.09817)
(21.3384 0.0507039 -2.07659)
(21.1905 -0.00120801 -2.07865)
(21.7861 0.124758 -2.05455)
(25.8696 -0.0634067 -1.4467)
(25.8165 0.0272633 -1.48012)
(25.859 -0.00783837 -1.47864)
(25.8603 0.0651174 -1.45475)
(25.715 -0.0539761 -1.45951)
(26.2019 0.0610146 -1.4338)
(34.3472 -0.08918 0.752865)
(34.4687 0.0664795 0.749732)
(34.4723 0.0438192 0.744487)
(34.2751 0.224962 0.736875)
(34.292 -0.174567 0.712342)
(34.5928 -0.0797465 0.777662)
(19.4708 -0.0374162 2.07636)
(19.3206 0.052949 2.04251)
(19.3651 0.0314796 2.04995)
(19.7575 0.154523 2.11687)
(20.3979 -0.1301 2.17454)
(19.2118 -0.0713752 2.0392)
(9.53339 -0.0478416 1.32734)
(9.41231 0.00975806 1.28509)
(9.50117 -0.0311848 1.31797)
(9.68209 0.0280189 1.31276)
(9.82456 -0.0601606 1.29788)
(9.38863 -0.000900567 1.326)
(2.12787 -0.019253 1.62015)
(2.18151 -0.0312995 1.68816)
(2.1103 -0.0148919 1.66042)
(2.16617 0.00732325 1.63591)
(2.29611 -0.0443921 1.70416)
(1.98796 -0.0412287 1.57508)
(1.90605 0.00731359 0.333667)
(1.87925 0.00962769 0.484884)
(1.86723 -0.0128387 0.431224)
(1.93983 -0.0288204 0.363134)
(1.98703 0.0312077 0.420514)
(1.75855 0.0600151 0.477646)
(-1.66976 -0.0405523 -2.92401)
(-1.8345 0.141072 -2.93094)
(-1.59602 -0.0279666 -2.81278)
(-1.69342 0.0440581 -2.87607)
(-1.75882 -0.0529975 -3.14096)
(-1.57991 0.0961267 -2.68661)
(-0.117619 0.0344434 -4.98295)
(-0.186697 -0.0321616 -5.03544)
(-0.348559 0.0243061 -4.92032)
(-0.0892245 0.0384696 -4.9655)
(-0.0131046 0.0168483 -5.29265)
(-0.547842 -0.0664418 -4.61425)
(-0.612874 0.0232905 -5.57641)
(-0.659159 0.0263541 -5.7731)
(-0.604603 0.00769455 -5.69573)
(-0.636146 -0.0493287 -5.68305)
(-0.655833 0.0902236 -5.72654)
(-0.520751 0.0597926 -5.57741)
(-0.272357 0.0263813 -6.54058)
(-0.299811 -0.0193747 -6.59487)
(-0.305186 -0.0189529 -6.54767)
(-0.300684 -0.0507234 -6.59748)
(-0.326925 0.00471061 -6.70847)
(-0.196945 -0.0209828 -6.35261)
(-0.779608 0.00684138 -7.77984)
(-0.814818 -0.0287102 -7.791)
(-0.785704 -0.0184555 -7.75257)
(-0.820078 -0.062063 -7.81859)
(-0.895988 -0.00440923 -7.91602)
(-0.654634 -0.0398541 -7.56431)
(0.388052 -0.00505802 -9.32251)
(0.302534 -0.0232294 -9.29174)
(0.370927 -0.0188322 -9.25674)
(0.279027 -0.0690623 -9.3649)
(0.148184 0.0190596 -9.36833)
(0.447114 -0.0130587 -9.15934)
(-0.390825 -0.0931474 -9.12598)
(-0.507089 -0.0503992 -9.37426)
(-0.40705 0.02548 -9.32172)
(-0.50059 0.0192539 -9.16081)
(-0.547353 -0.0205692 -9.19136)
(-0.330691 -0.0302912 -9.22283)
(10.8698 -0.232699 2.55537)
(10.447 -0.0654309 2.40319)
(10.45 0.153832 2.35195)
(10.6097 0.254129 2.53157)
(10.3331 -0.15414 2.48972)
(10.6149 -0.0554496 2.37259)
(18.0566 -0.0909523 14.8205)
(17.9135 0.11437 14.9074)
(17.9001 0.0135015 14.8827)
(18.3259 0.237928 14.926)
(18.6753 -0.168557 15.0404)
(17.8761 -0.0148755 14.7977)
(13.8474 -0.0498058 11.7384)
(13.8796 0.0935313 11.6632)
(13.8883 -0.0909127 11.7275)
(14.1302 0.055113 11.8362)
(14.463 -0.0758023 11.9286)
(13.8286 0.0771422 11.7185)
(4.24007 -0.00403387 8.34332)
(4.01786 0.0115283 7.79525)
(4.00891 -0.0954789 7.92652)
(4.30048 -0.034706 8.14863)
(4.43017 -0.0292069 8.13553)
(3.84673 0.0462692 7.85606)
(3.41834 -0.0250579 2.642)
(3.79607 0.0316467 2.74467)
(3.59463 -0.0232507 2.6865)
(3.52409 0.0156466 2.67158)
(3.64511 -0.0217263 2.72021)
(3.54001 0.0669602 2.66673)
(-0.326706 0.0467535 -0.615081)
(-0.435311 0.149239 -0.233282)
(-0.348348 -0.202858 -0.68751)
(-0.389242 -0.19563 0.0498427)
(-0.194022 -0.559387 -0.0747843)
(-0.112772 -0.0870023 -0.737843)
(-1.06959 0.0423185 -0.760517)
(-1.04794 0.238707 -0.00131432)
(-1.00273 -0.279459 -0.667868)
(-1.04741 0.241281 0.0640102)
(-0.805848 -0.427795 0.148468)
(-0.819509 -0.0316067 -0.815315)
(-1.6193 0.0930759 -0.581053)
(-1.61252 0.153729 0.0581333)
(-1.21639 -0.211218 -0.498369)
(-0.707643 0.540261 -0.20992)
(-1.26507 -0.287732 0.176525)
(-1.33189 -0.107765 -0.688752)
(-1.77439 0.195393 -0.650745)
(-2.28589 0.436559 -0.122668)
(-1.30169 0.131255 0.329761)
(-0.861428 0.284377 0.149153)
(-1.79413 -0.383053 -0.0255476)
(-1.47437 -0.164039 -0.920849)
(-1.62176 0.186257 -0.808101)
(-2.02841 0.744743 -0.224575)
(-0.397689 0.252555 0.87445)
(-0.970001 -0.29445 0.487546)
(-2.34014 -0.489617 -0.0667277)
(-1.90603 -0.213871 -1.12604)
(-1.71564 0.223726 -0.717686)
(-1.4446 0.660607 -0.0499583)
(-0.147182 0.276233 0.795905)
(-1.17039 -0.486431 0.393582)
(-2.79786 -0.636955 -0.0208675)
(-2.46657 -0.219251 -0.845718)
(-1.97176 0.41038 -0.763351)
(-0.88702 0.739348 -0.567782)
(0.327169 1.36009 -0.749529)
(-1.8866 0.540928 0.496957)
(-3.81726 -1.1846 0.17673)
(-2.82968 -0.2974 -0.65028)
(-1.66843 -0.11027 -0.0838963)
(-0.626472 0.684725 -0.942015)
(0.866171 0.84559 -1.48475)
(-4.27239 0.773214 1.20447)
(-5.06609 -2.06209 0.598149)
(-1.74202 -0.2682 -0.662117)
(-2.95107 -0.735145 0.908713)
(-0.461079 -0.554813 -1.02223)
(0.888121 -0.604669 -1.66708)
(-5.78203 0.739023 1.77478)
(-5.28078 -1.703 1.14001)
(0.0112826 0.162527 -0.632685)
(-3.73854 0.174034 1.60298)
(-1.08938 -1.33605 -0.567417)
(2.06894 -1.84545 -1.89364)
(-0.174146 -0.899922 -0.747289)
(-0.463986 -0.341657 -0.359893)
(1.12046 0.526013 -0.763913)
(-0.325377 0.437744 1.08666)
(-2.82854 -0.516823 1.9947)
(1.60899 -1.91771 -1.54516)
(2.77013 -1.25333 -2.68323)
(2.62839 -0.287886 -2.24976)
(1.30156 0.684596 -0.823828)
(0.135957 0.406316 0.290578)
(-0.800574 -0.02176 3.2401)
(0.936317 -0.951188 -0.765893)
(1.49032 -0.614824 -1.70592)
(1.48299 -0.257837 -1.49851)
(0.409157 0.220248 -0.283868)
(-0.0423467 -0.215459 -1.292)
(0.0266724 0.532171 -0.820622)
(0.329409 -0.935548 -0.261198)
(-0.113536 -1.31249 -0.765182)
(-0.151414 -0.547019 -1.29134)
(-0.0562753 0.105396 -1.83133)
(-0.95478 -0.429819 -1.18216)
(-0.778067 0.218405 -0.623274)
(-0.504715 -1.30114 -0.0903727)
(-0.757101 -1.1413 -0.1057)
(-0.873827 -0.293862 -0.505869)
(-0.916809 0.692134 -1.66164)
(-1.30474 -0.598298 -0.628627)
(-1.07369 -0.229586 -0.79566)
(-0.38032 -0.769618 -0.521787)
(-0.783502 -0.436993 0.3881)
(-1.40525 -0.316598 0.161664)
(-1.40569 0.881139 -1.12353)
(-1.54138 -0.587842 -0.72666)
(-1.6775 -0.300872 0.184343)
(-1.314 -0.49236 0.878679)
(-0.910555 0.228213 0.439579)
(-1.36113 -0.0733204 0.196426)
(-1.51602 0.779443 -1.05012)
(-2.00267 -0.635353 -1.04294)
(-2.00902 -0.166315 1.04955)
(-1.41597 -0.60767 2.37827)
(-1.75556 0.21687 0.43953)
(-1.52802 0.304065 -0.313456)
(-1.3529 0.877923 -1.43256)
(-2.69427 -0.689275 -1.27418)
(-2.47786 -0.307621 0.882121)
(-2.04495 -0.692932 2.01439)
(-2.78766 -0.431099 0.0824102)
(-2.40349 0.232523 -1.39359)
(-1.88883 0.845441 -1.93608)
(-3.55664 -0.552827 -1.78042)
(-3.57071 -0.143568 -0.0334427)
(-2.67865 -0.698662 1.05424)
(-3.77789 -1.00616 0.515005)
(-3.78639 -0.4333 -1.57259)
(-3.2163 0.48574 -2.20208)
(-3.47065 0.0775983 -1.60565)
(-4.96571 0.529548 -1.26906)
(-3.69074 0.0725686 0.611564)
(-5.33825 -1.2386 3.16142)
(-5.24615 -1.28357 0.1566)
(-4.40652 0.246836 -1.66538)
(-3.08257 0.125185 0.629462)
(-5.32177 1.14574 -1.10539)
(-4.48342 1.60288 0.20543)
(-6.54121 0.09721 4.46276)
(-6.33997 -1.19554 3.61404)
(-4.61449 0.434785 0.14679)
(-4.30982 1.0067 3.14274)
(-3.37102 1.19666 2.65177)
(-2.29433 2.04511 2.4249)
(-3.43519 0.71857 3.63774)
(-2.11597 0.022012 4.57788)
(-4.40393 0.804236 2.52393)
(-2.7193 0.966061 2.52552)
(-1.99884 1.18953 4.1168)
(-0.727818 0.290063 3.01354)
(-1.15603 -0.673195 1.26268)
(1.17045 -0.378026 -0.69178)
(-4.11596 1.12185 1.49614)
(0.0548456 0.377503 -1.35256)
(0.307189 0.761311 1.01979)
(0.992193 1.05146 0.636519)
(1.96857 0.597316 -2.29108)
(2.98991 -0.504659 -3.10487)
(0.660697 -0.729148 -0.733457)
(0.542681 -0.268605 -2.13696)
(0.460823 0.665752 0.15083)
(0.653573 0.157488 2.59702)
(0.4643 -0.627285 -1.4131)
(0.415176 -0.208773 -4.19913)
(0.169265 -0.184568 -2.72275)
(-0.496503 -0.530472 -1.10419)
(-0.923563 -0.126471 0.649341)
(-0.414804 -0.564741 1.74979)
(-0.114158 0.050885 -2.37207)
(-0.00513527 -0.180872 -4.21356)
(-0.510112 0.0497619 -1.1019)
(-1.49529 -0.988794 0.614713)
(-1.71564 1.06477 -0.217592)
(0.435679 -0.35492 -0.590558)
(-0.29738 0.670277 -1.09929)
(-0.983206 -0.0143438 -2.69665)
(-2.03396 0.504385 -0.0467245)
(-1.96493 -0.914085 0.269156)
(-0.189101 -0.432377 -0.593592)
(0.356976 -0.650835 -1.38641)
(-1.34063 0.88608 -1.49619)
(-1.81899 -0.0697784 -0.694905)
(-2.88409 0.704104 0.590283)
(-2.13487 -1.55915 -0.268815)
(-0.766797 -1.54901 -0.583269)
(-0.110689 -0.67218 -0.187521)
(-1.00282 1.1765 -3.51947)
(-2.34617 0.898969 -1.51299)
(0.0576338 1.40865 0.649853)
(-2.60617 -2.63303 -0.259081)
(-2.21889 -2.18434 -1.30258)
(-1.67168 -0.768308 -0.0873633)
(-1.37753 1.10338 -3.38322)
(-1.81047 2.09093 -4.02877)
(0.945189 2.06022 -0.377784)
(-2.76306 -3.33986 0.0993796)
(-3.37741 -2.70172 -2.12925)
(-3.82926 -1.06945 -0.157561)
(-3.64847 0.339301 -1.84423)
(-3.2026 1.8919 -4.65636)
(-2.50161 1.33264 -3.11814)
(-3.81869 -2.35211 -1.34464)
(-4.66627 -1.93698 -1.813)
(-5.26487 -1.20194 1.69235)
(-5.28001 -0.94124 1.72508)
(-4.52431 0.0170712 -1.62137)
(-4.56875 0.69329 -3.21831)
(-4.74232 -0.633798 -2.02207)
(-5.89222 -0.628445 -1.7203)
(-5.85494 -0.285921 2.50939)
(-5.43471 -0.916887 7.46116)
(-5.17968 -0.704364 2.94855)
(-5.72196 0.523175 -1.54052)
(-5.34527 0.0100672 -1.82146)
(-5.50541 0.949857 -0.0900365)
(-4.46556 1.49815 4.09014)
(-3.44452 0.43169 8.06993)
(-3.42986 -1.0091 7.95475)
(-6.12648 0.240455 0.829832)
(-6.04148 0.476966 0.440029)
(-3.70408 2.18618 6.34095)
(0.231862 0.651397 8.57555)
(3.2049 0.315569 1.03398)
(3.29417 -0.634075 -0.850505)
(-5.69521 0.634108 5.60135)
(-2.45041 0.883679 1.41623)
(-0.387719 2.23178 1.44033)
(1.43734 2.35271 0.387772)
(2.50162 1.49966 -1.85063)
(3.18191 -0.284695 -2.74413)
(1.96468 -1.03659 -0.671609)
(0.335512 -0.20889 -1.8361)
(0.0781585 -0.413016 -1.83396)
(0.926294 0.482463 2.98058)
(0.888993 1.15233 1.47544)
(0.211076 0.968554 -1.80336)
(0.104485 0.120057 -2.37151)
(-0.551131 -0.355642 -1.59176)
(-0.338274 -0.180033 -2.72468)
(-0.58164 0.453878 -0.772975)
(-0.429451 0.811496 -1.65593)
(-0.121139 0.397537 -2.61729)
(-0.0680444 0.0122048 -2.59485)
(-2.16299 -0.490243 -1.95102)
(-1.51554 -0.220974 -1.48611)
(-1.64161 -0.1832 -0.336403)
(-1.00654 0.355171 -1.6898)
(-0.519562 0.236811 -2.44838)
(-1.02278 0.0860565 -1.75877)
(-3.63776 -0.273434 0.431598)
(-3.72113 0.0271876 0.0187433)
(-2.58511 -0.492182 -2.4352)
(-2.03951 0.0844476 -2.02306)
(-2.24614 -0.343493 -1.35863)
(-3.20423 0.147217 1.60752)
(-3.42609 -0.286732 2.85307)
(-5.50578 0.377968 -1.58198)
(-3.7042 -0.318232 -4.93212)
(-3.33609 0.567841 -3.53766)
(-4.18245 -0.364043 -1.14096)
(-2.57343 0.896316 4.15383)
(-2.82486 -0.952602 5.43286)
(-5.44481 1.09552 -4.03336)
(-3.31482 0.37449 -7.91864)
(-2.17735 1.21104 -8.14928)
(-4.2642 0.431084 -3.11445)
(-4.46652 1.33747 2.39901)
(-2.56319 -0.581841 6.92602)
(-3.88591 0.837678 -5.93624)
(-2.14687 0.424648 -9.17448)
(-2.01074 1.37538 -9.67868)
(-3.71609 1.40881 -5.34145)
(-5.12037 1.12656 -2.52315)
(-1.43765 -0.415936 4.55745)
(-3.86337 -0.742996 -4.97377)
(-5.1944 -0.85087 -1.60239)
(-5.27958 -0.0879402 -0.00217101)
(-4.44549 0.969023 -2.45577)
(-3.80162 0.491046 -2.98289)
(-3.10822 -0.885017 0.949635)
(-6.13302 -2.3477 -0.859568)
(-6.1689 -1.72149 3.91136)
(-5.28133 -0.821781 6.79108)
(-4.43292 0.268006 3.97457)
(-4.95044 0.867179 -0.950076)
(-5.06719 -0.949126 -1.00386)
(-6.05663 -1.13144 2.68661)
(-4.89533 -1.31079 9.50682)
(-3.62725 -0.863991 13.221)
(-4.13446 -0.964312 10.7872)
(-5.90202 0.730885 1.21003)
(-5.74244 -0.134584 -0.122169)
(-5.5039 1.45286 6.31234)
(-0.47574 2.08725 11.7359)
(1.70762 1.25218 4.29567)
(1.14675 -1.31343 2.01778)
(-6.04448 -0.124795 7.56388)
(0.750748 0.792761 -0.936561)
(1.16279 2.31104 -0.451171)
(1.96476 2.49939 -0.975397)
(3.03334 1.4714 -2.13008)
(3.47061 -0.201772 -2.71042)
(2.19671 -0.852243 -1.50303)
(-1.25717 -0.0584398 -0.479842)
(-1.39353 0.132234 0.0553338)
(-1.25035 -0.0820656 0.369832)
(-1.34012 -0.00156935 -0.196953)
(-1.39496 -0.0121456 -0.609166)
(-1.29857 0.0933681 0.518805)
(-1.01291 -0.354154 -1.54309)
(-0.805088 -0.301503 -1.38862)
(-0.600683 0.164668 -1.17171)
(-0.941684 0.584555 -1.42902)
(-1.14584 0.16516 -1.63213)
(-0.890812 -0.0101703 -0.991431)
(-0.803042 -0.413632 0.644664)
(-0.24131 -0.232723 -2.01029)
(-0.067813 0.159276 -2.30205)
(-0.526355 0.609138 -0.992674)
(-0.9085 0.341918 0.517316)
(-0.863696 0.05366 0.5496)
(0.815121 0.0332477 -3.48941)
(0.89991 -6.63887e-05 -3.49156)
(0.870537 -0.037586 -3.42712)
(0.80031 0.0289431 -3.46969)
(0.768384 -0.0435756 -3.67516)
(0.634181 -0.094624 -3.2763)
(0.459637 -0.00876406 -5.06982)
(0.54212 -0.0369417 -5.02479)
(0.561977 0.0197989 -4.99355)
(0.47162 0.0814074 -5.06112)
(0.427682 -0.00503703 -5.15617)
(0.463585 -0.064287 -4.94492)
(0.124155 -0.0337316 -5.04536)
(0.145185 -0.0478857 -4.9717)
(0.141978 0.0333881 -4.93991)
(0.13472 0.0890176 -5.02061)
(0.114228 0.0313046 -5.09333)
(0.100975 -0.0131981 -5.05606)
(0.658917 0.0256706 -3.04103)
(0.675625 0.0174038 -3.15256)
(0.677825 0.0153183 -3.14146)
(0.668052 0.0373237 -3.10046)
(0.634171 0.00935179 -3.09842)
(0.636517 -0.0042296 -3.19491)
(-0.0117808 0.0103089 -4.60936)
(0.00232823 0.00660968 -4.63662)
(0.0194515 0.0133207 -4.62924)
(-0.00886009 0.0221932 -4.62735)
(-0.0390074 0.0181593 -4.62667)
(0.0190326 0.0111248 -4.61079)
(-0.0686763 0.000971295 -4.44937)
(-0.0491545 0.000332792 -4.45559)
(-0.0431159 0.000764187 -4.45989)
(-0.0664317 0.0028622 -4.45905)
(-0.0898093 0.000722161 -4.46478)
(-0.089559 -0.00130569 -4.47633)
(1.50223 0.00572674 -3.78468)
(1.49755 0.00457196 -3.82921)
(1.49109 -0.00337174 -3.82559)
(1.49505 0.0235622 -3.79707)
(1.49961 -0.0290053 -3.84584)
(1.41387 -0.0466053 -3.83025)
(0.732048 0.00297924 -5.23199)
(0.728005 0.000291103 -5.2301)
(0.728393 -6.47032e-05 -5.22396)
(0.722628 0.0115378 -5.22548)
(0.721175 0.00165061 -5.2394)
(0.726833 -0.00591939 -5.17801)
(0.152073 -0.00225641 -5.1502)
(0.151895 -0.00341837 -5.15484)
(0.151905 0.000778479 -5.15624)
(0.150463 0.00449135 -5.15313)
(0.149038 -0.00217762 -5.16907)
(0.146524 -0.00534679 -5.15253)
(1.43588 0.000596621 -4.92618)
(1.42177 0.00164728 -4.95573)
(1.41636 -0.00272591 -4.95355)
(1.43512 0.00656366 -4.93752)
(1.42887 -0.016277 -4.96142)
(1.35607 -0.0223395 -4.96158)
(0.720387 0.0044004 -5.59719)
(0.719957 0.00298253 -5.59876)
(0.717697 -0.00228823 -5.59767)
(0.720008 0.000815404 -5.59058)
(0.713118 -0.00305733 -5.59715)
(0.720155 -0.00223203 -5.56508)
(0.084077 0.000611507 -5.55219)
(0.0857173 -0.000316124 -5.55987)
(0.0856525 -0.00180421 -5.55952)
(0.0833032 -0.00120661 -5.55656)
(0.0821946 -0.0029496 -5.56136)
(0.0827873 -0.00292265 -5.55658)
(1.30481 0.004163 -6.69919)
(1.29062 0.0018562 -6.69362)
(1.31268 -0.00213147 -6.66409)
(1.26002 -0.0132685 -6.73216)
(1.22793 0.00806606 -6.72214)
(1.28489 0.00205632 -6.65707)
(0.809222 0.00732848 -6.24171)
(0.823038 -0.00168135 -6.2107)
(0.824128 -0.00515857 -6.21007)
(0.819612 -0.0080312 -6.22268)
(0.815272 -0.0110029 -6.23333)
(0.809774 -0.0101422 -6.16402)
(0.0530409 0.00115256 -6.1177)
(0.0691585 -0.0016009 -6.10569)
(0.0613226 -0.00237281 -6.10335)
(0.0622817 0.00109597 -6.11103)
(0.0588714 -0.00265817 -6.11322)
(0.0686561 -0.00369213 -6.08442)
(-0.738479 -0.0383321 -9.16079)
(-0.74927 0.0269148 -9.59875)
(-0.665732 -0.00538337 -9.48784)
(-0.849565 0.00301948 -9.26672)
(-0.84813 0.00753714 -9.36516)
(-0.714369 0.0028596 -9.3541)
(-0.440445 0.0127683 -7.33269)
(-0.418823 0.0362601 -7.47437)
(-0.372902 -0.0184617 -7.47489)
(-0.469434 -0.0275535 -7.39862)
(-0.423714 -0.0162012 -7.38102)
(-0.466115 -0.0109381 -7.38864)
(-0.384989 0.0408532 -6.44838)
(-0.350494 0.0142105 -6.56466)
(-0.376182 -0.0201962 -6.57327)
(-0.378525 -0.01078 -6.53938)
(-0.371962 0.023657 -6.50685)
(-0.346956 0.0320421 -6.5141)
(-2.23023 -0.256361 -5.10697)
(-2.52708 -0.0159224 -6.5475)
(-2.29574 0.0503782 -6.41537)
(-2.28419 0.106525 -5.37147)
(-2.38129 -0.122624 -5.89877)
(-2.37965 -0.0604892 -5.97708)
(-2.71399 -0.418998 -5.45405)
(-2.90002 -0.0493323 -6.48034)
(-2.56508 0.0673487 -6.41123)
(-2.62067 -0.0414965 -5.8812)
(-2.76796 -0.404905 -5.93121)
(-2.86556 -0.194563 -6.26658)
(-1.24027 -0.0772258 -3.58376)
(-0.892832 -0.0271637 -5.35381)
(-1.10339 -0.0488531 -4.80318)
(-1.14047 0.0169119 -4.11932)
(-1.23565 -0.0494352 -4.08092)
(-0.884609 0.0712166 -5.3757)
(7.68884 -0.137089 13.2031)
(7.60031 0.119811 12.7849)
(7.67992 -0.0143982 12.8064)
(7.84161 0.16951 13.275)
(8.01989 -0.110256 13.1965)
(7.695 0.0156079 12.7649)
(-0.769917 -0.507867 5.25549)
(-2.14503 0.0279637 3.70239)
(-1.30589 0.237047 4.39157)
(-0.801874 -0.141192 4.64008)
(-1.31133 -0.65738 4.67334)
(-1.85605 -0.345204 3.73359)
(-2.34575 -0.712008 3.19109)
(-2.07442 0.0518786 -1.19421)
(-2.78987 0.19559 1.98413)
(-2.46509 -0.159978 3.28215)
(-2.77147 -0.921105 2.16798)
(-1.7381 -0.217215 -1.51685)
(8.866 0.166383 16.4944)
(9.58202 0.336539 16.6821)
(9.46984 -0.0876688 16.5821)
(9.39965 0.129657 16.8734)
(9.81901 -0.0181636 17.0408)
(9.5204 0.0661764 16.595)
(5.2531 0.278854 13.9867)
(5.61061 0.404862 13.9431)
(5.49758 -0.245817 13.7381)
(5.49369 0.0597136 13.9961)
(5.64626 0.0202876 14.0273)
(5.50658 0.0783125 13.6975)
(2.80306 0.155178 11.5921)
(2.76104 0.383424 11.3094)
(2.62242 -0.280329 11.4952)
(2.8447 0.0224007 11.4054)
(2.56603 -0.090744 11.5932)
(2.50867 0.00045785 10.9662)
(-2.27951 0.346241 15.0416)
(2.05376 0.219983 15.4205)
(1.19228 -0.196152 15.2738)
(0.116463 -0.0367985 15.427)
(1.37259 0.0206828 15.5598)
(1.09685 0.0799031 15.2203)
(-0.0773078 0.549278 15.6476)
(3.51028 0.360808 17.287)
(2.61753 -0.386795 16.7496)
(1.48699 -0.0737156 16.6366)
(2.29855 0.170065 16.8084)
(2.55481 0.226037 16.6145)
(0.289052 0.343764 13.4577)
(2.50466 0.300305 16.4568)
(1.64841 -0.371952 15.4671)
(1.02132 -0.00444107 14.6356)
(1.04566 0.175578 14.8561)
(1.66173 0.213344 15.603)
(3.61261 0.126138 4.27503)
(4.58148 0.177016 4.68003)
(4.1452 -0.218785 4.452)
(3.90481 -0.0162977 4.52568)
(4.09943 0.0539909 4.65784)
(4.16242 0.174558 4.39235)
(1.85754 0.0911521 -4.64764)
(3.81461 0.112884 2.79835)
(3.06958 -0.532097 0.988745)
(2.30227 -0.0829161 -2.10161)
(2.62061 0.110356 -0.327576)
(3.09124 0.249338 1.145)
(1.69762 -0.845925 1.17758)
(2.79263 -0.526719 4.49522)
(2.29609 0.0982271 2.94144)
(1.824 0.0785365 1.7661)
(2.0139 -0.419234 1.99481)
(2.26399 -0.11361 3.43432)
(1.63812 0.0285703 -0.30468)
(1.80863 0.103204 -0.448964)
(1.82628 0.103952 -0.487123)
(1.96183 0.018261 -0.448638)
(2.07806 -0.0764777 -0.381292)
(1.93002 -0.0713878 -0.30951)
(-0.640044 0.285893 -0.406397)
(-0.0111558 1.00757 -1.13299)
(0.874484 1.12924 -2.45553)
(1.13587 0.540123 -2.94724)
(-0.198673 0.1582 -2.71808)
(-1.45412 -0.220767 -1.67109)
(-0.72501 0.122673 0.419559)
(-0.561979 0.713452 0.70275)
(-0.677302 1.12225 1.44107)
(-1.46054 0.930804 2.69085)
(-2.08446 0.338353 2.63793)
(-1.90111 0.0110298 1.43992)
(0.489387 0.0214047 -0.279383)
(0.49768 0.0367788 -0.278686)
(0.590423 0.045164 -0.267943)
(0.626328 0.0369626 -0.285424)
(0.620885 -0.026963 -0.296905)
(0.617907 -0.0348967 -0.31173)
(1.01597 0.119739 -1.17048)
(1.40682 0.265902 -1.25511)
(1.77679 0.202542 -1.2053)
(1.81947 -0.228197 -1.26393)
(1.29847 -0.496754 -1.50079)
(0.436077 -0.21983 -1.72513)
(0.44743 -0.00661825 1.38104)
(0.663335 -0.0816595 1.25243)
(0.669191 -0.218439 1.24311)
(0.0632137 -0.16445 1.5931)
(-0.267404 -0.0780693 1.79939)
(-0.289615 0.0151609 1.79109)
(0.489348 0.00288082 0.0208516)
(0.522915 0.0208207 0.0239339)
(0.526716 0.0207237 0.0197486)
(0.540617 -0.00592267 0.0289656)
(0.551112 -0.0143068 0.0280338)
(0.519959 -0.00512722 0.0166079)
(1.71218 0.0509011 0.226968)
(1.82815 0.113005 0.262996)
(1.92319 0.0443716 0.233272)
(2.02735 -0.142156 0.189662)
(1.92638 -0.235473 0.132989)
(1.6728 -0.127094 0.104237)
(0.679458 -0.0195942 1.61304)
(0.719575 -0.0847131 1.58909)
(0.720864 -0.213327 1.60188)
(0.641283 -0.225913 1.66714)
(0.568373 -0.104634 1.7797)
(0.52238 -0.034073 1.8285)
(0.783149 -0.0106923 0.0761423)
(0.827507 0.0012233 0.0805812)
(0.806687 0.0166944 0.0754827)
(0.817338 0.0013172 0.0757112)
(0.820262 -0.00789701 0.0786064)
(0.79919 -0.00492721 0.0736663)
(2.35563 -0.0184352 1.77001)
(2.41134 0.016561 1.71539)
(2.4325 0.000495314 1.70739)
(2.50692 -0.0902129 1.7739)
(2.49042 -0.00241963 1.77225)
(2.29614 0.0363719 1.6873)
(1.11394 -0.0420865 2.47813)
(1.17666 -0.0638683 2.44207)
(1.16542 -0.0714768 2.46012)
(1.08941 -0.0956131 2.48054)
(1.05688 -0.0281138 2.52153)
(0.983965 0.00856482 2.53549)
(1.40627 -0.0568132 0.277385)
(1.47503 -0.00812332 0.282896)
(1.42119 0.0284715 0.260217)
(1.45632 -0.0132228 0.301066)
(1.50022 0.0051387 0.329483)
(1.42793 0.0266538 0.248997)
(2.29864 -0.102796 2.87527)
(2.38691 -0.000494175 2.65249)
(2.29881 -0.0044661 2.64456)
(2.49832 -0.0834154 2.779)
(2.61158 0.0200177 2.73241)
(2.17844 0.117898 2.64228)
(1.13695 -0.0993249 2.71776)
(1.33803 -0.0881361 2.76463)
(1.31078 -0.0199955 2.72696)
(1.30395 -0.0942006 2.57644)
(1.3583 -0.00214418 2.53768)
(1.19511 0.0518827 2.88263)
(3.63692 -0.0514931 1.57555)
(3.66544 0.0600765 1.43225)
(3.47625 -0.0912819 1.37481)
(3.6662 0.0268857 1.68969)
(3.70851 -0.0224097 1.74829)
(3.43161 0.0947291 1.30545)
(3.4854 -0.152504 2.00952)
(3.73929 0.0106575 2.43625)
(3.42805 -0.0639244 2.17575)
(3.70647 0.015468 2.07414)
(3.90533 -0.0560537 2.17387)
(3.28454 0.108696 2.19639)
(0.832862 -0.1995 0.465971)
(1.84323 -0.164424 1.8629)
(1.59982 0.0295755 1.30813)
(1.27226 -0.0769621 0.479073)
(1.54448 -0.0901793 0.502249)
(1.54797 0.021926 1.64918)
(0.105392 0.10365 -1.09569)
(-0.273023 -0.532815 -1.88133)
(0.0391608 -0.087798 -0.5111)
(-0.260898 0.617967 -1.52062)
(-0.352173 0.567654 -2.16967)
(-0.1462 0.0418551 -1.06839)
(-0.139336 0.178802 -1.21447)
(-0.209757 -0.0832521 -1.74951)
(0.149443 -0.039785 -0.380895)
(-0.209257 0.0979434 -1.02991)
(-0.245056 -0.0427884 -1.86731)
(-0.179003 -0.173717 -1.65171)
(-0.144079 0.0718127 -1.55713)
(-0.106409 -0.0561856 -1.66698)
(-0.0578727 -0.061904 -1.12263)
(-0.115178 0.168506 -1.63486)
(-0.106099 0.083809 -1.84966)
(-0.106809 0.00756243 -1.73678)
(-0.192211 0.0731279 -2.22363)
(-0.217713 -0.12959 -2.70116)
(-0.461843 -0.0306511 -2.75234)
(-0.533523 0.189996 -2.92026)
(-0.463386 0.143677 -2.97851)
(-0.335082 -0.000472266 -2.18716)
(-0.169602 0.0760541 -2.04785)
(-0.254971 0.134935 -2.21539)
(-0.338822 0.0212577 -1.90594)
(-0.312034 -0.0112125 -2.07997)
(-0.291599 -0.0644501 -2.41636)
(-0.1869 -0.108412 -2.26907)
(-0.155152 0.0326349 -2.13394)
(-0.15484 0.00139447 -2.21518)
(-0.149037 -0.00551588 -2.26314)
(-0.134948 0.0760832 -2.2955)
(-0.128511 0.039864 -2.28181)
(-0.130507 -0.00961494 -2.18893)
(-0.372169 -0.013208 -1.40931)
(0.122627 -0.164509 -3.1989)
(-0.1448 0.0141148 -3.25832)
(-0.244948 0.263001 -3.08191)
(-0.156194 0.22353 -3.09678)
(-0.196123 0.0619449 -2.3224)
(0.310315 0.253365 -1.99125)
(0.0971497 0.230544 -2.39662)
(-0.0711206 0.0122573 -1.96893)
(-0.148838 0.00314266 -2.24368)
(-0.0781962 -0.079592 -2.56146)
(0.147212 -0.095388 -2.31646)
(-0.154173 0.0649183 -2.07521)
(-0.211515 0.00471657 -2.2137)
(-0.16703 -0.0114199 -2.29628)
(-0.145746 0.0713387 -2.38206)
(-0.130149 -0.00308403 -2.37159)
(-0.0788064 -0.0304758 -2.3089)
(-1.41192 0.0270757 0.082432)
(-0.69119 0.442667 -2.97115)
(-0.420018 0.418942 -3.63355)
(-0.366972 0.163397 -3.35663)
(-0.552145 -0.119724 -3.25704)
(-1.65984 -0.123711 -0.661767)
(0.378044 0.392151 -1.87684)
(0.319899 0.463793 -2.8319)
(-0.0194448 0.0541466 -2.68887)
(-0.00405985 -0.0990471 -2.78553)
(0.213972 -0.275872 -3.03706)
(0.207204 -0.266961 -2.28094)
(-0.156512 0.109247 -2.00745)
(-0.240295 0.0636013 -2.22461)
(-0.2019 -0.0193184 -2.46404)
(-0.159663 0.00914974 -2.62016)
(-0.0898168 -0.077454 -2.59445)
(0.0401061 -0.0775787 -2.41136)