/*--------------------------------*- C++ -*----------------------------------*\
| =========                 |                                                 |
| \\      /  F ield         | OpenFOAM: The Open Source CFD Toolbox           |
|  \\    /   O peration     | Version:  v1612+                                |
|   \\  /    A nd           | Web:      www.OpenFOAM.com                      |
|    \\/     M anipulation  |                                                 |
\*---------------------------------------------------------------------------*/
FoamFile
{
    version     2.0;
    format      ascii;
    class       volScalarField;
    location    "8.6";
    object      p_rgh;
}
// * * * * * * * * * * * * * * * * * * * * * * * * * * * * * * * * * * * * * //

dimensions      [1 -1 -2 0 0 0 0];

internalField   nonuniform List<scalar> 
1116
(
12177.5
12174.1
12182.5
12163.3
12156.5
12177.4
12830.7
12808.8
12808.1
12826.9
12846.8
12806.4
14649.2
14640.5
14635.5
14643.2
14653
14632.7
16424.2
16423.9
16422.3
16423.7
16427.6
16424.1
17768.4
17766.5
17764.1
17763.2
17766.3
17772.6
18693.9
18692.4
18693.6
18694.8
18694
18695.8
18926
18920.2
18923.2
18926.3
18923.9
18929.9
18232.4
18227
18232.3
18229.4
18229.3
18241.6
16900.7
16885.5
16891.1
16905.5
16916.5
16899.6
14753.9
14737.8
14743.8
14755.7
14751.4
14724.1
13394
13368
13367.4
13387.9
13384.6
13335.1
12912.7
12933.1
12938.9
12848.7
12820.7
12869
7616.59
7644.75
7678.73
7595.73
7497.45
7683.57
7505.93
7310.73
7225.9
7484.72
7502.71
7263.97
9740.11
9591.33
9520.83
9758.63
9850.39
9577.12
14149.5
14165.6
14155.4
14163.2
14184.8
14180.8
17955.8
18004.3
18030
17953.7
17930.9
18027.2
19323.4
19322.6
19341.4
19322.5
19323.6
19340.1
19637.8
19632.6
19650.2
19636.7
19637.3
19644.5
18748.9
18852.1
18840.5
18780.5
18750.6
18882.9
12623.4
12700.9
12624.3
12710.1
12812.7
12721.7
8876.31
8763.91
8806.82
8891.09
8807.93
8698.25
9139.13
9022.94
9070.6
9110.77
9092.02
8932.92
9242.38
10082.8
10024.9
9075.42
9002.7
10042.1
-8.6702
-8.43879
-8.19035
-7.87361
-7.77873
-7.69902
-4.3748
-3.96492
-4.42077
-5.21443
-5.50876
-4.51499
29.8177
30.0483
29.7519
30.0732
30.0374
29.8255
471.042
441.779
440.729
468.353
486.336
440.112
1480.38
1473.79
1484.95
1476.82
1475.76
1509.73
3179.84
3198.09
3209.81
3201.58
3162.1
3290.7
4074.63
4073.63
4076.29
4100.94
4063.3
4114.53
4497.91
4438
4476.56
4464
4453.78
4492.89
7459.34
7209.1
7315.79
7300.7
7282.82
7429.75
8702.31
8551.1
8619.62
8759.76
8687.67
8495.07
6041.05
6337.97
6146.09
6061.78
6389.92
6261.83
2244.26
2412.31
2352.3
2230.83
2359.3
2395.9
7.90296
7.44638
7.12465
7.73203
8.31065
6.98834
5.99853
5.72042
5.67452
5.26393
5.25716
5.29011
13.028
13.0032
12.8167
12.9874
12.8278
12.8218
15.1846
15.0685
14.8749
14.8446
14.6046
14.0916
11.9394
11.8433
11.6829
11.7636
11.7441
11.245
9.03595
9.18077
9.13837
8.99862
8.97442
8.99487
-5.90546
-4.72362
-5.11363
-5.18761
-5.13382
-4.66297
-53.665
-53.8854
-53.8145
-52.105
-51.9025
-53.7997
-17.0719
-29.1545
-26.0162
-19.5115
-20.0846
-31.7539
551.124
218.579
290.929
478.743
426.914
220.651
968.311
927.56
939.959
972.982
1047.43
926.575
1393.99
1383.2
1399.75
1403.7
1377
1365.74
2418.66
2412.33
2432.49
2395.96
2387.66
2445.6
2324.14
2306.71
2317.5
2315.74
2310.35
2408.89
2239.39
2193.73
2252.65
2289.14
2259.01
2336.96
2228.76
2207.88
1941.26
2157.84
2261.5
2339.54
2201.73
2010.05
1961.51
1991.78
1998.38
2068.11
1689.98
1626.5
1603.13
1478.48
1538.45
1521.27
1147.6
1060.68
895.268
637.889
738.004
909.029
721.27
675.609
548.749
363.201
413.12
534.441
487.936
548.213
430.197
312.747
284.307
408.295
267.012
349.525
374.001
292.156
223.63
401.48
292.003
245.571
356.463
424.885
404.272
452.636
316.515
265.392
359.266
471.194
478.776
475.141
2305.27
2319.17
2190.9
2318.6
2250.98
2392.04
1966.51
2117.21
1829.2
2164.23
2150.16
2251.73
1999.82
2123.25
2131.78
2169.05
2178.3
2209.61
2104.68
2098.58
1452.5
2226.24
2219.53
2301.36
2109.28
1954.01
1201.31
1429.47
2074.41
2223.24
1803.99
1112.94
932.6
777.753
857.501
998.073
462.964
331.248
393.881
320.88
294.63
266.22
136.881
90.8128
96.8898
144.452
103.379
69.6794
186.562
64.9257
38.9223
71.8519
43.4732
39.2157
163.902
46.7334
41.2049
42.2686
40.7233
75.9861
89.3594
79.5601
56.243
59.2946
70.7755
154.149
168.736
111.651
101.744
83.7732
84.274
170.517
832.554
1128.92
295.446
838.322
1557.32
2047.1
328.709
290.701
54.1915
348.94
780.39
1240.94
299.469
268.636
293.902
863.323
1095.37
756.306
313.373
830.571
2201.02
2579.85
2342.36
1094.22
725.44
1693.36
1876.47
2365.64
2447.98
1909.28
945.618
1711.61
462.415
564.332
1239.3
1200.54
566.24
540.52
92.7625
125.516
94.7826
107.095
38.1613
40.8678
46.9882
84.3872
48.8113
51.2558
24.1622
27.1056
27.9527
28.5279
35.3044
42.5313
29.9293
29.8669
26.8056
25.5334
34.4716
38.9206
37.2508
48.9616
41.5532
65.2124
105.78
35.4287
38.5837
61.6215
114.117
178.649
169.342
48.9338
-2.65528
-4.33159
-1.53568
-1.99125
-2.83901
-4.839
-2.6266
-3.84539
-0.862133
-2.36471
-3.22722
-4.48383
-5.16343
-8.31049
-1.89984
-1.50146
-5.16131
58.522
-8.14028
-15.5919
-5.55889
1.95437
-10.1006
59.3542
-7.76053
-11.8678
956.714
2022.14
851.122
226.912
-14.4751
521.504
933.457
1107.2
940.987
582.142
85.1377
621.593
91.2231
50.2175
151.405
189.793
72.8273
161.794
25.9187
29.4662
33.0249
38.1943
23.4353
21.4119
19.9159
21.4115
27.787
35.2892
18.5105
15.0841
9.36651
9.65916
14.4143
15.6876
29.445
23.8209
16.2071
19.6911
69.4191
18.7875
284.9
239.795
228.344
251.741
231.234
252.74
15.4392
11.0943
9.63222
15.2662
15.2589
10.4264
9.98299
3.99809
2.21676
9.64291
9.5605
4.48785
7.01799
2.10433
-0.344719
6.09227
6.14477
5.25292
9.6029
8.70163
8.83722
6.13032
7.1727
8.17256
-0.304322
-1.27302
-0.47704
-1.12518
0.0997736
-0.67916
-9.75887
-9.63712
-9.37179
-9.58494
-9.97102
-9.27476
12.7171
12.8516
12.7871
12.8157
12.8288
13.2241
2.46306
2.43246
2.42576
2.57906
2.59792
2.51798
-3.76857
-3.85343
-3.79306
-3.82625
-3.82363
-3.81846
11.9356
12.3042
12.3708
12.0767
12.0061
12.8322
1.30165
1.29788
1.3599
1.31039
1.31641
1.47301
-4.6941
-4.7223
-4.67185
-4.69195
-4.67105
-4.61662
7.44125
7.69757
7.64415
7.59208
7.54407
7.92781
-2.02626
-2.01948
-1.9911
-2.05769
-2.03132
-1.9712
-6.80499
-6.86742
-6.81757
-6.85288
-6.80775
-6.78768
-0.313417
0.0105825
-0.140263
-0.115669
-0.272611
-0.0318108
-9.92735
-9.83561
-9.82538
-9.96353
-9.901
-9.7399
-11.2555
-11.4337
-11.3772
-11.3756
-11.0758
-11.3665
-22.163
-20.2913
-20.9171
-20.873
-21.395
-19.8478
-26.0332
-25.0017
-25.5923
-25.8107
-26.4728
-25.464
-16.919
-17.5992
-17.6906
-17.3607
-16.6177
-17.9812
-86.2035
-83.02
-83.2183
-82.7625
-82.736
-81.5187
-82.8511
-78.2203
-78.8856
-80.8134
-82.7555
-75.9124
-26.6434
-28.1752
-28.4798
-28.0139
-28.5703
-28.9103
-95.2011
-99.3227
-98.1817
-95.5389
-95.4069
-99.7772
-101.709
-101.477
-101.499
-102.946
-104.05
-100.051
-32.3074
-32.756
-33.0524
-33.7906
-34.8643
-31.2281
8.50187
13.0605
14.2759
12.2188
13.5151
14.6861
-39.3127
-41.476
-40.4751
-39.9144
-39.7624
-38.0743
-28.5332
-30.0204
-29.6261
-29.7359
-30.0376
-28.8424
134.086
124.601
128.799
136.961
131.084
120.215
38.7882
17.5772
27.0753
44.7886
41.0776
14.0285
-20.7311
-22.0016
-21.4109
-17.3807
-16.433
-24.9154
886.096
775.641
831.534
876.189
837.463
732.691
157.28
179.775
163.81
167.767
171.728
193.54
-12.7644
-12.2148
-12.7319
-12.7873
-12.6787
-12.2703
1233.66
1230.71
1221.45
1215.02
1207.32
1204.72
4.89036
4.30523
3.27382
4.64244
5.30811
5.56037
-3.3917
-3.30247
-2.87461
-2.55626
-2.57499
-2.5636
1324.17
1311.48
1309.26
1298.26
1290.7
1292.19
3.95027
4.00421
4.19493
4.69716
5.00496
5.15714
-2.56731
-2.51439
-2.38695
-2.24331
-2.22004
-2.20554
1346.36
1345.04
1342.34
1341.18
1340.33
1339.58
4.30249
4.26257
4.25371
4.32339
4.40452
4.45714
-3.15761
-3.12074
-3.02754
-3.01635
-3.06715
-3.08102
1328.16
1325.82
1323.78
1322.19
1319.99
1318.75
3.39602
3.42425
3.53496
3.72799
3.82436
3.8533
-3.11103
-3.0857
-3.06776
-3.03028
-3.00699
-3.00135
1227.91
1235.13
1227.85
1221.6
1216.68
1229.92
5.08266
5.23082
5.08759
5.00714
4.93409
5.09479
-3.59627
-3.61414
-3.64659
-3.59625
-3.63572
-3.67905
1228.71
1232.99
1227.03
1221.68
1218.01
1228.86
2.86196
2.34385
2.55901
3.19137
3.02402
2.5343
-4.52065
-4.55308
-4.50221
-4.45255
-4.64397
-4.79352
0.923115
-0.662935
1.15915
-0.221907
-2.58877
-3.65521
-0.622803
-1.22597
-0.311671
-0.94503
-2.1516
-1.76848
-3.32671
-3.77501
-3.59025
-3.71072
-4.21902
-3.77905
0.0459876
-1.31713
0.894113
-2.25288
-5.02696
-6.10083
-1.39635
-2.29826
-2.78085
-3.35265
-3.93147
-3.6812
-4.55764
-5.03672
-5.30632
-5.21727
-5.45616
-4.96365
-1.8572
-4.32045
-3.60195
-5.42313
-10.3015
-8.62095
-0.830797
-2.39263
-3.60236
-4.40689
-5.46447
-5.73794
-3.91763
-4.79735
-4.8505
-4.93326
-4.72571
-4.02999
-1.68791
-10.0506
-9.89982
-11.568
-19.2797
-16.5205
-2.36138
-2.76604
-4.70986
-7.53588
-9.43757
-9.18348
-3.53229
-4.49407
-4.50001
-3.83628
-3.03044
-2.4472
-5.43616
-18.9156
-21.3662
-28.6209
-43.5014
-34.2802
-13.3933
-6.87846
-23.3983
-28.9647
-28.1254
-24.5565
-4.38648
-5.38108
-6.0705
-5.53304
-3.85317
-3.39539
-18.3071
31.3959
572.052
494.291
168.644
-32.484
-19.901
51.3341
153.899
64.2381
-36.0789
-32.3883
-6.35344
-7.51667
-8.21965
-7.5068
-6.99576
-6.1346
43.6803
269.959
241.493
162.433
95.5648
62.7322
-4.86566
37.5006
154.191
56.7553
16.1432
-15.1468
-6.51565
-8.05418
-5.23363
-7.92239
-6.75096
-5.79886
47.6288
112.657
10.4
14.1149
16.7425
21.5373
6.44042
22.2116
7.52694
5.02449
4.30942
3.45244
-2.09142
-3.01
-0.996486
-1.27807
-1.18435
-1.55134
19.3818
15.2584
13.2535
12.922
15.3762
15.7806
9.0984
7.42215
4.62828
2.77818
2.35965
1.75526
0.0341814
-0.256359
-0.0415016
0.401846
0.732827
0.793402
17.5752
14.2504
8.39713
4.71047
5.40916
8.85122
9.38624
6.96779
3.94537
1.75986
0.990575
2.2668
-0.179803
-0.201007
-0.197805
0.464463
0.97665
1.10897
22.1601
20.5601
16.6486
11.3804
8.87809
13.7071
6.56553
4.07014
2.10332
2.07512
3.32076
4.55385
-0.0829628
-0.155695
-0.877504
0.891051
2.53252
2.79045
378.043
343.409
268.808
303.133
322.381
359.325
-1.26799
-1.75562
7.63238
0.0667607
0.196479
-0.0411163
-2.29009
-1.72313
-0.73325
0.0686094
-0.638162
-1.03157
)
;

boundaryField
{
    seabed_topleft_surface
    {
        type            fixedFluxPressure;
        gradient        uniform 0;
        value           nonuniform List<scalar> 
72
(
12177.5
12174.1
12182.5
12163.3
12156.5
12177.4
12830.7
12808.8
12808.1
12826.9
12846.8
12806.4
14649.2
14640.5
14635.5
14643.2
14653
14632.7
16424.2
16423.9
16422.3
16423.7
16427.6
16424.1
17768.4
17766.5
17764.1
17763.2
17766.3
17772.6
18693.9
18692.4
18693.6
18694.8
18694
18695.8
18926
18920.2
18923.2
18926.3
18923.9
18929.9
18232.4
18227
18232.3
18229.4
18229.3
18241.6
16900.7
16885.5
16891.1
16905.5
16916.5
16899.6
14753.9
14737.8
14743.8
14755.7
14751.4
14724.1
13394
13368
13367.4
13387.9
13384.6
13335.1
12912.7
12933.1
12938.9
12848.7
12820.7
12869
)
;
    }
    seabed_topright_surface
    {
        type            fixedFluxPressure;
        gradient        uniform 0;
        value           nonuniform List<scalar> 
72
(
2418.66
2412.33
2432.49
2395.96
2387.66
2445.6
2324.14
2306.71
2317.5
2315.74
2310.35
2408.89
2239.39
2193.73
2252.65
2289.14
2259.01
2336.96
2228.76
2207.88
1941.26
2157.84
2261.5
2339.54
2201.73
2010.05
1961.51
1991.78
1998.38
2068.11
1689.98
1626.5
1603.13
1478.48
1538.45
1521.27
1147.6
1060.68
895.268
637.889
738.004
909.029
721.27
675.609
548.749
363.201
413.12
534.441
487.936
548.213
430.197
312.747
284.307
408.295
267.012
349.525
374.001
292.156
223.63
401.48
292.003
245.571
356.463
424.885
404.272
452.636
316.515
265.392
359.266
471.194
478.776
475.141
)
;
    }
    breakwater_top_surface
    {
        type            fixedFluxPressure;
        gradient        uniform 0;
        value           nonuniform List<scalar> 
36
(
1233.66
1230.71
1221.45
1215.02
1207.32
1204.72
1324.17
1311.48
1309.26
1298.26
1290.7
1292.19
1346.36
1345.04
1342.34
1341.18
1340.33
1339.58
1328.16
1325.82
1323.78
1322.19
1319.99
1318.75
1227.91
1235.13
1227.85
1221.6
1216.68
1229.92
1228.71
1232.99
1227.03
1221.68
1218.01
1228.86
)
;
    }
    breakwater_left_surface
    {
        type            fixedFluxPressure;
        gradient        uniform 0;
        value           nonuniform List<scalar> 
24
(
12912.7
12933.1
12938.9
12848.7
12820.7
12869
9242.38
10082.8
10024.9
9075.42
9002.7
10042.1
2244.26
2412.31
2352.3
2230.83
2359.3
2395.9
1393.99
1383.2
1399.75
1403.7
1377
1365.74
)
;
    }
    breakwater_right_surface
    {
        type            fixedFluxPressure;
        gradient        uniform 0;
        value           nonuniform List<scalar> 
24
(
316.515
265.392
359.266
471.194
478.776
475.141
168.736
111.651
101.744
83.7732
84.274
170.517
38.5837
61.6215
114.117
178.649
169.342
48.9338
284.9
239.795
228.344
251.741
231.234
252.74
)
;
    }
    water_front_surface
    {
        type            fixedFluxPressure;
        gradient        uniform 0;
        value           nonuniform List<scalar> 
186
(
12177.5
12830.7
14649.2
16424.2
17768.4
18693.9
18926
18232.4
16900.7
14753.9
13394
12912.7
7616.59
7505.93
9740.11
14149.5
17955.8
19323.4
19637.8
18748.9
12623.4
8876.31
9139.13
9242.38
-8.6702
-4.3748
29.8177
471.042
1480.38
3179.84
4074.63
4497.91
7459.34
8702.31
6041.05
2244.26
7.90296
5.99853
13.028
15.1846
11.9394
9.03595
-5.90546
-53.665
-17.0719
551.124
968.311
1393.99
2418.66
2324.14
2239.39
2228.76
2201.73
1689.98
1147.6
721.27
487.936
267.012
292.003
316.515
2305.27
1966.51
1999.82
2104.68
2109.28
1803.99
462.964
136.881
186.562
163.902
89.3594
168.736
832.554
328.709
299.469
313.373
725.44
945.618
566.24
38.1613
24.1622
29.9293
37.2508
38.5837
-2.65528
-2.6266
-5.16343
-8.14028
-7.76053
-14.4751
85.1377
72.8273
23.4353
18.5105
29.445
284.9
15.4392
9.98299
7.01799
9.6029
-0.304322
-9.75887
12.7171
2.46306
-3.76857
11.9356
1.30165
-4.6941
7.44125
-2.02626
-6.80499
-0.313417
-9.92735
-11.2555
-22.163
-26.0332
-16.919
-86.2035
-82.8511
-26.6434
-95.2011
-101.709
-32.3074
8.50187
-39.3127
-28.5332
134.086
38.7882
-20.7311
886.096
157.28
-12.7644
1233.66
4.89036
-3.3917
1324.17
3.95027
-2.56731
1346.36
4.30249
-3.15761
1328.16
3.39602
-3.11103
1227.91
5.08266
-3.59627
1228.71
2.86196
-4.52065
0.923115
-0.622803
-3.32671
0.0459876
-1.39635
-4.55764
-1.8572
-0.830797
-3.91763
-1.68791
-2.36138
-3.53229
-5.43616
-13.3933
-4.38648
-18.3071
-19.901
-6.35344
43.6803
-4.86566
-6.51565
47.6288
6.44042
-2.09142
19.3818
9.0984
0.0341814
17.5752
9.38624
-0.179803
22.1601
6.56553
-0.0829628
378.043
-1.26799
-2.29009
)
;
    }
    water_back_surface
    {
        type            fixedFluxPressure;
        gradient        uniform 0;
        value           nonuniform List<scalar> 
186
(
12177.4
12806.4
14632.7
16424.1
17772.6
18695.8
18929.9
18241.6
16899.6
14724.1
13335.1
12869
7683.57
7263.97
9577.12
14180.8
18027.2
19340.1
19644.5
18882.9
12721.7
8698.25
8932.92
10042.1
-7.69902
-4.51499
29.8255
440.112
1509.73
3290.7
4114.53
4492.89
7429.75
8495.07
6261.83
2395.9
6.98834
5.29011
12.8218
14.0916
11.245
8.99487
-4.66297
-53.7997
-31.7539
220.651
926.575
1365.74
2445.6
2408.89
2336.96
2339.54
2068.11
1521.27
909.029
534.441
408.295
401.48
452.636
475.141
2392.04
2251.73
2209.61
2301.36
2223.24
998.073
266.22
69.6794
39.2157
75.9861
154.149
170.517
2047.1
1240.94
756.306
1094.22
1909.28
1200.54
107.095
51.2558
42.5313
38.9206
35.4287
48.9338
-4.839
-4.48383
58.522
59.3542
226.912
582.142
189.793
38.1943
35.2892
15.6876
18.7875
252.74
10.4264
4.48785
5.25292
8.17256
-0.67916
-9.27476
13.2241
2.51798
-3.81846
12.8322
1.47301
-4.61662
7.92781
-1.9712
-6.78768
-0.0318108
-9.7399
-11.3665
-19.8478
-25.464
-17.9812
-81.5187
-75.9124
-28.9103
-99.7772
-100.051
-31.2281
14.6861
-38.0743
-28.8424
120.215
14.0285
-24.9154
732.691
193.54
-12.2703
1204.72
5.56037
-2.5636
1292.19
5.15714
-2.20554
1339.58
4.45714
-3.08102
1318.75
3.8533
-3.00135
1229.92
5.09479
-3.67905
1228.86
2.5343
-4.79352
-3.65521
-1.76848
-3.77905
-6.10083
-3.6812
-4.96365
-8.62095
-5.73794
-4.02999
-16.5205
-9.18348
-2.4472
-34.2802
-24.5565
-3.39539
-32.484
-32.3883
-6.1346
62.7322
-15.1468
-5.79886
21.5373
3.45244
-1.55134
15.7806
1.75526
0.793402
8.85122
2.2668
1.10897
13.7071
4.55385
2.79045
359.325
-0.0411163
-1.03157
)
;
    }
    water_left_surface
    {
        type            fixedFluxPressure;
        gradient        uniform 0;
        value           nonuniform List<scalar> 
42
(
12177.5
12174.1
12182.5
12163.3
12156.5
12177.4
7616.59
7644.75
7678.73
7595.73
7497.45
7683.57
-8.6702
-8.43879
-8.19035
-7.87361
-7.77873
-7.69902
7.90296
7.44638
7.12465
7.73203
8.31065
6.98834
15.4392
11.0943
9.63222
15.2662
15.2589
10.4264
9.98299
3.99809
2.21676
9.64291
9.5605
4.48785
7.01799
2.10433
-0.344719
6.09227
6.14477
5.25292
)
;
    }
    water_right_surface
    {
        type            fixedFluxPressure;
        gradient        uniform 0;
        value           nonuniform List<scalar> 
42
(
2418.66
2412.33
2432.49
2395.96
2387.66
2445.6
2305.27
2319.17
2190.9
2318.6
2250.98
2392.04
832.554
1128.92
295.446
838.322
1557.32
2047.1
-2.65528
-4.33159
-1.53568
-1.99125
-2.83901
-4.839
0.923115
-0.662935
1.15915
-0.221907
-2.58877
-3.65521
-0.622803
-1.22597
-0.311671
-0.94503
-2.1516
-1.76848
-3.32671
-3.77501
-3.59025
-3.71072
-4.21902
-3.77905
)
;
    }
    water_top_surface
    {
        type            totalPressure;
        rho             rho;
        psi             none;
        gamma           1;
        p0              uniform 0;
        value           nonuniform List<scalar> 
180
(
0
0
0
0
0
0
-12.4246
-12.3264
-11.9427
-12.2568
-13.0672
-11.1806
-7.30471
-7.47911
-7.50057
-7.36087
-7.33631
-7.49979
-8.64304
-8.72435
-8.68691
-8.6543
-8.64597
-8.59195
-11.2462
-11.5041
-11.4467
-11.3456
-11.2407
-11.4437
-15.5987
-16.0846
-15.9967
-15.9643
-15.6949
-16.0422
-21.119
-23.3122
-23.114
-21.7793
-19.6616
-24.0373
-9.9702
-20.7702
-19.4335
-12.0231
-7.84106
-25.8268
0
0
0
0
0
0
0
0
0
0
0
0
0
0
0
0
0
0
-1.13682
-0.399381
-1.00815
-1.03119
-1.06394
-0.104637
-0.00105732
-0.0663538
-0.083384
-0.00089552
0
0
-0.0899421
-0.0752273
-0.0343913
-0.0160265
-0.0133359
-0.0202025
-0.141138
-0.149559
-0.12758
-0.116564
-0.111794
-0.105648
-0.264196
-0.268287
-0.253603
-0.244904
-0.239071
-0.234325
-0.0105444
-0.00977985
-0.00726721
-0.00574673
-0.00405672
-0.0033452
-0.504838
-0.55985
-0.509371
-0.539528
-0.644752
-0.536269
-2.05811
-3.52685
-0.40316
-2.70138
-5.01089
-2.8811
-5.23017
-5.59151
-6.21343
-6.57976
-6.69567
-5.10279
-3.49642
-4.72338
-4.94316
-6.07087
-5.85987
-4.13846
-3.15415
-4.92132
-6.00215
-6.48634
-4.37481
-2.99346
-1.76176
-4.43533
-5.72957
-4.30146
-1.13643
-0.606425
0
-0.594958
-1.632
0
0
0
0
0
0
0
0
0
0
0
0
0
0
0
0
0
0
0
0
0
0
0
0
0
0
0
0
0
0
0
0
0
-0.641065
-0.78896
0
-0.00635685
-0.165284
-0.151116
)
;
    }
}


// ************************************************************************* //
