/*--------------------------------*- C++ -*----------------------------------*\
| =========                 |                                                 |
| \\      /  F ield         | OpenFOAM: The Open Source CFD Toolbox           |
|  \\    /   O peration     | Version:  v1612+                                |
|   \\  /    A nd           | Web:      www.OpenFOAM.com                      |
|    \\/     M anipulation  |                                                 |
\*---------------------------------------------------------------------------*/
FoamFile
{
    version     2.0;
    format      ascii;
    class       volVectorField;
    location    "8.6";
    object      U;
}
// * * * * * * * * * * * * * * * * * * * * * * * * * * * * * * * * * * * * * //

dimensions      [0 1 -1 0 0 0 0];

internalField   nonuniform List<vector> 
1116
(
(0.265659 9.23904e-06 -0.12933)
(0.217142 -0.0150993 -0.132249)
(0.198137 0.0301127 -0.140348)
(0.309915 0.0300138 -0.126655)
(0.368495 -0.00114981 -0.121898)
(0.212715 -0.0436581 -0.140622)
(0.655983 0.0122215 0.104584)
(0.626371 -0.00774698 0.12246)
(0.611694 0.000717734 0.133834)
(0.656125 -0.0307543 0.107637)
(0.675729 0.0197059 0.104081)
(0.606033 -0.00714241 0.131359)
(0.86778 0.00712585 0.0392293)
(0.851113 0.00172059 0.0479639)
(0.844676 -0.00315189 0.0572375)
(0.867298 -0.0199688 0.0360027)
(0.884272 0.0109729 0.0287745)
(0.834502 0.00646403 0.0541795)
(0.900152 0.00270615 -0.10757)
(0.894182 0.00258672 -0.10732)
(0.892207 -0.00274538 -0.105421)
(0.900133 -0.0084304 -0.108647)
(0.908314 0.0042048 -0.111211)
(0.887525 0.00729766 -0.106192)
(0.852644 -0.000207857 -0.15926)
(0.847372 0.000390081 -0.158239)
(0.848557 -0.00103834 -0.160503)
(0.850924 -0.00242831 -0.157401)
(0.854238 -0.000120218 -0.157834)
(0.847092 0.00150352 -0.160357)
(0.841458 -0.00098879 -0.102474)
(0.830509 -0.000558626 -0.10392)
(0.834151 -0.000110094 -0.10555)
(0.837405 0.000178997 -0.101377)
(0.841503 -0.00274414 -0.101348)
(0.83237 -0.00332443 -0.105642)
(0.924866 0.00154273 -0.0781609)
(0.910612 -0.000264823 -0.089235)
(0.91402 -0.000241116 -0.0880244)
(0.921277 -0.000829953 -0.0801764)
(0.92711 -0.00144187 -0.0741837)
(0.909546 -0.000189043 -0.0920173)
(0.974701 0.000603526 -0.0907251)
(0.972737 -0.00121588 -0.111657)
(0.973453 -6.36291e-05 -0.107323)
(0.975191 -0.00101223 -0.0960108)
(0.97021 -0.00171605 -0.0852109)
(0.974208 -0.000389328 -0.123487)
(0.699182 -0.00395366 -0.222006)
(0.709343 -0.00192196 -0.217238)
(0.708943 0.00148366 -0.216159)
(0.700927 0.00234848 -0.224386)
(0.685333 -0.000590974 -0.231041)
(0.715205 -0.00333677 -0.212728)
(0.222232 -0.00137375 -0.537548)
(0.2115 0.00239553 -0.509808)
(0.215369 -0.00179817 -0.511154)
(0.219634 0.00107315 -0.538171)
(0.214455 0.00576782 -0.558774)
(0.212561 0.00247365 -0.487953)
(0.0291073 -0.00157707 -0.652162)
(-0.0064536 0.00339756 -0.63127)
(-0.00458243 2.4419e-05 -0.632684)
(0.0266339 0.00456352 -0.653505)
(0.0332397 0.00349932 -0.67744)
(-0.019935 0.00264121 -0.616547)
(0.0055877 -0.00123565 -0.46832)
(-0.0486782 -0.00472015 -0.487552)
(-0.0453221 0.00343225 -0.485444)
(0.00501597 -0.00212464 -0.470262)
(0.0288577 -0.00942994 -0.487185)
(-0.062005 0.00962208 -0.489066)
(0.132459 -0.0132206 -0.924072)
(0.227548 0.00914882 -0.926231)
(0.246856 -0.0377546 -0.92744)
(0.02126 -0.0278332 -0.92601)
(-0.115256 -0.011166 -0.934726)
(0.209282 0.0446991 -0.924931)
(1.08337 -0.0236111 -0.73408)
(1.13343 0.0253404 -0.742641)
(1.15051 -0.00892872 -0.742619)
(1.08666 0.0605925 -0.721004)
(1.11036 -0.0320246 -0.71998)
(1.12617 0.027405 -0.731599)
(1.27946 -0.00849369 -0.306361)
(1.29846 0.0151915 -0.301431)
(1.2983 -0.00590183 -0.299715)
(1.29124 0.0235213 -0.304534)
(1.32436 -0.00633861 -0.311152)
(1.28443 0.0201351 -0.300885)
(1.45149 -0.000580394 0.0677397)
(1.4518 0.0037999 0.0763921)
(1.44761 -0.00205079 0.0770098)
(1.4564 0.00192632 0.0675743)
(1.47354 0.00311535 0.0629864)
(1.43339 0.00836159 0.0720358)
(1.74792 0.00213252 0.172225)
(1.74581 0.00137575 0.18001)
(1.74336 -0.00151214 0.17939)
(1.75039 -0.00422258 0.173366)
(1.75934 0.00266194 0.172502)
(1.73186 0.00364883 0.172828)
(2.10191 0.0020446 0.0782062)
(2.09983 0.0013761 0.0827392)
(2.09871 -0.0014607 0.0826844)
(2.10362 -0.00428363 0.0792215)
(2.10894 0.00142413 0.0819955)
(2.09173 0.00249032 0.0736763)
(2.51384 0.00531692 -0.00656177)
(2.52483 0.00237246 0.00107097)
(2.51758 -0.00189167 -0.000347229)
(2.52068 -0.00459353 -0.00386333)
(2.5232 0.00223169 -0.00275417)
(2.5173 0.00432396 -0.00296853)
(2.99958 0.00714437 0.175151)
(3.03461 0.00179295 0.177963)
(3.01872 -0.00182158 0.174525)
(3.01446 -0.00601334 0.177832)
(3.01258 0.00340566 0.181231)
(3.0245 0.00696072 0.177895)
(3.65044 0.00398099 0.753542)
(3.66985 0.000873855 0.746588)
(3.66057 -0.00222493 0.745245)
(3.65937 -0.00153073 0.751329)
(3.65945 -6.31114e-06 0.761206)
(3.65817 -0.00123545 0.750659)
(4.34824 -0.0139541 1.08743)
(4.36717 -0.00407507 1.10646)
(4.35239 0.00484267 1.10244)
(4.36008 0.00808348 1.07897)
(4.39234 -0.0181184 1.09564)
(4.31183 -0.0146864 1.11612)
(4.43735 -0.0665172 0.885914)
(4.50877 -0.0311044 0.930115)
(4.49577 0.0473032 0.934518)
(4.45099 0.0322087 0.876443)
(4.4609 -0.0594808 0.868198)
(4.46813 -0.0539132 0.947937)
(2.77339 -0.0757028 0.820111)
(2.66969 -0.0336854 0.754827)
(2.64951 0.0152151 0.74957)
(2.83088 -0.0425875 0.83762)
(2.91611 -0.0700154 0.861291)
(2.62996 0.0259286 0.729757)
(-0.404022 -0.0431261 -1.86065)
(0.838906 0.321125 -1.97901)
(1.00449 -0.609204 -2.0119)
(-1.49811 -0.366968 -1.80902)
(-2.37554 -0.092977 -1.76511)
(0.611705 0.744558 -1.94318)
(2.56067 -0.359392 -1.08091)
(3.02499 0.361585 -1.04251)
(3.15747 -0.0631306 -1.02072)
(2.9449 0.905393 -1.16038)
(3.29017 -0.499568 -1.32306)
(3.20453 0.474814 -1.00585)
(1.21022 -0.183899 0.0876914)
(1.56499 0.17865 0.131634)
(1.62714 -0.143738 0.155172)
(1.38482 0.231961 0.0906156)
(1.46149 -0.0953195 0.0758557)
(2.01428 0.533074 0.166198)
(0.946834 -0.0315686 -0.595893)
(1.0991 0.0322731 -0.536215)
(1.10926 -0.0635139 -0.531184)
(0.972873 0.0194858 -0.582752)
(0.897071 0.00250883 -0.581129)
(1.32074 0.187685 -0.478623)
(1.89337 -0.00688844 -0.861393)
(1.93418 -0.00207463 -0.835216)
(1.93117 -0.020246 -0.838373)
(1.8907 0.0059663 -0.854897)
(1.85486 -0.0141333 -0.852383)
(2.02547 0.0356926 -0.840075)
(3.21944 -0.0174299 -0.912067)
(3.25043 -0.0170282 -0.910451)
(3.22876 0.00162276 -0.901745)
(3.22413 0.0167174 -0.915094)
(3.21364 -0.0335138 -0.914167)
(3.25816 -0.0290957 -0.91807)
(4.48416 -0.0399766 -0.936116)
(4.48012 -0.0324452 -0.950834)
(4.46623 0.0235254 -0.939414)
(4.47255 0.039397 -0.939482)
(4.52826 -0.0622155 -0.942038)
(4.43863 -0.069221 -0.950375)
(5.52939 -0.0116762 -1.03672)
(5.45387 -0.0177632 -1.04274)
(5.43663 0.0136995 -1.03732)
(5.54178 0.0321819 -1.03883)
(5.6314 -0.0561909 -1.03952)
(5.33114 -0.0599126 -1.04252)
(5.8682 0.0492851 -1.16991)
(5.97615 0.0236735 -1.14317)
(5.8908 -0.0211879 -1.14021)
(5.96141 0.00643912 -1.18046)
(5.98858 0.00964482 -1.1891)
(5.82148 0.00626061 -1.1167)
(6.44529 0.0173784 -0.991466)
(6.67723 0.0296119 -1.11635)
(6.58337 -0.0399521 -1.08018)
(6.52661 0.0182195 -1.00113)
(6.61569 0.0211923 -1.0185)
(6.48394 0.0313598 -1.08393)
(5.95854 -0.0658752 0.62316)
(6.53582 0.00541973 0.230064)
(6.37367 -0.0283985 0.363583)
(5.98215 -0.0151759 0.626173)
(6.21301 -0.025392 0.466135)
(6.41652 0.0520222 0.271426)
(3.71809 -0.272263 6.03985)
(5.45856 -0.102611 5.02486)
(5.11204 0.173881 5.40695)
(3.37713 0.0957181 6.08529)
(3.21683 -0.285612 5.5994)
(5.2823 -0.115704 5.18193)
(-2.12516 -0.0292498 -2.23454)
(-1.21681 0.431439 -2.38068)
(-0.691848 -0.357325 -2.38317)
(-2.60069 -0.101841 -2.21168)
(-3.06165 0.0133947 -2.46575)
(-0.97831 0.660596 -2.32386)
(-2.19049 -0.105347 -0.956624)
(-2.15721 0.112853 -0.59096)
(-2.10763 0.297715 -0.770275)
(-1.79442 0.553552 -1.10782)
(-1.79 -0.0679842 -1.81501)
(-1.56655 0.0628604 -0.503747)
(0.349989 -0.145872 0.634434)
(0.230593 -0.0822749 0.700049)
(0.228811 -0.106856 0.83631)
(0.347806 0.0258242 0.62862)
(0.446499 -0.174245 0.554762)
(0.286185 0.025758 1.5614)
(2.98689 -0.0983395 -1.05388)
(2.87213 -0.0663035 -0.757566)
(2.88439 -0.0557313 -0.678542)
(2.97873 -0.0268751 -1.05432)
(3.04864 -0.0602796 -1.19394)
(3.03375 0.0188278 0.0326106)
(5.71695 -0.044315 -2.31717)
(5.62997 -0.0149322 -2.20368)
(5.67934 -0.0308796 -2.21477)
(5.65622 -0.0688401 -2.34585)
(5.63483 0.034941 -2.44919)
(5.80355 0.0841486 -1.95955)
(9.07539 -0.0276078 -3.0415)
(8.98998 -0.0102721 -3.11602)
(9.07682 0.00243733 -3.11437)
(8.95915 -0.0181804 -3.06587)
(8.79494 0.0306511 -3.08769)
(9.25312 0.0526142 -3.06948)
(13.038 -0.193253 -2.89858)
(12.9449 -0.122339 -3.15649)
(13.0022 0.0806595 -3.15014)
(12.949 0.134723 -2.90046)
(12.9453 -0.206955 -2.94339)
(13.0884 -0.170498 -3.13455)
(18.2792 -0.325048 -1.19445)
(17.2586 -0.20755 -1.62018)
(17.5815 0.0809528 -1.57902)
(17.9312 0.18891 -1.27283)
(18.1379 -0.3992 -1.29907)
(17.1485 -0.323993 -1.67781)
(21.2182 0.327593 0.473799)
(21.1132 0.252907 0.389381)
(20.8854 -0.438756 0.362141)
(21.3632 -0.108545 0.508934)
(21.8027 0.280485 0.556349)
(20.499 0.314917 0.302132)
(11.1335 0.135023 0.777288)
(16.9056 0.240778 0.89733)
(14.7977 -0.367991 0.705335)
(12.1685 -0.00982837 0.787901)
(12.8041 0.363572 0.764105)
(16.0859 0.55845 0.825676)
(2.78135 -0.137917 5.66584)
(6.7222 0.10162 4.26755)
(5.26484 -0.167628 4.71861)
(3.38249 0.0318591 5.63996)
(3.77359 0.125107 5.28776)
(6.88763 0.441341 4.32932)
(-1.67312 -0.545985 9.85411)
(-0.615326 -0.348825 9.95244)
(-0.765913 0.381032 9.98612)
(-2.00419 0.385099 9.86486)
(-2.4679 -0.619538 9.98837)
(-0.159308 -0.502477 9.59856)
(-0.573915 0.133047 -0.590178)
(-0.625773 -0.141477 -0.0920063)
(-0.885624 -0.266536 -0.808443)
(-0.70417 0.551533 -0.263942)
(-0.0724658 -0.148067 0.0679166)
(-0.316542 0.0449351 -0.42389)
(-1.71411 0.195716 -0.616516)
(-1.18055 -0.129324 0.06363)
(-1.18361 -0.232 -0.440311)
(-1.02887 0.932104 -0.335161)
(-0.804553 0.14222 0.30483)
(-1.60213 -0.150826 -0.401295)
(-2.50099 0.250949 -0.286941)
(-1.95948 0.364034 0.0279207)
(-0.923646 0.366236 -0.369897)
(-0.702862 0.620639 -0.35962)
(-1.8275 -0.300254 0.45287)
(-2.49289 -0.216713 -0.296021)
(-2.34464 0.344754 0.115537)
(-1.82562 1.11107 0.268999)
(-1.07909 0.817331 0.948687)
(-2.00628 0.0633487 0.421491)
(-2.41434 -0.452001 0.411658)
(-2.84304 -0.265944 -0.102893)
(-0.909477 0.405233 0.21288)
(-0.235162 0.931988 0.224074)
(0.565528 0.365957 -0.611784)
(-0.731585 0.25267 -0.176369)
(-2.70521 -0.0638443 0.783561)
(-3.13949 -0.232716 0.637324)
(-0.247534 0.218086 -0.0405258)
(0.687303 0.633271 -0.889441)
(0.686143 0.732339 -1.517)
(0.201151 -0.200315 -0.975143)
(0.386546 -0.756195 -0.537493)
(-0.0910191 0.00219108 -0.432397)
(1.7591 0.111639 -0.414546)
(2.4705 0.536709 -1.41245)
(1.69437 1.13182 -1.55187)
(-2.16896 0.575244 0.211411)
(1.09072 -0.97294 -0.666184)
(1.40884 0.125027 -1.07869)
(2.63998 -0.0891324 -0.188914)
(3.51945 0.25588 -1.47443)
(3.65358 0.439595 -1.93716)
(-0.7803 0.698987 1.83834)
(3.27684 -0.611216 -0.641191)
(2.61639 0.264106 -0.91265)
(2.70073 -0.282676 0.29758)
(3.6083 0.0828138 -1.27205)
(4.22782 0.0411603 -2.0536)
(4.03179 0.317798 -0.546194)
(5.01454 -0.734347 -1.63742)
(2.9134 0.323343 -0.863442)
(2.43162 -0.144684 0.788202)
(3.09143 -0.122246 -0.690359)
(4.13712 -0.590917 -1.96587)
(5.27681 -0.533529 -2.35222)
(5.14423 -0.817798 -2.25543)
(2.71964 0.540219 -0.811099)
(2.29999 -0.0273107 0.27452)
(2.13437 -0.206529 0.481121)
(3.01587 -1.05026 -1.44381)
(3.65969 -0.778702 -2.3621)
(3.7151 -0.367584 -2.74678)
(2.00944 0.738883 -0.637604)
(0.780833 -0.119138 0.126032)
(1.17828 -0.292324 0.355856)
(1.37265 -0.607477 -0.706698)
(1.8354 -0.188448 -1.47588)
(1.55695 -0.0890835 -1.35143)
(0.575692 0.320758 -0.124487)
(-0.209416 -0.416177 -1.78)
(-0.499803 -0.378678 -0.841999)
(0.211321 -0.933191 -2.99786)
(-0.180811 -0.0235758 -1.68263)
(-0.1868 -0.0517302 -0.00499906)
(-0.093898 0.202236 -1.87199)
(-1.5844 -0.846995 -1.62315)
(-1.66494 -0.13411 -0.412591)
(-1.50192 -0.944782 -2.07657)
(-1.31831 0.0998779 -0.386994)
(-1.28449 -0.113178 0.422932)
(-1.51287 0.695638 -2.06763)
(-2.20317 -0.963343 -1.60288)
(-2.45857 -0.25285 -0.181451)
(-2.18428 -0.382068 -0.201255)
(-1.58446 0.296341 0.6693)
(-2.4074 -0.239543 0.0492016)
(-2.65051 0.887015 -2.04095)
(-3.00918 -0.741127 -1.6279)
(-3.49886 -0.12374 0.297763)
(-3.12162 0.153208 2.56572)
(-3.24311 0.0210483 1.41176)
(-3.22209 -0.395112 -0.245011)
(-3.62828 0.666015 -1.86924)
(-3.96187 -0.200357 -1.0106)
(-4.12593 0.725479 1.25514)
(-2.78061 0.06076 3.01949)
(-3.4138 -0.738269 2.31211)
(-4.30149 -0.6407 1.7349)
(-4.72297 0.0794407 0.718256)
(-4.40863 0.272134 0.324975)
(-4.57676 1.33251 2.16084)
(-2.91798 -0.11063 3.16035)
(-2.22265 -1.29966 2.59179)
(-2.47501 -0.466188 2.85293)
(-3.86931 0.412367 2.7589)
(-3.76112 0.708743 1.69875)
(-3.96826 1.9444 2.32984)
(-1.90547 -0.325312 3.13894)
(-0.377178 -0.0256908 4.39286)
(2.17735 -0.217233 3.48305)
(-2.83569 1.29556 2.03728)
(-0.52625 0.42739 0.773658)
(-5.26557 2.75892 1.76647)
(-2.36642 -0.638352 2.46476)
(1.35352 0.804754 6.1081)
(4.6585 -0.0766416 3.86286)
(-2.79993 1.71559 1.60683)
(2.84324 -0.0983315 -0.281403)
(-1.52263 1.75872 -0.00988482)
(-3.69648 1.3932 2.09709)
(3.08142 1.01902 4.11263)
(4.47374 -0.942889 2.42482)
(-5.90369 0.671593 -0.542863)
(2.91745 -0.263266 -0.328936)
(3.53184 0.788456 0.653919)
(-1.51272 2.05818 1.84757)
(1.89145 0.712892 2.31938)
(3.87983 -1.59069 -0.221612)
(0.311766 0.626135 -0.503674)
(1.6186 -0.218518 -2.21094)
(4.48577 0.0139585 0.13495)
(3.51402 -0.687664 -0.122647)
(2.80239 0.581131 -2.65608)
(3.66087 -0.72231 -5.45711)
(1.10085 1.3258 -0.479512)
(2.14283 0.362606 -3.12014)
(2.71159 0.702877 -3.33505)
(2.85084 0.367151 -3.96792)
(3.90888 0.627212 -4.56311)
(3.37554 -0.586726 -3.80375)
(0.955227 -0.289311 -1.6699)
(0.349837 -0.94694 -1.0375)
(0.276046 -0.910452 -1.87361)
(1.67299 -1.22673 -3.10674)
(0.831459 -1.28241 -3.9464)
(0.0735214 0.104363 -1.535)
(0.418591 0.907566 -1.66251)
(-1.55635 -1.3877 -0.0113248)
(-1.2357 -0.694799 -2.42058)
(-1.20365 -1.44073 -1.6592)
(-0.773837 -1.1234 -3.90968)
(-1.02437 0.0497234 -2.33917)
(-1.47414 1.41027 -1.56375)
(-1.70075 -1.91239 0.514863)
(-1.12031 -0.999537 -3.19886)
(-0.203123 -1.75357 -2.99728)
(-1.128 -0.28452 -2.13548)
(-1.62507 0.843388 -2.17635)
(-2.24584 1.97125 -0.739574)
(-2.06438 -2.34637 -0.233118)
(-2.41193 -1.69955 -2.56572)
(-3.29504 -0.732247 0.282828)
(-3.13984 0.460932 0.36739)
(-3.10591 1.54007 -2.02448)
(-3.39995 2.19351 -1.61934)
(-3.37379 -1.50498 -2.25102)
(-4.19203 -0.731379 -1.08519)
(-5.0362 0.108073 3.68419)
(-4.51924 -0.110781 2.93522)
(-4.58456 0.551089 -0.157723)
(-4.91854 1.05782 -0.425585)
(-4.75923 -0.713803 -2.89087)
(-5.98806 0.320098 0.765607)
(-6.19211 0.103311 5.04071)
(-5.26873 -0.714564 4.34111)
(-5.1358 0.0497918 1.96198)
(-5.51836 0.562679 2.3847)
(-6.17445 -0.327456 -2.00186)
(-7.30376 0.692965 1.91212)
(-7.74789 -1.06508 5.41611)
(-3.26325 -0.59537 5.82589)
(-4.0898 0.462398 5.52868)
(-6.86825 0.817704 4.05981)
(-7.71919 -0.528954 -0.042734)
(-9.45176 0.16437 2.96791)
(-5.707 -1.82978 3.9157)
(1.17356 -0.188497 4.93597)
(-1.56255 -0.527676 1.67981)
(-6.68139 0.657236 1.309)
(-8.10296 -0.609254 -0.56506)
(-9.62977 -0.134953 1.93324)
(-4.68629 -0.910597 2.31018)
(0.772114 -0.572721 4.63476)
(-0.0305183 -1.96195 -0.129984)
(-3.11798 0.373129 0.6736)
(-6.09589 -0.661356 -1.30524)
(-6.37674 0.402488 1.85014)
(-5.43704 1.70074 3.41613)
(-0.92191 0.88364 4.96712)
(1.79405 -0.78772 -1.2877)
(-0.206471 0.971728 2.7736)
(-6.05142 -0.646319 0.32128)
(-1.05119 0.7173 0.0862644)
(0.180703 0.84052 0.492598)
(0.62665 1.54872 -2.11381)
(3.22626 -0.0101546 -5.60973)
(-1.46839 0.914274 0.398216)
(2.84499 0.760033 -4.12052)
(3.6845 1.49128 -5.37408)
(3.42673 0.965362 -5.08828)
(3.83458 0.790181 -4.6633)
(3.54606 -0.493481 -4.28669)
(2.61096 -0.887401 -3.47849)
(0.595213 -0.0528577 1.28491)
(0.621018 -0.393541 -2.04759)
(1.29578 -0.265955 -0.853756)
(0.740589 -0.111054 -5.12415)
(0.266781 0.209296 -6.13758)
(0.234583 1.21241 -1.02707)
(-1.88309 -0.363889 1.70074)
(-1.31865 0.147404 -2.85892)
(-1.19416 -0.0405947 -0.528372)
(-0.574484 0.883991 -5.44406)
(-0.738116 0.163749 -6.34686)
(-1.86518 0.94359 -1.26505)
(-2.86111 -0.809579 3.84474)
(-2.43621 0.711156 -2.71552)
(-1.59982 -0.348365 -2.52123)
(0.504894 1.38421 -6.53696)
(-1.44361 -0.203992 -6.34862)
(-2.75863 1.28335 1.89508)
(-3.61687 -0.444844 4.16874)
(-2.37476 0.103765 -4.93977)
(-0.809722 -0.831189 -6.88721)
(-0.105029 1.22582 -7.99966)
(-1.15973 0.888977 -6.18811)
(-3.10239 1.54577 2.84535)
(-3.75225 -0.519315 0.10547)
(-3.62922 -1.49814 -4.25321)
(-4.64638 -0.454538 -0.760901)
(-4.62834 0.764549 -0.523382)
(-3.83924 1.6477 -1.9752)
(-4.01422 1.4503 1.50808)
(-2.91636 -0.684734 -1.89173)
(-5.20383 -0.921151 -3.00938)
(-6.89095 -0.215851 3.24593)
(-6.34917 0.345766 3.58838)
(-5.43984 1.01145 1.24797)
(-5.04447 0.622266 2.5195)
(-4.42951 -1.09935 -0.874978)
(-7.11278 -0.774425 -0.0793035)
(-8.25805 -1.20856 6.10294)
(-5.98105 -0.651409 6.63924)
(-5.95344 0.629726 3.96812)
(-5.70235 0.256767 4.0453)
(-5.01371 -1.42836 1.02307)
(-8.03704 -1.07027 1.77929)
(-6.63779 -2.19449 5.84749)
(-1.75059 -0.95995 4.85926)
(-3.90486 -0.584526 4.06207)
(-3.91136 -0.165314 3.70058)
(-6.44104 -1.25187 1.91034)
(-8.08643 -1.44731 2.80819)
(-4.07487 -2.00692 3.89253)
(-0.958393 -1.75274 4.11932)
(-0.796455 -1.60217 2.091)
(-0.299412 -0.254177 2.26299)
(-5.89121 -0.419274 2.38869)
(-6.61728 -0.188696 3.16995)
(-4.97812 0.112967 4.83753)
(-1.59807 -0.409209 5.79492)
(1.02237 -0.513237 -0.70533)
(1.43395 0.114294 1.68038)
(-6.54678 0.448375 3.13536)
(-7.90972 1.75812 3.59984)
(-7.08181 1.90772 4.44307)
(-4.93683 1.92447 1.82603)
(2.4784 0.248687 -4.01888)
(-5.78498 -0.770728 2.93734)
(3.76348 0.209238 -3.59926)
(3.85291 0.609406 -3.70682)
(3.6018 0.772691 -3.59671)
(4.18893 1.00893 -4.25268)
(3.9019 -0.0806896 -4.16952)
(3.41693 -0.691921 -3.5112)
(-2.76271 -0.025722 -0.184498)
(-2.77932 0.254767 0.0960581)
(-2.23587 -0.115728 0.326402)
(-2.88277 -0.00376292 -0.186985)
(-3.06073 -0.107988 -0.512209)
(-2.23002 0.162787 0.445002)
(-2.74399 -0.160282 0.732614)
(-2.63059 0.0197039 1.48227)
(-2.20675 0.00561749 1.9136)
(-2.73994 0.247685 0.927393)
(-3.00134 -0.245307 0.541213)
(-2.3188 -0.0873718 1.5312)
(-2.55991 -0.231572 3.30265)
(-2.53881 -0.174513 2.64447)
(-2.25333 0.147955 2.47664)
(-2.51097 0.442488 3.30823)
(-2.73362 -0.0232209 3.28285)
(-2.45469 -0.0543423 3.26501)
(-1.04932 -0.0275188 -2.9783)
(-1.60457 -0.0436649 -2.87976)
(-2.02264 0.0702377 -2.59688)
(-0.930187 0.212677 -2.80307)
(-0.64685 -0.194784 -3.34362)
(-2.29606 -0.196166 -2.01848)
(-0.0873089 -0.0178406 -3.62299)
(-0.177476 -0.105988 -3.52826)
(-0.39072 -0.0379124 -3.31516)
(-0.0244034 0.151891 -3.50858)
(0.00534979 -0.1164 -3.95352)
(-0.806913 -0.154367 -2.91921)
(-0.0685855 -0.00777447 -4.98532)
(-0.019827 -0.0568219 -4.96555)
(-0.0134877 -0.0150132 -4.88763)
(-0.0779328 0.0649592 -4.95144)
(-0.074781 -0.0410171 -5.11248)
(-0.123989 -0.106596 -4.72907)
(0.224865 0.0237133 -3.39299)
(0.166708 0.0664392 -3.787)
(0.189436 -0.128125 -3.66487)
(0.253388 -0.194452 -3.48253)
(0.248764 -0.0270752 -3.50103)
(-0.119635 0.102901 -3.46752)
(-0.026513 0.05179 -3.18879)
(0.0142061 0.0699396 -3.33428)
(0.0529938 -0.0222951 -3.27544)
(0.00117473 -0.0192508 -3.25415)
(-0.0455277 0.091188 -3.26754)
(0.12535 0.104434 -3.21503)
(-0.322493 0.00945421 -3.82257)
(-0.311865 -0.000744977 -3.86792)
(-0.293396 0.00374764 -3.87347)
(-0.313434 0.0129481 -3.83723)
(-0.345134 0.00373552 -3.83083)
(-0.276553 -0.00602825 -3.87329)
(1.24734 -0.00133629 -4.04316)
(1.23271 -0.01665 -4.30923)
(1.24812 -0.0331437 -4.24317)
(1.26342 -0.050615 -4.16698)
(1.25081 -0.0640458 -4.15961)
(1.18529 -0.0214868 -4.28549)
(0.806566 0.0322618 -3.51337)
(0.808139 0.0123489 -3.53847)
(0.797339 -0.0124137 -3.49371)
(0.809649 -0.00244974 -3.53363)
(0.791032 0.00091085 -3.54112)
(0.818302 0.0178738 -3.43729)
(0.0773019 0.00270022 -4.15814)
(0.0734975 -0.00523462 -4.17769)
(0.0730697 -0.00184812 -4.16875)
(0.0736048 0.00446103 -4.16094)
(0.0659138 -0.0117953 -4.15896)
(0.0731086 -0.012419 -4.14597)
(1.84598 0.00592244 -5.28269)
(1.87434 -0.00908961 -5.43826)
(1.92153 -0.0122724 -5.36181)
(1.80428 -0.0552917 -5.38803)
(1.73594 -0.00390057 -5.40831)
(1.89708 0.0319414 -5.40134)
(1.05986 0.0333665 -4.39593)
(1.091 0.0139915 -4.4253)
(1.09242 -0.0143818 -4.38258)
(1.0724 -0.0436159 -4.42521)
(1.02236 0.0371239 -4.43749)
(1.13959 0.0713826 -4.34746)
(0.0950031 0.00663091 -4.74341)
(0.101163 0.00038392 -4.79754)
(0.101685 -0.00201684 -4.78556)
(0.101468 -0.00877635 -4.7644)
(0.0783299 0.00363657 -4.74233)
(0.121622 0.0134359 -4.78491)
(2.66956 -0.00600474 -6.97581)
(2.72415 9.23071e-05 -7.10543)
(2.84159 0.00991821 -7.05603)
(2.51543 0.0065587 -7.03129)
(2.27599 0.0275714 -7.0459)
(2.92872 0.063387 -6.99221)
(1.14501 0.0546558 -5.66464)
(1.29096 0.0426281 -5.7219)
(1.35007 -0.0253103 -5.68867)
(1.09496 -0.0814765 -5.73191)
(0.865543 0.119172 -5.68097)
(1.49946 0.189514 -5.70792)
(-0.0746618 0.0324184 -5.58625)
(-0.012851 0.0262784 -5.67259)
(-0.0025636 -0.0230721 -5.65704)
(-0.0682827 -0.0708197 -5.65128)
(-0.162569 0.0608991 -5.60337)
(0.0686119 0.0965216 -5.66499)
(3.41263 -0.170206 -8.66744)
(3.37153 -0.0775563 -9.17159)
(3.48741 0.0536345 -9.12317)
(3.28339 0.309962 -8.6552)
(3.13262 -0.33318 -8.75282)
(3.80536 -0.266849 -8.98907)
(0.607542 0.0600675 -7.29773)
(1.01339 0.0922349 -7.6791)
(1.09901 -0.0303732 -7.6419)
(0.570848 0.119058 -7.34843)
(0.174967 0.0184103 -6.97059)
(1.63709 0.074811 -7.85394)
(-0.783716 0.125368 -6.49937)
(-0.450486 0.120862 -6.82852)
(-0.410894 -0.0705774 -6.7994)
(-0.768023 -0.109664 -6.60011)
(-1.10895 0.174221 -6.27104)
(-0.18663 0.222364 -6.93389)
(4.97864 -0.279744 -5.93977)
(3.57088 -0.117077 -7.54797)
(3.82027 0.0168409 -7.19841)
(4.71193 0.490563 -6.38844)
(4.91731 -0.711576 -6.70786)
(3.23397 -0.498929 -7.50845)
(-0.930032 0.0791948 -5.22874)
(-0.771176 0.182606 -7.67032)
(-0.743829 -0.0336193 -7.37742)
(-0.787874 0.511739 -5.9314)
(-0.740597 -0.507313 -5.57622)
(-0.449914 -0.345647 -8.26647)
(-3.07017 0.236292 -4.46526)
(-1.88742 0.254055 -6.44505)
(-1.90084 -0.0953619 -6.23428)
(-2.89014 0.104274 -4.90369)
(-3.54916 0.0756842 -3.9602)
(-1.32283 0.110188 -7.18706)
(10.3624 0.357752 3.046)
(9.47929 0.365864 1.95144)
(9.38477 -0.403054 2.34553)
(10.543 0.0673839 2.53317)
(10.8736 -0.0495049 2.18291)
(8.64376 0.243089 2.1258)
(0.949533 0.296296 6.32971)
(1.56894 0.405878 2.48792)
(1.40318 -0.199984 3.26789)
(1.88724 0.245978 4.78674)
(2.05393 -0.317029 4.86036)
(0.73084 -0.105627 2.15131)
(-4.84042 0.0943119 6.5166)
(-3.02533 0.253898 1.81234)
(-3.46807 -0.11085 2.91783)
(-4.24621 0.352211 5.41948)
(-4.39174 -0.288923 6.24008)
(-3.02588 -0.178294 0.375742)
(1.92442 -0.0142124 11.4737)
(9.22981 0.165302 9.25656)
(7.237 -0.3608 9.6589)
(4.74269 0.0535264 10.3719)
(4.98652 0.313295 10.5037)
(7.94789 0.563124 9.41023)
(-3.83146 -0.0577307 17.6636)
(2.84643 0.219292 14.326)
(0.855126 -0.358381 15.5369)
(-1.59374 0.205543 16.8173)
(-1.56394 0.229219 17.131)
(1.62274 0.463577 14.4453)
(-5.5102 -0.157038 16.6769)
(-1.51608 0.13922 14.2636)
(-2.93548 -0.159286 15.1964)
(-4.56244 0.349627 16.3405)
(-4.68914 -0.0684354 17.2657)
(-1.69554 0.10621 13.5993)
(-7.42831 -0.463788 14.9786)
(-3.81855 -0.20783 17.4104)
(-5.96074 -0.126328 16.2511)
(-7.28023 0.207712 15.6489)
(-7.51423 0.0693326 15.7587)
(-3.6044 0.369302 18.082)
(-6.45413 -0.653125 17.0353)
(-4.10032 -0.34467 20.7295)
(-5.62792 0.0285902 18.8953)
(-6.43825 0.298576 17.3545)
(-6.26622 -0.355001 17.8775)
(-3.53388 -0.172188 20.9816)
(-4.42584 -0.554957 13.7936)
(-3.46823 -0.217094 18.0128)
(-4.37758 0.14196 15.6985)
(-4.61008 0.300425 14.3924)
(-4.45738 -0.556394 15.8297)
(-2.66658 -0.491209 17.6779)
(-3.11567 -0.306668 2.98121)
(-3.22428 -0.13457 3.64016)
(-3.15558 0.199014 3.16547)
(-3.13739 0.0113863 3.07385)
(-3.35274 -0.300506 3.07577)
(-3.00967 -0.307639 3.82413)
(-1.30062 -0.257836 2.95965)
(-1.59662 -0.0859658 3.8839)
(-1.39894 0.195942 3.30871)
(-1.28879 -0.0826244 2.95781)
(-1.43747 -0.298163 2.99381)
(-1.63785 -0.288876 3.95201)
(0.307382 -0.113339 -1.50886)
(0.250383 -0.00825101 -0.894452)
(0.250817 0.117868 -1.42081)
(0.311672 -0.0137496 -1.43701)
(0.255026 -0.196169 -1.45967)
(0.159461 -0.202824 -0.458066)
(2.08031 0.054629 -0.00812868)
(2.14227 0.0956075 -0.113117)
(2.11616 -0.00275254 -0.183121)
(2.19736 -0.0583286 -0.0263991)
(2.32196 -0.0690766 0.0154822)
(2.26016 -0.0449904 -0.00850868)
(0.108464 0.0338248 -3.94442)
(-0.0615609 -0.0368936 -4.04453)
(-0.477725 -0.186652 -3.7132)
(-0.762684 -0.122453 -3.83947)
(-0.824998 -0.0675581 -4.06488)
(-0.699179 -0.0341536 -4.00983)
(-0.888589 -0.0531035 -0.0457234)
(-1.01551 -0.184299 -0.364)
(-1.34375 -0.0428841 -0.408064)
(-1.36398 0.29018 0.0426655)
(-1.06645 0.233333 0.51033)
(-1.00334 0.0439286 0.585291)
(0.437256 0.00124815 -0.224077)
(0.462535 -0.0125048 -0.239639)
(0.497403 -0.00412887 -0.242721)
(0.471037 0.0115929 -0.269833)
(0.455241 5.60101e-05 -0.282324)
(0.451205 -0.00171215 -0.271107)
(-0.0112527 -0.060951 -1.92701)
(0.0619632 -0.180944 -1.97616)
(0.0232817 -0.211984 -2.05067)
(-0.1247 -0.157516 -2.06342)
(-0.183066 -0.0723648 -2.13724)
(-0.220599 -0.00727252 -2.09934)
(0.31463 -0.00281939 -0.424027)
(0.298592 -0.0240401 -0.387786)
(0.189861 0.015987 -0.26216)
(0.26932 0.114714 -0.178935)
(0.36838 0.0937768 -0.163231)
(0.374301 0.0190806 -0.200941)
(0.251754 0.000469461 0.0926241)
(0.260379 0.00131347 0.0914235)
(0.256473 0.00315807 0.0877638)
(0.255247 0.00318586 0.0950256)
(0.25381 -0.000262856 0.0938025)
(0.253425 -0.000468848 0.0840413)
(0.154624 -0.0164466 -0.813059)
(0.110844 -0.0579579 -0.847558)
(0.0205748 -0.0988854 -0.872055)
(-0.0511763 -0.0986283 -0.852863)
(-0.100402 -0.0676252 -0.844425)
(-0.104656 -0.0255628 -0.816123)
(-0.177017 0.00281336 -0.531411)
(-0.180997 0.00692244 -0.547053)
(-0.201924 0.0237293 -0.505282)
(-0.182905 0.0380741 -0.482989)
(-0.138501 0.0240828 -0.473013)
(-0.123934 0.00500286 -0.45984)
(-0.249589 -0.00148186 0.106701)
(-0.243976 -0.00255903 0.105439)
(-0.243519 -0.00143752 0.103389)
(-0.246476 -0.000955541 0.105387)
(-0.247856 -0.00383726 0.106644)
(-0.238477 -0.0027824 0.0957112)
(0.0270662 -0.0206667 -0.895157)
(0.0480134 -0.0465002 -0.901255)
(0.029087 -0.0511768 -0.899687)
(-0.00210594 -0.0472536 -0.901917)
(-0.00982803 -0.0337155 -0.903661)
(-0.00580077 -0.0114977 -0.892016)
(0.128746 -0.000782969 -0.727251)
(0.130768 0.00573448 -0.732881)
(0.125877 0.0151951 -0.712551)
(0.146351 0.022909 -0.700224)
(0.156416 0.0200862 -0.691829)
(0.160293 0.00569538 -0.684913)
(-0.413349 -0.006704 -0.160004)
(-0.411947 -0.00610238 -0.162628)
(-0.413938 0.00130118 -0.164665)
(-0.41845 -0.000502444 -0.161794)
(-0.428254 -0.0100895 -0.160472)
(-0.416288 -0.00842 -0.170962)
(-0.222595 -0.0331642 -1.49522)
(-0.205439 -0.0337069 -1.53378)
(-0.217626 0.00539124 -1.54187)
(-0.265502 -0.00994625 -1.49599)
(-0.294424 -0.0419987 -1.49069)
(-0.276318 -0.0262601 -1.51489)
(-0.397413 -0.000604651 -0.14577)
(-0.375485 0.010244 -0.140396)
(-0.390671 0.00445671 -0.121085)
(-0.36521 -0.00287573 -0.107709)
(-0.346306 0.00780544 -0.0905392)
(-0.328146 0.00316886 -0.0822037)
(-1.40831 0.00346052 -0.156507)
(-1.35571 0.00115902 -0.152103)
(-1.39672 0.00423775 -0.150427)
(-1.37929 0.020086 -0.166935)
(-1.37536 0.00530657 -0.176605)
(-1.34802 -0.00836879 -0.164894)
(0.530554 0.0122405 -2.26636)
(0.848605 0.000653582 -2.1999)
(0.744552 0.00526934 -2.2648)
(0.57813 0.0130483 -2.2307)
(0.566792 0.0369962 -2.29974)
(0.853012 0.00373273 -2.03731)
(0.600191 -0.0125035 -1.00564)
(0.623567 0.00401157 -1.05894)
(0.593441 0.00514816 -1.01006)
(0.624479 -0.030011 -1.03946)
(0.641952 -0.0120214 -1.13622)
(0.64504 -0.0143196 -1.03622)
(0.544948 0.314464 -1.41993)
(-0.421079 0.953258 -2.0431)
(0.0574594 1.41296 -2.23322)
(0.316215 0.611811 -3.63828)
(0.221555 -0.166237 -4.72791)
(0.257585 -0.262407 -0.274982)
(0.449941 0.21976 -1.86397)
(-0.130584 0.282567 -3.45241)
(0.565813 0.463345 -1.80044)
(0.245059 -0.259184 -2.41782)
(0.207199 -0.381697 -3.45472)
(0.315101 -0.599611 -2.54625)
(0.00319818 0.16848 -2.0293)
(-0.105899 0.00943985 -2.65637)
(0.608332 -0.0933727 -0.898517)
(0.0443215 -0.0457792 -2.32488)
(-0.104983 0.0224442 -3.16618)
(0.0406925 -0.145383 -2.4009)
(-0.415092 0.470736 -2.53447)
(-0.301718 0.752099 -4.40669)
(-0.263536 0.852893 -4.68395)
(0.17517 0.655567 -4.24612)
(0.388096 -0.25163 -4.38463)
(-1.17996 -0.117338 -1.9832)
(0.445258 0.282691 -3.37503)
(0.294559 0.36406 -4.0586)
(0.0394475 0.01737 -3.84115)
(0.229079 -0.326127 -3.73865)
(0.57799 -0.361011 -4.32985)
(0.54572 -0.285174 -3.60271)
(-0.0386788 0.0487433 -3.23459)
(-0.0550524 0.0992915 -3.34447)
(-0.037985 -0.0484587 -3.52556)
(-0.0405828 -0.0703017 -3.62798)
(-0.0427626 -0.0624483 -3.6598)
(0.115172 -0.0818911 -3.19499)
(-1.7592 0.760433 0.14763)
(-1.25552 1.41262 -3.2866)
(-1.21394 1.29155 -4.31336)
(-0.88903 0.712776 -4.32451)
(-0.273623 -0.635722 -3.26202)
(-2.48108 -0.138087 -0.166203)
(0.992569 0.592774 -2.91003)
(0.727835 0.641486 -4.43149)
(0.316915 0.176582 -3.91573)
(0.335156 -0.548219 -3.79723)
(1.07217 -0.71719 -4.29406)
(0.816363 -0.405056 -2.90127)
(0.307817 0.131817 -2.64457)
(0.113406 0.0480236 -3.07376)
(0.267969 -0.141563 -3.14449)
(0.221217 -0.13067 -3.48477)
(0.332897 -0.14985 -3.42372)
(0.633858 -0.0983636 -2.87729)
(-1.95916 1.14269 0.68672)
(-2.01793 2.40402 -2.24185)
(-2.45484 2.29562 -4.93643)
(-1.46654 0.622298 -7.24925)
(-1.76492 -1.22486 -2.58192)
(-3.47218 -0.201421 2.64189)
(0.68355 0.57465 -3.37205)
(0.0258885 0.862882 -4.91933)
(-0.877783 0.488425 -4.48715)
(-0.127286 -1.05662 -3.52589)
(0.993998 -1.50447 -3.29677)
(0.075557 -0.730733 -1.94441)
(0.453199 0.0506716 -2.51171)
(0.282101 -0.0337433 -3.13742)
(0.303375 -0.329176 -3.46493)
(0.317558 -0.403722 -3.60204)
(0.843227 -0.358467 -2.95831)
(0.907905 -0.147044 -2.44712)
(-0.354154 1.19143 -0.0803423)
(-2.24129 1.54901 -3.30498)
(-3.30921 0.942064 -7.88658)