/*--------------------------------*- C++ -*----------------------------------*\
| =========                 |                                                 |
| \\      /  F ield         | OpenFOAM: The Open Source CFD Toolbox           |
|  \\    /   O peration     | Version:  v1612+                                |
|   \\  /    A nd           | Web:      www.OpenFOAM.com                      |
|    \\/     M anipulation  |                                                 |
\*---------------------------------------------------------------------------*/
FoamFile
{
    version     2.0;
    format      ascii;
    class       surfaceScalarField;
    location    "2.15";
    object      alphaPhi;
}
// * * * * * * * * * * * * * * * * * * * * * * * * * * * * * * * * * * * * * //

dimensions      [0 3 -1 0 0 0 0];

internalField   nonuniform List<scalar> 
2916
(
-4.1324e-06
0.622521
-0.619609
-1.01672e-06
0.622523
-0.619619
1.62899e-07
0.622523
-0.619616
-2.40696e-07
0.622523
-0.619615
4.51609e-07
0.622524
-0.619617
0.622522
-0.619614
-6.53382e-06
1.31085
-0.68542
-1.63463e-06
1.31086
-0.685435
-1.12644e-06
1.31086
-0.68543
-7.68301e-07
1.31086
-0.685429
3.15172e-06
1.31086
-0.685432
1.31086
-0.685422
-4.20622e-06
1.76591
-0.450649
-1.76163e-06
1.76592
-0.450658
-3.60348e-06
1.76592
-0.450653
-3.6801e-06
1.76592
-0.450654
2.05086e-06
1.76592
-0.45066
1.76591
-0.450647
-5.37864e-06
2.10855
-0.3366
-5.1096e-06
2.10856
-0.336607
-7.7786e-06
2.10856
-0.336604
-6.73139e-06
2.10856
-0.336608
1.47758e-07
2.10856
-0.336614
2.10855
-0.336602
-8.99553e-06
2.37818
-0.263324
-8.88517e-06
2.37819
-0.263332
-1.12151e-05
2.37819
-0.26333
-9.23938e-06
2.37819
-0.263335
-2.59893e-06
2.37819
-0.263342
2.37817
-0.263332
-1.1795e-05
2.62632
-0.242668
-1.10084e-05
2.62633
-0.242679
-1.26456e-05
2.62633
-0.242677
-1.08183e-05
2.62633
-0.242681
-3.6014e-06
2.62633
-0.242688
2.62631
-0.24268
-7.50778e-06
2.8592
-0.243707
-7.23148e-06
2.85921
-0.243719
-8.60337e-06
2.85921
-0.243717
-7.32963e-06
2.85921
-0.243719
3.96637e-08
2.85921
-0.243725
2.85919
-0.243718
-3.35527e-06
3.00626
-0.196426
-6.78971e-07
3.00627
-0.196438
-2.44639e-06
3.00627
-0.196434
-1.38772e-06
3.00627
-0.196436
5.6446e-06
3.00627
-0.19644
3.00625
-0.196429
-3.39837e-06
2.87558
0.00934197
2.05442e-06
2.87559
0.00932947
6.03797e-07
2.87559
0.00933318
9.93281e-07
2.87559
0.00933263
7.16437e-06
2.87559
0.00932711
2.87556
0.0093429
-2.18735e-06
2.26529
0.492512
1.91174e-06
2.26531
0.492491
3.23534e-06
2.26531
0.492486
3.9491e-06
2.26531
0.492485
4.1384e-06
2.26532
0.492478
2.26529
0.49249
8.05858e-06
1.1743
0.972532
4.59042e-06
1.17435
0.972509
5.53e-06
1.17433
0.972517
2.17151e-06
1.17434
0.972518
-2.43488e-06
1.17436
0.972508
1.1743
0.97252
-5.32477e-05
0.987986
-2.57194e-05
0.987969
-2.29656e-05
0.987976
-1.24475e-05
0.987973
2.25105e-05
0.987965
0.987977
-5.03742e-06
0.782537
-1.39917
-2.15613e-06
0.782538
-1.39919
-2.16208e-06
0.782538
-1.39919
-5.60338e-06
0.782539
-1.39918
-6.86024e-06
0.78254
-1.39919
0.782535
-1.39919
8.51987e-07
1.35772
-1.0078
-2.90821e-06
1.35773
-1.00781
-5.12834e-06
1.35773
-1.00781
-5.91009e-06
1.35772
-1.00781
-6.50579e-06
1.35772
-1.00781
1.35772
-1.00781
3.33904e-06
1.66612
-0.484017
-4.88694e-06
1.66613
-0.484015
-9.21791e-06
1.66613
-0.484014
-1.0306e-05
1.66613
-0.484017
-1.22532e-05
1.66613
-0.484021
1.66611
-0.48402
-8.60287e-07
1.83819
-0.304075
-7.98199e-06
1.83821
-0.304075
-9.76507e-06
1.83821
-0.304076
-8.88382e-06
1.8382
-0.304079
-1.15904e-05
1.83821
-0.304082
1.83819
-0.304083
8.42281e-06
1.80486
-0.121705
-3.13837e-06
1.80488
-0.121701
-5.92836e-06
1.80487
-0.121703
-4.25227e-06
1.80486
-0.121706
-9.76006e-06
1.80487
-0.121706
1.80484
-0.121708
1.08331e-05
1.568
-0.0142452
2.36597e-06
1.56802
-0.014241
-1.97505e-08
1.56801
-0.0142413
7.3805e-07
1.568
-0.0142418
-4.07835e-06
1.568
-0.0142422
1.56797
-0.0142428
1.18627e-05
1.16819
-0.00145022
1.29443e-06
1.1682
-0.00144984
-1.92095e-06
1.16819
-0.00144987
-3.61878e-07
1.16818
-0.00144992
-2.60398e-06
1.16818
-0.00144996
1.16814
-0.00145002
1.03483e-05
0.731732
-0.000177832
-2.91078e-06
0.731745
-0.00017779
-7.77033e-06
0.731731
-0.000177795
-6.21721e-06
0.731721
-0.000177799
-4.79659e-06
0.731719
-0.000177804
0.731689
-0.000177804
7.79409e-06
0.567311
-2.63058e-05
2.04908e-06
0.567325
-2.6309e-05
-2.23138e-06
0.567315
-2.63021e-05
-2.71189e-06
0.567305
-2.63014e-05
-1.19399e-06
0.567299
-2.63047e-05
0.567285
-2.62938e-05
6.76767e-06
0.86117
0.0239862
3.22472e-06
0.861177
0.0239876
-5.49302e-07
0.861163
0.0239861
-2.67614e-06
0.861156
0.0239856
-3.2584e-06
0.86114
0.0239864
0.86114
0.0239844
6.45345e-06
1.10889
0.23822
8.94699e-06
1.1089
0.238234
-1.59598e-06
1.1089
0.238223
-3.97208e-06
1.1089
0.238222
2.71001e-05
1.10883
0.23826
1.10892
0.238173
-4.16768e-05
1.77892
-8.46406e-06
1.77886
-4.54372e-07
1.77889
2.20479e-05
1.77887
5.94893e-05
1.77878
1.77899
-1.56395e-06
0.391165
-0.835178
-1.68439e-06
0.39116
-0.835182
1.76139e-06
0.391165
-0.835191
-5.33494e-06
0.391167
-0.835182
-1.56639e-05
0.391166
-0.835183
0.391165
-0.835219
3.85563e-06
0.193522
-0.0296737
-3.31078e-06
0.193518
-0.0296912
1.17266e-06
0.193519
-0.0296561
2.76351e-06
0.19352
-0.0296837
-7.68452e-06
0.193522
-0.0297198
0.193523
-0.0296407
2.28424e-06
0.21482
-0.000472178
-1.07991e-08
0.214815
-0.000472474
1.15323e-06
0.214814
-0.000471836
2.23297e-06
0.214816
-0.000472342
-1.48776e-06
0.214817
-0.000473
0.214822
-0.000471577
4.92516e-06
0.12289
-1.43766e-05
3.228e-06
0.122933
-1.4383e-05
3.04276e-06
0.122933
-1.43642e-05
2.4819e-06
0.122933
-1.43796e-05
-7.93917e-07
0.122931
-1.43991e-05
0.12293
-1.43576e-05
6.82843e-07
0.0158989
-6.21893e-07
6.33289e-07
0.0158942
-6.2199e-07
5.36833e-07
0.0158945
-6.21608e-07
3.96997e-07
0.0158951
-6.21941e-07
1.50747e-07
0.0158955
-6.22333e-07
0.0158961
-6.21408e-07
6.18921e-08
0.0016536
-4.82526e-09
6.75005e-08
0.00165318
-4.82618e-09
4.97031e-08
0.00165322
-4.82551e-09
3.16985e-08
0.00165327
-4.82914e-09
1.5881e-08
0.00165332
-4.83219e-09
0.00165338
-4.82581e-09
-1.91465e-09
0.000203395
-3.86739e-09
-1.57188e-09
0.000203349
-3.81946e-09
-2.21563e-09
0.000203354
-3.86498e-09
-2.66133e-09
0.000203358
-3.86541e-09
-4.48262e-09
0.000203364
-3.85523e-09
0.000203363
-3.88159e-09
-1.20802e-09
2.58703e-05
-1.74076e-07
-1.62125e-09
2.58645e-05
-1.72699e-07
-1.70117e-09
2.58649e-05
-1.74025e-07
-1.56219e-09
2.5865e-05
-1.74029e-07
-1.89711e-09
2.58663e-05
-1.73761e-07
2.58635e-05
-1.74445e-07
-1.72413e-10
5.88258e-06
-9.23136e-08
-3.46368e-10
5.88322e-06
-9.232e-08
-3.95807e-10
5.88234e-06
-9.23155e-08
-3.79411e-10
5.88174e-06
-9.23025e-08
-2.99314e-10
5.88236e-06
-9.23327e-08
5.87968e-06
-9.22026e-08
5.09308e-07
0.0237914
0.000228705
4.07109e-07
0.0237932
0.000228996
8.20301e-08
0.0237924
0.000228554
-2.53482e-07
0.0237917
0.000228592
1.327e-07
0.0237915
0.000228772
0.0237906
0.00022851
2.59124e-06
0.218538
0.0422222
3.35018e-06
0.218551
0.0422259
9.70881e-07
0.218545
0.0422233
-2.90164e-07
0.218543
0.0422239
7.05891e-06
0.218557
0.0422365
0.218519
0.0422042
-2.85706e-05
1.56619
2.35692e-05
1.56609
3.60623e-05
1.56613
3.48197e-05
1.56617
-1.68276e-07
1.56626
1.56604
2.17719e-06
0.0297624
-9.26112e-06
-3.98694e-06
0.0297802
-9.26197e-06
3.33809e-06
0.0297444
-9.27036e-06
3.47478e-06
0.0297726
-9.27429e-06
-1.05519e-05
0.0298095
-9.27347e-06
0.0297286
-9.27388e-06
-2.34263e-08
0.000482091
-0.000383576
1.31245e-08
0.000482413
-0.000383578
-3.24744e-09
0.000481724
-0.00038359
-7.47194e-09
0.000482277
-0.000383591
5.30549e-08
0.000482986
-0.000383591
0.000481424
-0.000383603
-5.97306e-10
1.33701e-05
-2.72161e-06
7.56666e-10
1.33775e-05
-2.71526e-06
2.47265e-10
1.33593e-05
-2.72461e-06
7.32999e-10
1.33744e-05
-2.7118e-06
2.81503e-09
1.33938e-05
-2.70266e-06
1.3353e-05
-2.7425e-06
2.83122e-11
3.12225e-07
-1.30596e-06
5.20042e-11
3.12353e-07
-1.30523e-06
4.93765e-11
3.11975e-07
-1.30388e-06
3.40468e-11
3.12321e-07
-1.30488e-06
2.2725e-11
3.12746e-07
-1.30586e-06
3.11881e-07
-1.30312e-06
2.24399e-12
4.73591e-09
-3.14201e-07
3.57132e-12
4.73743e-09
-3.14172e-07
3.29932e-12
4.7362e-09
-3.14162e-07
2.25294e-12
4.73985e-09
-3.14155e-07
1.42563e-12
4.743e-09
-3.14128e-07
4.73638e-09
-3.14053e-07
-9.94572e-15
-8.81642e-11
-1.21044e-12
-7.88218e-15
-8.75764e-11
-1.21116e-12
-6.55637e-15
-8.81286e-11
-1.21115e-12
-2.47474e-15
-8.8119e-11
-1.21087e-12
5.79673e-15
-8.80133e-11
-1.21144e-12
-8.82536e-11
-1.20882e-12
-2.44388e-14
-3.81124e-09
-1.67913e-10
-2.84412e-14
-3.76369e-09
-1.66967e-10
-2.67646e-14
-3.80888e-09
-1.67905e-10
-1.78458e-14
-3.80932e-09
-1.67895e-10
-9.09895e-15
-3.7993e-09
-1.67728e-10
-3.82535e-09
-1.68099e-10
-4.49227e-13
-1.66985e-07
-7.6349e-09
-5.93368e-13
-1.6557e-07
-7.62047e-09
-5.96649e-13
-1.6693e-07
-7.6362e-09
-4.80623e-13
-1.66936e-07
-7.63532e-09
-1.00998e-12
-1.66656e-07
-7.63512e-09
-1.67374e-07
-7.63369e-09
1.66149e-11
-1.36565e-07
8.32388e-09
-1.93166e-11
-1.34954e-07
8.33768e-09
7.20367e-12
-1.36513e-07
8.32845e-09
1.63361e-11
-1.3651e-07
8.32572e-09
1.0419e-11
-1.36202e-07
8.33145e-09
-1.36902e-07
8.29197e-09
4.84498e-08
0.000173795
6.10022e-05
4.85165e-08
0.000174112
6.10375e-05
6.61046e-08
0.000173653
6.10274e-05
4.87046e-08
0.000173727
6.10244e-05
-9.03866e-08
0.00017405
6.10065e-05
0.000173508
6.1044e-05
8.83541e-07
0.0382659
0.00400525
1.08836e-06
0.0382699
0.00400591
6.92953e-07
0.0382673
0.00400612
4.36218e-07
0.0382676
0.00400631
1.60584e-06
0.0382795
0.00400559
0.0382497
0.0040059
1.05742e-05
0.524059
3.86436e-05
0.523997
4.12853e-05
0.524003
-1.81166e-06
0.524108
-8.1666e-05
0.524521
0.52343
-2.48717e-69
2.22435e-65
-5.53514e-62
-1.12642e-69
2.22865e-65
-5.54561e-62
-8.6213e-70
2.22852e-65
-5.54505e-62
-2.35603e-70
2.22876e-65
-5.5456e-62
-2.13526e-70
2.22987e-65
-5.54795e-62
2.22603e-65
-5.53784e-62
3.9426e-65
9.13351e-61
-1.20071e-57
1.52731e-65
9.15075e-61
-1.20296e-57
-9.24124e-66
9.15028e-61
-1.20286e-57
-1.48083e-65
9.15139e-61
-1.20299e-57
-5.32919e-66
9.15576e-61
-1.20352e-57
9.14055e-61
-1.20144e-57
2.2205e-60
1.54418e-56
-1.42347e-53
7.12991e-61
1.54678e-56
-1.4258e-53
-1.32593e-61
1.5466e-56
-1.42561e-53
-5.76152e-61
1.54669e-56
-1.4257e-53
-5.52679e-61
1.54731e-56
-1.42627e-53
1.5447e-56
-1.42384e-53
2.86731e-56
1.6168e-52
-1.15535e-49
5.44102e-57
1.61886e-52
-1.15672e-49
-9.96155e-57
1.61843e-52
-1.15639e-49
-1.82926e-56
1.61832e-52
-1.15636e-49
-1.79287e-56
1.61881e-52
-1.15678e-49
1.6161e-52
-1.15494e-49
1.53536e-52
1.13336e-48
-6.5343e-46
-6.6752e-53
1.13402e-48
-6.5373e-46
-2.12713e-52
1.13341e-48
-6.53388e-46
-2.84503e-52
1.13315e-48
-6.53306e-46
-2.52128e-52
1.13339e-48
-6.53553e-46
1.1316e-48
-6.52669e-46
-5.08887e-50
4.9898e-45
-2.37815e-42
-1.26018e-48
4.98844e-45
-2.37753e-42
-2.03076e-48
4.98436e-45
-2.37595e-42
-2.29423e-48
4.98286e-45
-2.37576e-42
-1.84875e-48
4.9843e-45
-2.37716e-42
4.97809e-45
-2.37522e-42
-3.2659e-45
1.19478e-41
-4.76445e-39
-6.55309e-45
1.19384e-41
-4.76355e-39
-8.28139e-45
1.19286e-41
-4.76178e-39
-8.33187e-45
1.19276e-41
-4.7633e-39
-6.16267e-45
1.19359e-41
-4.76874e-39
1.19296e-41
-4.76907e-39
-6.58807e-42
1.13332e-38
-3.77549e-36
-9.58377e-42
1.13268e-38
-3.78028e-36
-1.04694e-41
1.13237e-38
-3.78287e-36
-9.55548e-42
1.13307e-38
-3.78759e-36
-6.53113e-42
1.13479e-38
-3.79538e-36
1.1354e-38
-3.79983e-36
-2.28996e-39
2.88394e-36
-8.11722e-34
-2.74899e-39
2.88665e-36
-8.16278e-34
-2.58091e-39
2.88965e-36
-8.18625e-34
-2.05204e-39
2.89505e-36
-8.20797e-34
-1.22358e-39
2.90313e-36
-8.23247e-34
2.90887e-36
-8.24829e-34
-5.35834e-38
8.00957e-35
3.1933e-36
-4.94141e-38
8.007e-35
3.15602e-36
-3.23303e-38
8.00425e-35
3.13955e-36
-1.38244e-38
8.00846e-35
3.13463e-36
-1.20715e-39
8.02007e-35
3.13841e-36
8.02156e-35
3.14215e-36
-1.41579e-35
5.23478e-32
1.41092e-32
-2.60636e-37
5.24053e-32
1.41036e-32
1.54332e-35
5.24019e-32
1.41011e-32
2.61069e-35
5.24258e-32
1.4114e-32
2.5015e-35
5.24902e-32
1.41437e-32
5.24948e-32
1.41637e-32
1.41915e-32
2.49907e-29
1.56245e-32
2.50432e-29
1.31795e-32
2.50424e-29
1.00769e-32
2.50419e-29
6.53236e-33
2.50498e-29
2.50202e-29
-7.77218e-66
5.60104e-62
-1.11231e-58
-3.38221e-66
5.61166e-62
-1.11442e-58
-1.22175e-66
5.61117e-62
-1.11432e-58
1.00861e-66
5.61153e-62
-1.11439e-58
2.75053e-66
5.614e-62
-1.11483e-58
5.60359e-62
-1.11271e-58
8.5162e-63
2.39668e-57
-2.53611e-54
-2.79634e-62
2.40112e-57
-2.54088e-54
-3.67587e-62
2.4009e-57
-2.54066e-54
-2.54956e-62
2.40105e-57
-2.54084e-54
3.54491e-62
2.40201e-57
-2.54182e-54
2.39768e-57
-2.53719e-54
1.80972e-57
4.14524e-53
-3.0561e-50
-1.21541e-57
4.1523e-53
-3.06138e-50
-2.31346e-57
4.15169e-53
-3.06098e-50
-2.71374e-57
4.15168e-53
-3.06105e-50
-2.19944e-57
4.15304e-53
-3.06211e-50
4.14555e-53
-3.05658e-50
6.49207e-54
4.32857e-49
-2.4264e-46
-4.51587e-53
4.3347e-49
-2.4299e-46
-6.56383e-53
4.33358e-49
-2.42935e-46
-7.27207e-53
4.33314e-49
-2.42923e-46
-6.59931e-53
4.33417e-49
-2.42996e-46
4.32644e-49
-2.42574e-46
-2.24291e-49
2.92874e-45
-1.2931e-42
-7.04753e-49
2.93166e-45
-1.29444e-42
-8.83105e-49
2.93038e-45
-1.29397e-42
-9.03671e-49
2.92974e-45
-1.29381e-42
-7.54791e-49
2.93021e-45
-1.29418e-42
2.92519e-45
-1.29214e-42
-3.14827e-45
1.17842e-41
-4.22817e-39
-5.33198e-45
1.179e-41
-4.23117e-39
-5.96116e-45
1.17828e-41
-4.22935e-39
-5.61447e-45
1.17795e-41
-4.22896e-39
-4.22141e-45
1.17816e-41
-4.23069e-39
1.17637e-41
-4.22552e-39
-1.24085e-41
2.3936e-38
-7.40915e-36
-1.67409e-41
2.39373e-38
-7.41569e-36
-1.67797e-41
2.39216e-38
-7.41436e-36
-1.43286e-41
2.39178e-38
-7.41586e-36
-9.53563e-42
2.39278e-38
-7.4217e-36
2.39019e-38
-7.4172e-36
-1.48187e-38
2.02492e-35
-5.65637e-33
-1.6545e-38
2.02493e-35
-5.66894e-33
-1.3871e-38
2.02413e-35
-5.67255e-33
-9.62603e-39
2.02458e-35
-5.67728e-33
-4.96056e-39
2.02635e-35
-5.68482e-33
2.02538e-35
-5.68476e-33
-4.25273e-36
6.01672e-33
-1.55695e-30
-3.11896e-36
6.02025e-33
-1.56568e-30
-9.85472e-37
6.02131e-33
-1.56886e-30
7.40177e-37
6.02591e-33
-1.57114e-30
1.29531e-36
6.03439e-33
-1.57341e-30
6.03511e-33
-1.57295e-30
-3.86818e-35
1.11405e-31
2.6253e-33
2.43853e-35
1.11079e-31
2.49638e-33
9.22258e-35
1.10974e-31
2.45822e-33
1.26998e-34
1.11037e-31
2.45854e-33
1.04851e-34
1.11245e-31
2.48438e-33
1.11381e-31
2.52692e-33
5.95306e-32
7.62991e-29
3.13484e-29
1.18793e-31
7.62828e-29
3.13235e-29
1.55636e-31
7.62562e-29
3.13298e-29
1.60206e-31
7.62925e-29
3.13802e-29
1.18431e-31
7.64068e-29
3.1475e-29
7.64667e-29
3.15629e-29
3.13342e-29
4.78965e-26
2.50102e-29
4.79837e-26
1.13427e-29
4.79773e-26
-1.91815e-31
4.7973e-26
-4.89603e-30
4.79865e-26
4.79321e-26
-8.48949e-63
5.41211e-59
-8.25686e-56
-1.9346e-63
5.4224e-59
-8.27261e-56
1.51331e-63
5.42191e-59
-8.27184e-56
4.13706e-63
5.42221e-59
-8.27221e-56
5.64114e-63
5.42438e-59
-8.27515e-56
5.41419e-59
-8.25887e-56
-3.27788e-59
2.43537e-54
-1.97312e-51
-1.11084e-59
2.4399e-54
-1.97686e-51
1.43375e-59
2.43967e-54
-1.97668e-51
5.31613e-59
2.43977e-54
-1.97677e-51
1.14164e-58
2.44067e-54
-1.97747e-51
2.43618e-54
-1.97372e-51
5.12455e-55
4.26753e-50
-2.36906e-47
-1.62763e-54
4.27499e-50
-2.3733e-47
-2.25052e-54
4.27442e-50
-2.37301e-47
-2.19045e-54
4.27438e-50
-2.37304e-47
-1.51769e-54
4.27569e-50
-2.3738e-47
4.26786e-50
-2.36934e-47
-1.07542e-50
4.33386e-46
-1.78967e-43
-5.27504e-50
4.34066e-46
-1.79255e-43
-6.62131e-50
4.33975e-46
-1.79222e-43
-6.6494e-50
4.33942e-46
-1.79215e-43
-5.70212e-50
4.34047e-46
-1.79265e-43
4.33263e-46
-1.7894e-43
-3.52224e-46
2.80731e-42
-8.875e-40
-6.69544e-46
2.81102e-42
-8.88736e-40
-7.43639e-46
2.81015e-42
-8.88508e-40
-6.92113e-46
2.80975e-42
-8.88431e-40
-5.42241e-46
2.8103e-42
-8.8866e-40
2.80542e-42
-8.87149e-40
-2.92591e-42
1.14785e-38
-2.77997e-36
-4.00117e-42
1.14906e-38
-2.78354e-36
-3.90721e-42
1.14862e-38
-2.78279e-36
-3.23354e-42
1.14843e-38
-2.78261e-36
-2.18354e-42
1.14868e-38
-2.78349e-36
1.14685e-38
-2.77933e-36
-9.02026e-39
2.79223e-35
-5.09118e-33
-9.86343e-39
2.79454e-35
-5.09857e-33
-7.77996e-39
2.79347e-35
-5.09799e-33
-4.85233e-39
2.79324e-35
-5.09841e-33
-2.19495e-39
2.79423e-35
-5.1008e-33
2.79057e-35
-5.09452e-33
-9.61778e-36
3.32991e-32
-4.47375e-30
-6.48909e-36
3.3324e-32
-4.4829e-30
-7.9878e-37
3.33159e-32
-4.48395e-30
3.70336e-36
3.332e-32
-4.48537e-30
4.64006e-36
3.33399e-32
-4.48816e-30
3.3308e-32
-4.48328e-30
-1.70692e-33
1.72679e-29
-1.79528e-27
2.79398e-33
1.72838e-29
-1.80073e-27
7.46388e-33
1.72836e-29
-1.80179e-27
9.72093e-33
1.72897e-29
-1.80243e-27
7.80339e-33
1.73037e-29
-1.80327e-27
1.72922e-29
-1.80054e-27
2.92217e-31
1.31048e-27
-9.61124e-26
8.96547e-31
1.31344e-27
-9.70056e-26
1.34049e-30
1.31391e-27
-9.7116e-26
1.43609e-30
1.31437e-27
-9.69824e-26
1.04635e-30
1.31552e-27
-9.6788e-26
1.31445e-27
-9.60915e-26
1.17955e-28
1.71507e-25
4.34616e-26
1.64953e-28
1.71665e-25
4.3501e-26
1.77217e-28
1.71677e-25
4.35269e-26
1.54306e-28
1.71774e-25
4.35924e-26
9.56756e-29
1.72006e-25
4.36991e-26
1.72075e-25
4.3775e-26
-1.66636e-27
4.84845e-23
-1.25668e-26
4.8562e-23
-2.24622e-26
4.85568e-23
-2.6816e-26
4.85541e-23
-2.20617e-26
4.85664e-23
4.85017e-23
-5.2317e-60
2.47333e-56
-2.5292e-53
-6.49281e-61
2.47811e-56
-2.53406e-53
1.76129e-60
2.47788e-56
-2.53381e-53
3.50347e-60
2.47798e-56
-2.5339e-53
4.74648e-60
2.47889e-56
-2.53476e-53
2.47403e-56
-2.52962e-53
-4.87338e-56
1.17279e-51
-6.04863e-49
-3.84217e-57
1.17499e-51
-6.0602e-49
3.10573e-56
1.17487e-51
-6.05962e-49
6.65593e-56
1.1749e-51
-6.05985e-49
1.00904e-55
1.1753e-51
-6.06192e-49
1.17304e-51
-6.05007e-49
-6.04328e-52
2.07267e-47
-6.9162e-45
-1.02444e-51
2.07634e-47
-6.92893e-45
-8.94549e-52
2.07605e-47
-6.92813e-45
-5.82149e-52
2.07603e-47
-6.92819e-45
-2.28348e-52
2.07664e-47
-6.93033e-45
2.07272e-47
-6.91699e-45
-1.63387e-47
2.05149e-43
-4.78853e-41
-2.61652e-47
2.05482e-43
-4.79681e-41
-2.479e-47
2.05444e-43
-4.79609e-41
-1.99895e-47
2.05434e-43
-4.79595e-41
-1.46913e-47
2.05487e-43
-4.79725e-41
2.05112e-43
-4.78824e-41
-1.66416e-43
1.25103e-39
-2.11387e-37
-2.15869e-43
1.2529e-39
-2.11729e-37
-1.90602e-43
1.25263e-39
-2.11689e-37
-1.43066e-43
1.25254e-39
-2.11677e-37
-1.03365e-43
1.25284e-39
-2.11729e-37
1.25061e-39
-2.11347e-37
-6.9081e-40
4.52704e-36
-5.72147e-34
-6.53158e-40
4.53314e-36
-5.73036e-34
-3.8217e-40
4.53209e-36
-5.72932e-34
-1.0313e-40
4.53181e-36
-5.72905e-34
3.63551e-41
4.53296e-36
-5.73055e-34
4.52534e-36
-5.72082e-34
-3.39262e-37
8.67482e-33
-8.79437e-31
5.00066e-37
8.68495e-33
-8.80852e-31
1.47555e-36
8.6831e-33
-8.80772e-31
2.04329e-36
8.68312e-33
-8.80801e-31
1.72458e-36
8.68605e-33
-8.81089e-31
8.6731e-33
-8.79719e-31
1.9658e-33
7.93666e-30
-6.99953e-28
3.94903e-33
7.94459e-30
-7.01263e-28
5.35343e-33
7.9436e-30
-7.01331e-28
5.57516e-33
7.94484e-30
-7.0144e-28
3.99624e-33
7.94907e-30
-7.01711e-28
7.93981e-30
-7.00669e-28
2.46432e-30
3.56842e-27
-3.15466e-25
4.00357e-30
3.57172e-27
-3.16181e-25
4.73847e-30
3.57199e-27
-3.16249e-25
4.46289e-30
3.57351e-27
-3.16276e-25
2.94409e-30
3.57669e-27
-3.16483e-25
3.57405e-27
-3.15706e-25
6.83777e-28
7.0571e-25
-7.0966e-23
1.00363e-27
7.06543e-25
-7.12131e-23
1.10404e-27
7.06718e-25
-7.11965e-23
9.60542e-28
7.07112e-25
-7.11133e-23
5.84147e-28
7.08386e-25
-7.13111e-23
7.07345e-25
-7.05636e-23
2.1053e-26
3.30086e-23
2.02809e-23
2.54075e-26
3.30533e-23
2.03074e-23
2.31583e-26
3.3074e-23
2.03152e-23
1.43785e-26
3.3111e-23
2.03371e-23
6.23275e-27
3.31669e-23
2.03675e-23
3.3182e-23
2.03771e-23
-5.64668e-24
1.42863e-20
-9.24157e-24
1.42994e-20
-1.09381e-23
1.43009e-20
-1.03305e-23
1.42988e-20
-7.2086e-24
1.42615e-20
1.43036e-20
6.61521e-12
-8.98344e-06
2.13051e-08
-5.99304e-11
-8.98248e-06
2.13071e-08
9.53701e-11
-8.98414e-06
2.13203e-08
8.14556e-11
-8.98724e-06
2.126e-08
-1.43544e-10
-8.98821e-06
2.12485e-08
-8.98755e-06
2.14638e-08
2.45769e-12
1.02695e-13
-8.30812e-06
8.19277e-11
1.12493e-13
-8.30734e-06
5.73269e-11
1.15468e-13
-8.30791e-06
1.25727e-10
1.12898e-13
-8.3093e-06
2.39569e-10
1.12233e-13
-8.30869e-06
1.14908e-13
-8.30765e-06
5.34653e-19
1.52272e-14
8.80998e-19
1.66809e-14
1.30519e-18
1.7123e-14
1.60315e-18
1.67408e-14
1.17218e-18
1.66417e-14
1.70426e-14
-5.07501e-10
-0.000382842
-2.73532e-07
-8.85884e-11
-0.000382845
-2.73505e-07
1.4155e-10
-0.000382848
-2.73479e-07
1.58464e-10
-0.000382847
-2.73243e-07
1.68138e-10
-0.000382851
-2.73137e-07
-0.000382858
-2.73557e-07
-4.14185e-09
5.25215e-13
-1.64751e-05
-2.91966e-09
5.75296e-13
-1.64766e-05
-1.55861e-09
5.90528e-13
-1.64769e-05
-4.48618e-10
5.77387e-13
-1.64738e-05
-1.43943e-10
5.73984e-13
-1.6473e-05
5.87675e-13
-1.6476e-05
-2.0136e-18
3.44745e-13
1.1758e-18
3.77612e-13
2.50525e-18
3.87616e-13
1.44583e-18
3.7899e-13
2.64288e-18
3.76756e-13
3.85766e-13
-2.82295e-11
-1.06501e-06
-1.45796e-06
9.08594e-12
-1.06116e-06
-1.45724e-06
-3.35377e-12
-1.06245e-06
-1.45675e-06
1.17311e-11
-1.05708e-06
-1.45654e-06
6.31109e-11
-1.05344e-06
-1.45647e-06
-1.07003e-06
-1.45694e-06
-8.77185e-12
1.23122e-12
-1.62677e-06
-1.28602e-11
1.34863e-12
-1.62624e-06
-1.56531e-11
1.38429e-12
-1.62765e-06
-1.46801e-11
1.35348e-12
-1.62588e-06
-1.20789e-11
1.34552e-12
-1.62451e-06
1.37755e-12
-1.63054e-06
-1.32656e-17
1.81893e-13
-1.49691e-17
1.99213e-13
-1.96284e-17
2.0449e-13
-2.09842e-17
1.99936e-13
-9.74324e-18
1.98758e-13
2.03514e-13
2.62865e-11
-1.8716e-06
-1.23344e-06
-6.54649e-12
-1.87739e-06
-1.23287e-06
-3.96351e-11
-1.89017e-06
-1.23216e-06
-4.47689e-11
-1.8959e-06
-1.23279e-06
-6.75165e-12
-1.89829e-06
-1.23338e-06
-1.8857e-06
-1.2316e-06
-1.95149e-11
2.31297e-12
-7.31918e-07
-8.09148e-11
2.53354e-12
-7.30658e-07
-9.77632e-11
2.60051e-12
-7.27087e-07
-9.48126e-11
2.54261e-12
-7.25785e-07
-7.86149e-11
2.52767e-12
-7.25269e-07
2.58767e-12
-7.28051e-07
-3.55174e-17
2.26962e-17
-3.08402e-17
2.69647e-17
-1.67969e-17
3.04818e-17
3.83353e-18
2.90618e-17
3.04621e-17
2.7667e-17
-1.09661e-21
-5.99491e-11
-1.0831e-06
-4.3122e-11
-3.69406e-11
-1.08297e-06
-4.31465e-11
-1.42653e-11
-1.08288e-06
-4.31485e-11
3.12154e-12
-1.08297e-06
-4.31392e-11
3.49423e-11
-1.08302e-06
-4.31596e-11
-1.08251e-06
-4.30704e-11
-2.92891e-11
4.35752e-16
-1.16314e-13
-1.02083e-10
5.17791e-16
-1.16456e-13
-1.29172e-10
5.85289e-16
-1.16468e-13
-1.10375e-10
5.58008e-16
-1.16487e-13
-7.04036e-11
5.31215e-16
-1.16533e-13
-9.56924e-19
-1.16264e-13
-1.24319e-21
-9.55284e-19
2.2217e-21
-9.58279e-19
6.06917e-21
-9.58354e-19
8.90725e-21
-9.60481e-19
-4.31122e-25
-9.5998e-19
-9.58021e-19
-9.16713e-17
-2.97332e-15
-4.43394e-11
-8.97893e-17
-2.97719e-15
-4.43648e-11
-6.14157e-17
-2.97749e-15
-4.43668e-11
-2.62267e-17
-2.97797e-15
-4.43572e-11
1.80253e-17
-2.97911e-15
-4.43781e-11
-2.97203e-15
-4.42862e-11
-2.1194e-20
-3.18995e-17
-1.19306e-13
-9.21218e-20
-3.20013e-17
-1.19452e-13
-1.18771e-19
-3.20019e-17
-1.19464e-13
-1.12048e-19
-3.20718e-17
-1.19484e-13
-8.30742e-20
-3.20554e-17
-1.19531e-13
-3.19862e-17
-1.19256e-13
-1.57539e-22
-6.3952e-17
-4.02019e-22
-6.44879e-17
-5.32576e-22
-6.44627e-17
-5.62303e-22
-6.48956e-17
-5.47454e-22
-6.47379e-17
-6.45722e-17
-2.51106e-15
-1.56138e-12
-2.15098e-10
-4.00296e-16
-1.55855e-12
-2.14191e-10
2.81092e-16
-1.56285e-12
-2.15123e-10
1.11347e-15
-1.56311e-12
-2.15102e-10
3.14895e-15
-1.56264e-12
-2.14959e-10
-1.56218e-12
-2.15222e-10
-1.76268e-17
-3.08899e-15
-1.88943e-12
-2.16105e-17
-3.11279e-15
-1.89061e-12
-1.56012e-17
-3.11168e-15
-1.89157e-12
-6.00788e-18
-3.13043e-15
-1.89183e-12
6.70453e-18
-3.12399e-15
-1.89234e-12
-3.11545e-15
-1.88888e-12
-9.819e-21
-3.05821e-15
-1.30491e-20
-3.08173e-15
-1.16702e-20
-3.08088e-15
-7.92368e-21
-3.09964e-15
-4.95834e-21
-3.09307e-15
-3.08474e-15
1.66615e-13
-2.14579e-10
-7.79429e-09
2.46118e-13
-2.14503e-10
-7.77979e-09
2.00336e-13
-2.14759e-10
-7.79538e-09
1.64781e-13
-2.14767e-10
-7.79444e-09
1.82414e-13
-2.14773e-10
-7.79447e-09
-2.14522e-10
-7.79249e-09
-1.67611e-15
-1.85266e-12
-2.36217e-10
-3.01955e-15
-1.86048e-12
-2.36228e-10
-3.01555e-15
-1.8603e-12
-2.36412e-10
-1.98117e-15
-1.86565e-12
-2.36454e-10
9.3269e-16
-1.86437e-12
-2.36505e-10
-1.85875e-12
-2.36231e-10
-8.21688e-18
-1.85791e-12
-8.05613e-18
-1.86576e-12
-7.32185e-18
-1.86559e-12
-2.84493e-18
-1.87098e-12
1.12102e-17
-1.8697e-12
-1.86406e-12
2.90284e-11
-6.84759e-09
5.95233e-07
2.24604e-11
-6.84665e-09
5.95125e-07
2.82267e-11
-6.84881e-09
5.95395e-07
2.65058e-11
-6.84903e-09
5.95249e-07
4.48714e-12
-6.85168e-09
5.94684e-07
-6.84501e-09
5.95504e-07
-7.34682e-14
-4.96557e-10
-7.0731e-09
-1.72628e-13
-4.98562e-10
-7.07027e-09
-1.87683e-13
-4.98507e-10
-7.073e-09
9.68385e-15
-5.00028e-10
-7.07186e-09
4.26185e-13
-4.98971e-10
-7.07883e-09
-4.99725e-10
-7.0664e-09
-2.0711e-14
-2.69794e-09
-2.1012e-14
-2.70515e-09
-2.7891e-14
-2.70518e-09
-1.86247e-14
-2.71156e-09
2.62358e-15
-2.70993e-09
-2.71206e-09
4.48328e-09
6.0057e-07
6.09093e-05
5.2811e-09
6.01114e-07
6.09473e-05
7.78361e-09
6.0139e-07
6.0936e-05
8.55273e-09
6.01382e-07
6.09341e-05
3.53006e-09
6.00067e-07
6.09206e-05
6.02761e-07
6.09601e-05
8.97494e-12
-7.61851e-08
6.29084e-07
5.10357e-11
-7.62101e-08
6.2959e-07
6.30556e-11
-7.625e-08
6.29966e-07
9.23072e-11
-7.62681e-08
6.29948e-07
2.68423e-10
-7.63106e-08
6.28483e-07
-7.60683e-08
6.31539e-07
-1.03409e-11
4.201e-08
-9.79552e-12
4.2004e-08
-1.06957e-11
4.20285e-08
-6.23229e-12
4.20233e-08
5.59114e-13
4.19142e-08
4.2135e-08
9.81141e-08
0.000184395
0.00387154
1.26645e-07
0.000184522
0.00387216
1.14178e-07
0.000184569
0.00387236
7.95758e-08
0.000184573
0.00387257
2.73542e-07
0.000184151
0.00387203
0.000185013
0.00387197
1.08964e-10
1.12627e-06
0.000183789
7.9933e-10
1.12992e-06
0.000183913
2.02656e-09
1.1315e-06
0.000183958
1.52494e-09
1.13224e-06
0.000183963
4.1065e-09
1.1178e-06
0.000183551
1.14916e-06
0.000184391
-9.448e-12
1.16824e-06
-9.17871e-12
1.17189e-06
-5.15725e-12
1.17349e-06
-3.2707e-12
1.17422e-06
-3.28519e-11
1.1597e-06
1.19124e-06
8.74153e-06
0.0191785
0.150717
9.23248e-06
0.0191815
0.150724
6.28293e-06
0.0191796
0.15071
1.24659e-06
0.0191841
0.150741
2.10462e-05
0.0192158
0.150949
0.0191452
0.150432
1.10656e-06
0.000722556
0.0186287
1.00687e-06
0.000723005
0.0186326
5.82703e-07
0.000722963
0.0186312
8.13875e-07
0.000723206
0.0186347
9.64738e-06
0.000722607
0.0186581
0.000723647
0.0186057
8.3537e-09
0.000723716
5.99246e-09
0.000724179
6.95717e-09
0.000724135
1.6588e-08
0.000724371
-5.71112e-08
0.00072384
0.000724781
-9.94365e-18
5.35103e-13
1.21832e-11
-3.13715e-15
-5.09357e-18
5.36527e-13
1.21791e-11
-3.14482e-15
-1.41054e-17
5.35837e-13
1.21583e-11
-3.1479e-15
-1.55158e-18
5.36672e-13
1.21991e-11
-3.13984e-15
-1.01022e-17
5.58258e-13
1.25072e-11
-3.17603e-15
5.14174e-13
1.17545e-11
-3.12093e-15
2.72717e-15
-2.5487e-09
3.22459e-09
-7.45297e-12
1.47386e-15
-2.5514e-09
3.23458e-09
-7.47763e-12
-1.14776e-15
-2.54769e-09
3.23516e-09
-7.47317e-12
5.64871e-16
-2.55386e-09
3.22955e-09
-7.47045e-12
-1.83247e-14
-2.6253e-09
3.28655e-09
-7.68224e-12
-2.4653e-09
3.19787e-09
-7.28352e-12
-3.55298e-13
-2.58367e-09
3.53087e-11
-1.36571e-13
-2.58699e-09
3.53584e-11
-1.98835e-13
-2.58297e-09
3.53277e-11
2.05317e-13
-2.58964e-09
3.53653e-11
7.7769e-12
-2.66896e-09
3.62528e-11
-2.49252e-09
3.47359e-11
1.22291e-15
-1.64524e-09
5.92922e-10
4.10157e-15
-1.64849e-09
5.93348e-10
-2.52661e-15
-1.64872e-09
5.92959e-10
3.18322e-15
-1.64684e-09
5.9349e-10
-7.1807e-14
-1.66624e-09
6.03844e-10
-1.63494e-09
5.81071e-10
3.75425e-12
-2.0615e-07
3.54044e-07
2.2465e-12
-2.06302e-07
3.53786e-07
1.64794e-12
-2.06128e-07
3.53229e-07
4.35204e-12
-2.06436e-07
3.54436e-07
-2.99153e-11
-2.09726e-07
3.60574e-07
-2.02697e-07
3.44356e-07
-6.54202e-11
-2.08668e-07
-1.47236e-11
-2.0894e-07
-2.60217e-10
-2.08466e-07
-4.44648e-11
-2.09241e-07
2.21964e-09
-2.14657e-07
-2.02988e-07
-3.58619e-13
-2.43464e-08
1.9204e-08
-2.04721e-13
-2.43458e-08
1.91718e-08
-9.44831e-13
-2.43207e-08
1.91381e-08
-2.20762e-13
-2.43786e-08
1.92139e-08
-8.3663e-13
-2.47521e-08
1.95432e-08
-2.3799e-08
1.86103e-08
4.90673e-10
1.14873e-06
-9.82234e-07
2.47728e-10
1.14901e-06
-9.82069e-07
3.0718e-10
1.14602e-06
-9.79812e-07
3.886e-10
1.15126e-06
-9.84111e-07
-3.47698e-09
1.18524e-06
-1.00941e-06
1.1024e-06
-9.46459e-07
7.11801e-09
-4.54209e-05
1.00846e-09
-4.55121e-05
-1.35684e-08
-4.5477e-05
-1.45524e-09
-4.54978e-05
2.1261e-08
-4.62205e-05
-4.48877e-05
1.46206e-14
1.35506e-10
8.22596e-09
9.12236e-14
1.35065e-10
8.18174e-09
8.65197e-14
1.34941e-10
8.1893e-09
3.85136e-14
1.34756e-10
8.13454e-09
-5.80779e-13
1.41434e-10
8.46177e-09
1.2713e-10
7.80178e-09
7.69084e-08
0.000720572
-0.000721638
7.83827e-08
0.000720762
-0.000721752
7.20137e-08
0.000720375
-0.000721356
1.05862e-07
0.000720994
-0.000722019
-3.07036e-07
0.000726695
-0.000727298
0.000713831
-0.000715091
2.44056e-07
-0.00450527
8.79134e-08
-0.00450637
2.88367e-07
-0.00450498
-1.34101e-09
-0.00450751
-2.82755e-06
-0.00453293
-0.00447804
3.12596e-08
0.00181538
-0.00670039
-5.90806e-08
0.00181598
-0.00670161
1.26184e-07
0.00181421
-0.00669676
-4.73805e-08
0.0018161
-0.00670242
-1.92658e-06
0.0018267
-0.00673149
0.0018005
-0.00665754
2.43632e-07
0.0183594
-0.0331864
9.43135e-07
0.0183626
-0.0331892
1.77173e-06
0.0183594
-0.0331847
6.13603e-08
0.018366
-0.0331942
-4.76714e-06
0.018428
-0.0332727
0.0182921
-0.0330905
5.07089e-07
-0.00560681
5.57463e-07
-0.0056092
2.35439e-06
-0.00560816
9.18251e-07
-0.00561034
-1.70265e-05
-0.00563315
-0.00558479
-2.1902e-07
0.0480882
-3.10575e-06
0.0480895
4.20575e-06
0.0480867
6.36814e-07
0.0480983
-4.94846e-05
0.0481786
0.047993
1.07811e-06
0.00605175
1.53496e-06
0.00605437
3.09939e-06
0.00605338
-9.60585e-07
0.00605576
-7.56886e-06
0.00607411
0.00603528
1.71387e-07
2.10387e-07
3.95435e-07
3.40641e-07
-2.6171e-06
-8.58125e-58
-5.08506e-55
4.20287e-54
8.83018e-59
-5.09541e-55
4.21111e-54
5.94944e-58
-5.09533e-55
4.21069e-54
9.24822e-58
-5.09553e-55
4.21084e-54
1.16235e-57
-5.09696e-55
4.21228e-54
-5.0862e-55
4.20379e-54
-3.11325e-60
-2.21854e-58
4.62274e-56
6.42479e-60
-2.22331e-58
4.63235e-56
1.04697e-59
-2.22325e-58
4.6323e-56
1.30324e-59
-2.22335e-58
4.63247e-56
1.48202e-59
-2.22402e-58
4.63376e-56
-2.21915e-58
4.62402e-56
9.65002e-64
6.38569e-60
2.03444e-63
6.39955e-60
2.43322e-63
6.39937e-60
2.82424e-63
6.39959e-60
3.35993e-63
6.40145e-60
6.38736e-60
-7.45473e-54
-2.46753e-50
1.98691e-49
5.00629e-54
-2.47244e-50
1.99072e-49
1.31634e-53
-2.47243e-50
1.9905e-49
2.1109e-53
-2.47252e-50
1.99054e-49
2.80512e-53
-2.47316e-50