/*--------------------------------*- C++ -*----------------------------------*\
| =========                 |                                                 |
| \\      /  F ield         | OpenFOAM: The Open Source CFD Toolbox           |
|  \\    /   O peration     | Version:  v1612+                                |
|   \\  /    A nd           | Web:      www.OpenFOAM.com                      |
|    \\/     M anipulation  |                                                 |
\*---------------------------------------------------------------------------*/
FoamFile
{
    version     2.0;
    format      ascii;
    class       volScalarField;
    location    "2.15";
    object      p;
}
// * * * * * * * * * * * * * * * * * * * * * * * * * * * * * * * * * * * * * //

dimensions      [1 -1 -2 0 0 0 0];

internalField   nonuniform List<scalar> 
1116
(
26290.6
26290.6
26290.6
26290.7
26290.7
26290.7
24911.8
24911.9
24911.9
24911.9
24911.9
24911.8
20906.9
20906.9
20906.9
20906.9
20906.9
20906.9
17474.6
17474.6
17474.6
17474.6
17474.6
17474.6
15040.8
15040.8
15040.8
15040.8
15040.8
15040.8
13133
13133
13133
13133
13133
13133
11324
11324
11324
11324
11323.9
11323.9
9692.74
9692.74
9692.71
9692.69
9692.68
9692.67
9285.71
9285.7
9285.67
9285.63
9285.6
9285.57
12008.4
12008.4
12008.3
12008.3
12008.3
12008.3
17838.8
17838.8
17838.8
17838.7
17838.7
17838.7
26777.1
26777.2
26777.2
26777.2
26777.2
26777.2
15580.2
15580.2
15580.2
15580.2
15580.2
15580.2
12693.6
12693.6
12693.6
12693.7
12693.7
12693.6
8829.75
8829.74
8829.75
8829.75
8829.75
8829.79
6104.94
6104.94
6104.94
6104.95
6104.95
6104.97
4092.23
4092.22
4092.22
4092.21
4092.2
4092.22
3252.44
3252.42
3252.41
3252.39
3252.38
3252.38
2348.99
2348.95
2348.94
2348.92
2348.91
2348.89
1394.63
1394.6
1394.58
1394.57
1394.56
1394.53
532.294
532.28
532.268
532.255
532.254
532.238
760.481
760.458
760.445
760.432
760.439
760.425
3308.5
3308.52
3308.47
3308.37
3308.42
3308.21
16647.3
16647.4
16647.3
16647.3
16647.2
16647.2
5677.98
5678
5678.01
5678.02
5678.05
5678.03
1564.47
1564.49
1564.42
1564.5
1564.59
1564.4
793.689
793.675
793.675
793.68
793.686
793.699
370.859
370.856
370.858
370.859
370.859
370.865
-50.2902
-50.2949
-50.2953
-50.2954
-50.2961
-50.2971
-82.3899
-82.3904
-82.3913
-82.3927
-82.3938
-82.395
-79.8722
-79.8689
-79.8675
-79.8673
-79.8677
-79.8668
-65.3738
-65.372
-65.3705
-65.3695
-65.3697
-65.3676
-21.6398
-21.6425
-21.6458
-21.6478
-21.6501
-21.653
102.39
102.378
102.365
102.354
102.353
102.341
513.976
513.954
513.918
513.892
513.901
513.836
3171.87
3172.02
3171.95
3171.94
3171.79
3172.01
449.699
449.768
449.626
449.757
449.906
449.554
-54.3234
-54.3236
-54.3217
-54.323
-54.3238
-54.3192
-52.4581
-52.4585
-52.4562
-52.4596
-52.4611
-52.4498
-44.715
-44.7142
-44.7138
-44.7144
-44.7145
-44.7137
-38.067
-38.0673
-38.0674
-38.0675
-38.0676
-38.0677
-42.1656
-42.1656
-42.1661
-42.1666
-42.1672
-42.1679
-55.3862
-55.3859
-55.3859
-55.386
-55.3861
-55.3858
-68.1666
-68.1659
-68.1659
-68.1653
-68.1647
-68.1616
-74.8914
-74.8916
-74.8939
-74.8955
-74.8973
-74.8913
-34.8873
-34.8932
-34.8861
-34.8867
-34.8914
-34.8832
-31.2478
-31.2434
-31.2609
-31.2662
-31.2467
-31.2933
448.813
448.813
448.745
448.763
448.806
448.721
-4.644
-4.644
-4.644
-4.644
-4.644
-4.644
-4.63014
-4.63014
-4.63014
-4.63014
-4.63013
-4.63013
-4.60187
-4.60186
-4.60186
-4.60185
-4.60184
-4.60184
-4.55818
-4.55816
-4.55815
-4.55813
-4.55813
-4.55812
-4.49777
-4.49775
-4.49773
-4.49772
-4.49771
-4.49771
-4.41948
-4.41946
-4.41944
-4.41944
-4.41944
-4.41945
-4.32331
-4.32328
-4.32328
-4.32327
-4.32328
-4.32329
-4.20909
-4.20907
-4.20906
-4.20906
-4.20906
-4.20906
-4.0781
-4.07808
-4.07807
-4.07806
-4.07806
-4.07806
-3.93898
-3.93896
-3.93896
-3.93896
-3.93897
-3.93899
-3.8
-3.80001
-3.80004
-3.80005
-3.80008
-3.80011
-3.69763
-3.69763
-3.69762
-3.6976
-3.69759
-3.69759
-14.4672
-14.4672
-14.4672
-14.4672
-14.4671
-14.4671
-14.4533
-14.4533
-14.4533
-14.4533
-14.4533
-14.4533
-14.425
-14.4249
-14.4249
-14.4249
-14.4249
-14.4249
-14.3809
-14.3809
-14.3809
-14.3809
-14.3809
-14.3809
-14.3194
-14.3194
-14.3194
-14.3194
-14.3194
-14.3194
-14.2377
-14.2377
-14.2377
-14.2377
-14.2377
-14.2377
-14.1316
-14.1316
-14.1316
-14.1316
-14.1317
-14.1317
-13.9994
-13.9994
-13.9994
-13.9994
-13.9995
-13.9995
-13.8429
-13.8429
-13.8429
-13.843
-13.843
-13.843
-13.6671
-13.6671
-13.6672
-13.6672
-13.6673
-13.6674
-13.4743
-13.4743
-13.4743
-13.4744
-13.4745
-13.4745
-13.3226
-13.3226
-13.3226
-13.3225
-13.3225
-13.3224
-24.3033
-24.3033
-24.3033
-24.3033
-24.3033
-24.3033
-24.2901
-24.2901
-24.2901
-24.2901
-24.2901
-24.2901
-24.263
-24.263
-24.263
-24.263
-24.2629
-24.2629
-24.2205
-24.2205
-24.2205
-24.2205
-24.2205
-24.2205
-24.1608
-24.1608
-24.1608
-24.1608
-24.1608
-24.1608
-24.0816
-24.0816
-24.0816
-24.0816
-24.0816
-24.0816
-23.9818
-23.9819
-23.9819
-23.9819
-23.9819
-23.9819
-23.8603
-23.8603
-23.8603
-23.8604
-23.8604
-23.8604
-23.7062
-23.7062
-23.7062
-23.7062
-23.7063
-23.7063
-23.518
-23.5181
-23.5181
-23.5181
-23.5182
-23.5183
-23.2933
-23.2933
-23.2933
-23.2932
-23.2932
-23.2932
-23.0799
-23.0798
-23.0797
-23.0796
-23.0795
-23.0794
-34.1514
-34.1514
-34.1514
-34.1514
-34.1514
-34.1514
-34.1396
-34.1396
-34.1396
-34.1396
-34.1396
-34.1396
-34.1152
-34.1152
-34.1152
-34.1152
-34.1152
-34.1152
-34.0765
-34.0765
-34.0765
-34.0765
-34.0765
-34.0765
-34.0207
-34.0207
-34.0207
-34.0207
-34.0208
-34.0208
-33.9427
-33.9428
-33.9428
-33.9428
-33.9428
-33.9428
-33.8322
-33.8322
-33.8322
-33.8323
-33.8323
-33.8323
-33.6774
-33.6774
-33.6774
-33.6774
-33.6775
-33.6775
-33.4684
-33.4684
-33.4685
-33.4685
-33.4686
-33.4686
-33.1926
-33.1926
-33.1926
-33.1926
-33.1927
-33.1927
-32.7968
-32.7968
-32.7967
-32.7966
-32.7965
-32.7965
-32.3418
-32.3418
-32.3417
-32.3416
-32.3415
-32.3414
-46.1518
-46.1508
-46.1532
-46.1485
-46.1477
-46.1631
-58.454
-58.4539
-58.4541
-58.4539
-58.4543
-58.4556
-70.1446
-70.1446
-70.1447
-70.1447
-70.1449
-70.1452
-54.7949
-54.7948
-54.7942
-54.7944
-54.7949
-54.7936
-60.8179
-60.8177
-60.8175
-60.8174
-60.8175
-60.8176
-71.2927
-71.2927
-71.2927
-71.2927
-71.2928
-71.2928
-55.0107
-55.0104
-55.0102
-55.0102
-55.0102
-55.0088
-62.1542
-62.154
-62.1539
-62.1538
-62.1536
-62.1534
-68.6271
-68.6271
-68.6271
-68.6271
-68.627
-68.6269
-56.541
-56.5406
-56.5405
-56.5405
-56.5405
-56.5405
-60.8827
-60.8827
-60.8825
-60.8823
-60.8821
-60.882
-70.2478
-70.2478
-70.2478
-70.2477
-70.2476
-70.2475
-56.5685
-56.5684
-56.5684
-56.5686
-56.5689
-56.5693
-59.0982
-59.0982
-59.0982
-59.098
-59.098
-59.098
-69.3257
-69.3257
-69.3257
-69.3256
-69.3255
-69.3255
-60.5595
-60.5594
-60.5595
-60.5597
-60.56
-60.5604
-61.7104
-61.7107
-61.7108
-61.7109
-61.7109
-61.7108
-69.6954
-69.6954
-69.6954
-69.6954
-69.6953
-69.6952
-58.9949
-58.9946
-58.9945
-58.9944
-58.9945
-58.9945
-62.1029
-62.1028
-62.1027
-62.1027
-62.1027
-62.1027
-68.1162
-68.1161
-68.1161
-68.116
-68.1159
-68.1159
-56.8628
-56.8624
-56.862
-56.8618
-56.8617
-56.8619
-60.8945
-60.8944
-60.8941
-60.8941
-60.8943
-60.8946
-65.8693
-65.8693
-65.8692
-65.8692
-65.8692
-65.8694
-52.3617
-52.3625
-52.3614
-52.3613
-52.3589
-52.3631
-55.6514
-55.6518
-55.6515
-55.6519
-55.6523
-55.6529
-62.8909
-62.8906
-62.8903
-62.8901
-62.8897
-62.8903
-28.6958
-28.6959
-28.6936
-28.6919
-28.6915
-28.6935
-33.8595
-33.8584
-33.8576
-33.8581
-33.8578
-33.8584
-58.1988
-58.1978
-58.1975
-58.1973
-58.1973
-58.1977
-50.8613
-50.8583
-50.8566
-50.8585
-50.8459
-50.8694
-25.4419
-25.4418
-25.4387
-25.4423
-25.4392
-25.4397
-60.3576
-60.3544
-60.352
-60.3494
-60.3517
-60.3466
-113.38
-113.417
-113.409
-113.424
-113.376
-113.431
-54.7311
-54.7365
-54.7305
-54.7436
-54.7236
-54.7562
-84.3032
-84.302
-84.3017
-84.3004
-84.2968
-84.2993
-38.6942
-38.694
-38.6942
-38.6937
-38.694
-38.6937
-52.1111
-52.1115
-52.1124
-52.1109
-52.1146
-52.1075
-59.2414
-59.2416
-59.2403
-59.2419
-59.237
-59.2446
-37.8773
-37.8765
-37.8775
-37.8757
-37.8775
-37.8763
-52.6894
-52.6908
-52.693
-52.6897
-52.7078
-52.6733
-56.6485
-56.648
-56.6469
-56.6475
-56.6327
-56.6615
-34.2213
-34.2199
-34.2205
-34.2182
-34.2181
-34.2203
-51.6543
-51.6553
-51.6594
-51.654
-51.6857
-51.6299
-56.4603
-56.4606
-56.4598
-56.4589
-56.4719
-56.4407
-33.2222
-33.2199
-33.2227
-33.2169
-33.2126
-33.2316
-42.714
-42.7135
-42.718
-42.7133
-42.7204
-42.7192
-68.6405
-68.643
-68.6483
-68.6351
-68.6802
-68.594
-51.6828
-51.6844
-51.6847
-51.674
-51.6962
-51.6586
-25.0081
-25.0052
-25.0189
-24.9948
-24.9575
-25.1008
-107.248
-107.255
-107.264
-107.248
-107.434
-107.029
-203.845
-203.874
-203.797
-203.873
-204.359
-203.055
-48.255
-48.2644
-48.2687
-48.2479
-48.203
-48.3616
-102.795
-102.8
-102.804
-102.8
-102.852
-102.724
-43.9941
-43.9941
-43.9941
-43.9941
-43.9941
-43.9941
-53.8606
-53.8606
-53.8606
-53.8606
-53.8606
-53.8606
-63.7323
-63.7323
-63.7323
-63.7323
-63.7323
-63.7323
-43.9848
-43.9848
-43.9848
-43.9848
-43.9848
-43.9848
-53.8546
-53.8546
-53.8546
-53.8546
-53.8546
-53.8546
-63.7302
-63.7302
-63.7302
-63.7302
-63.7302
-63.7302
-43.9653
-43.9653
-43.9653
-43.9653
-43.9653
-43.9653
-53.842
-53.842
-53.842
-53.842
-53.842
-53.842
-63.7255
-63.7255
-63.7255
-63.7255
-63.7255
-63.7255
-43.9342
-43.9342
-43.9342
-43.9342
-43.9342
-43.9342
-53.8215
-53.8215
-53.8215
-53.8215
-53.8215
-53.8215
-63.7177
-63.7177
-63.7177
-63.7177
-63.7177
-63.7177
-43.8884
-43.8884
-43.8884
-43.8884
-43.8884
-43.8884
-53.7906
-53.7906
-53.7906
-53.7906
-53.7906
-53.7906
-63.7049
-63.7049
-63.7049
-63.7049
-63.7049
-63.7049
-43.8233
-43.8234
-43.8234
-43.8234
-43.8234
-43.8234
-53.7451
-53.7451
-53.7451
-53.7451
-53.7451
-53.7451
-63.6831
-63.6831
-63.6831
-63.6831
-63.6831
-63.6831
-43.7315
-43.7316
-43.7316
-43.7316
-43.7316
-43.7315
-53.6778
-53.6778
-53.6778
-53.6778
-53.6777
-53.6777
-63.6422
-63.6422
-63.6422
-63.6422
-63.6422
-63.6422
-43.6008
-43.6008
-43.6008
-43.6008
-43.6008
-43.6008
-53.58
-53.58
-53.58
-53.58
-53.58
-53.58
-63.5862
-63.5862
-63.5862
-63.5862
-63.5862
-63.5862
-43.3941
-43.3941
-43.3941
-43.3941
-43.3941
-43.3941
-53.4286
-53.4286
-53.4286
-53.4286
-53.4286
-53.4287
-63.4359
-63.4359
-63.4359
-63.436
-63.436
-63.436
-43.0486
-43.0486
-43.0486
-43.0486
-43.0486
-43.0486
-53.2056
-53.2056
-53.2056
-53.2056
-53.2056
-53.2056
-63.135
-63.135
-63.135
-63.1351
-63.135
-63.1351
-42.3899
-42.3899
-42.3899
-42.3899
-42.3899
-42.3899
-52.9519
-52.9519
-52.9519
-52.9518
-52.9518
-52.9516
-62.4561
-62.4561
-62.456
-62.4562
-62.4558
-62.4562
-41.2238
-41.2237
-41.2238
-41.2236
-41.2238
-41.2236
-52.6294
-52.6294
-52.6296
-52.6292
-52.6298
-52.6286
-61.1993
-61.1995
-61.199
-61.1996
-61.1986
-61.1996
)
;

boundaryField
{
    seabed_topleft_surface
    {
        type            calculated;
        value           nonuniform List<scalar> 
72
(
31210.2
31210.3
31210.3
31210.3
31210.3
31210.3
29831.4
29831.5
29831.5
29831.5
29831.5
29831.4
25824.8
25824.8
25824.8
25824.8
25824.8
25824.8
22389.9
22389.9
22389.9
22389.9
22389.9
22389.9
19953.4
19953.4
19953.4
19953.4
19953.4
19953.4
18041.9
18041.9
18041.9
18041.9
18041.9
18041.9
16201.4
16201.4
16201.4
16201.4
16201.4
16201.4
14434.4
14434.4
14434.4
14434.3
14434.3
14434.3
13725
13724.9
13724.9
13724.8
13724.8
13724.8
16453.6
16453.5
16453.5
16453.4
16453.4
16453.4
22278.6
22278.5
22278.5
22278.5
22278.4
22278.4
31139.5
31139.6
31139.6
31139.6
31139.6
31139.6
)
;
    }
    seabed_topright_surface
    {
        type            calculated;
        value           nonuniform List<scalar> 
72
(
0.277854
0.277854
0.277851
0.277852
0.277853
0.277853
0.291712
0.291715
0.291716
0.291719
0.291724
0.291726
0.319984
0.319992
0.32
0.320007
0.320014
0.320019
0.363678
0.363696
0.36371
0.363721
0.36373
0.363734
0.424085
0.424109
0.424128
0.424137
0.424142
0.424142
0.502377
0.502397
0.502413
0.502418
0.502415
0.502407
0.598551
0.598571
0.59858
0.598581
0.598575
0.598566
0.712764
0.712782
0.712793
0.712798
0.712798
0.712797
0.843751
0.843773
0.843786
0.843793
0.843796
0.843798
0.98288
0.982893
0.982895
0.982893
0.982888
0.982861
1.12185
1.12185
1.12182
1.1218
1.12178
1.12174
1.22422
1.22422
1.22424
1.22426
1.22427
1.22427
)
;
    }
    breakwater_top_surface
    {
        type            calculated;
        value           nonuniform List<scalar> 
36
(
-33.7892
-33.789
-33.7892
-33.7887
-33.789
-33.7887
-32.9723
-32.9715
-32.9725
-32.9707
-32.9725
-32.9713
-29.3163
-29.3149
-29.3155
-29.3132
-29.3131
-29.3153
-28.3172
-28.3149
-28.3177
-28.3119
-28.3076
-28.3266
-43.9077
-43.9085
-43.9118
-43.898
-43.9074
-43.9048
-84.1276
-84.1567
-84.0931
-84.1413
-84.448
-83.5809
)
;
    }
    breakwater_left_surface
    {
        type            calculated;
        value           nonuniform List<scalar> 
24
(
26792
26792.1
26792.1
26792.1
26792.1
26792.1
16659.8
16659.9
16659.8
16659.8
16659.7
16659.7
3181.76
3181.92
3181.85
3181.83
3181.68
3181.9
455.258
455.258
455.19
455.208
455.252
455.164
)
;
    }
    breakwater_right_surface
    {
        type            calculated;
        value           nonuniform List<scalar> 
24
(
-3.68078
-3.68078
-3.68076
-3.68074
-3.68073
-3.68073
-13.3061
-13.3061
-13.306
-13.306
-13.3059
-13.3059
-23.0637
-23.0636
-23.0635
-23.0634
-23.0633
-23.0632
-32.3259
-32.3259
-32.3258
-32.3257
-32.3256
-32.3255
)
;
    }
    water_front_surface
    {
        type            calculated;
        value           nonuniform List<scalar> 
186
(
26290.6
24911.8
20906.9
17474.6
15040.8
13133
11324
9692.74
9285.71
12008.4
17838.8
26777.1
15580.2
12693.6
8829.75
6104.94
4092.23
3252.44
2348.99
1394.63
532.294
760.481
3308.5
16647.3
5677.98
1564.47
793.689
370.859
-50.2902
-82.3899
-79.8722
-65.3738
-21.6398
102.39
513.976
3171.87
449.699
-54.3234
-52.4581
-44.715
-38.067
-42.1656
-55.3862
-68.1666
-74.8914
-34.8873
-31.2478
448.813
-4.644
-4.63014
-4.60187
-4.55818
-4.49777
-4.41948
-4.32331
-4.20909
-4.0781
-3.93898
-3.8
-3.69763
-14.4672
-14.4533
-14.425
-14.3809
-14.3194
-14.2377
-14.1316
-13.9994
-13.8429
-13.6671
-13.4743
-13.3226
-24.3033
-24.2901
-24.263
-24.2205
-24.1608
-24.0816
-23.9818
-23.8603
-23.7062
-23.518
-23.2933
-23.0799
-34.1514
-34.1396
-34.1152
-34.0765
-34.0207
-33.9427
-33.8322
-33.6774
-33.4684
-33.1926
-32.7968
-32.3418
-46.1518
-58.454
-70.1446
-54.7949
-60.8179
-71.2927
-55.0107
-62.1542
-68.6271
-56.541
-60.8827
-70.2478
-56.5685
-59.0982
-69.3257
-60.5595
-61.7104
-69.6954
-58.9949
-62.1029
-68.1162
-56.8628
-60.8945
-65.8693
-52.3617
-55.6514
-62.8909
-28.6958
-33.8595
-58.1988
-50.8613
-25.4419
-60.3576
-113.38
-54.7311
-84.3032
-38.6942
-52.1111
-59.2414
-37.8773
-52.6894
-56.6485
-34.2213
-51.6543
-56.4603
-33.2222
-42.714
-68.6405
-51.6828
-25.0081
-107.248
-203.845
-48.255
-102.795
-43.9941
-53.8606
-63.7323
-43.9848
-53.8546
-63.7302
-43.9653
-53.842
-63.7255
-43.9342
-53.8215
-63.7177
-43.8884
-53.7906
-63.7049
-43.8233
-53.7451
-63.6831
-43.7315
-53.6778
-63.6422
-43.6008
-53.58
-63.5862
-43.3941
-53.4286
-63.4359
-43.0486
-53.2056
-63.135
-42.3899
-52.9519
-62.4561
-41.2238
-52.6294
-61.1993
)
;
    }
    water_back_surface
    {
        type            calculated;
        value           nonuniform List<scalar> 
186
(
26290.7
24911.8
20906.9
17474.6
15040.8
13133
11323.9
9692.67
9285.57
12008.3
17838.7
26777.2
15580.2
12693.6
8829.79
6104.97
4092.22
3252.38
2348.89
1394.53
532.238
760.425
3308.21
16647.2
5678.03
1564.4
793.699
370.865
-50.2971
-82.395
-79.8668
-65.3676
-21.653
102.341
513.836
3172.01
449.554
-54.3192
-52.4498
-44.7137
-38.0677
-42.1679
-55.3858
-68.1616
-74.8913
-34.8832
-31.2933
448.721
-4.644
-4.63013
-4.60184
-4.55812
-4.49771
-4.41945
-4.32329
-4.20906
-4.07806
-3.93899
-3.80011
-3.69759
-14.4671
-14.4533
-14.4249
-14.3809
-14.3194
-14.2377
-14.1317
-13.9995
-13.843
-13.6674
-13.4745
-13.3224
-24.3033
-24.2901
-24.2629
-24.2205
-24.1608
-24.0816
-23.9819
-23.8604
-23.7063
-23.5183
-23.2932
-23.0794
-34.1514
-34.1396
-34.1152
-34.0765
-34.0208
-33.9428
-33.8323
-33.6775
-33.4686
-33.1927
-32.7965
-32.3414
-46.1631
-58.4556
-70.1452
-54.7936
-60.8176
-71.2928
-55.0088
-62.1534
-68.6269
-56.5405
-60.882
-70.2475
-56.5693
-59.098
-69.3255
-60.5604
-61.7108
-69.6952
-58.9945
-62.1027
-68.1159
-56.8619
-60.8946
-65.8694
-52.3631
-55.6529
-62.8903
-28.6935
-33.8584
-58.1977
-50.8694
-25.4397
-60.3466
-113.431
-54.7562
-84.2993
-38.6937
-52.1075
-59.2446
-37.8763
-52.6733
-56.6615
-34.2203
-51.6299
-56.4407
-33.2316
-42.7192
-68.594
-51.6586
-25.1008
-107.029
-203.055
-48.3616
-102.724
-43.9941
-53.8606
-63.7323
-43.9848
-53.8546
-63.7302
-43.9653
-53.842
-63.7255
-43.9342
-53.8215
-63.7177
-43.8884
-53.7906
-63.7049
-43.8234
-53.7451
-63.6831
-43.7315
-53.6777
-63.6422
-43.6008
-53.58
-63.5862
-43.3941
-53.4287
-63.436
-43.0486
-53.2056
-63.1351
-42.3899
-52.9516
-62.4562
-41.2236
-52.6286
-61.1996
)
;
    }
    water_left_surface
    {
        type            calculated;
        value           nonuniform List<scalar> 
42
(
26307.5
26307.5
26307.5
26307.5
26307.5
26307.5
15596.7
15596.7
15596.7
15596.7
15596.7
15596.7
5691.43
5691.44
5691.46
5691.47
5691.5
5691.48
451.258
451.327
451.185
451.316
451.465
451.113
-46.1518
-46.1508
-46.1532
-46.1485
-46.1477
-46.1631
-58.454
-58.4539
-58.4541
-58.4539
-58.4543
-58.4556
-70.1446
-70.1446
-70.1447
-70.1447
-70.1449
-70.1452
)
;
    }
    water_right_surface
    {
        type            calculated;
        value           nonuniform List<scalar> 
42
(
-4.62715
-4.62715
-4.62715
-4.62715
-4.62715
-4.62715
-14.4506
-14.4506
-14.4506
-14.4506
-14.4506
-14.4506
-24.2871
-24.2871
-24.2871
-24.2871
-24.2871
-24.2871
-34.1355
-34.1355
-34.1355
-34.1355
-34.1355
-34.1355
-43.9941
-43.9941
-43.9941
-43.9941
-43.9941
-43.9941
-53.8606
-53.8606
-53.8606
-53.8606
-53.8606
-53.8606
-63.7323
-63.7323
-63.7323
-63.7323
-63.7323
-63.7323
)
;
    }
    water_top_surface
    {
        type            calculated;
        value           nonuniform List<scalar> 
180
(
-75.6467
-75.6467
-75.6468
-75.6468
-75.647
-75.6472
-76.8283
-76.8287
-76.8287
-76.8287
-76.8288
-76.8283
-70.6048
-70.6049
-70.605
-70.605
-70.605
-70.6049
-73.0215
-73.022
-73.022
-73.0221
-73.0221
-73.0217
-71.2863
-71.2866
-71.2866
-71.2865
-71.2865
-71.2862
-71.563
-71.5631
-71.563
-71.5629
-71.5628
-71.5625
-71.288
-71.2882
-71.2881
-71.288
-71.2879
-71.2875
-70.1056
-70.1059
-70.1058
-70.1056
-70.1054
-70.1051
-69.5205
-69.5206
-69.5205
-69.5204
-69.5204
-69.5203
-68.6732
-68.6732
-68.6732
-68.6732
-68.6732
-68.6732
-69.6698
-69.6694
-69.6692
-69.6682
-69.6698
-69.6661
-69.3349
-69.3337
-69.3335
-69.3325
-69.3515
-69.3106
-68.7162
-68.7163
-68.7162
-68.7163
-68.7165
-68.716
-68.6991
-68.699
-68.699
-68.699
-68.6974
-68.7009
-68.704
-68.704
-68.704
-68.704
-68.7046
-68.7033
-108.585
-108.594
-108.581
-108.603
-108.813
-108.356
-238.213
-238.244
-238.205
-238.277
-238.932
-237.489
-72.188
-72.1902
-72.1903
-72.1917
-72.1765
-72.2077
-68.6701
-68.6701
-68.6701
-68.6701
-68.6701
-68.6701
-68.6701
-68.6701
-68.6701
-68.6701
-68.6701
-68.6701
-68.6701
-68.6701
-68.6701
-68.6701
-68.6701
-68.6701
-68.6702
-68.6702
-68.6702
-68.6702
-68.6702
-68.6702
-68.6702
-68.6702
-68.6702
-68.6702
-68.6702
-68.6702
-68.6704
-68.6704
-68.6704
-68.6704
-68.6704
-68.6704
-68.6706
-68.6706
-68.6706
-68.6706
-68.6706
-68.6706
-68.671
-68.671
-68.671
-68.671
-68.671
-68.671
-68.6717
-68.6717
-68.6717
-68.6717
-68.6717
-68.6717
-68.6727
-68.6727
-68.6727
-68.6727
-68.6727
-68.6727
-68.6733
-68.6733
-68.6733
-68.6733
-68.6733
-68.6733
-68.6742
-68.6742
-68.6742
-68.6742
-68.6742
-68.6742
)
;
    }
}


// ************************************************************************* //
