/*--------------------------------*- C++ -*----------------------------------*\
| =========                 |                                                 |
| \\      /  F ield         | OpenFOAM: The Open Source CFD Toolbox           |
|  \\    /   O peration     | Version:  v1612+                                |
|   \\  /    A nd           | Web:      www.OpenFOAM.com                      |
|    \\/     M anipulation  |                                                 |
\*---------------------------------------------------------------------------*/
FoamFile
{
    version     2.0;
    format      ascii;
    class       surfaceScalarField;
    location    "2.15";
    object      phi;
}
// * * * * * * * * * * * * * * * * * * * * * * * * * * * * * * * * * * * * * //

dimensions      [0 3 -1 0 0 0 0];

internalField   nonuniform List<scalar> 
2916
(
-4.21741e-06
0.625309
-0.625305
-1.07592e-06
0.625312
-0.625315
1.912e-08
0.625311
-0.625313
-4.1707e-07
0.625311
-0.625311
4.21084e-07
0.625312
-0.625313
0.625311
-0.625311
-6.76931e-06
1.31554
-0.69022
-1.68079e-06
1.31554
-0.690235
-1.25592e-06
1.31554
-0.69023
-8.21819e-07
1.31554
-0.69023
3.47261e-06
1.31554
-0.690233
1.31554
-0.690222
-4.29489e-06
1.77051
-0.454973
-1.84289e-06
1.77052
-0.454983
-3.65781e-06
1.77052
-0.454978
-3.74596e-06
1.77052
-0.454979
2.00926e-06
1.77052
-0.454984
1.77051
-0.454972
-5.33327e-06
2.11204
-0.341525
-5.04631e-06
2.11205
-0.341533
-7.68936e-06
2.11205
-0.341529
-6.66189e-06
2.11205
-0.341533
2.16673e-07
2.11205
-0.34154
2.11204
-0.341527
-9.15693e-06
2.38143
-0.26938
-8.95833e-06
2.38144
-0.269389
-1.12207e-05
2.38144
-0.269387
-9.20068e-06
2.38144
-0.269391
-2.51526e-06
2.38144
-0.269399
2.38142
-0.269388
-1.19033e-05
2.62997
-0.248529
-1.10267e-05
2.62998
-0.248541
-1.26006e-05
2.62998
-0.248538
-1.07399e-05
2.62998
-0.248542
-3.49832e-06
2.62999
-0.24855
2.62996
-0.248541
-7.53306e-06
2.89052
-0.260535
-7.13527e-06
2.89053
-0.26055
-8.48678e-06
2.89053
-0.260548
-7.23222e-06
2.89053
-0.260551
1.30361e-07
2.89054
-0.260559
2.89051
-0.260551
-3.07923e-06
3.15773
-0.26721
-3.15488e-07
3.15776
-0.26723
-2.07614e-06
3.15776
-0.267225
-1.00059e-06
3.15776
-0.267228
6.08686e-06
3.15777
-0.267236
3.15774
-0.267222
-3.26407e-06
3.13963
0.0181001
2.84947e-06
3.13967
0.0180814
1.32787e-06
3.13967
0.0180868
1.66813e-06
3.13967
0.0180863
8.31963e-06
3.13968
0.018078
3.13965
0.0181024
-2.21083e-06
2.47179
0.667845
2.39489e-06
2.47185
0.667823
4.11533e-06
2.47184
0.667833
5.0324e-06
2.47184
0.667833
5.19303e-06
2.47186
0.667825
2.47181
0.667839
8.73331e-06
1.25815
1.21363
5.09138e-06
1.25821
1.21364
6.85484e-06
1.25819
1.21364
3.57801e-06
1.2582
1.21364
-2.52874e-06
1.25822
1.21364
1.25816
1.21365
-5.90346e-05
1.25821
-2.84814e-05
1.25818
-2.48473e-05
1.25819
-1.32575e-05
1.25819
2.40042e-05
1.25818
1.25819
-5.33543e-06
0.786459
-1.41176
-2.0595e-06
0.78646
-1.41178
-2.43007e-06
0.786461
-1.41177
-5.95101e-06
0.786461
-1.41177
-6.32042e-06
0.78646
-1.41177
0.786458
-1.41177
8.21788e-07
1.4749
-1.37866
-2.84817e-06
1.47491
-1.37868
-5.86294e-06
1.47491
-1.37868
-6.65515e-06
1.47491
-1.37867
-5.94848e-06
1.4749
-1.37868
1.4749
-1.37867
4.11639e-06
1.89526
-0.875343
-5.48879e-06
1.89529
-0.87535
-9.79955e-06
1.89528
-0.875347
-1.11497e-05
1.89528
-0.875351
-1.45256e-05
1.89528
-0.875357
1.89526
-0.875347
-9.10973e-07
2.29788
-0.744137
-9.35157e-06
2.29791
-0.74415
-1.15169e-05
2.2979
-0.74415
-1.05487e-05
2.2979
-0.744157
-1.41659e-05
2.29791
-0.744164
2.29788
-0.74416
1.07796e-05
2.53497
-0.50648
-3.17608e-06
2.53501
-0.506471
-7.15592e-06
2.535
-0.506478
-5.31734e-06
2.535
-0.50649
-1.27036e-05
2.53501
-0.506491
2.53497
-0.506498
1.71174e-05
2.90051
-0.614087
4.30777e-06
2.90057
-0.614093
5.53227e-07
2.90056
-0.614095
1.54826e-06
2.90056
-0.614103
-6.13365e-06
2.90057
-0.614104
2.90053
-0.614106
2.49121e-05
3.44702
-0.807077
3.49744e-06
3.44713
-0.807087
-2.87028e-06
3.44711
-0.80709
5.73551e-08
3.44711
-0.807103
-5.09901e-06
3.44713
-0.80711
3.44707
-0.807094
3.45361e-05
4.04464
-0.864858
-9.60742e-06
4.0448
-0.864857
-2.56022e-05
4.04475
-0.864853
-2.07253e-05
4.04475
-0.864878
-1.63766e-05
4.04478
-0.864893
4.0447
-0.864866
6.74092e-05
4.35785
-0.295177
1.65796e-05
4.35805
-0.295112
-1.96352e-05
4.35797
-0.295095
-2.35288e-05
4.35797
-0.295125
-9.72929e-06
4.358
-0.295156
4.3579
-0.295108
5.57463e-05
3.94713
1.0785
2.5054e-05
3.94729
1.07861
-4.32898e-06
3.94724
1.0786
-2.09492e-05
3.94724
1.07857
-2.38305e-05
3.94725
1.07858
3.94723
1.07849
2.62837e-05
1.98984
3.1709
3.49467e-05
1.98997
3.17095
-4.2495e-06
1.98993
3.17099
-7.37351e-06
1.98993
3.17096
9.59479e-05
1.98991
3.17087
1.98992
3.17105
-5.50789e-05
3.2481
-1.13861e-05
3.2481
-3.38716e-07
3.24811
2.97376e-05
3.24809
7.93775e-05
3.24805
3.24819
-1.9706e-06
0.547533
-1.95929
-2.1563e-06
0.547528
-1.95931
1.41007e-06
0.547532
-1.95931
-7.08212e-06
0.547537
-1.9593
-1.81294e-05
0.547537
-1.9593
0.547525
-1.95932
9.73934e-06
1.47569
-2.30682
-1.41814e-06
1.4757
-2.30684
-2.16672e-06
1.47569
-2.30684
-1.16283e-06
1.4757
-2.30684
-6.64974e-06
1.47571
-2.30685
1.47568
-2.30683
1.34408e-05
2.13053
-1.5302
9.64464e-07
2.13054
-1.53018
6.8677e-06
2.13053
-1.53019
1.34312e-05
2.13054
-1.5302
-7.19549e-06
2.13056
-1.53018
2.13055
-1.53022
5.61983e-05
2.9356
-1.54927
3.88493e-05
2.93563
-1.54922
3.69255e-05
2.93563
-1.54925
3.00113e-05
2.93565
-1.54926
-8.72097e-06
2.93568
-1.54924
2.93568
-1.5493
0.000172269
3.63711
-1.20816
0.000164358
3.63729
-1.20812
0.000141644
3.63731
-1.20814
0.000104591
3.63734
-1.20814
4.10347e-05
3.63735
-1.2081
3.63737
-1.20815
0.000231134
5.67608
-2.65329
0.000242706
5.67648
-2.6533
0.000176601
5.6765
-2.65321
0.000111766
5.67645
-2.65315
5.91699e-05
5.67641
-2.65312
5.67639
-2.65307
-5.43771e-05
7.5326
-2.66354
-4.40762e-05
7.5329
-2.66351
-7.48273e-05
7.53291
-2.66347
-9.70208e-05
7.53282
-2.66345
-0.000165725
7.53282
-2.66345
7.53251
-2.66338
-0.000359469
7.90947
-1.24137
-0.000477371
7.90953
-1.24137
-0.000504783
7.90947
-1.24138
-0.000470305
7.90932
-1.24142
-0.000580077
7.90954
-1.24151
7.90867
-1.2416
-0.00029807
6.32499
1.28961
-0.000557301
6.32498
1.2897
-0.000643921
6.32474
1.28972
-0.000617854
6.32458
1.2896
-0.000485398
6.32478
1.28947
6.32401
1.28906
0.000215629
3.34077
4.0625
0.000160237
3.34098
4.06266
2.26008e-05
3.34081
4.06267
-0.000115529
3.34079
4.06249
4.74049e-05
3.3408
4.0624
3.34088
4.06167
0.000195034
1.43362
5.07786
0.000226697
1.43382
5.07808
6.80161e-05
1.43372
5.07823
-1.44237e-05
1.43372
5.07812
0.000410069
1.43398
5.07727
1.43342
5.07891
-4.6809e-05
4.68177
3.77912e-05
4.68184
5.94915e-05
4.68181
6.42432e-05
4.6818
3.77906e-06
4.68208
4.68162
-5.04696e-06
0.25803
-2.21731
1.2377e-05
0.257903
-2.21723
-2.15415e-06
0.258135
-2.21743
-2.29342e-05
0.257981
-2.21726
-1.13629e-06
0.257747
-2.21707
0.258239
-2.21756
-1.95148e-05
0.912213
-2.96099
-3.89032e-05
0.912111
-2.96103
3.52402e-05
0.912249
-2.96102
4.11717e-05
0.912143
-2.961
-4.29727e-05
0.912013
-2.96103
0.912355
-2.96099
-4.23639e-05
1.51317
-2.13111
-7.21658e-06
1.51302
-2.13112
0.000127902
1.51306
-2.13114
0.000132752
1.51308
-2.13114
4.92682e-06
1.51311
-2.13116
1.51327
-2.13113
9.26314e-05
1.18113
-1.21732
0.000185547
1.1811
-1.21739
0.000191951
1.18117
-1.21736
0.000128108
1.18123
-1.21735
6.35045e-05
1.18127
-1.21733
1.18135
-1.21731
0.000206737
0.407887
-0.435119
0.000319696
0.407975
-0.43511
0.000295743
0.408137
-0.43508
0.000201633
0.408232
-0.435045
0.000127005
0.408247
-0.435004
0.408299
-0.434973
-0.000118895
-0.738604
-1.50668
-9.40624e-05
-0.738627
-1.50672
-7.96644e-05
-0.738443
-1.50665
-3.28946e-05
-0.738382
-1.50659
6.42861e-05
-0.738406
-1.50656
-0.738257
-1.50645
-0.000241589
-1.44298
-1.95892
-0.000277332
-1.4431
-1.959
-0.000262959
-1.44295
-1.95898
-0.00018206
-1.44296
-1.95896
-0.00010306
-1.44298
-1.95895
-1.44291
-1.95883
-0.000128136
-1.04662
-1.63761
-0.000161892
-1.04664
-1.63779
-0.000173091
-1.04651
-1.6378
-0.00014465
-1.04658
-1.63782
-0.000307882
-1.04649
-1.63783
-1.04695
-1.63787
0.000106227
0.0309142
0.211969
-0.000127708
0.0312921
0.211997
5.29882e-05
0.030928
0.212093
0.00017923
0.0308876
0.212005
-5.40593e-05
0.0309465
0.212268
0.0307002
0.211363
0.00043048
0.354921
3.73806
0.000149909
0.355574
3.73866
0.000402499
0.354633
3.73871
0.000337132
0.354791
3.73866
-0.000709426
0.355413
3.73898
0.354534
3.73713
0.000688118
0.798841
4.63325
0.000962268
0.799064
4.63431
0.000534524
0.79887
4.63442
0.000280702
0.798895
4.63426
0.00146124
0.799588
4.63192
0.798109
4.6368
2.60356e-05
5.48058
9.80112e-05
5.48084
0.000103697
5.48067
5.64936e-06
5.48079
-0.00018869
5.48186
5.47954
-5.24081e-08
0.00132064
-0.00132059
-4.90626e-08
0.00132069
-0.0013206
-6.71015e-08
0.00132068
-0.00132058
-4.33678e-08
0.00132065
-0.0013206
-3.54408e-08
0.00132064
-0.00132059
0.00132062
-0.0013206
1.21302e-07
0.00269164
-0.001371
5.57381e-09
0.00269164
-0.00137099
-9.41752e-08
0.00269161
-0.00137097
-1.24505e-07
0.00269153
-0.001371
-1.00518e-07
0.00269147
-0.00137101
0.00269137
-0.00137106
4.43766e-07
0.00415459
-0.00146344
5.37621e-08
0.00415446
-0.00146322
-1.89811e-07
0.00415433
-0.00146315
-3.07678e-07
0.00415415
-0.00146317
-2.67796e-07
0.00415395
-0.0014632
0.00415376
-0.00146329
6.38188e-07
0.00574755
-0.00159395
-7.17047e-08
0.00574709
-0.00159328
-5.92399e-07
0.00574674
-0.00159307
-8.535e-07
0.00574633
-0.00159305
-7.61605e-07
0.00574588
-0.00159313
0.00574546
-0.00159333
4.42133e-07
0.00750729
-0.00176084
-7.7504e-07
0.00750618
-0.00175939
-1.6784e-06
0.00750527
-0.00175892
-2.07662e-06
0.00750437
-0.00175885
-1.72527e-06
0.00750342
-0.00175903
0.0075025
-0.00175952
-7.85981e-07
0.00950493
-0.00199759
-2.80462e-06
0.00950241
-0.00199531
-4.16217e-06
0.00950046
-0.00199473
-4.53965e-06
0.00949875
-0.0019948
-3.4968e-06
0.00949701
-0.00199535
0.00949518
-0.00199654
-3.79046e-06
0.0118159
-0.0023077
-6.96956e-06
0.0118112
-0.00230592
-8.60467e-06
0.0118078
-0.00230594
-8.51635e-06
0.0118051
-0.00230667
-6.14613e-06
0.0118026
-0.00230808
0.0117995
-0.00231048
-8.86216e-06
0.0142017
-0.00237704
-1.27727e-05
0.0141939
-0.00237836
-1.38041e-05
0.0141894
-0.00238025
-1.24912e-05
0.0141865
-0.00238242
-8.48572e-06
0.0141838
-0.00238512
0.0141799
-0.00238886
-1.34249e-05
0.0160396
-0.00182417
-1.61725e-05
0.016029
-0.00183157
-1.50424e-05
0.0160249
-0.00183597
-1.18578e-05
0.0160231
-0.00183932
-7.07436e-06
0.0160216
-0.00184225
0.0160184
-0.00184545
-1.07619e-05
0.0154466
0.000604189
-9.97027e-06
0.0154335
0.000595722
-6.46416e-06
0.0154297
0.000592383
-2.7272e-06
0.0154288
0.000591133
-3.63453e-07
0.0154285
0.000591229
0.0154265
0.000592037
-3.17216e-06
0.012224
0.00322615
1.0558e-07
0.012213
0.00321822
4.07279e-06
0.0122095
0.00321708
6.81087e-06
0.0122082
0.00321867
6.62269e-06
0.0122076
0.003222
0.012207
0.00322707
7.03904e-06
0.0122174
7.62719e-06
0.0122134
6.30528e-06
0.0122117
4.82784e-06
0.0122105
3.36185e-06
0.01221
0.012211
-1.15754e-07
0.00133698
-0.00265737
-7.87415e-08
0.00133698
-0.00265737
-5.92243e-08
0.00133695
-0.00265733
-2.6947e-08
0.00133691
-0.00265734
2.5134e-09
0.00133689
-0.00265733
0.00133685
-0.00265736
5.06606e-09
0.00273851
-0.00277248
-9.11159e-08
0.00273842
-0.00277244
-1.2639e-07
0.00273832
-0.0027724
-1.26683e-07
0.0027382
-0.00277241
-8.51718e-08
0.0027381
-0.00277241
0.00273796
-0.00277247
2.15585e-08
0.00426678
-0.00299214
-2.91655e-07
0.00426647
-0.00299186
-4.11428e-07
0.00426622
-0.00299175
-4.43147e-07
0.00426597
-0.00299171
-3.51149e-07
0.00426571
-0.00299172
0.0042655
-0.00299179
-2.9802e-07
0.00598009
-0.00330791
-9.04839e-07
0.00597932
-0.00330711
-1.13909e-06
0.00597879
-0.0033068
-1.1612e-06
0.00597827
-0.00330668
-9.43577e-07
0.00597777
-0.0033067
0.00597735
-0.00330689
-1.1296e-06
0.00788963
-0.00367047
-2.21648e-06
0.00788806
-0.00366875
-2.57264e-06
0.00788689
-0.00366814
-2.47242e-06
0.00788588
-0.00366792
-1.85014e-06
0.00788491
-0.00366806
0.00788404
-0.00366865
-3.12228e-06
0.00981436
-0.00392022
-4.72015e-06
0.00981101
-0.00391785
-5.07549e-06
0.00980873
-0.00391719
-4.58534e-06
0.00980692
-0.0039172
-3.17641e-06
0.00980523
-0.00391787
0.00980348
-0.00391948
-6.36843e-06
0.0113803
-0.00386771
-8.2722e-06
0.0113734
-0.00386674
-8.09815e-06
0.0113695
-0.00386715
-6.74268e-06
0.0113668
-0.00386823
-4.31771e-06
0.0113646
-0.00387016
0.0113618
-0.0038734
-9.54959e-06
0.0123916
-0.00337862
-1.04481e-05
0.0123789
-0.00338267
-8.53945e-06
0.0123732
-0.00338568
-5.77545e-06
0.0123702
-0.00338851
-2.97709e-06
0.0123682
-0.00339167
0.0123656
-0.00339574
-9.46987e-06
0.0129419
-0.00236446
-6.51488e-06
0.0129203
-0.00237533
-1.43241e-06
0.012913
-0.0023805
2.47232e-06
0.0129109
-0.00238363
3.38437e-06
0.0129109
-0.00238569
0.0129109
-0.00238715
-4.49336e-06
0.0132254
0.000325798
4.13742e-06
0.0131991
0.000309305
1.30792e-05
0.0131924
0.000304816
1.75365e-05
0.0131931
0.000305176
1.44991e-05
0.0131973
0.000308696
0.0132033
0.000314874
1.00909e-05
0.011759
0.00468329
2.02792e-05
0.0117368
0.00467178
2.64962e-05
0.0117316
0.00467298
2.7313e-05
0.0117325
0.0046797
2.0468e-05
0.0117374
0.00469016
0.0117467
0.00470514
1.60372e-05
0.0239613
1.23861e-05
0.0239552
5.03057e-06
0.0239518
-8.42588e-07
0.0239502
-2.99156e-06
0.0239507
0.0239549
-1.33827e-07
0.00129397
-0.00395106
-5.37647e-08
0.00129395
-0.00395098
-3.28098e-09
0.00129393
-0.00395096
4.0157e-08
0.0012939
-0.00395096
6.52859e-08
0.0012939
-0.00395095
0.00129393
-0.00395104
-4.26987e-08
0.00266464
-0.00414293
-7.79555e-08
0.00266453
-0.00414284
-7.35331e-08
0.00266445
-0.00414281
-4.58765e-08
0.00266436
-0.0041428
7.22293e-09
0.00266431
-0.00414281
0.00266431
-0.00414289
-9.01638e-08
0.00418297
-0.00451064
-3.05474e-07
0.00418269
-0.00451036
-3.66801e-07
0.00418252
-0.00451025
-3.45353e-07
0.00418234
-0.00451021
-2.46963e-07
0.0041822
-0.00451021
0.0041822
-0.00451028
-4.23812e-07
0.00591691
-0.00504216
-9.10943e-07
0.00591636
-0.00504143
-1.03572e-06
0.005916
-0.00504113
-9.5972e-07
0.00591566
-0.00504099
-7.28254e-07
0.00591539
-0.005041
0.00591531
-0.00504119
-1.27621e-06
0.00799088
-0.00574413
-2.01682e-06
0.00798974
-0.00574266
-2.10333e-06
0.00798898
-0.0057421
-1.81646e-06
0.00798836
-0.00574188
-1.24425e-06
0.00798789
-0.00574203
0.0079877
-0.00574269
-2.88502e-06
0.0107285
-0.00665571
-3.70264e-06
0.0107258
-0.00665409
-3.44624e-06
0.0107243
-0.00665362
-2.66733e-06
0.0107234
-0.00665372
-1.59717e-06
0.0107227
-0.00665448
0.0107225
-0.00665625
-4.85622e-06
0.0148089
-0.00794371
-5.11428e-06
0.0148031
-0.00794432
-3.80845e-06
0.0148005
-0.00794522
-2.15578e-06
0.0147994
-0.00794657
-8.18427e-07
0.0147993
-0.00794869
0.0147998
-0.00795205
-6.10489e-06
0.0203078
-0.00887141
-3.78744e-06
0.0202961
-0.00887841
2.62188e-08
0.020293
-0.00888239
2.89399e-06
0.0202934
-0.00888574
3.26471e-06
0.0202958
-0.00888911
0.0203
-0.00889285
-2.88407e-06
0.0267086
-0.00876231
5.00692e-06
0.0266911
-0.00877816
1.28855e-05
0.0266893
-0.00878462
1.66142e-05
0.0266938
-0.0087878
1.34233e-05
0.0267024
-0.00878895
0.0267146
-0.008788
6.89897e-06
0.0296783
-0.00265053
2.16695e-05
0.0296578
-0.00267132
3.23723e-05
0.0296588
-0.0026746
3.47585e-05
0.0296684
-0.002671
2.56337e-05
0.0296839
-0.00266271
0.0297052
-0.00264947
1.94405e-05
0.0276768
0.00666612
2.70411e-05
0.0276608
0.00666267
2.87502e-05
0.0276638
0.00666751
2.47997e-05
0.0276759
0.00667742
1.5101e-05
0.0276948
0.00669015
0.0277197
0.00670611
-2.55102e-06
0.0516417
-1.54177e-05
0.05163
-2.69138e-05
0.0516282
-3.17375e-05
0.0516319
-2.62706e-05
0.0516406
0.0516484
-1.89726e-07
0.00118501
-0.00513566
-4.78984e-08
0.001185
-0.00513559
3.91652e-08
0.00118498
-0.00513557
1.05083e-07
0.00118497
-0.00513557
1.52861e-07
0.00118497
-0.00513557
0.00118499
-0.00513563
-1.21113e-07
0.00246598
-0.00542348
-7.47639e-08
0.00246586
-0.00542339
-1.94761e-08
0.00246578
-0.00542336
4.22357e-08
0.00246572
-0.00542335
1.01919e-07
0.0024657
-0.00542335
0.0024657
-0.00542342
-2.36767e-07
0.00395398
-0.00599848
-3.08804e-07
0.00395366
-0.00599828
-2.7074e-07
0.00395351
-0.00599819
-1.9139e-07
0.00395341
-0.00599814
-1.00995e-07
0.00395335
-0.00599812
0.00395339
-0.00599819
-6.21703e-07
0.00579428
-0.00688229
-8.1643e-07
0.0057936
-0.00688177
-7.09205e-07
0.00579332
-0.00688156
-5.0476e-07
0.00579317
-0.00688143
-2.9449e-07
0.00579311
-0.0068814
0.00579327
-0.00688156
-1.10176e-06
0.00811106
-0.00806044
-1.29134e-06
0.00810993
-0.00805955
-1.02052e-06
0.00810952
-0.00805919
-6.27256e-07
0.00810937
-0.00805904
-3.35312e-07
0.00810938
-0.00805912
0.00810956
-0.00805956
-1.41511e-06
0.0107904
-0.00933418
-1.20313e-06
0.0107883
-0.00933345
-4.55509e-07
0.0107878
-0.00933333
2.39189e-07
0.0107879
-0.00933355
4.74803e-07
0.0107882
-0.00933418
0.0107887
-0.00933534
-1.46826e-07
0.0133219
-0.0104755
1.34848e-06
0.0133181
-0.0104764
2.96093e-06
0.0133178
-0.0104776
3.77974e-06
0.0133187
-0.010479
3.01298e-06
0.0133202
-0.0104808
0.0133222
-0.0104831
4.27693e-06
0.0153197
-0.0108739
8.74266e-06
0.0153135
-0.0108791
1.17341e-05
0.0153143
-0.0108826
1.21185e-05
0.0153176
-0.0108857
8.69921e-06
0.0153224
-0.0108885
0.0153286
-0.0108907
1.26294e-05
0.0166615
-0.0101171
2.10664e-05
0.0166539
-0.0101272
2.49623e-05
0.0166578
-0.0101322
2.36121e-05
0.0166663
-0.0101352
1.59476e-05
0.0166777
-0.0101364
0.0166922
-0.0101354
1.9473e-05
0.018092
-0.00410027
2.86164e-05
0.0180846
-0.00411049
3.12487e-05
0.0180937
-0.00411252
2.70802e-05
0.0181107
-0.00411054
1.64484e-05
0.0181323
-0.00410608
0.0181575
-0.00409831
1.0278e-05
0.0151154
0.00963321
1.16901e-05
0.0151145
0.00963248
1.00161e-05
0.0151263
0.00963753
5.43761e-06
0.0151447
0.00964866
1.44015e-06
0.0151665
0.00966025
0.0151901
0.00967491
-3.38999e-05
0.0667919
-5.60736e-05
0.0667676
-6.68417e-05
0.066766
-6.3416e-05
0.0667736
-4.46246e-05
0.0667886
0.0667942
-3.49677e-05
-2.24446
0.0271789
4.12835e-05
-2.24449
0.0271879
-3.4025e-05
-2.24455
0.0271903
3.15497e-05
-2.24448
0.0271528
0.000266634
-2.24445
0.0271467
-2.24459
0.0273009
8.07388e-07
-2.08923
-0.155227
3.4081e-05
-2.0893
-0.155231
1.92802e-05
-2.0893
-0.155229
6.25112e-05
-2.08927
-0.155252
0.000130015
-2.08926
-0.155258
-2.08927
-0.155193
-9.27279e-06
-0.0644612
-1.4536e-05
-0.0644697
-2.23321e-05
-0.064471
-2.54734e-05
-0.0644659
-1.50738e-05
-0.0644654
-0.0644801
-9.60893e-05
-2.57137
-0.362343
-3.54915e-05
-2.57142
-0.362484
2.90845e-05
-2.5714
-0.3625
3.4539e-05
-2.57137
-0.362481
2.09831e-06
-2.5714
-0.362448
-2.57131
-0.362374
-3.8202e-05
-2.37003
-0.356534
-2.75801e-05
-2.37009
-0.356577
-1.31949e-05
-2.37006
-0.356584
-3.4288e-07
-2.37004
-0.3566
1.61223e-06
-2.37006
-0.3566
-2.36998
-0.35653
8.34636e-06
-0.249458
-5.63912e-06
-0.249457
-1.03092e-05
-0.249462
-5.05387e-06
-0.249461
-9.87755e-06
-0.24946
-0.249474
-3.24791e-05
-1.13723
-1.35619
1.32238e-06
-1.13726
-1.35638
1.87111e-06
-1.13724
-1.35639
8.70078e-06
-1.13724
-1.35639
3.90143e-05
-1.13725
-1.35638
-1.13721
-1.35625
-8.85673e-06
-0.936798
-0.556959
-1.57399e-05
-0.936816
-0.557008
-1.99037e-05
-0.936791
-0.55703
-1.97398e-05
-0.936784
-0.557053
-1.87291e-05
-0.936792
-0.557064
-0.936739
-0.557024
9.93333e-06
-0.114905
9.67404e-06
-0.114896
1.20921e-05
-0.114902
1.27321e-05
-0.114903
4.11641e-06
-0.114902
-0.114916
2.71377e-05
-1.40586
-1.16768
-1.21973e-05
-1.40594
-1.16779
-5.06342e-05
-1.40591
-1.16781
-5.80203e-05
-1.4059
-1.16783
-1.43902e-05
-1.40592
-1.16784
-1.40582
-1.16776
-1.18168e-05
-1.55107
-0.411741
-5.20028e-05
-1.55115
-0.411763
-6.47195e-05
-1.55114
-0.411789
-6.33828e-05
-1.55115
-0.41181
-5.31278e-05
-1.55117
-0.411827
-1.55107
-0.411831
2.30922e-05
-0.0594296
1.72473e-05
-0.0594233
8.08046e-06
-0.0594273
-4.36181e-06
-0.059429
-1.93313e-05
-0.0594307
-0.0594398
-8.42474e-05
-0.969338
-0.633375
-5.36078e-05
-0.969444
-0.633491
-2.34445e-05
-0.969401
-0.633519
1.87298e-06
-0.969363
-0.633538
4.69309e-05
-0.969354
-0.633534
-0.969233
-0.633454
-2.02833e-05
-1.23459
-0.146471
-7.0854e-05
-1.23468
-0.14648
-9.03033e-05
-1.23468
-0.146488
-7.70383e-05
-1.23469
-0.146495
-4.89329e-05
-1.23471
-0.146502
-1.23462
-0.146491
4.47919e-06
-0.0401886
-4.89403e-06
-0.0401882
-1.36948e-05
-0.0401901
-2.02002e-05
-0.040191
-2.33633e-05
-0.0401911
-0.0401942
-0.000117858
-1.39813
-0.741814
-0.000115482
-1.39823
-0.741987
-8.09238e-05
-1.39821
-0.741989
-3.66265e-05
-1.39819
-0.741978
1.89691e-05
-1.39819
-0.741962
-1.39807
-0.741812
-8.77413e-06
-1.3817
-0.162886
-4.15021e-05
-1.38178
-0.162897
-5.44095e-05
-1.38178
-0.162905
-5.27181e-05
-1.38178
-0.162908
-4.05517e-05
-1.38179
-0.162914
-1.38171
-0.162887
-4.85758e-06
-0.109614
-1.58514e-05
-0.109615
-2.20707e-05
-0.109615
-2.40894e-05
-0.109614
-2.39827e-05
-0.109611
-0.10961
-6.55631e-05
-1.53466
-1.16601
-1.63817e-05
-1.53473
-1.16631
-6.58033e-08
-1.53472
-1.16627
1.97139e-05
-1.53472
-1.16624
7.0171e-05
-1.53472
-1.16624
-1.53464
-1.16594
-3.88869e-05
-1.26115
-0.436353
-4.75164e-05
-1.26119
-0.436421
-3.55924e-05
-1.26119
-0.436443
-1.63592e-05
-1.26119
-0.436452
1.45382e-05
-1.26119
-0.436476
-1.26114
-0.436367
-1.47016e-05
-0.13363
-1.79943e-05
-0.133635
-1.7154e-05
-0.133637
-1.28247e-05
-0.133641
-6.70231e-06
-0.133644
-0.133641
6.84253e-05
-1.3305
-1.47319
9.7793e-05
-1.33062
-1.47351
7.86978e-05
-1.33059
-1.47347
6.50307e-05
-1.3306
-1.47345
7.58773e-05
-1.33057
-1.47352
-1.33057
-1.47317
-2.84002e-05
-0.932968
-0.833852
-5.12963e-05
-0.932997
-0.834017
-5.01288e-05
-0.932998
-0.834038
-3.12516e-05
-0.933005
-0.834063
1.95095e-05
-0.932994
-0.8341
-0.932999
-0.833918
-1.96466e-05
-0.159206
-1.83712e-05
-0.159238
-1.64939e-05
-0.159252
-4.74332e-06
-0.159277
2.71839e-05
-0.159297
-0.159266
0.000415195
-0.848279
-0.413356
0.000304155
-0.848286
-0.41312
0.000398212
-0.848191
-0.413275
0.000321468
-0.84817
-0.413199
0.000188461
-0.847796
-0.413321
-0.848704
-0.41291
-1.51842e-05
-0.604278
-1.07784
-5.04342e-05
-0.604266
-1.078
-4.73055e-05
-0.604281
-1.07795
1.1194e-05
-0.604279
-1.07801
0.000158835
-0.60416
-1.07788
-0.604462
-1.078
-0.000121326
-0.0738917
-0.00012387
-0.074056
-0.000158821
-0.0740605
-0.000108753
-0.0741926
2.10615e-05
-0.0741263
-0.0742633
0.000530792
2.09708
1.22709
0.000577483
2.09778
1.22771
0.000870122
2.09783
1.22732
0.000930082
2.09803
1.22737
0.000360963
2.09871
1.22752
2.09665
1.22793
4.03466e-05
0.707519
0.31168
0.000240495
0.707848
0.311732
0.000319147
0.70797
0.311829
0.00044258
0.70805
0.311846
0.00117181
0.708424
0.311678
0.707726
0.312095
-0.000207769
0.438074
-0.000189566
0.437928
-0.00020594
0.437979
-0.000113142
0.437842
3.56544e-05
0.43803
0.437718
0.00108188
2.71118
3.14809
0.00141051
2.7128
3.1489
0.00124216
2.71327
3.14864
0.000860988
2.7133
3.14872
0.0030142
2.70827
3.14901
2.71906
3.14868
2.27292e-05
0.508228
2.5146
0.000246526
0.509347
2.51496
0.000560174
0.509854
2.51493
0.000437044
0.510122
2.51514
0.000957317
0.50556
2.51387
0.515671
2.51644
-0.000468593
1.75194
-0.00045652
1.75216
-0.00026417
1.75242
-0.000200946
1.75232
-0.00137706
1.74977
1.75549
0.000230644
4.09332
4.53512
0.000248604
4.09418
4.53554
0.000171701
4.09407
4.53532
6.48248e-05
4.09412
4.5355
0.000465232
4.09263
4.53784
4.09646
4.53222
0.000362389
1.5742
5.03336
0.000348976
1.57516
5.034
0.000201204
1.57524
5.03392
0.000242172
1.57558
5.03364
0.00303108
1.56834
5.03537
1.58365
5.03228
9.53804e-05
4.09371
3.92479e-05
4.09441
4.11748e-05
4.09461
0.000168362
4.09426
-0.000585105
4.09404
4.09497
-1.52939e-05
-0.120152
0.436719
-0.316552
-8.99311e-06
-0.12015
0.436689
-0.316544
-2.37028e-05
-0.120161
0.436737
-0.316562
-2.97968e-06
-0.120145
0.436658
-0.316533
-1.64462e-05
-0.120165
0.436767
-0.316589
-0.120143
0.436643
-0.316516
3.39291e-05
-0.256562
0.370807
-0.234431
2.00351e-05
-0.256596
0.370922
-0.234462
-1.07903e-05
-0.256601
0.37093
-0.234458
1.05153e-05
-0.256577
0.370858
-0.234447
-0.000247361
-0.256821
0.371461
-0.234547
-0.256312
0.370235
-0.234314
-4.10357e-05
-0.491522
0.316785
-1.67682e-05
-0.49157
0.316791
-3.51459e-05
-0.491679
0.316888
1.8426e-05
-0.491511
0.316721
0.000849412
-0.492631
0.317043
-0.490416
0.31647
4.21441e-06
-0.241978
0.678693
1.14017e-05
-0.241959
0.678642
-8.96008e-06
-0.241986
0.678744
1.13219e-05
-0.241951
0.678588
-0.000253821
-0.241935
0.678968
-0.242018
0.678407
0.000143063
-0.391554
0.520241
8.76965e-05
-0.391465
0.520484
8.18738e-05
-0.39155
0.5205
0.00017343
-0.391498
0.520314
-0.00124033
-0.390591
0.521531
-0.392585
0.519561
-9.45061e-05
-0.835585
-2.71381e-05
-0.835905
-0.000391028
-0.835611
-6.59e-05
-0.836045
0.00311171
-0.841469
-0.829978
-3.73142e-05
-0.30198
0.980711
-2.43118e-05
-0.302041
0.98067
-9.6871e-05
-0.302004
0.98082
-2.19017e-05
-0.30199
0.980504
-6.46846e-05
-0.302426
0.981437
-0.30152
0.979863
0.000434702
0.48648
-0.268654
0.000223623
0.487043
-0.26839
0.000308052
0.486584
-0.268172
0.000339546
0.487022
-0.268731
-0.00343456
0.49331
-0.270431
0.479649
-0.265043
0.000207524
-2.21917
3.39322e-05
-2.21997
-0.000310659
-2.21903
-1.73549e-05
-2.22043
0.000213008
-2.23447
-2.20414
1.874e-05
0.218652
0.762041
0.000148035
0.218482
0.762058
0.000125724
0.218268
0.762574
4.89984e-05
0.218762
0.761819
-0.000820373
0.221946
0.76036
0.214205
0.764836
0.00029537
2.72643
-2.77673
0.000319923
2.72681
-2.77674
0.000294972
2.72633
-2.77621
0.000476403
2.72693
-2.77708
-0.00122201
2.73503
-2.78182
2.71743
-2.76949
0.000386604
-4.54541
0.00017237
-4.54628
0.000563362
-4.5457
5.61934e-05
-4.54641
-0.00493481
-4.5602
-4.53174
3.35799e-05
1.85901
-1.097
-8.70934e-05
1.85932
-1.09714
0.000164375
1.8589
-1.09658
-8.67969e-05
1.85925
-1.09718
-0.00263427
1.86254
-1.09963
1.85535
-1.09314
5.14336e-05
4.2396
-5.15737
0.000203398
4.24019
-5.15776
0.000365853
4.2401
-5.15757
-1.84188e-05
4.24017
-5.15762
-0.000888151
4.24378
-5.16219
4.23717
-5.1522
0.000211679
-5.45956
0.000247888
-5.46035
0.000966531
-5.46038
0.000405936
-5.46008
-0.00685424
-5.46759
-5.45263
-2.08401e-05
3.43814
-0.000134224
3.43851
0.000183414
3.43842
2.02425e-05
3.43848
-0.00219638
3.44042
3.43688
0.00010331
3.31402
0.000133397
3.31472
0.000263501
3.31464
-0.000116232
3.31489
-0.000611454
3.3141
3.31635
0.000280306
0.000329447
0.000581414
0.000543989
-0.00399708
-1.28321e-07
-0.00598956
0.000854305
-3.09013e-09
-0.0059895
0.000854315
7.34851e-08
-0.0059895
0.000854302
1.23413e-07
-0.00598949
0.000854296
1.59505e-07
-0.0059895
0.000854292
-0.00598954
0.00085431
-1.54293e-08
-0.00653401
0.00054474
5.54989e-08
-0.00653392
0.00054475
8.31667e-08
-0.00653393
0.000544746
9.88074e-08
-0.00653394
0.000544742
1.07476e-07
-0.00653395
0.000544738
-0.00653403
0.000544747
2.61088e-08
0.00018766
4.90398e-08
0.000187659
5.5185e-08
0.000187657
5.98815e-08
0.000187655
6.533e-08
0.000187653
0.000187654
-8.80411e-08
-0.0063523
0.00178358
-1.06614e-08
-0.00635226
0.00178354
4.64117e-08
-0.00635225
0.0017835
1.05683e-07
-0.00635224
0.00178348
1.54597e-07
-0.00635225
0.00178346
-0.00635228
0.00178345
1.50134e-08
-0.00694878
0.00114152
5.1762e-08
-0.0069487
0.0011415
7.12269e-08
-0.0069487
0.00114149
8.75658e-08
-0.00694871
0.00114147
1.00579e-07
-0.00694872
0.00114146
-0.0069488
0.00114146
2.74831e-08
0.000387051
4.15003e-08
0.00038704
4.64132e-08
0.000387036
5.15067e-08
0.000387031
5.95546e-08
0.000387026
0.000387026
-1.77989e-07
-0.00709685
0.00288221
-1.48106e-07
-0.00709682
0.00288213
-7.84105e-08
-0.00709678
0.0028821
1.89602e-09
-0.00709676
0.00288209
7.30956e-08
-0.00709676
0.00288208
-0.00709675
0.00288212
1.19554e-08
-0.00781488
0.00185968
7.43664e-09
-0.00781479
0.00185964
1.09083e-08
-0.00781478
0.00185963
1.65043e-08
-0.00781478
0.00185962
1.69856e-08
-0.00781478
0.00185962
-0.00781486
0.00185964
7.62045e-09
0.000605721
1.5674e-08
0.000605699
2.23696e-08
0.000605698
2.96394e-08
0.000605698
3.7614e-08
0.000605698
0.000605712
-3.14243e-07
-0.00828939
0.00428944
-3.04739e-07
-0.00828919
0.00428937
-1.75106e-07
-0.00828913
0.00428941
-3.6984e-08
-0.00828908
0.00428949
3.60623e-08
-0.00828906
0.00428958
-0.00828915
0.00428973
-8.6187e-08
-0.00923634
0.00280672
-6.26184e-08
-0.00923621
0.00280668
-1.96892e-08
-0.00923619
0.00280671
2.47262e-08
-0.00923618
0.00280674
4.92943e-08
-0.00923617
0.00280678
-0.00923628
0.00280684
3.43757e-09
0.000828697
1.24596e-08
0.000828681
2.24736e-08
0.00082869
3.10674e-08
0.000828702
3.24413e-08
0.000828714
0.000828737
-2.78647e-07
-0.0100424
0.00627144
-1.33511e-07
-0.0100422
0.00627155
1.24842e-07
-0.0100421
0.00627181
3.22634e-07
-0.0100421
0.00627209
3.15061e-07
-0.0100421
0.00627234
-0.0100423
0.0062726
-2.90291e-08
-0.0113994
0.00416364
4.10503e-08
-0.0113992
0.00416363
1.30055e-07
-0.0113992
0.00416372
1.78553e-07
-0.0113992
0.00416381
1.38e-07
-0.0113993
0.0041639
-0.0113994
0.004164
2.65822e-08
0.000977898
5.81313e-08
0.000977863
8.17432e-08
0.000977884
8.7766e-08
0.000977911
6.31463e-08
0.000977936
0.000977991
3.71544e-07
-0.0125562
0.00949278
8.92948e-07
-0.0125561
0.00949312
1.36573e-06
-0.0125561
0.00949365
1.55738e-06
-0.0125563
0.00949414
1.18041e-06
-0.0125565
0.00949452
-0.0125568
0.00949487
2.94207e-07
-0.0146636
0.00627059
4.59361e-07
-0.0146635
0.00627059
5.59788e-07
-0.0146635
0.00627075
5.10821e-07
-0.0146636
0.00627089
2.63412e-07
-0.0146637
0.00627101
-0.014664
0.00627118
9.49126e-08
0.000796088
1.63914e-07
0.000796007
1.95859e-07
0.000796047
1.70967e-07
0.000796093
8.48102e-08
0.000796133
0.000796266
2.39323e-06
-0.016281
0.0152955
3.37026e-06
-0.0162811
0.015296
3.71929e-06
-0.0162816
0.0152966
3.36797e-06
-0.0162823
0.0152969
2.11492e-06
-0.0162829
0.0152971
-0.0162836
0.0152972
7.65954e-07
-0.0196815
0.00966994
1.13197e-06
-0.0196814
0.00966989
1.26285e-06
-0.0196817
0.00967007
1.06554e-06
-0.0196819
0.0096702
5.72913e-07
-0.0196821
0.00967027
-0.0196825
0.00967054
1.73192e-07
-0.000480016
3.17781e-07
-0.000480207
3.90193e-07
-0.000480142
3.33515e-07
-0.000480014
2.2617e-07
-0.000479933
-0.000479503
5.12738e-06
-0.0220352
0.026451
6.16423e-06
-0.0220363
0.0264512
5.76028e-06
-0.0220375
0.0264511
4.36902e-06
-0.0220387
0.0264507
2.27181e-06
-0.0220398
0.02645
-0.0220407
0.0264495
1.43755e-06
-0.0278275
0.0154603
1.89136e-06
-0.0278275
0.0154601
1.94779e-06
-0.027828
0.01546
1.49308e-06
-0.0278285
0.01546
8.59625e-07
-0.0278288
0.0154597
-0.0278294
0.01546
3.05299e-07
-0.00433811