/*--------------------------------*- C++ -*----------------------------------*\
| =========                 |                                                 |
| \\      /  F ield         | OpenFOAM: The Open Source CFD Toolbox           |
|  \\    /   O peration     | Version:  v1612+                                |
|   \\  /    A nd           | Web:      www.OpenFOAM.com                      |
|    \\/     M anipulation  |                                                 |
\*---------------------------------------------------------------------------*/
FoamFile
{
    version     2.0;
    format      ascii;
    class       volVectorField;
    location    "2.15";
    object      U;
}
// * * * * * * * * * * * * * * * * * * * * * * * * * * * * * * * * * * * * * //

dimensions      [0 1 -1 0 0 0 0];

internalField   nonuniform List<vector> 
1116
(
(0.648198 -3.65177e-06 -0.509498)
(0.648202 -3.1807e-06 -0.509507)
(0.648201 5.30816e-07 -0.509506)
(0.648202 -5.92214e-07 -0.509505)
(0.648203 1.54667e-08 -0.509506)
(0.648201 4.67999e-07 -0.509502)
(1.93166 -7.47764e-06 -0.630162)
(1.93167 -3.59723e-06 -0.630177)
(1.93167 -7.31038e-07 -0.630174)
(1.93167 -1.52032e-06 -0.630174)
(1.93167 5.43141e-07 -0.630176)
(1.93167 4.6722e-06 -0.630164)
(3.07137 -6.53933e-06 -0.493107)
(3.07139 -7.85442e-07 -0.493118)
(3.07139 -3.52728e-06 -0.493114)
(3.07139 -3.65876e-06 -0.493115)
(3.07139 -2.73702e-06 -0.493118)
(3.07137 5.7197e-06 -0.493105)
(3.8981 -7.57169e-06 -0.356734)
(3.89812 -2.65751e-06 -0.356742)
(3.89812 -7.95698e-06 -0.356738)
(3.89812 -6.86542e-06 -0.356742)
(3.89812 -5.41731e-06 -0.356747)
(3.8981 5.66063e-06 -0.356734)
(4.50976 -1.01035e-05 -0.213768)
(4.50978 -6.99321e-06 -0.213774)
(4.50978 -1.18941e-05 -0.21377)
(4.50977 -9.83594e-06 -0.213776)
(4.50978 -8.45666e-06 -0.213784)
(4.50974 3.47953e-06 -0.21377)
(5.01515 -1.22107e-05 -0.121261)
(5.01517 -1.01703e-05 -0.12127)
(5.01516 -1.32606e-05 -0.121265)
(5.01516 -1.1184e-05 -0.121271)
(5.01517 -9.59573e-06 -0.121282)
(5.01512 1.88937e-06 -0.12127)
(5.47352 -8.75448e-06 -0.0876441)
(5.47354 -6.28377e-06 -0.087657)
(5.47354 -8.98727e-06 -0.0876529)
(5.47354 -8.12193e-06 -0.0876597)
(5.47355 -4.50095e-06 -0.0876724)
(5.4735 4.36647e-06 -0.0876642)
(5.97165 -4.57188e-06 -0.103597)
(5.9717 -2.69948e-07 -0.103622)
(5.97169 -1.0011e-06 -0.103617)
(5.97169 -3.6602e-06 -0.103623)
(5.97171 2.54185e-06 -0.103635)
(5.97166 8.12861e-06 -0.103627)
(6.47343 -6.21875e-06 0.00514687)
(6.4735 5.47408e-07 0.00511678)
(6.47349 4.53354e-06 0.00511421)
(6.47349 -2.2589e-06 0.00511043)
(6.4735 5.77126e-06 0.00509936)
(6.47344 9.28229e-06 0.00510438)
(6.05809 -6.79385e-06 0.218057)
(6.05817 5.03224e-07 0.218017)
(6.05817 5.69311e-06 0.218012)
(6.05817 1.81134e-06 0.218008)
(6.05819 6.204e-06 0.218)
(6.05811 5.98853e-06 0.21799)
(4.07575 6.33506e-06 0.571943)
(4.07587 9.62355e-06 0.571918)
(4.07584 2.69999e-06 0.57191)
(4.07584 8.38796e-06 0.571909)
(4.07589 -9.69345e-07 0.571887)
(4.07579 -5.4465e-06 0.571903)
(1.84698 -5.04357e-05 0.82981)
(1.84712 -5.05395e-05 0.829763)
(1.84708 -1.4997e-05 0.82978)
(1.84709 -3.18718e-05 0.829773)
(1.84714 9.79304e-06 0.829776)
(1.84701 3.16689e-05 0.829766)
(0.703159 -6.11039e-06 -2.03801)
(0.703153 -2.72973e-06 -2.03805)
(0.703154 -1.88558e-06 -2.03804)
(0.703162 -2.88952e-06 -2.03803)
(0.703162 -8.94529e-06 -2.03804)
(0.703139 -2.47477e-06 -2.03803)
(2.27375 3.25914e-06 -2.01863)
(2.27376 -1.21316e-06 -2.01867)
(2.27377 -4.9131e-06 -2.01866)
(2.27376 -6.32783e-06 -2.01866)
(2.27375 -5.90586e-06 -2.01867)
(2.27377 -6.02579e-06 -2.01864)
(3.32074 6.17549e-06 -1.37725)
(3.32077 6.82774e-07 -1.37728)
(3.32077 -1.01866e-05 -1.37726)
(3.32076 -9.06556e-06 -1.37727)
(3.32076 -1.37185e-05 -1.37728)
(3.32073 -1.2429e-05 -1.37724)
(4.12424 2.58841e-06 -1.10354)
(4.1243 -4.97457e-06 -1.10357)
(4.12429 -1.19734e-05 -1.10356)
(4.12428 -9.54986e-06 -1.10357)
(4.12429 -1.23998e-05 -1.10359)
(4.12423 -1.31338e-05 -1.10355)
(4.78311 1.40469e-05 -0.975528)
(4.78318 3.06417e-06 -0.975562)
(4.78317 -7.23139e-06 -0.975556)
(4.78316 -5.83012e-06 -0.97557)
(4.78318 -6.50542e-06 -0.975593)
(4.78311 -1.48274e-05 -0.975561)
(5.30507 2.15972e-05 -0.973141)
(5.30516 7.99846e-06 -0.973185)
(5.30515 1.60449e-06 -0.97318)
(5.30514 -6.75693e-07 -0.973191)
(5.30516 3.13643e-06 -0.973213)
(5.30509 -1.3789e-05 -0.973188)
(6.04938 3.29588e-05 -1.06891)
(6.04952 8.63533e-06 -1.06896)
(6.0495 -2.14579e-07 -1.06895)
(6.04949 -5.52747e-06 -1.06896)
(6.04952 5.73865e-06 -1.06898)
(6.04945 -1.72572e-05 -1.06896)
(7.3364 5.08998e-05 -1.13457)
(7.33665 6.00194e-06 -1.13464)
(7.33659 -2.10864e-05 -1.13462)
(7.33659 -2.92405e-05 -1.13463)
(7.33664 -6.89285e-06 -1.13465)
(7.3365 -3.03333e-05 -1.13461)
(8.11334 8.23719e-05 -0.115901)
(8.11373 3.87472e-05 -0.115952)
(8.11359 -8.21935e-06 -0.115927)
(8.11359 -3.47035e-05 -0.115927)
(8.11364 -2.0851e-06 -0.11595)
(8.11348 -2.32227e-05 -0.11586)
(9.23782 6.14691e-05 1.63098)
(9.23818 4.02808e-05 1.63093)
(9.23805 5.72879e-06 1.63097)
(9.23806 -1.72653e-05 1.63097)
(9.2381 -1.4601e-05 1.63096)
(9.23798 -3.5705e-05 1.63101)
(6.77705 3.07842e-05 3.31867)
(6.77731 3.16817e-05 3.3187)
(6.77721 2.62696e-05 3.31872)
(6.77721 -4.18858e-05 3.31872)
(6.77719 4.47377e-05 3.31872)
(6.77716 8.08001e-05 3.31872)
(4.20242 -5.22256e-05 3.8715)
(4.20273 -4.03363e-05 3.87145)
(4.20267 1.32951e-05 3.87146)
(4.20269 -1.42468e-05 3.87145)
(4.20264 6.98918e-05 3.87144)
(4.20272 8.13678e-05 3.87145)
(-0.483434 -1.4476e-07 -3.40912)
(-0.483479 -3.08934e-06 -3.40916)
(-0.48345 -3.51655e-07 -3.40914)
(-0.483445 2.12095e-06 -3.40913)
(-0.483456 -1.62979e-05 -3.40914)
(-0.483442 -1.44947e-05 -3.40915)
(2.17103 2.45748e-05 -3.80657)
(2.17106 -6.87328e-06 -3.80662)
(2.17104 1.1246e-06 -3.80661)
(2.17106 -2.67352e-06 -3.8066)
(2.17107 6.09805e-06 -3.80661)
(2.17101 -2.16045e-05 -3.8066)
(3.76144 3.12052e-05 -2.4001)
(3.76148 -1.16849e-05 -2.40011)
(3.76146 1.40236e-05 -2.40011)
(3.76146 2.83153e-07 -2.40012)
(3.76149 2.19838e-05 -2.40013)
(3.76145 -3.13782e-05 -2.40012)
(4.58841 7.22935e-05 -2.07602)
(4.58841 2.13549e-05 -2.07606)
(4.5884 5.981e-05 -2.07607)
(4.58842 1.33764e-05 -2.07608)
(4.58847 3.8727e-05 -2.07609)
(4.58845 -5.10651e-05 -2.0761)
(5.90261 0.00015632 -1.59071)
(5.9026 0.000137284 -1.59075)
(5.90262 0.000190617 -1.59078)
(5.90268 8.23955e-05 -1.5908)
(5.90275 0.000114835 -1.59077)
(5.90277 -4.13859e-05 -1.59083)
(8.78587 0.000224397 -2.34024)
(8.7868 0.000228306 -2.34026)
(8.78686 0.000235382 -2.34025)
(8.78685 8.70616e-05 -2.34025)
(8.78682 0.000127365 -2.34022)
(8.78685 -3.2562e-05 -2.34025)
(12.8984 3.8626e-05 -3.01485)
(12.8991 -7.07614e-05 -3.01481)
(12.8992 -2.19405e-05 -3.01479)
(12.8991 -0.000130217 -3.01481)
(12.899 -9.90769e-05 -3.01482)
(12.8989 -0.000161977 -3.01476)
(15.7148 -0.000148999 -2.69601)
(15.7152 -0.000455159 -2.69592)
(15.7152 -0.000431693 -2.69588)
(15.715 -0.000490321 -2.69594)
(15.7151 -0.000521036 -2.69602)
(15.7141 -0.000442488 -2.69594)
(14.9133 -0.000133753 -0.53645)
(14.913 -0.000512057 -0.536219)
(14.9127 -0.000576504 -0.536207)
(14.9122 -0.000615918 -0.536314)
(14.9129 -0.000571035 -0.536446)
(14.9105 -0.000447123 -0.536362)
(9.03604 0.000148607 2.97117)
(9.03647 0.000151869 2.97141)
(9.03603 7.3891e-05 2.97138)
(9.03587 -7.10412e-05 2.97127)
(9.03584 -7.77257e-06 2.97125)
(9.03585 -3.56233e-05 2.97082)
(4.97094 0.000147764 6.52758)
(4.97138 0.000213725 6.52775)
(4.97099 0.000163981 6.5278)
(4.97094 -8.02188e-05 6.52772)
(4.97152 0.000216257 6.52754)
(4.97028 0.000299116 6.52783)
(6.80217 -6.00873e-05 7.6947)
(6.80274 -5.71497e-06 7.69478)
(6.80271 5.86483e-05 7.69477)
(6.80273 7.15519e-05 7.69472)
(6.80295 4.72087e-05 7.69457)
(6.80255 -3.08463e-05 7.69513)
(-2.43058 3.56934e-05 -4.10335)
(-2.43065 -2.64811e-05 -4.10338)
(-2.43056 1.78563e-05 -4.1034)
(-2.43063 -1.23769e-05 -4.10336)
(-2.43067 1.15817e-05 -4.10335)
(-2.43035 -4.78598e-05 -4.10342)
(1.79255 2.86727e-05 -5.68496)
(1.7922 -6.70874e-05 -5.68502)
(1.79285 2.71392e-05 -5.685)
(1.79241 1.55934e-05 -5.68498)
(1.79169 3.17641e-05 -5.68504)
(1.793 -6.97984e-05 -5.68501)
(3.54336 -2.96597e-05 -3.93315)
(3.54319 -4.88352e-05 -3.93309)
(3.54321 8.63781e-05 -3.93314)
(3.5432 8.14282e-05 -3.93315)
(3.54327 9.86237e-05 -3.93313)
(3.54355 -2.96086e-06 -3.93319)
(2.5278 8.94717e-05 -3.26311)
(2.52739 0.000106853 -3.26304)
(2.5275 0.000217659 -3.26309)
(2.52761 0.000127787 -3.26311)
(2.52768 0.00011852 -3.26305)
(2.52798 -4.90252e-07 -3.26319)
(2.21041 0.000142327 -1.94277)
(2.21073 0.000239827 -1.94253)
(2.21091 0.000360001 -1.94257)
(2.21109 0.000193564 -1.94258)
(2.21117 0.000192513 -1.94247)
(2.21119 2.6644e-05 -1.94257)
(-1.14007 -9.54471e-05 -5.52419)
(-1.14 -0.000110137 -5.52411)
(-1.13949 -7.41393e-05 -5.52385)
(-1.13927 -7.51204e-05 -5.52368)
(-1.13929 2.26633e-05 -5.5236)
(-1.1391 6.47272e-05 -5.5234)
(-3.48493 -0.000178982 -5.14777)
(-3.4851 -0.000253488 -5.14781)
(-3.48481 -0.000252744 -5.14777)
(-3.48473 -0.000214515 -5.1477)
(-3.4848 -0.000146995 -5.14771)
(-3.48434 -3.58104e-05 -5.14755)
(-3.35557 -6.30842e-05 -1.52479)
(-3.35581 -0.000142927 -1.52497)
(-3.35557 -0.000180948 -1.52511)
(-3.35561 -0.000109201 -1.52521)
(-3.3556 -0.000229235 -1.52538)
(-3.35557 -0.000195881 -1.52576)
(-1.3273 0.000201501 4.10027)
(-1.32719 -5.78777e-05 4.1004)
(-1.32687 -0.000126466 4.10048)
(-1.32721 0.000205611 4.10022)
(-1.3269 7.58305e-05 4.10004)
(-1.32923 -8.41716e-05 4.09866)
(4.47126 0.000348512 10.4704)
(4.47266 0.000264692 10.471)
(4.47109 0.000179332 10.471)
(4.4712 0.000562303 10.4706)
(4.47094 -0.000228533 10.4704)
(4.47195 -0.000667358 10.4685)
(0.752897 0.000625258 12.0277)
(0.753463 0.000862268 12.0285)
(0.752656 0.00068534 12.0289)
(0.752695 0.000158954 12.0285)
(0.753899 0.000918387 12.0258)
(0.751407 0.000977219 12.0312)
(9.06437 -2.45813e-05 11.1202)
(9.06518 8.25678e-05 11.1203)
(9.06515 7.67677e-05 11.1202)
(9.0652 0.000121077 11.1202)
(9.06681 -0.00010687 11.1214)
(9.06338 -0.000260331 11.1192)
(-0.00130407 6.67556e-08 -0.00132129)
(-0.00130411 -9.53604e-08 -0.00132132)
(-0.00130409 -9.55237e-08 -0.0013213)
(-0.00130405 5.67259e-09 -0.00132132)
(-0.00130404 -7.13234e-08 -0.00132131)
(-0.001304 -1.03104e-08 -0.00132133)
(-0.00396202 2.53509e-07 -0.00137138)
(-0.00396206 9.15469e-08 -0.00137138)
(-0.00396202 -1.47176e-07 -0.00137136)
(-0.0039619 -4.42171e-08 -0.0013714)
(-0.00396182 -1.36904e-07 -0.00137142)
(-0.00396169 -6.92892e-08 -0.00137147)
(-0.00676094 4.6275e-07 -0.00146144)
(-0.0067608 3.52615e-07 -0.00146123)
(-0.00676065 -1.9658e-07 -0.00146116)
(-0.00676039 -2.04937e-07 -0.00146119)
(-0.00676014 -3.47027e-07 -0.00146122)
(-0.00675985 -2.19198e-07 -0.00146132)
(-0.00977885 6.27747e-07 -0.00157481)
(-0.0097783 4.40491e-07 -0.00157411)
(-0.00977785 -5.1543e-07 -0.00157389)
(-0.00977727 -7.0755e-07 -0.00157388)
(-0.00977664 -8.89052e-07 -0.00157395)
(-0.00977603 -4.99e-07 -0.00157416)
(-0.0130904 5.86691e-07 -0.00167374)
(-0.013089 9.80163e-08 -0.00167214)
(-0.0130878 -1.38543e-06 -0.00167165)
(-0.0130865 -1.8978e-06 -0.00167156)
(-0.0130852 -2.04716e-06 -0.00167174)
(-0.0130838 -1.03288e-06 -0.00167222)
(-0.0168024 8.02475e-08 -0.00174101)
(-0.0167991 -1.38273e-06 -0.00173837)
(-0.0167964 -3.59599e-06 -0.00173768)
(-0.0167938 -4.39882e-06 -0.00173771)
(-0.0167911 -4.28492e-06 -0.00173827)
(-0.0167883 -2.00149e-06 -0.00173947)
(-0.0210387 -1.61393e-06 -0.00197691)
(-0.0210318 -5.22779e-06 -0.00197423)
(-0.0210265 -7.94442e-06 -0.00197407)
(-0.021022 -8.62255e-06 -0.00197483)
(-0.0210175 -7.77792e-06 -0.00197638)
(-0.0210123 -3.46231e-06 -0.001979)
(-0.0255937 -4.37896e-06 -0.00286737)
(-0.0255811 -1.10378e-05 -0.00286758)
(-0.025573 -1.35622e-05 -0.00286928)
(-0.025567 -1.32112e-05 -0.00287158)
(-0.0255613 -1.11433e-05 -0.00287455)
(-0.0255537 -4.80608e-06 -0.00287875)
(-0.0298827 -7.24067e-06 -0.00475232)
(-0.0298633 -1.5729e-05 -0.00475846)
(-0.0298539 -1.60137e-05 -0.0047628)
(-0.0298486 -1.35195e-05 -0.00476648)
(-0.0298439 -1.02496e-05 -0.00476993)
(-0.0298361 -4.22057e-06 -0.0047739)
(-0.0305981 -6.40584e-06 -0.00681416)
(-0.0305717 -1.17892e-05 -0.00682703)
(-0.0305624 -8.62111e-06 -0.00683314)
(-0.0305588 -4.5901e-06 -0.00683655)
(-0.0305566 -1.29246e-06 -0.00683811)
(-0.0305512 7.62863e-08 -0.006839)
(-0.0298177 -2.67502e-06 -0.0063458)
(-0.0297884 -2.42546e-06 -0.00635917)
(-0.0297797 2.30447e-06 -0.00636225)
(-0.0297773 5.61483e-06 -0.00636141)
(-0.0297766 7.32315e-06 -0.00635823)
(-0.0297742 3.78138e-06 -0.00635335)
(-0.0164106 4.04964e-06 0.00249506)
(-0.0163962 7.94809e-06 0.00248922)
(-0.0163918 6.9275e-06 0.00248768)
(-0.0163902 5.38051e-06 0.00248668)
(-0.0163891 4.33285e-06 0.002486)
(-0.0163879 1.99394e-06 0.00248651)
(-0.0012915 -6.95715e-09 -0.00387369)
(-0.00129149 -1.33992e-07 -0.00387371)
(-0.00129145 -8.82494e-08 -0.00387366)
(-0.0012914 3.83284e-09 -0.00387368)
(-0.00129137 -2.22857e-08 -0.00387366)
(-0.00129133 4.68245e-09 -0.0038737)
(-0.00393441 9.7714e-08 -0.00403445)
(-0.00393428 -4.66408e-08 -0.00403441)
(-0.00393414 -1.74538e-07 -0.00403435)
(-0.00393397 -7.87936e-08 -0.00403439)
(-0.00393385 -1.08387e-07 -0.00403441)
(-0.00393368 -5.98558e-08 -0.00403451)
(-0.00675412 1.60486e-07 -0.00433694)
(-0.00675371 -7.24648e-08 -0.00433645)
(-0.00675337 -4.4484e-07 -0.00433628)
(-0.006753 -3.85145e-07 -0.00433627)
(-0.00675266 -4.62527e-07 -0.00433631)
(-0.00675233 -2.8988e-07 -0.00433646)
(-0.00986507 4.4365e-08 -0.00476538)
(-0.00986406 -4.62973e-07 -0.00476391)
(-0.00986333 -1.08762e-06 -0.00476339)
(-0.00986259 -1.11322e-06 -0.00476325)
(-0.00986186 -1.12871e-06 -0.00476335)
(-0.00986125 -5.97732e-07 -0.00476374)
(-0.013338 -5.29224e-07 -0.00528049)
(-0.013336 -1.62584e-06 -0.00527725)
(-0.0133344 -2.37801e-06 -0.00527615)
(-0.0133329 -2.47714e-06 -0.00527584)
(-0.0133315 -2.24886e-06 -0.00527614)
(-0.0133301 -1.05683e-06 -0.00527717)
(-0.017012 -1.61014e-06 -0.00578297)
(-0.0170077 -3.94402e-06 -0.00577802)
(-0.0170044 -4.828e-06 -0.00577665)
(-0.0170016 -4.76076e-06 -0.00577663)
(-0.0169989 -3.97932e-06 -0.00577782)
(-0.016996 -1.71643e-06 -0.00578056)
(-0.0204126 -3.41867e-06 -0.00592116)
(-0.020403 -7.54931e-06 -0.00591745)
(-0.0203969 -8.09139e-06 -0.00591763)
(-0.0203922 -7.30825e-06 -0.00591942)
(-0.0203878 -5.65216e-06 -0.00592289)
(-0.0203826 -2.30348e-06 -0.00592882)
(-0.0231054 -5.45394e-06 -0.00454587)
(-0.0230851 -1.07251e-05 -0.00455042)
(-0.0230747 -9.43377e-06 -0.00455544)
(-0.0230683 -7.05755e-06 -0.00456081)
(-0.0230631 -4.57531e-06 -0.00456727)
(-0.0230564 -1.67069e-06 -0.00457605)
(-0.0254521 -6.19483e-06 -0.000226851)
(-0.0254145 -9.52761e-06 -0.000245657)
(-0.0253996 -4.02176e-06 -0.000256211)
(-0.0253931 7.74987e-07 -0.000263785)
(-0.02539 3.56323e-06 -0.000270054)
(-0.0253863 2.12189e-06 -0.000276369)
(-0.0280818 -4.80251e-06 0.0107583)
(-0.0280277 -2.24279e-06 0.0107291)
(-0.0280115 9.17723e-06 0.0107183)
(-0.0280094 1.55912e-05 0.0107151)
(-0.028014 1.68719e-05 0.0107166)
(-0.028021 7.89157e-06 0.0107214)
(-0.0345362 3.95154e-06 0.0233366)
(-0.0344783 1.41759e-05 0.0233146)
(-0.0344648 2.31734e-05 0.0233119)
(-0.0344674 2.6623e-05 0.0233168)
(-0.0344791 2.45948e-05 0.0233267)
(-0.0344989 1.10022e-05 0.0233424)
(-0.0296692 1.00752e-05 0.0544582)
(-0.0296402 1.63949e-05 0.0544465)
(-0.0296324 8.62461e-06 0.0544403)
(-0.0296322 1.54292e-06 0.0544359)
(-0.0296369 -2.82328e-06 0.054434)
(-0.0296477 -2.00854e-06 0.0544368)
(-0.00122166 -6.01974e-08 -0.00630432)
(-0.00122165 -1.19427e-07 -0.00630431)
(-0.00122163 -2.35864e-08 -0.00630425)
(-0.0012216 4.87419e-08 -0.00630426)
(-0.00122159 5.14671e-08 -0.00630423)
(-0.0012216 3.08129e-08 -0.00630428)
(-0.00373329 1.03595e-08 -0.00659362)
(-0.00373321 -6.96361e-08 -0.00659351)
(-0.00373311 -1.03058e-07 -0.00659344)
(-0.00373299 -2.30035e-08 -0.00659344)
(-0.00373293 -9.0183e-09 -0.00659345)
(-0.00373289 -8.9131e-09 -0.00659355)
(-0.00644746 4.64e-08 -0.00714985)
(-0.00644718 -1.53177e-07 -0.00714932)
(-0.00644694 -3.88607e-07 -0.00714911)
(-0.00644668 -3.202e-07 -0.00714903)
(-0.00644648 -3.32996e-07 -0.00714904)
(-0.00644638 -2.01125e-07 -0.00714916)
(-0.00949161 -1.32658e-07 -0.00795702)
(-0.00949094 -6.01931e-07 -0.00795556)
(-0.00949046 -9.83994e-07 -0.00795497)
(-0.00948998 -9.52951e-07 -0.00795472)
(-0.00948958 -8.93175e-07 -0.00795474)
(-0.00948944 -4.52786e-07 -0.0079551)
(-0.0130287 -6.73255e-07 -0.00893281)
(-0.0130274 -1.64565e-06 -0.00892968)
(-0.0130264 -2.00142e-06 -0.00892853)
(-0.0130255 -1.89793e-06 -0.00892812)
(-0.0130248 -1.5552e-06 -0.00892839)
(-0.0130245 -6.81893e-07 -0.00892961)
(-0.0174579 -1.55761e-06 -0.00992644)
(-0.0174547 -3.35299e-06 -0.00992245)
(-0.0174526 -3.46179e-06 -0.00992131)
(-0.0174511 -2.96541e-06 -0.0099214)
(-0.0174498 -2.1172e-06 -0.00992281)
(-0.017449 -8.13112e-07 -0.00992613)
(-0.0238372 -2.76696e-06 -0.0106906)
(-0.0238289 -5.28128e-06 -0.0106901)
(-0.0238247 -4.33109e-06 -0.0106913)
(-0.0238223 -2.89511e-06 -0.0106937)
(-0.0238208 -1.47396e-06 -0.0106978)
(-0.0238201 -3.94433e-07 -0.0107045)
(-0.0329033 -3.88378e-06 -0.0112658)
(-0.0328843 -5.84838e-06 -0.0112772)
(-0.0328776 -1.86284e-06 -0.0112842)
(-0.0328756 1.60308e-06 -0.0112902)
(-0.0328765 3.42943e-06 -0.0112966)
(-0.0328795 1.90626e-06 -0.0113046)
(-0.0457196 -3.24365e-06 -0.0119838)
(-0.0456856 -5.80183e-07 -0.0120118)
(-0.0456784 9.02167e-06 -0.0120233)
(-0.0456818 1.45261e-05 -0.0120291)
(-0.0456918 1.54186e-05 -0.0120318)
(-0.0457073 7.23043e-06 -0.0120323)
(-0.0539261 1.58445e-06 -0.0110351)
(-0.0538814 1.23616e-05 -0.0110687)
(-0.0538793 2.65708e-05 -0.0110746)
(-0.0538942 3.27931e-05 -0.0110697)
(-0.0539203 3.06625e-05 -0.0110577)
(-0.0539571 1.35794e-05 -0.0110391)
(-0.0640827 9.91784e-06 -0.0122225)
(-0.0640388 2.30518e-05 -0.0122362)
(-0.0640446 2.7009e-05 -0.0122286)
(-0.0640727 2.6053e-05 -0.0122108)
(-0.0641165 2.03445e-05 -0.012186)
(-0.064176 8.18128e-06 -0.0121528)
(-0.0446051 1.41268e-06 0.0192209)
(-0.0445824 -6.49119e-06 0.0192128)
(-0.0445846 -2.0659e-05 0.0192087)
(-0.0445991 -2.84181e-05 0.0192085)
(-0.0446234 -2.95532e-05 0.0192133)
(-0.0446569 -1.43969e-05 0.0192257)
(-0.00108785 -1.3175e-07 -0.00850814)
(-0.00108784 -1.39704e-07 -0.00850806)
(-0.00108782 2.61961e-08 -0.00850802)
(-0.00108781 8.24489e-08 -0.00850802)
(-0.00108781 1.40677e-07 -0.00850801)
(-0.00108782 8.53693e-08 -0.00850809)
(-0.00334305 -6.54482e-08 -0.00895629)
(-0.00334293 -1.0463e-07 -0.00895615)
(-0.00334284 -4.65682e-08 -0.00895609)
(-0.00334277 2.72197e-08 -0.00895608)
(-0.00334274 8.85795e-08 -0.00895608)
(-0.00334276 5.37069e-08 -0.00895619)
(-0.00585107 -9.90939e-08 -0.00983984)
(-0.00585066 -2.70424e-07 -0.00983941)
(-0.00585045 -3.09573e-07 -0.00983922)
(-0.0058503 -2.04415e-07 -0.00983913)
(-0.00585022 -1.37535e-07 -0.00983912)
(-0.00585027 -7.20546e-08 -0.00983922)
(-0.00883396 -3.47792e-07 -0.0111634)
(-0.00883316 -7.32162e-07 -0.0111623)
(-0.0088328 -7.33389e-07 -0.0111618)
(-0.00883258 -5.79532e-07 -0.0111616)
(-0.00883248 -4.11661e-07 -0.0111615)
(-0.00883259 -1.83154e-07 -0.0111618)
(-0.0125393 -6.27539e-07 -0.0128687)
(-0.0125378 -1.25054e-06 -0.0128665)
(-0.0125373 -1.11221e-06 -0.0128656)
(-0.012537 -7.85752e-07 -0.0128652)
(-0.012537 -4.6807e-07 -0.0128655)
(-0.0125372 -1.76869e-07 -0.0128665)
(-0.0170739 -9.23283e-07 -0.0147889)
(-0.017071 -1.48656e-06 -0.0147866)
(-0.0170702 -7.83183e-07 -0.014786)
(-0.01707 -9.98216e-08 -0.0147863)
(-0.0170702 4.56702e-07 -0.0147876)
(-0.0170706 3.27841e-07 -0.0147904)
(-0.0218441 -4.43856e-07 -0.0166225)
(-0.021838 2.49161e-07 -0.0166241)
(-0.0218369 2.10006e-06 -0.0166262)
(-0.0218374 3.21089e-06 -0.0166289)
(-0.0218387 3.45482e-06 -0.0166328)
(-0.0218404 1.65036e-06 -0.0166383)
(-0.025989 1.48421e-06 -0.0169074)
(-0.025977 5.7617e-06 -0.0169201)
(-0.0259762 9.80497e-06 -0.0169277)
(-0.0259793 1.13274e-05 -0.0169341)
(-0.0259847 1.03458e-05 -0.0169402)
(-0.025992 4.55912e-06 -0.0169459)
(-0.0300806 5.44718e-06 -0.0140824)
(-0.0300618 1.57636e-05 -0.0141088)
(-0.0300643 2.20422e-05 -0.0141202)
(-0.0300749 2.30493e-05 -0.0141263)
(-0.030091 1.95209e-05 -0.0141285)
(-0.0301126 8.27626e-06 -0.0141257)
(-0.0333164 8.93657e-06 0.00536634)
(-0.0332958 2.30214e-05 0.00533803)
(-0.0333087 2.88359e-05 0.00533372)
(-0.0333356 2.78683e-05 0.00533929)
(-0.0333718 2.17358e-05 0.00535182)
(-0.033417 8.62225e-06 0.0053725)
(-0.0548385 5.3827e-06 0.0453984)
(-0.0548275 1.12435e-05 0.0453949)
(-0.0548534 1.06149e-05 0.0454073)
(-0.054899 7.6325e-06 0.0454316)
(-0.054955 3.6224e-06 0.0454613)
(-0.0550181 1.01691e-06 0.0454968)
(-0.0667383 -1.77929e-05 0.198215)
(-0.0667248 -4.36507e-05 0.198172)
(-0.0667379 -5.78344e-05 0.198169)
(-0.0667635 -6.21582e-05 0.198181)
(-0.0667985 -5.30947e-05 0.198212)
(-0.0668312 -2.22214e-05 0.198226)
(-1.73523 4.99512e-05 -4.14044)
(-1.73522 -7.10013e-05 -4.14027)
(-1.73515 5.60825e-05 -4.14069)
(-1.73529 -5.28486e-05 -4.14032)
(-1.73536 0.000201887 -4.13997)
(-1.73486 3.89165e-05 -4.14098)
(-0.474722 -9.69699e-06 -3.93721)
(-0.474722 1.27547e-05 -3.93732)
(-0.474695 3.49597e-05 -3.93736)
(-0.474761 9.32975e-06 -3.93728)
(-0.474781 0.000116795 -3.93722)
(-0.474614 9.4255e-05 -3.93733)
(0.0473619 -7.19106e-06 -3.73496)
(0.0473369 -1.20006e-05 -3.73506)
(0.0473343 -1.64791e-05 -3.73507)
(0.0473533 -2.13748e-05 -3.73502)
(0.047354 -2.28225e-05 -3.73503)
(0.0473057 -7.96195e-06 -3.73503)
(1.75773 -8.52268e-05 -4.1418)
(1.75773 -7.1047e-05 -4.14189)
(1.75767 1.2319e-05 -4.14186)
(1.75772 3.87944e-05 -4.14183)
(1.75776 1.13462e-05 -4.14187)
(1.75766 9.64955e-06 -4.1417)
(-0.142507 -2.54563e-05 -4.82765)
(-0.142523 -3.25375e-05 -4.82776)
(-0.142535 -2.22705e-05 -4.8277)
(-0.142556 -9.91482e-07 -4.82766)
(-0.142554 -6.79267e-07 -4.82771)
(-0.142452 3.46614e-06 -4.82757)
(-0.371455 1.03276e-05 -4.0387)
(-0.371467 2.67974e-06 -4.03879)
(-0.371469 -1.13925e-05 -4.03874)
(-0.371465 -5.76067e-06 -4.03872)
(-0.371463 -5.93933e-06 -4.03874)
(-0.371477 -9.32247e-06 -4.03861)
(-3.03648 -4.09068e-05 -2.88374)
(-3.037 -1.41057e-06 -2.8838)
(-3.03702 2.64576e-06 -2.88379)
(-3.03698 -4.08743e-06 -2.88379)
(-3.03689 1.25425e-05 -2.88383)
(-3.03655 6.57971e-05 -2.88376)
(-1.40851 -4.20451e-06 -1.65477)
(-1.40867 -6.35715e-06 -1.65481)
(-1.40869 -2.58829e-05 -1.65476)
(-1.40874 -1.10277e-05 -1.65475)
(-1.40875 -2.85515e-05 -1.65479)
(-1.40856 -4.13597e-06 -1.65469)
(-0.469068 8.90385e-06 -1.96597)
(-0.469051 7.26705e-06 -1.966)
(-0.469071 1.08326e-05 -1.96596)
(-0.469072 1.13237e-05 -1.96594)
(-0.469069 1.03987e-05 -1.96594)
(-0.469108 -1.43955e-06 -1.96584)
(-2.58744 4.43496e-05 -1.61563)
(-2.58771 2.53935e-05 -1.61578)
(-2.58773 -5.33385e-05 -1.61567)
(-2.58778 -4.99104e-05 -1.61561)
(-2.58782 -4.45214e-05 -1.61561)
(-2.58765 1.28018e-05 -1.61549)
(-0.779632 4.74038e-06 -3.1157)
(-0.779682 -3.01423e-05 -3.11588)
(-0.779752 -5.98828e-05 -3.11588)
(-0.779798 -5.75911e-05 -3.1159)
(-0.779835 -6.27676e-05 -3.11594)
(-0.779861 -3.86832e-05 -3.1157)
(-0.100035 1.46414e-05 -2.94832)
(-0.100015 2.19771e-05 -2.94843)
(-0.100022 1.13972e-05 -2.94841)
(-0.100023 3.80633e-06 -2.94841)
(-0.100025 -1.37746e-05 -2.94844)
(-0.100047 -1.40185e-05 -2.94832)
(-1.77867 -6.46545e-05 -0.236397)
(-1.77886 -7.7714e-05 -0.23658)
(-1.77891 -2.95988e-05 -0.236417)
(-1.77895 -1.96741e-05 -0.23626)
(-1.77895 2.57818e-05 -0.236198)
(-1.77881 3.91673e-05 -0.235979)
(-0.677996 -8.07439e-06 -2.74401)
(-0.678031 -3.90367e-05 -2.7442)
(-0.678059 -8.15445e-05 -2.74421)
(-0.678093 -7.88098e-05 -2.74422)
(-0.678117 -6.7028e-05 -2.74425)
(-0.678108 -2.44178e-05 -2.74403)
(-0.0786581 5.22693e-06 -2.28511)
(-0.0786537 1.236e-06 -2.28524)
(-0.0786606 -8.75051e-06 -2.28526)
(-0.0786653 -1.71551e-05 -2.28527)
(-0.0786685 -2.2547e-05 -2.28531)
(-0.0786806 -1.40316e-05 -2.28521)
(-1.06581 -9.32206e-05 -1.34881)
(-1.0661 -0.000136508 -1.34904)
(-1.06617 -7.91805e-05 -1.34899)
(-1.06621 -6.47267e-05 -1.34892)
(-1.06619 1.59316e-06 -1.3489)
(-1.066 1.95757e-05 -1.34864)
(-0.0432758 -2.06677e-06 -3.11872)
(-0.0432834 -2.15293e-05 -3.11885)
(-0.0432888 -4.7029e-05 -3.11884)
(-0.0432918 -5.10789e-05 -3.11883)
(-0.0432957 -4.85887e-05 -3.11884)
(-0.0432558 -1.76182e-05 -3.11866)
(-0.126254 9.80444e-07 -2.40272)
(-0.126257 -9.07854e-06 -2.40285)
(-0.126258 -1.8643e-05 -2.40286)
(-0.126258 -2.15726e-05 -2.40288)
(-0.126255 -2.41933e-05 -2.40291)
(-0.126256 -1.51667e-05 -2.40281)
(-1.74592 -5.50093e-05 -2.90366)
(-1.7463 -5.30805e-05 -2.90389)
(-1.74624 1.81493e-05 -2.90383)
(-1.74616 -1.55059e-05 -2.90379)
(-1.7461 5.42118e-05 -2.90377)
(-1.74569 6.70572e-05 -2.90347)
(-0.598012 -2.99726e-05 -2.54251)
(-0.598034 -4.89673e-05 -2.54255)
(-0.598055 -3.39081e-05 -2.54254)
(-0.59805 -3.47562e-05 -2.54255)
(-0.598047 4.45641e-06 -2.54258)
(-0.597967 2.73987e-05 -2.54252)
(-0.27747 -6.79986e-06 -2.28547)
(-0.277471 -1.63217e-05 -2.28557)
(-0.277468 -1.75697e-05 -2.28557)
(-0.277465 -1.26092e-05 -2.28556)
(-0.277461 -9.45532e-06 -2.28555)
(-0.277455 -5.56239e-06 -2.28546)
(-2.85734 4.93584e-05 -3.74943)
(-2.85811 9.47603e-05 -3.74985)
(-2.858 8.60614e-05 -3.74973)
(-2.85794 5.11408e-05 -3.7497)
(-2.85801 7.17324e-05 -3.74961)
(-2.85721 6.60953e-05 -3.74945)
(-1.16238 -1.64609e-05 -1.65766)
(-1.16261 -3.99963e-05 -1.65769)
(-1.16267 -4.3892e-05 -1.65772)
(-1.1627 -5.6453e-05 -1.65776)
(-1.16277 6.3761e-07 -1.65775)
(-1.16246 3.42615e-05 -1.65787)
(-0.232503 -1.24247e-05 -1.69186)
(-0.232529 -1.98078e-05 -1.6919)
(-0.232546 -1.54658e-05 -1.69188)
(-0.232576 -1.68049e-05 -1.69187)
(-0.232594 1.32535e-05 -1.69185)
(-0.232584 2.33565e-05 -1.6918)
(-3.56141 0.000266466 -2.70115)
(-3.56203 0.000375868 -2.70121)
(-3.56195 0.000290458 -2.7008)
(-3.562 0.000374103 -2.7008)
(-3.56219 0.000225371 -2.70008)
(-3.56157 3.96172e-05 -2.70223)
(-2.52909 -3.29121e-06 -0.964012)
(-2.52958 -4.54845e-05 -0.963959)
(-2.52962 -1.42401e-05 -0.963998)
(-2.52969 -7.74075e-05 -0.963953)
(-2.52982 0.000101229 -0.963265)
(-2.52932 0.000203556 -0.964632)
(-0.462094 -7.49755e-05 -1.30194)
(-0.462196 -0.000120392 -1.3019)
(-0.46223 -0.000128129 -1.30189)
(-0.462288 -0.000143666 -1.30185)
(-0.462341 -2.119e-05 -1.30195)
(-0.462242 3.8636e-05 -1.3019)
(2.56654 0.000359201 6.14873)
(2.56793 0.000549994 6.15045)
(2.56733 0.000603211 6.1505)
(2.56765 0.000985643 6.15065)
(2.56736 0.000624382 6.15218)
(2.56822 5.23597e-05 6.14637)
(-1.14213 1.70492e-05 1.79595)
(-1.14216 8.60509e-05 1.79694)
(-1.14194 0.00040868 1.79719)
(-1.14206 9.42542e-05 1.79757)
(-1.14155 0.000833124 1.79848)
(-1.14237 0.00110676 1.79677)
(0.257784 -0.000130724 0.378172)
(0.257343 -0.00019164 0.378319)
(0.257345 -0.000179556 0.378503)
(0.256964 -0.000195495 0.378448)
(0.257239 -7.98175e-06 0.378816)
(0.256647 7.17532e-05 0.378189)
(2.12486 0.000777171 8.87359)
(2.12661 0.0013254 8.87671)
(2.12574 0.00146361 8.87709)
(2.12579 0.000381634 8.87684)
(2.12605 0.00196295 8.86973)
(2.1273 0.00231115 8.8845)
(2.73051 -0.000214034 2.57635)
(2.73072 0.000228608 2.57931)
(2.73095 0.00040627 2.58063)
(2.73116 0.000279004 2.58084)
(2.7299 0.000797647 2.56859)
(2.73265 0.000484371 2.59533)
(1.74892 -0.000325894 -1.40968)
(1.7489 -0.000381607 -1.40923)
(1.74923 -0.000488283 -1.40904)
(1.74912 0.000130254 -1.4084)
(1.74951 -0.000657603 -1.40945)
(1.7493 -0.00121332 -1.40669)
(9.47882 6.27777e-05 11.1562)
(9.47992 0.000265941 11.1569)
(9.4797 0.000283691 11.1566)
(9.47984 -5.71545e-05 11.1568)
(9.48206 0.000231602 11.1585)
(9.47733 0.000366485 11.1548)
(6.49181 0.000139328 4.85592)
(6.49307 0.000318785 4.85804)
(6.49287 0.000633989 4.85801)
(6.49285 -0.000613805 4.85837)
(6.48937 0.00163693 4.85212)
(6.49722 0.00270391 4.86544)
(4.55954 -9.1164e-05 -1.14933)
(4.56041 0.000333051 -1.14819)
(4.56104 -0.000313963 -1.14801)
(4.56061 0.000416344 -1.14723)
(4.55172 2.21967e-05 -1.16344)
(4.57092 -0.00113319 -1.12843)
(-0.913721 -1.4553e-05 -0.0429984)
(-0.913687 -1.4578e-05 -0.0429933)
(-0.913771 -2.789e-05 -0.0430157)
(-0.913645 -1.28824e-05 -0.0430119)
(-0.913867 -9.50561e-06 -0.0429792)
(-0.913568 -2.12509e-05 -0.043121)
(-0.640459 6.25698e-05 -0.870618)
(-0.640573 3.82255e-05 -0.870624)
(-0.640584 -1.65346e-05 -0.870702)
(-0.640517 5.719e-05 -0.870557)
(-0.641098 -0.00018231 -0.870851)
(-0.639887 -0.000233444 -0.870329)
(0.829883 9.47083e-06 -0.303211)
(0.82992 -0.00017246 -0.303382)
(0.830154 0.000165286 -0.303257)
(0.829772 -0.000363958 -0.303374)
(0.830898 0.000605893 -0.304135)
(0.828794 0.00131624 -0.302344)
(-0.599968 -2.92415e-05 -0.291263)
(-0.599891 6.61769e-05 -0.291168)
(-0.599945 -7.64128e-05 -0.291239)
(-0.599809 0.000111995 -0.291195)
(-0.599894 -0.000142996 -0.290937)
(-0.599855 -0.000442805 -0.291652)
(-0.811397 0.000205344 -1.50327)
(-0.811696 0.000185629 -1.5033)
(-0.811788 -4.3503e-05 -1.50347)
(-0.811441 0.000553343 -1.50321)
(-0.813107 -0.000757005 -1.50396)
(-0.810186 -0.0013385 -1.50261)
(0.98574 2.24963e-05 -0.239857)
(0.985797 -0.000341813 -0.239275)
(0.986012 0.000295451 -0.239474)
(0.985705 -0.00186948 -0.23955)
(0.987643 0.0022445 -0.232767)
(0.9841 0.00477991 -0.247144)
(-2.49782 -6.60521e-05 -0.194253)
(-2.49767 9.57359e-06 -0.194203)
(-2.49814 -0.000135185 -0.194068)
(-2.49754 -4.76619e-05 -0.194284)
(-2.49917 -2.81135e-05 -0.194461)
(-2.49688 -0.000185837 -0.193643)
(-0.960261 0.000586317 -2.06018)
(-0.960859 0.000792477 -2.06068)
(-0.96075 -0.000398753 -2.06069)
(-0.960538 0.00195555 -2.06028)
(-0.962784 -0.0021564 -2.06364)
(-0.959586 -0.00471096 -2.05729)
(1.93313 0.000422545 5.51821)
(1.93436 9.87841e-05 5.52247)
(1.93283 3.19084e-05 5.51964)
(1.9351 -0.000794613 5.52197)
(1.95495 0.000202221 5.56695)
(1.91183 0.00146068 5.4705)
(-1.23453 -0.000312669 -0.666976)
(-1.23468 0.000444722 -0.666923)
(-1.23454 -0.000253948 -0.667077)
(-1.234 0.000843457 -0.666767)
(-1.23629 -0.000440109 -0.665278)
(-1.23124 -0.0023251 -0.66846)
(2.06764 0.000211952 2.03283)
(2.06717 0.000875238 2.03196)
(2.06598 -0.000246654 2.03104)
(2.06846 0.0015165 2.03294)
(2.077 -0.000486915 2.04678)
(2.05241 -0.00288689 2.01374)
(7.11163 0.000158841 15.0218)
(7.1136 0.000961101 15.0249)
(7.11158 -0.000639477 15.0228)
(7.11447 0.00300968 15.0251)
(7.14941 -0.00384148 15.0617)
(7.07541 -0.00818052 14.9857)
(-2.99324 -7.56471e-06 0.701177)