/*--------------------------------*- C++ -*----------------------------------*\
| =========                 |                                                 |
| \\      /  F ield         | OpenFOAM: The Open Source CFD Toolbox           |
|  \\    /   O peration     | Version:  v1612+                                |
|   \\  /    A nd           | Web:      www.OpenFOAM.com                      |
|    \\/     M anipulation  |                                                 |
\*---------------------------------------------------------------------------*/
FoamFile
{
    version     2.0;
    format      ascii;
    class       surfaceScalarField;
    location    "9.7";
    object      alphaPhi;
}
// * * * * * * * * * * * * * * * * * * * * * * * * * * * * * * * * * * * * * //

dimensions      [0 3 -1 0 0 0 0];

internalField   nonuniform List<scalar> 
2916
(
-0.00817366
-0.132679
0.09503
0.00319653
-0.149866
0.0934395
0.023839
-0.155185
0.090483
0.00977884
-0.123425
0.0922372
-0.0245475
-0.1084
0.0954553
-0.154283
0.0871014
0.000997694
-0.292767
0.0855755
-0.000552448
-0.305966
0.0828521
-0.00495631
-0.316325
0.0833785
-0.00234505
-0.290018
0.0900306
-0.00409129
-0.279237
0.0982897
-0.322338
0.0817301
0.00127273
-0.291561
-0.00794939
-0.00193739
-0.298288
-0.00901302
-0.00856165
-0.298475
-0.00406735
-0.00435431
-0.292347
-0.00716701
0.000356322
-0.288055
-0.00217418
-0.309163
-0.00463224
0.000239451
-0.240801
-0.0326709
-0.00112928
-0.246633
-0.0338404
-0.0048005
-0.247052
-0.0354172
-0.00325652
-0.242975
-0.033998
9.16967e-05
-0.240679
-0.0326259
-0.259858
-0.0367745
8.5029e-05
-0.185403
-0.0370385
-0.000605701
-0.190722
-0.0368548
-0.00220531
-0.19125
-0.0359152
-0.00166279
-0.186747
-0.0384811
-0.00108528
-0.183941
-0.0390272
-0.202826
-0.0398298
0.000594849
-0.122495
-0.0446995
-0.000129525
-0.127374
-0.0438642
-0.00087056
-0.128159
-0.0436402
-0.000498391
-0.122407
-0.045987
-0.0014762
-0.117758
-0.0464701
-0.13724
-0.0483172
0.00185671
-0.0793442
-0.0259016
0.00050489
-0.0815284
-0.0254144
0.000454757
-0.083598
-0.0254449
-6.51021e-05
-0.076625
-0.0261858
-0.00215597
-0.0700841
-0.0265031
-0.0914232
-0.0288858
0.00265381
-0.0295296
-0.0333889
0.000869943
-0.0277058
-0.0329727
-0.000735844
-0.029654
-0.0332618
-0.000376148
-0.0261491
-0.0317555
0.000867788
-0.0231327
-0.0291152
-0.0349216
-0.0365538
-5.82998e-05
0.03723
-0.0855851
0.000539709
0.0349996
-0.08169
0.000454921
0.0354352
-0.0834542
-0.00190168
0.0381347
-0.0807878
-0.00241338
0.037342
-0.0783577
0.0326117
-0.0881292
-0.0054492
-0.0237831
0.052539
0.000911043
-0.0428138
0.0539921
0.00416344
-0.0399148
0.0547755
-0.000185265
-0.0208143
0.0506158
-0.00632327
-0.0160963
0.0482235
-0.0470923
0.0545937
-0.00679754
-0.147698
0.112499
0.00189027
-0.168006
0.101579
0.00444979
-0.163823
0.105381
0.00103218
-0.144651
0.107853
0.000694593
-0.138229
0.103799
-0.169353
0.107771
0.0179941
-0.127996
0.00260798
-0.104231
-0.00113662
-0.114838
0.0116715
-0.119945
0.00919857
-0.0990628
-0.114767
-0.00211651
-0.0319743
0.00143373
-0.0093883
-0.0201305
0.00132991
-0.0164043
-0.0203852
0.00126723
-0.00885259
-0.0431634
0.00142768
0.00664442
-0.0503
0.00152837
-0.0227059
0.00127139
-0.000794876
-0.0190995
-0.000178537
0.00155528
-0.00924119
-0.000188129
0.00508764
-0.0102909
-0.000221954
0.00237881
-0.0206832
-0.000446962
-0.000257196
-0.0214048
-0.000510099
-0.0103712
-0.000240849
0.00185668
0.0144907
-0.00116574
0.00268455
0.0228221
-0.00109494
0.00561129
0.0199342
-0.00110103
0.00585237
0.0167886
-0.00094176
0.004736
0.0198544
-0.000816464
0.0239621
-0.00108899
0.00136817
0.107512
-8.36159e-05
0.00296534
0.112531
-7.85727e-05
0.00499714
0.109798
-7.94841e-05
0.00570021
0.11101
-6.776e-05
0.00532903
0.114976
-5.86972e-05
0.117475
-7.90643e-05
0.00092277
0.242612
-7.92465e-06
0.00110412
0.246132
-7.39136e-06
0.000586132
0.244995
-7.49356e-06
0.00279884
0.24571
-6.43276e-06
0.00619034
0.247588
-5.59436e-06
0.255436
-7.4729e-06
0.000780326
0.408841
-9.77912e-07
-0.000264664
0.411797
-8.90634e-07
-0.00307578
0.412717
-9.07182e-07
-0.000171327
0.411212
-7.92747e-07
0.00496909
0.411298
-7.61428e-07
0.425382
-9.21665e-07
0.000716835
0.607504
-2.73742e-07
-0.000396573
0.608879
-1.4122e-07
-0.00386863
0.611162
-1.6043e-07
-0.00182367
0.607538
-1.86548e-07
0.00393432
0.604144
-2.47002e-07
0.624702
-1.45368e-07
0.00139213
0.767761
-4.3097e-08
0.00047423
0.769731
-2.40505e-08
-0.00180318
0.771311
-2.72095e-08
-0.00102002
0.76498
-3.14775e-08
0.00361711
0.75944
-3.75873e-08
0.782114
-2.64522e-08
0.00372487
0.685106
0.0539669
0.00163585
0.693676
0.0555041
0.00238674
0.691331
0.0553966
0.001297
0.68896
0.054255
-0.00224189
0.69013
0.0519591
0.693894
0.0580337
-7.61877e-05
0.375434
0.366096
0.000886811
0.392899
0.359245
0.00733295
0.384843
0.359861
0.00055945
0.395613
0.356097
-0.016801
0.407097
0.353754
0.374538
0.357144
-0.00229384
0.0395575
0.456109
0.00590453
0.035962
0.455343
0.00970986
0.0326992
0.45915
-0.00326221
0.0572084
0.4643
-0.0240118
0.0635855
0.473418
0.0197252
0.443698
0.0122436
-0.117716
0.00193152
-0.0750287
-0.00274558
-0.0942772
0.00933127
-0.0987326
0.00956099
-0.0561676
-0.0962487
4.99229e-05
0.00144458
-6.03414e-05
3.40724e-05
0.00137825
-3.21706e-05
-8.17525e-05
0.00139876
-1.54159e-05
-6.64566e-05
0.00145842
-4.54775e-05
0.000122963
0.00140859
-6.8806e-05
0.001402
-7.47968e-06
8.46307e-06
0.00125761
-2.95851e-08
1.57501e-05
0.00118292
-8.7635e-08
2.94107e-06
0.00118968
-6.667e-08
-1.92418e-06
0.00101643
-1.13252e-07
1.52081e-05
0.000881361
-3.60859e-09
0.00117637
-7.68469e-09
-7.29897e-07
9.26034e-05
-1.39866e-10
2.18428e-07
8.70374e-05
-4.94812e-10
8.03115e-07
8.80739e-05
-3.32398e-10
3.80912e-07
7.50918e-05
-5.72096e-10
2.01916e-07
6.50759e-05
-1.02241e-11
8.75815e-05
-4.86364e-11
-5.74104e-08
9.04498e-06
-7.27286e-12
-2.5951e-08
8.43325e-06
-2.2383e-12
1.21312e-08
8.55175e-06
-1.74452e-12
-1.13919e-09
7.34508e-06
-4.77781e-12
1.01077e-08
6.36767e-06
-2.41135e-10
8.52732e-06
-3.75646e-12
-3.19373e-09
1.1248e-06
-1.28858e-09
-2.75683e-09
1.04151e-06
-5.99928e-11
-1.25587e-09
1.05681e-06
-1.15547e-10
-8.31082e-10
9.12351e-07
-4.53627e-10
1.6601e-09
7.91502e-07
-2.01972e-08
1.05683e-06
-6.78169e-10
-6.94153e-11
1.75663e-07
-2.98125e-08
-1.24259e-10
1.5548e-07
-4.48804e-09
-2.4738e-10
1.58221e-07
-8.38393e-09
7.75489e-13
1.38872e-07
-1.96452e-08
4.13962e-10
1.47392e-07
-1.14809e-07
1.62814e-07
-2.13966e-08
-1.66581e-11
5.47366e-08
-1.53217e-07
1.67665e-11
3.15383e-08
-1.75822e-08
3.86879e-12
3.46977e-08
-3.71388e-08
5.48231e-11
3.93964e-08
-8.73961e-08
1.36073e-10
4.7728e-08
-1.47795e-07
3.31134e-08
-1.64329e-08
-3.66145e-11
9.74506e-09
1.25068e-09
8.54914e-12
5.75497e-09
9.95284e-10
2.59123e-11
5.82681e-09
9.23525e-10
2.7979e-12
6.4619e-09
6.27295e-10
-2.12542e-12
8.39684e-09
9.23569e-10
5.25164e-09
4.45386e-10
2.89223e-05
0.05186
0.0020758
2.29644e-05
0.0535389
0.00197141
1.20626e-05
0.0534601
0.00194747
3.87609e-06
0.0523028
0.00196021
-5.98149e-05
0.0500987
0.00191651
0.0559418
0.00203168
0.000429814
0.346959
0.0201941
-0.000193494
0.338278
0.0174956
5.00906e-05
0.338372
0.0165348
-0.000228661
0.334495
0.017683
-0.00105355
0.333538
0.0192683
0.336178
0.0171185
-0.00446525
0.20091
0.160044
-0.00368024
0.161752
0.162183
0.00596247
0.170637
0.154866
-0.00822175
0.185869
0.15295
-0.0284471
0.18306
0.157847
0.150571
0.152898
-0.00201075
0.0680767
-0.00352051
0.069829
-0.00836925
0.0563411
-0.00110943
0.0557289
0.0237542
0.0754505
0.0510908
6.8164e-08
1.19576e-10
-6.03614e-05
2.34301e-08
-5.57744e-10
-3.21103e-05
-3.81135e-08
-3.83107e-10
-1.53598e-05
-2.85702e-08
-6.21062e-10
-4.54549e-05
8.85688e-08
3.88555e-10
-6.88634e-05
-5.12679e-11
-7.3945e-06
1.77911e-11
-5.40269e-13
-2.9485e-08
8.90119e-12
-1.95828e-12
-8.8177e-08
-3.70846e-12
-1.51857e-12
-6.70375e-08
-3.72704e-13
-2.32558e-12
-1.13877e-07
-3.21028e-12
-1.90988e-13
-3.2187e-09
-2.3649e-13
-7.73748e-09
8.59082e-15
-1.45493e-13
-1.4116e-10
2.00239e-13
-1.0682e-13
-4.97577e-10
1.73034e-13
-1.08729e-13
-3.34515e-10
1.54973e-13
-1.24923e-13
-5.75026e-10
1.83565e-14
-8.69595e-13
-9.38248e-12
-7.86662e-14
-4.82672e-11
-1.90226e-16
-6.93747e-12
-8.40899e-13
-5.18231e-16
-3.28759e-13
-2.78087e-12
-5.66739e-16
-6.30058e-13
-1.93748e-12
-1.72646e-14
-2.42408e-12
-3.09248e-12
-3.88598e-15
-2.40609e-10
-1.75386e-12
-3.74349e-12
-3.26524e-13
9.37349e-14
-1.29539e-09
-2.37205e-13
1.38643e-15
-6.01439e-11
-1.08148e-13
-7.56168e-14
-1.15634e-10
-4.52397e-13
-3.83112e-12
-4.51277e-10
-1.03159e-12
-9.34423e-14
-2.04415e-08
-2.32169e-14
-6.81979e-10
-3.17219e-14
1.48872e-11
-3.34812e-08
-7.44448e-14
5.45734e-13
-3.80754e-09
-7.25659e-10
3.05219e-14
-8.49885e-09
-1.09713e-13
1.1123e-11
-2.06558e-08
1.30336e-13
-3.09604e-11
-3.78409e-08
-3.35121e-09
-3.60816e-09
-7.09677e-09
-2.44008e-09
5.15794e-08
-1.65736e-07
1.65419e-11
4.27144e-09
-1.70801e-08
2.21475e-09
1.00401e-08
-3.2174e-08
6.30281e-10
2.24898e-08
-6.5431e-08
3.03451e-09
4.13231e-08
-1.2267e-07
4.24658e-09
-1.59114e-08
-1.37582e-10
6.91563e-08
-1.70092e-08
-2.17656e-11
6.2419e-09
-1.90891e-09
4.29473e-11
3.0106e-08
-1.98928e-08
-3.845e-11
3.32909e-08
-1.10273e-08
-4.63454e-12
5.22353e-08
-1.11111e-08
4.11526e-09
-5.01316e-10
-2.87576e-06
0.00188202
0.000196818
4.11213e-07
0.00180323
0.000128684
-6.16353e-07
0.00179369
0.000125826
-2.50255e-06
0.00179326
0.000129198
-6.24612e-06
0.00176601
0.000129536
0.00186579
0.000130749
0.000883142
0.0173614
0.00383771
0.000292209
0.0169796
0.00290358
7.60903e-05
0.0157285
0.00278941
4.67158e-05
0.0165083
0.00302
6.77669e-05
0.0179156
0.00312147
0.016035
0.0030099
0.0057294
0.121626
-0.00522042
0.000934401
0.156842
0.0270017
0.000329814
0.148354
0.0199475
3.71606e-05
0.146997
0.0226645
-0.000169677
0.14922
0.0266859
0.144904
0.0212292
0.0471497
0.193381
0.0149388
0.28731
0.00826926
0.25431
0.00240652
0.251192
0.0029782
0.255737
0.248334
-0.000586604
0.0230762
-0.0186862
0.00774576
0.0267805
-0.0341266
0.0156346
0.0272829
-0.0349748
0.000571662
0.027367
-0.00831949
-0.00354365
0.0181546
-0.00799327
0.0153662
-0.00973426
0.00312459
0.0458464
-0.0217204
0.012515
0.0486551
-0.0311895
0.0263006
0.0443125
-0.0315821
0.0170664
0.0341524
0.000879441
0.0083504
0.0326447
-0.00222243
0.0297592
-0.00162778
0.00922357
0.0615024
-0.0231108
0.00903038
0.0763904
-0.0282973
0.0260883
0.0535794
-0.0277738
0.0338057
0.0280102
-0.00384908
0.0105812
0.0511285
0.00294629
0.0438253
0.00058276
0.0238797
0.0630177
-0.0262321
0.0201347
0.0996873
-0.0211918
0.029793
0.0453789
-0.00384772
0.0254097
0.0292434
0.00100347
-0.00231202
0.0794868
0.000586955
0.0519863
-0.00937036
0.0383174
0.066016
-0.0439369
0.0411519
0.103999
-0.0101063
0.0314442
0.0246055
0.0278029
-0.00366214
0.0373867
0.0244154
-0.0237309
0.10415
-0.00112838
0.0618226
-0.0328021
0.0487683
0.0779588
-0.0632347
0.0494114
0.0979737
0.00279999
-0.00666324
0.000880615
0.0252027
-0.0312792
0.0410969
0.018512
-0.0364768
0.11553
-0.00767793
0.074381
-0.0510603
0.0547145
0.101649
-0.0808876
0.0600503
0.0961505
-0.00603521
0.0367794
0.00489118
0.0167778
-0.013443
0.0919045
-0.0029275
-0.0368615
0.148396
-0.0118603
0.0932288
-0.0584738
0.0533708
0.13482
-0.088669
0.0575599
0.117726
-0.0282477
0.0176007
0.0269809
-0.0126098
-0.0614735
0.0454163
-0.00215886
-0.054757
0.181387
-0.0424731
0.101726
-0.0662222
0.00305508
0.154115
-0.0242064
0.0536304
0.145751
-0.0807284
0.000498238
0.0224463
-0.00264309
-0.0872652
0.0146872
0.0290519
-0.100811
0.137006
-0.0907349
0.0961832
-0.097566
-0.0505442
0.0102445
0.0247428
-0.0255685
0.0105561
-0.0727913
-0.000649681
0.00806652
-0.00590025
-0.023865
0.0168556
0.0174503
-0.0366812
0.00473563
0.00218281
0.00340396
-0.0609847
-0.00723052
-0.00117909
0.0143423
-0.0180122
0.00249427
0.00200972
-0.00738137
0.00400499
-0.00203827
-0.005166
0.00283114
0.0121596
-0.00618851
0.00363067
0.0107829
0.00518974
-0.00639601
0.00873239
0.00322335
0.00486051
0.01303
-0.00397036
0.00833916
-0.00438484
0.00360953
-0.0029025
0.00154735
0.00407988
-0.00875072
0.00117967
2.20231e-05
-0.0053811
0.002497
-2.45445e-05
0.00853409
0.00205246
-1.22198e-07
0.0026976
0.00104127
-3.93444e-07
0.00114455
0.000297637
-4.62832e-06
0.000232775
4.41229e-06
-0.0205667
0.0062237
6.53183e-05
-0.0145879
0.0113815
-1.24054e-05
0.00118391
0.00495652
-5.20812e-08
0.00586923
0.00302739
-6.70335e-07
0.00653616
0.00332748
-3.90807e-05
0.00194185
8.87461e-05
-0.012677
0.0156802
-0.000187558
-0.0104359
0.015777
-0.000302824
-0.0084843
0.00792747
-1.10279e-06
0.00795199
0.0093249
-3.53653e-08
0.0160365
0.0129229
-1.86158e-05
0.00927265
0.000260957
-0.0160058
0.0318806
-0.000160692
-0.0148129
0.0325471
-4.23323e-05
0.00145185
0.0253567
-1.99051e-07
0.0183312
0.0216435
-6.97844e-09
0.0245306
0.0246823
-4.6973e-06
0.020359
0.000114503
-0.0149633
0.0573881
-0.00232868
-0.0105769
0.0554438
-8.62367e-07
0.0219746
0.039449
-8.01006e-08
0.0173971
0.0328825
-1.3713e-09
0.0184786
0.0283793
-2.32752e-06
0.0247053
-0.00047726
-0.00779304
0.107483
-0.00492447
0.00320743
0.0607872
-0.00691569
0.0052951
0.0338047
0.00023839
0.0197964
0.0453872
-0.000711583
0.0153077
0.0254028
-1.52333e-05
0.0276716
-8.16497e-05
-0.0129577
0.154713
-0.000871805
-0.00744271
0.088871
-0.00887331
-0.0142313
0.0672464
-0.00112736
0.021175
0.0751696
-0.000570583
0.014368
0.0388292
-1.28429e-05
0.0484373
-2.17768e-05
-0.0604181
0.101306
-0.000122815
-0.065564
0.200299
-0.00270365
-0.0543804
0.157328
-0.0282458
0.0102758
0.0864186
-0.0144483
0.0189294
0.11543
-0.000358248
0.124269
-8.8561e-06
-0.00817035
0.0230659
-0.00665903
-0.0398126
0.204235
-0.0550508
-0.038948
0.134147
-0.00176845
-0.0152462
0.00304975
0.0210339
0.00032511
0.151673
-0.0610817
0.151631
-0.00358834
0.0141189
0.009061
0.00163078
0.0460607
0.192778
-0.0932924
0.000954109
0.0644931
0.0342001
-0.00876891
0.00746745
0.019449
-0.0313444
0.0392696
0.018277
0.171614
-0.045251
0.00468426
0.00757708
0.00674119
0.0380464
0.0020176
-0.0034735
0.00443576
-0.00249665
0.0216911
-0.00287694
0.00625263
0.0116414
-0.0101152
0.00312624
0.0108618
0.00773725
-0.0204343
0.00502735
0.00823068
0.00435228
0.0102608
0.00177314
0.00487427
-0.00199165
0.00443438
-0.00310894
-0.000243232
0.00267407
2.40141e-05
-2.96685e-06
-5.04528e-07
1.53431e-07
7.41054e-08
-8.0926e-07
-2.92079e-09
5.65273e-10
-1.22837e-08
-8.35392e-08
-1.42117e-09
-3.41414e-07
-4.22257e-06
-4.45455e-08
-4.95214e-07
-2.78678e-07
-3.92631e-07
1.15702e-05
5.45505e-05
-4.06137e-06
-1.22699e-09
1.773e-07
-9.50482e-07
-8.9554e-09
2.82312e-09
-5.80305e-08
-4.60218e-07
6.51644e-09
-2.36561e-07
-3.83638e-05
2.95553e-07
-1.54543e-06
5.16787e-05
-1.93885e-06
0.000309698
0.00162536
-4.05625e-06
1.12519e-06
6.50266e-06
-5.80606e-07
9.29116e-10
2.03032e-08
-5.19061e-09
-2.14658e-08
3.72416e-09
-1.40609e-08
-1.43839e-05
3.16602e-07
-4.28394e-06
0.000314982
-1.84586e-05
3.65889e-05
0.00239995
-2.30661e-07
1.57719e-07
8.60937e-07
-2.88764e-07
2.71363e-09
7.40711e-09
-3.85034e-08
1.67488e-09
5.25101e-09
-1.47238e-08
1.97855e-08
9.72442e-08
-4.50346e-06
0.00051904
-8.68042e-05
-1.93664e-08
7.77615e-05
4.46603e-07
-2.78735e-09
3.3351e-08
-1.85151e-08
2.60401e-09
5.07003e-09
-2.04073e-08
3.49975e-09
6.05615e-09
-9.31826e-09
3.64632e-08
7.92448e-08
-8.33698e-07
0.000114675
-7.11217e-05
-0.00504491
0.000201922
6.25411e-07
-0.00191749
0.00411187
-6.88056e-06
0.000746971
0.00146703
-6.30705e-06
1.5587e-05
1.99266e-05
-1.16055e-07
3.39341e-07
5.85313e-07
-1.31289e-07
2.23944e-05
-6.24243e-06
-0.000695505
2.64468e-05
8.01845e-07
-0.00232326
0.000964046
-3.65405e-06
0.000575115
0.00252092
-1.00355e-05
1.30019e-05
1.1551e-05
-9.49049e-08
3.57406e-07
4.59609e-07
-8.66292e-08
7.60604e-07
-2.28002e-08
-5.02151e-05
3.1006e-06
-1.97956e-05
-0.00203431
0.000252672
-8.33806e-06
0.000479566
0.0159192
-3.65541e-07
0.000420292
0.00155351
-2.6132e-09
8.38969e-06
5.41138e-05
-1.82427e-09
2.83189e-07
5.77014e-08
-0.00388523
0.0305182
-0.00129645
-0.0389836
0.0568187
-0.000556489
-0.000631701
0.0915085
-0.00769296
0.000922732
0.0166351
0.0033374
0.00454682
0.0261804
-0.00947484
0.00107976
-0.000109499
-0.0163369
0.0488996
-0.000111981
-0.0656198
0.154785
-0.032245
-0.026432
0.0486806
0.0189565
-0.00154733
-0.000156002
0.0111675
0.0234702
0.000250105
0.00664369
0.0642975
-0.0258897
0.0349691
0.00879648
0.00692028
0.0224071
0.0203401
0.0148517
-0.00210875
0.00365992
0.0359882
-0.000316894
-0.00172005
0.0107133
0.000975631
-0.00584057
0.0109318
0.0423562
-0.00369023
0.00390299
0.00888498
0.00769413
0.0126378
0.00359682
0.0117678
-0.001855
0.00757255
-0.00320917
0.00427668
0.0108086
1.35736e-07
2.30303e-08
-6.85635e-07
2.30126e-07
2.35356e-08
-1.21482e-06
-4.71274e-07
-1.27659e-08
2.61161e-08
-2.44406e-07
-1.3752e-07
1.36218e-06
-5.39728e-09
1.16244e-07
-2.29613e-07
2.56798e-08
-4.60265e-07
5.37752e-07
7.59253e-07
-4.15303e-06
-3.5013e-08
6.64798e-08
-7.04209e-07
-3.76072e-09
1.04595e-08
-2.57376e-07
-2.11922e-07
4.12486e-09
-3.5639e-07
-2.53344e-07
1.86545e-07
-9.6146e-07
3.8076e-07
-2.40665e-06
-4.3144e-09
5.8805e-08
-3.35071e-06
-1.54488e-09
-2.87438e-10
-5.33966e-07
-8.86541e-11
2.47101e-09
-1.4996e-08
-5.39522e-09
2.15348e-09
-5.65927e-09
-7.58171e-06
9.96132e-07
-1.151e-06
1.62617e-05
-5.7685e-07
-2.49085e-08
1.74545e-08
-1.52177e-07
-2.00819e-08
6.94626e-08
-3.31491e-08
3.09532e-09
1.94772e-08
-8.70251e-08
5.66255e-08
3.84841e-09
-7.39557e-08
-4.02964e-06
2.06102e-06
-6.94866e-07
1.79243e-05
-2.79629e-06
-1.91642e-09
4.08854e-07
5.40443e-08
-1.09382e-08
1.95994e-08
-4.15265e-09
1.22771e-09
1.27675e-08
-3.93391e-07
8.43009e-08
5.8996e-09
-1.41162e-07
-4.30768e-07
8.70115e-07
-9.73396e-07
8.31663e-06
2.92806e-06
-1.37186e-08
1.14345e-06
4.42621e-08
-7.95159e-08
2.02257e-07
-7.0024e-06
-1.78495e-09
9.09931e-08
-6.46342e-06
-1.64274e-10
3.81052e-09
-1.1631e-07
1.83392e-07
2.77404e-08
-4.55628e-07
4.942e-08
1.27778e-06
7.31112e-08
-5.80595e-08
2.27706e-06
-2.16539e-08
2.10629e-07
-3.44553e-06
-1.47515e-10
1.63587e-07
-1.01303e-05
2.41454e-10
1.64461e-09
-9.5148e-08
7.13895e-09
1.98825e-08
-8.76882e-08
5.55358e-08
2.92184e-08
1.11893e-05
-6.0915e-05
2.97162e-05
9.2407e-08
2.93674e-06
1.90671e-08
-2.88537e-11
1.76909e-08
-1.29229e-07
-5.52644e-10
1.3051e-09
-3.81031e-09
-8.82476e-10
1.97039e-08
-3.33585e-09
1.08427e-07
1.79937e-09
-2.02524e-05
-0.000184683
6.32036e-05
-0.000162505
0.000432264
-0.000843718
-0.00679487
0.00204216
-0.00310275
0.00322919
0.00042218
-0.000648284
0.00146879
0.00877883
-0.00293087
0.00136284
-3.39083e-06
-0.00419335
0.00843153
-6.28295e-06
-0.0385649
0.0354363
-0.000474561
-0.005481
0.0120302
-0.000956051
-0.000580569
-0.00459745
0.0106017
0.0148175
-0.00957153
0.00309097
0.0212996
-0.000886062
0.00369984
0.00782691
0.00152973
-0.0149498
0.0270742
0.00217975
-0.00453217
-0.000358724
0.0231038
-0.00415462
-0.0042793
0.0094113
0.00819724
-0.0226566
0.0143345
0.0102312
0.00592127
0.00423275
0.0139859
0.0082441
0.0240176
0.00653846
0.0125094
0.00296024
0.00626538
-0.00301116
0.00140203
0.0074488
4.20206e-06
-3.31163e-05
-9.37541e-07
7.42175e-06
-1.05516e-05
-3.09051e-06
1.45466e-06
6.16174e-06
-2.08482e-06
6.66541e-06
-2.56169e-05
-3.96305e-06
8.18438e-06
-4.44258e-05
-1.04971e-07
2.16987e-05
-2.73242e-07
-2.39582e-05
1.72009e-05
4.571e-06
-2.27833e-06
-5.64931e-146
5.94978e-06
2.62469e-05
-1.71094e-303
2.99776e-06
7.31566e-05
-2.11831e-05
1.02499e-05
3.30596e-05
3.19921e-06
6.12967e-07
3.15843e-05
1.0765e-06
-2.73816e-145
-1.42337e-10
-2.94317e-306
2.54604e-148
2.60168e-304
2.08635e-306
3.93045e-05
3.78988e-08
3.30539e-05
-6.96331e-10
-8.33693e-15
6.83454e-10
-9.6643e-07
-7.42178e-10
1.10577e-09
-3.17518e-06
-3.61118e-09
6.79206e-10
-2.14866e-06
-2.64341e-09
1.15367e-09
-4.0726e-06
-4.01304e-09
-1.05162e-10
-1.0676e-07
-5.80157e-11
-2.80807e-07
-1.84848e-10
-1.05868e-07
-5.02663e-12
8.79118e-10
-3.11538e-09
-8.58123e-08
4.06004e-09
1.3014e-07
-2.70048e-14
2.97322e-09
2.78336e-07
-7.4093e-08
4.60164e-09
1.57602e-09
-1.88562e-11
2.26872e-11
-1.25604e-13
2.30222e-10
-1.47363e-10
-7.70776e-16
2.7005e-14
8.56283e-12
1.29813e-19
3.22424e-26
7.15754e-10
-4.67993e-15
5.66326e-13
-1.80872e-18
-4.92681e-26
5.21177e-13
-8.85522e-10
4.81858e-13
1.71006e-12
-4.10781e-09
4.60323e-13
2.99421e-12
-2.97884e-09
1.34115e-13
4.3206e-12
-4.58152e-09
9.47669e-13
-1.45674e-13
-6.47968e-11
1.65065e-12
-2.33677e-10
2.30312e-13
8.79507e-13
-2.96997e-14
6.04066e-13
1.02151e-11
-5.90378e-11
3.3536e-12
1.52337e-11
-9.06319e-12
2.1768e-12
4.26477e-11
-5.38493e-15
3.22647e-12
4.76976e-13
-2.65866e-19
5.65081e-14
-1.01251e-22
1.49473e-13
-3.04997e-14
1.15246e-17
8.54002e-15
2.09892e-14
1.00822e-14
4.15275e-14
2.07482e-18
4.4205e-18
1.01031e-22
8.09468e-22
3.33285e-26
7.40456e-16
-6.05154e-13
2.39685e-13
6.147e-15
-3.33892e-12
9.90628e-13
1.02476e-14
-2.23659e-12
4.46939e-13
2.89437e-14
-3.19436e-12
1.02637e-12
-1.28059e-15
-8.99191e-14
2.44209e-14
-1.4393e-13
7.43762e-14
1.91174e-16
-4.62238e-17
3.26756e-15
5.10011e-15
-2.00304e-14
3.19229e-14
8.90397e-15
-7.26737e-14
1.10177e-14
2.36599e-14
-1.59179e-16
1.86969e-14
1.08556e-16
-9.00894e-18
1.72366e-16
-1.94771e-19
5.65462e-15
-9.20019e-18
3.33282e-19
4.92824e-18
1.16968e-16
1.22297e-16
3.31349e-16
7.03036e-20
3.13714e-19
4.1173e-21
1.0485e-19
3.05786e-21
2.80097e-17
-3.30325e-15
3.14651e-15
8.26798e-17
-1.79444e-14
8.84706e-13
1.43504e-16
-1.07187e-14
9.1896e-15
1.30179e-16
-1.82798e-14
1.31186e-14
-1.32093e-17
-1.76926e-16
1.0844e-15
-2.41093e-13
2.80212e-13
4.95091e-18
-8.32869e-19
8.41148e-17
3.03852e-18
-1.35167e-16
1.4132e-14
3.00015e-18
-2.07865e-16
3.21493e-16
1.04775e-17
-3.69581e-18
4.5818e-16
4.7733e-19
-3.71592e-18
7.20763e-18
-1.65276e-21
2.4976e-14
7.00468e-22
1.31177e-20
2.55233e-20
2.10944e-18
1.64715e-19
3.15394e-18
2.80338e-21
5.76881e-20
-2.48867e-25
6.33807e-20
2.91712e-23
-8.3573e-13
-4.67134e-15
7.63829e-13
1.08179e-12
-1.34605e-10
4.3273e-10
2.10224e-16
-2.47815e-16
9.79639e-13
-2.30989e-16
-2.73538e-17
-3.55683e-14
-2.00462e-11
-3.4307e-14
1.24949e-09
-3.51472e-10
2.65134e-09
-1.10665e-13
-3.59952e-17
1.10966e-13
5.84566e-15
-2.17699e-18
4.63667e-12
5.48854e-19
-8.88583e-19
5.92118e-15
7.75514e-20
-1.80402e-20
6.55764e-16
-3.43439e-14
-3.3331e-20
4.34155e-17
-9.43695e-23
3.76754e-12
6.68916e-20
-3.05775e-21
-1.35801e-22
4.55689e-22
1.43143e-21
-5.55764e-33
5.36261e-23
6.1506e-24
6.52352e-23
9.99367e-23
3.07081e-26
1.22179e-09
-6.11808e-08
4.96013e-09
1.72921e-11
-3.09823e-09
1.23459e-09
7.98971e-11
-2.15039e-09
2.17288e-09
8.20905e-10
-2.48566e-09
2.20919e-09
1.92479e-09
-1.4583e-11
5.72413e-09
-1.9534e-09
1.47443e-09
4.00169e-10
-2.93631e-17
-8.79156e-09
-7.66233e-13
-2.35758e-19
1.04554e-10
3.2421e-12
-8.54861e-30
-4.97244e-09
3.39594e-12
-3.51638e-25
-2.49288e-09
1.83412e-14
-8.31891e-24
-1.12054e-11
-5.66046e-26
4.41544e-11
1.45822e-20
2.97164e-19
-7.88187e-33
1.01567e-19
-9.2864e-29
1.66112e-28
9.61454e-28
5.79795e-24
2.61092e-26
9.15983e-23
2.12818e-28
-1.43463e-10
-6.95181e-07
6.8276e-07
2.13073e-11
-1.57616e-08
1.45591e-08
2.88572e-11
-6.39106e-07
6.28817e-07
-4.87036e-10
-6.17754e-07
6.11167e-07
-5.61923e-11
-4.21852e-07
4.13813e-07
-1.32312e-09
9.46522e-10
-2.17986e-08
-5.98733e-07
-1.70681e-10
4.70245e-11
-1.94912e-08
7.09763e-09
2.01364e-08
-3.44577e-07
6.64848e-09
-9.82637e-09
-2.71562e-07
-4.59578e-10
-4.72466e-09
-9.42546e-09
-4.8443e-09
-1.20844e-09
-5.487e-09
8.43595e-09
-2.53931e-08
-2.92714e-09
5.63753e-10
-4.1439e-10
-1.90336e-08
2.56929e-09
-3.71044e-08
3.50285e-12
-6.85968e-09
6.47178e-11
-1.76574e-06
8.01906e-06
0.000191217
1.30474e-07
1.71494e-06
0.000125056
4.27593e-08
3.43845e-06
0.000123128
-1.14223e-06
3.19656e-06
0.000127794
-1.77842e-06
3.04551e-06
0.000127533
2.8519e-06
0.000126107
1.40233e-08
-3.12417e-07
8.2992e-06
8.80376e-09
-5.94965e-09
1.73853e-06
2.52907e-09
-1.00742e-06
4.44194e-06
-3.31896e-08
-9.77966e-07
4.20505e-06
-1.49557e-08
-2.2714e-07
3.21105e-06
-2.71724e-12
2.83144e-06
5.22914e-08
4.02808e-06
-7.73815e-08
1.28971e-07
-8.7056e-08
2.3779e-06
-6.54678e-08
2.6971e-06
-2.14239e-11
8.55194e-07
4.057e-11
0.000179587
0.00083473
0.00301551
6.63189e-05
0.000285728
0.00285702
4.73066e-05
0.000418877
0.0025127
1.50597e-05
0.000505275
0.00267557
-2.84073e-05
0.000492239
0.00280131
0.00046204
0.00264575
1.88509e-05
0.000128835
0.000695304
1.61949e-05
3.5236e-05
0.000254869
8.30277e-06
2.04137e-05
0.000410746
1.91229e-06
3.10123e-05
0.000484827
-4.34988e-06
3.03832e-05
0.000471267
2.49572e-05
0.000435525
2.63086e-06
0.000124264
9.5173e-07
3.38852e-05
8.3608e-07
2.10191e-05
1.18013e-07
3.21694e-05
-1.84395e-07
3.05281e-05
2.39592e-05
0.00492538
0.0120847
-0.0169572
0.000417164
0.00266806
0.0315667
0.000260527
0.00238509
0.0200736
0.000141776
0.00233346
0.0230026
-2.49983e-05
0.00209582
0.0274557
0.00238152
0.0213375
0.00174314
0.00994958
-2.41723e-06
2.12191e-05
0.00233935
0.00214037
0.000183665
0.000641052
0.00133146
0.00011588
0.000808118
0.00197381
1.29326e-05
0.000713323
0.00172257
0.000708342
0.00155713
0.000140057
0.000106512
-1.94243e-05
0.000637954
1.66443e-05
0.000192596
3.02962e-05
0.000264247
3.93057e-06
0.000325051
0.00023666
0.0615083
-0.000288025
0.26459
0.0168353
0.00772383
0.393996
0.00784939
-0.000301422
0.358339
0.0191555
-0.000916907
0.334724
0.000616195
0.00104752
0.33926
-0.000898483
0.337826
1.65299e-07
-0.000294178
1.26821e-06
-0.000641162
0.000407033
0.00931364
-0.000384037
-0.00011873
0.000387747
0.00033048
-9.0489e-05
0.000564108
-3.93998e-05
0.000369928
0.00313666
-0.000102665
0.000728362
-0.000293993
1.69617e-05
-3.616e-05
0.000321853
-3.0259e-05
2.23181e-05
-2.97507e-05
3.36481e-05
6.17259e-06
0.000325711
6.49682e-05
0.00274237
0.00740609
-0.00882
-0.000569521
0.00582531
0.00695643
-0.0094092
0.000149411
0.00543989
0.00526538
-0.00876944
0.00469681
0.00174771
0.00530216
-0.0131962
0.0124213
-0.00304033
0.00419672
-0.0147113
0.0161984
0.00639899
-0.0119079
0.00350835
0.00181367
0.000817914
-0.00101655
-0.00313972
0.000942678
0.000925962
-0.00122612
0.00205013
0.000329199
0.000900252
-0.00102133
0.00134879
2.97819e-05
0.000662033
-0.000244105
0.00113831
-0.000797013
0.000694165
-0.000250827
0.0012405
0.000623152
-0.00066928
-0.0016045
0.000128251
-5.13454e-05
-0.000144405
8.98366e-05
-0.000135958
0.000317279
3.54943e-05
-0.000133419
0.00036498
4.56878e-06
-0.000120933
8.58417e-05
-2.6505e-05
-4.34521e-05
2.85605e-05
1.0064e-05
-0.000186133
0.00163962
0.00587937
-0.00129869
0.0016989
0.00587324
0.000788845
0.00193871
0.00558881
-0.000193887
0.00141142
0.00567191
-0.000609619
1.47542e-05
0.00535662
3.67108e-05
0.00518319
-1.68999e-06
0.000447827
7.14878e-05
-0.000806474
0.000402849
0.000119645
0.00147646
0.000373173
-2.84007e-05
9.5429e-05
-7.28453e-05
-0.000329043
-0.00229567
-0.000220694
-0.000213834
-0.00106399
0.000489161
0.000593041
2.59032e-05
-0.00148205
-1.50377e-05
-0.00105774
-6.58604e-05
-0.000953914
-7.0519e-05
-0.00150515
-4.0187e-05
-0.00123529
-0.000484904
0.00123008
0.00937578
-0.0487021
0.00148309
0.00862133
-0.0417828
0.00122337
0.00844002
-0.0377715
0.00113082
0.00825067
-0.0415306
0.00056924
0.00764111
-0.0395092
0.00800619
-0.0370375
0.000266026
0.0141446
-0.0393962
0.00193467
0.0102132
-0.037233
0.00194116
0.0102122
-0.0350963
0.000182394
0.0125672
-0.0401803
-0.000415105
0.0115403
-0.0392576
0.00931991
-0.0330009
-0.00021842
-0.00543491
2.24106e-05
-0.00347527
3.23364e-05
-0.00307558
-0.000468054
-0.00477489
-0.000402346
-0.00427355
-0.00255656
0.00110643
0.0112909
-0.17423
-5.55817e-05
0.00951265
-0.417737
9.24515e-05
0.0100227
-0.195129
0.000862413
0.00857199
-0.172642
0.00126516
0.00732406
-0.235951
0.00988247
-0.205737
-0.00568377
0.00461409
-0.0245584
0.00278928
0.00120606
-0.0655904
0.00216645
0.00199745
-0.0296888
-0.00242562
0.00199975
-0.0165653
-9.24974e-05
0.000642946
-0.0328773
0.00165183
-0.034041
-0.000644223
-2.12418e-07
-0.000130659
-1.30518e-06
9.48272e-05
-1.88068e-07
-0.000371028
-9.69741e-07
-0.00036869
-2.13626e-06
-3.4506e-07
0.0126249
-0.0404005
-0.29541
-0.0262654
-0.00292716
-0.418322
-0.0186245
-0.0337534
-0.352714
0.00840048
-0.043386
-0.307981
0.00934199
-0.0322119
-0.367343
-0.0306661
-0.367579
-0.00981407
-5.30574e-07
-0.000211623
0.0022809
-1.25107e-05
-0.0514827
-0.000133163
-1.14453e-06
-0.000104723
-0.00201936
-2.73216e-06
-2.76912e-05
-9.13892e-05
-1.26138e-05
-0.00919567
-2.47577e-06
-0.00460318
-1.21131e-07
-6.2186e-07
-2.95828e-09
-1.3934e-05
-9.29467e-09
-1.32626e-06
-1.10817e-07
-3.60038e-06
-9.18339e-09
-1.48517e-05
-2.83001e-06
0.0360704
-0.00932725
-0.0461717
0.0637735
-0.022065
-0.00309411
0.0207991
-0.00141299
0.00776445
-0.00285017
-0.00795131
-0.00951719
-2.08622e-05
-3.33871e-05
-0.000303677
-1.03292e-05
-2.16098e-05
-0.000860841
-2.8147e-05
-2.32821e-05
-0.000309012
-6.20975e-05
-4.52958e-06
-3.06429e-07
-9.24487e-07
-1.89578e-06
-4.06564e-08
4.02023e-08
-2.80387e-07
1.82659e-07
-2.48704e-06
-3.80133e-07
1.45048e-07
-4.63658e-07
4.33476e-08
3.67994e-07
2.96116e-07
-3.29498e-08
6.30861e-07
-4.45545e-08
-9.73725e-08
8.35819e-08
-3.4638e-07
1.53825e-07
4.49028e-10
-0
2.36597e-08
-4.81245e-07
-0
3.38789e-08
3.15396e-08
-0
2.6108e-07
-1.49715e-09
-0
8.69919e-11
-1.33357e-08
-0
8.15753e-09
-0
3.56826e-08
0
0
0
0
0
0
0
0
0
0
0
8.00028e-08
-1.53822e-06
2.80154e-07
-3.26314e-08
-1.24927e-07
1.33651e-08
-3.93204e-08
-1.85504e-07
-1.0444e-08
-6.81909e-09
-2.52332e-09
-3.90802e-09
-1.07803e-07
-2.32498e-07
1.20657e-07
-1.20145e-06
2.03412e-07
2.24459e-08
-0
1.36727e-08
9.51491e-10
-8.89242e-164
1.86783e-09
-1.16602e-11
-9.24495e-161
-6.05579e-09
-2.45112e-09
-3.47531e-119
3.12509e-12
-4.50016e-08
-2.68823e-122
4.46846e-09
-3.73668e-126
2.50828e-08
0
0
-5.32954e-164
9.60417e-167
2.32002e-164
1.12503e-163
2.68816e-122
3.185e-122
3.7394e-126
2.14784e-125
2.94249e-129
-3.3783e-07
-4.54398e-07
1.6235e-07
-3.55134e-08
-6.05379e-09
-1.44215e-09
1.52613e-10
-4.21441e-09
-4.79632e-10
-3.63442e-09
-2.62697e-09
-5.33393e-10
-2.79524e-09
-1.52902e-08
8.13782e-09
-2.01418e-07
1.67085e-08
4.12352e-09
-0
-2.95566e-11
-4.68627e-12
-6.17394e-11
-5.22297e-12
-6.5873e-11
-3.36146e-09
1.6873e-10
1.3105e-11
-1.88244e-10
1.10681e-10
-1.08074e-08
-9.90118e-13
-2.43669e-13
-2.94335e-129
-6.90111e-12
0
0
-8.94506e-11
1.37361e-13
3.23798e-11
1.81234e-10
9.90929e-13
2.41772e-12
-7.65998e-133
8.10769e-16
1.10671e-132
-3.92256e-09