/*--------------------------------*- C++ -*----------------------------------*\
| =========                 |                                                 |
| \\      /  F ield         | OpenFOAM: The Open Source CFD Toolbox           |
|  \\    /   O peration     | Version:  v1612+                                |
|   \\  /    A nd           | Web:      www.OpenFOAM.com                      |
|    \\/     M anipulation  |                                                 |
\*---------------------------------------------------------------------------*/
FoamFile
{
    version     2.0;
    format      ascii;
    class       volScalarField;
    location    "9.7";
    object      p_rgh;
}
// * * * * * * * * * * * * * * * * * * * * * * * * * * * * * * * * * * * * * //

dimensions      [1 -1 -2 0 0 0 0];

internalField   nonuniform List<scalar> 
1116
(
10492.5
10506.5
10506.1
10471.6
10461.1
10493.7
11196.4
11209.4
11226.7
11216.8
11231.4
11230.8
12239.8
12234.5
12238.8
12248.3
12252.5
12237.3
12647.7
12639.3
12638.5
12647.1
12648.9
12633.7
13017.6
13013.7
13010.7
13014.2
13013.2
13003.3
13434.3
13433.7
13432
13432
13430.3
13426.8
14136
14136.4
14136.4
14136.1
14133.7
14137.2
15157.2
15159.7
15159.3
15160
15161
15160.8
16308.3
16286.5
16297.8
16295.6
16299.5
16297
17273.7
17268.1
17263.5
17258.2
17254.6
17265
18239.4
18238.6
18225.6
18217.3
18215.4
18221.8
17628.2
17541.9
17563.1
17599.1
17544.2
17559.4
5241.04
5282.66
5270.72
5239.27
5232.08
5266
5780.98
5751.92
5756.12
5811.27
5851.7
5746.02
6103.23
5989.69
5994.54
6127.27
6192.78
5972.67
6795.8
6705.14
6685.13
6770.57
6785.96
6632.27
7313.27
7267.7
7247.24
7291.46
7281.18
7197.2
8057.33
8042.53
8034.81
8053.56
8042.62
8011.19
9168.8
9154.28
9154.62
9177.71
9182.95
9164.18
11475
11462.3
11461.9
11476.4
11491.8
11480.4
16144.6
16152.6
16141
16124.6
16117.4
16140.8
17687
17663.9
17659
17650.4
17634.8
17673.7
18708.4
18687.8
18671.1
18665.4
18661.7
18661.9
15888.7
15863.8
15856
15883.9
15836.3
15841.8
-2.17424
-2.06381
-2.05528
-2.0775
-1.96389
-2.0258
-4.51215
-4.24273
-4.19621
-4.58876
-4.73681
-4.31272
-7.35925
-7.14704
-7.06268
-7.14928
-7.36974
-6.93353
-7.86475
-7.89214
-7.81169
-7.62577
-7.59543
-7.65222
-7.42768
-7.59469
-7.5874
-7.42151
-7.40886
-7.5323
-6.94562
-7.1119
-7.20311
-7.07801
-7.19939
-7.30521
1.97976
2.00433
1.84798
1.73696
1.61237
1.78637
122.039
122.272
121.939
121.63
121.701
122.457
362.717
359.658
358.545
358.915
358.241
361.183
2269.46
2276.49
2276.57
2256
2208.88
2344.74
13408.1
12658.8
12675.8
12470.1
12387.4
12755.1
17572.7
17570.6
17585.9
17596
17591.1
17550.2
8.16406
8.1054
8.09921
8.20919
8.33669
8.10506
7.98647
7.97302
7.96385
7.94404
8.05894
7.9482
8.0189
8.20316
8.13993
8.01181
7.98101
8.07819
6.02966
6.16095
6.16524
6.05372
6.07008
6.17109
4.453
4.51422
4.51297
4.49497
4.51759
4.55898
0.574341
0.544767
0.529596
0.554592
0.562362
0.617494
-6.90787
-6.56718
-6.72519
-6.96291
-6.81012
-6.96529
9.97406
9.9892
9.86581
9.77825
9.94015
9.60328
17.1206
16.1893
15.4414
15.8803
15.6663
16.2759
51.8244
40.9231
38.149
37.1153
35.9365
35.0649
474.125
199.928
187.919
182.666
179.464
175.171
18387.5
17868.1
17871
17766.2
17625.4
17941.1
1184.32
1208.28
1191.02
1100.76
1022.58
949.57
1209.5
1230.61
1200.89
1138.24
1082.48
1009.78
1269.52
1271.25
1238.35
1217.2
1192.78
1139.91
1335.37
1312.02
1304.53
1303.36
1271.41
1271.96
1398.89
1367.99
1410.34
1375.84
1311.14
1332.38
1463.27
1427.61
1412.99
1416.5
1335.78
1366.87
1512.81
1436.79
1483.91
1501.94
1404.83
1436.16
1608.73
1493.14
1558.95
1445.46
1506.57
1567.22
1607.13
1566.52
1388.89
1082.75
1559.41
1694.38
1065.34
1287.65
1171.96
901.445
1140.39
1344.57
853.973
886.947
964.921
935.318
950.254
1101.3
756.251
754.35
786.996
790.09
774.248
828.914
334.337
539.884
622.131
286.648
134.242
77.3697
387.021
591.219
536.984
333.022
219.107
141.091
506.164
587.56
573.154
537.528
415.524
296.835
683.768
723.368
773.153
809.672
702.487
496.731
844.957
1006.06
1251.96
911.167
712.715
650.539
1112.24
1105.77
918.308
838.877
586.924
641.726
1553.73
1144.28
904.611
926.185
476.684
666.976
1907.46
1469.54
1398.04
1127.23
642.616
894.597
1175.83
1902.64
1504.83
573.282
1297.78
1400.22
579.664
1844.6
1342.9
419.557
1054.73
1443.64
651.024
971.367
788.943
581.33
537.975
826.193
660.545
588.247
545.333
552.482
539.563
560.383
-0.137406
-0.812094
-0.644469
-0.551471
0.255531
1.71892
-0.319302
-0.735335
0.0492181
0.622007
1.06399
1.97827
43.5646
-0.136274
0.542275
0.637919
0.369378
1.38581
45.0184
-0.0339382
0.85198
0.186267
-0.438013
-0.280134
3.54541
3.22652
2.8545
2.17954
1.88819
1.51004
5.47235
78.2589
30.1934
6.88971
6.89493
7.24391
11.5019
18.6299
64.4086
12.9905
11.8756
12.1109
22.3109
15.1162
49.8991
16.1111
12.384
15.0157
304.521
99.9854
849.907
277.322
139.017
29.5441
1152.29
1665.47
891.414
164.64
641.649
815.042
918.944
1466.61
622.575
305.391
370.467
971.981
479.011
458.774
413.316
397.788
470.072
487.059
1.80774
0.328426
-0.592808
1.53989
3.42662
5.11406
1.79925
0.14615
-0.228134
0.819837
2.21994
3.68426
0.87951
0.451417
0.320792
0.555471
0.909508
2.74417
-0.880954
-0.72604
-0.696993
-0.795503
-1.01683
0.222327
-2.24395
-2.53496
-1.45614
-0.722329
-1.80241
-0.874641
-3.99081
-6.22017
-1.1649
0.00743739
-1.70519
-0.0255355
-0.921135
-6.79344
-0.628502
2.23319
0.346316
2.75333
-0.319388
-7.09868
-2.25273
-2.22563
-1.30732
2.6757
46.5792
2.32318
6.25713
338.244
112.381
19.554
199.863
206.728
670.928
140.469
506.234
237.024
688.986
1061.89
324.615
196.159
394.174
772.159
381.638
348.018
291.646
296.278
594.953
369.225
1.87398
1.19738
1.37121
1.60361
1.75239
-0.455602
7.60923
4.04873
2.65932
7.7161
8.05575
5.16081
0.980148
-4.89336
-4.6578
-4.98895
0.819537
1.30763
-2.49287
-2.80888
-2.90527
-2.65748
-2.43481
-2.4992
-1.24113
-1.31625
-1.48215
-1.31417
-1.38275
-1.36302
-5.84801
-5.60445
-5.6145
-5.76213
-6.14368
-6.22523
-1.59262
-1.56125
-1.57198
-1.55903
-1.56114
-1.55835
-1.07024
-1.06392
-1.06701
-1.07144
-1.08018
-1.08239
-5.3602
-5.34605
-5.34814
-5.37167
-5.4179
-5.41605
-2.1589
-2.15344
-2.16015
-2.14255
-2.14216
-2.12375
-2.13906
-2.14117
-2.14856
-2.15263
-2.16203
-2.15961
-6.01519
-6.00782
-6.0133
-6.03084
-6.06155
-6.06637
-1.92875
-1.93074
-1.9321
-1.93566
-1.93083
-1.93456
-2.40337
-2.41501
-2.40929
-2.41784
-2.41754
-2.42791
-6.30202
-6.31253
-6.30747
-6.31373
-6.31932
-6.31912
-2.25917
-2.23834
-2.24994
-2.25049
-2.23646
-2.23454
-3.00677
-2.94559
-2.98861
-2.97314
-2.95157
-2.90167
-6.60163
-6.6159
-6.59756
-6.6082
-6.62352
-6.63776
1.81771
1.88607
1.80525
1.73678
1.80111
1.75284
-0.839506
-0.663387
-0.730348
-0.856569
-0.836749
-0.911797
-6.61634
-6.77219
-6.6933
-6.74679
-6.71448
-6.72924
8.07859
8.27538
7.95474
8.42073
8.31321
8.56178
-0.0725127
0.891335
0.506236
0.447655
0.49493
1.145
-4.4859
-5.12623
-4.79593
-4.90871
-5.18566
-5.46455
15.5146
17.018
15.4157
15.6185
16.2072
17.2687
18.365
16.556
16.4576
16.4586
15.8354
15.5292
-11.6158
-13.2258
-11.6426
-11.3635
-11.379
-11.5279
44.343
34.0157
34.8803
32.5883
30.6248
31.6743
20.7912
16.6803
17.9368
16.6336
15.3437
16.0564
-9.01515
-10.1883
-9.77079
-10.2985
-10.4877
-10.3323
226.18
93.2614
94.4203
89.391
85.7524
86.3657
164.872
10.0984
14.6878
12.8139
7.61601
12.7569
37.2673
-12.5588
-14.9519
-12.0272
-13.0715
-12.5302
5399.53
10211.9
9593.3
8340.2
9138.69
9487.19
-65.7317
-40.9125
-46.918
-50.4374
-46.704
-46.7147
-30.136
-31.5904
-28.283
-24.9357
-21.5242
-23.6551
1091.65
1092.37
1076
1055.1
1031.29
1061.02
321.295
209.154
102.569
56.3696
47.7803
180.677
-6.57676
-11.1626
-11.5699
-10.242
-8.74104
-8.53944
1042.04
1000.5
1033.27
1000.63
892.413
932.246
100.437
75.2723
93.4218
112.56
85.2446
59.6123
-4.29462
-8.48356
-10.9057
-8.29108
-6.98134
-3.50885
962.142
920.666
910.751
922.158
880.907
853.964
818.643
717.593
721.466
862.1
846.495
672.41
179.431
105.92
106.965
171.332
153.691
90.5062
2039.5
2923.58
2178.8
2102.1
2649.75
2277.4
1611.03
1861.56
1553.68
1453.57
1595.94
1557.54
120.854
73.228
75.1703
97.5884
75.3523
77.49
9203.52
10639.4
10029.1
9623.06
10519.6
10089
228.973
1287.36
322.551
99.8703
424.261
454.124
-36.1149
-30.5099
-33.5101
-33.9937
-30.2501
-29.5164
10355.6
10372.7
10894.3
10737.2
10581.2
10560.7
-15.4797
958.138
-3.61206
-6.1534
202.224
105.823
-18.0706
-15.9596
-21.1371
-21.3567
-21.0189
-21.2751
0.385046
0.217714
0.579393
1.04259
0.880289
1.04684
0.0915003
0.16535
0.556084
0.315872
0.320241
0.35395
-0.391478
-0.39131
-0.244781
-0.322264
-0.361977
-0.353268
0.24774
-0.021565
-0.225135
0.0700758
0.51313
0.959195
-0.258297
-0.325742
-0.398845
-0.228823
-0.0985948
0.105467
-0.838608
-0.897737
-0.812696
-0.819305
-0.835648
-0.768243
-0.538697
-0.147272
0.0475647
0.174699
0.357571
0.565838
-0.427288
-0.38791
-0.339203
-0.283713
-0.184017
-0.0989901
-1.01486
-1.07635
-0.975206
-0.992825
-0.981283
-0.916621
-2.55509
-1.31617
-0.678893
-0.516241
-0.636978
-0.702878
-0.962542
-0.8047
-0.667776
-0.62637
-0.681853
-0.731056
-1.19673
-1.30546
-1.23656
-1.22672
-1.21878
-1.07735
-2.72311
-1.75514
-0.345593
0.207721
-0.578581
-0.126037
-0.290246
-0.111167
0.123014
0.169814
0.00894177
0.103533
-0.866112
-1.11553
-1.11571
-1.03173
-0.895172
-0.52187
-1.81023
-2.50366
0.289661
1.71917
0.226715
2.00507
1.70851
1.8609
1.83859
1.83907
1.65587
2.29636
0.0658269
-0.448558
-0.807542
-0.693637
-0.392165
0.177195
3.45604
1.83467
3.78212
6.76817
3.40567
6.01994
7.36482
7.63652
5.61853
5.37327
4.87692
5.87747
1.05176
0.379583
-0.479487
-0.523619
-0.376046
0.0596049
5.63016
3.84194
5.8894
7.08316
7.33207
9.37751
9.21643
9.76574
9.35232
9.22477
8.99507
9.31927
2.23088
1.31834
-0.456961
-0.508945
-0.299648
-0.181951
94.0069
21.7834
54.3078
259.149
65.4029
16.2236
2.90348
8.06
12.6488
13.388
5.64257
13.7642
-7.15011
-8.65447
-8.71967
-6.86212
-5.11308
-3.21135
201.262
95.071
219.943
250.928
357.006
385.251
118.603
12.4162
116.767
256.941
155.173
76.4979
1.84988
-10.2995
5.76793
180.806
0.39403
-10.2945
288.202
505.368
251.495
150.245
427.694
777.46
293.279
-12.0958
135.139
214.146
458.476
432.546
125.852
-24.3057
22.934
129.702
114.412
-17.6454
1007.96
578.898
238.131
532.733
1031.54
908.043
735.719
685.868
319.909
317.505
469.531
567.419
34.2512
133.816
148.729
-7.06025
-9.11391
2.14928
)
;

boundaryField
{
    seabed_topleft_surface
    {
        type            fixedFluxPressure;
        gradient        uniform 0;
        value           nonuniform List<scalar> 
72
(
10492.5
10506.5
10506.1
10471.6
10461.1
10493.7
11196.4
11209.4
11226.7
11216.8
11231.4
11230.8
12239.8
12234.5
12238.8
12248.3
12252.5
12237.3
12647.7
12639.3
12638.5
12647.1
12648.9
12633.7
13017.6
13013.7
13010.7
13014.2
13013.2
13003.3
13434.3
13433.7
13432
13432
13430.3
13426.8
14136
14136.4
14136.4
14136.1
14133.7
14137.2
15157.2
15159.7
15159.3
15160
15161
15160.8
16308.3
16286.5
16297.8
16295.6
16299.5
16297
17273.7
17268.1
17263.5
17258.2
17254.6
17265
18239.4
18238.6
18225.6
18217.3
18215.4
18221.8
17628.2
17541.9
17563.1
17599.1
17544.2
17559.4
)
;
    }
    seabed_topright_surface
    {
        type            fixedFluxPressure;
        gradient        uniform 0;
        value           nonuniform List<scalar> 
72
(
1184.32
1208.28
1191.02
1100.76
1022.58
949.57
1209.5
1230.61
1200.89
1138.24
1082.48
1009.78
1269.52
1271.25
1238.35
1217.2
1192.78
1139.91
1335.37
1312.02
1304.53
1303.36
1271.41
1271.96
1398.89
1367.99
1410.34
1375.84
1311.14
1332.38
1463.27
1427.61
1412.99
1416.5
1335.78
1366.87
1512.81
1436.79
1483.91
1501.94
1404.83
1436.16
1608.73
1493.14
1558.95
1445.46
1506.57
1567.22
1607.13
1566.52
1388.89
1082.75
1559.41
1694.38
1065.34
1287.65
1171.96
901.445
1140.39
1344.57
853.973
886.947
964.921
935.318
950.254
1101.3
756.251
754.35
786.996
790.09
774.248
828.914
)
;
    }
    breakwater_top_surface
    {
        type            fixedFluxPressure;
        gradient        uniform 0;
        value           nonuniform List<scalar> 
36
(
1091.65
1092.37
1076
1055.1
1031.29
1061.02
1042.04
1000.5
1033.27
1000.63
892.413
932.246
962.142
920.666
910.751
922.158
880.907
853.964
2039.5
2923.58
2178.8
2102.1
2649.75
2277.4
9203.52
10639.4
10029.1
9623.06
10519.6
10089
10355.6
10372.7
10894.3
10737.2
10581.2
10560.7
)
;
    }
    breakwater_left_surface
    {
        type            fixedFluxPressure;
        gradient        uniform 0;
        value           nonuniform List<scalar> 
24
(
17628.2
17541.9
17563.1
17599.1
17544.2
17559.4
15888.7
15863.8
15856
15883.9
15836.3
15841.8
17572.7
17570.6
17585.9
17596
17591.1
17550.2
18387.5
17868.1
17871
17766.2
17625.4
17941.1
)
;
    }
    breakwater_right_surface
    {
        type            fixedFluxPressure;
        gradient        uniform 0;
        value           nonuniform List<scalar> 
24
(
756.251
754.35
786.996
790.09
774.248
828.914
660.545
588.247
545.333
552.482
539.563
560.383
479.011
458.774
413.316
397.788
470.072
487.059
381.638
348.018
291.646
296.278
594.953
369.225
)
;
    }
    water_front_surface
    {
        type            fixedFluxPressure;
        gradient        uniform 0;
        value           nonuniform List<scalar> 
186
(
10492.5
11196.4
12239.8
12647.7
13017.6
13434.3
14136
15157.2
16308.3
17273.7
18239.4
17628.2
5241.04
5780.98
6103.23
6795.8
7313.27
8057.33
9168.8
11475
16144.6
17687
18708.4
15888.7
-2.17424
-4.51215
-7.35925
-7.86475
-7.42768
-6.94562
1.97976
122.039
362.717
2269.46
13408.1
17572.7
8.16406
7.98647
8.0189
6.02966
4.453
0.574341
-6.90787
9.97406
17.1206
51.8244
474.125
18387.5
1184.32
1209.5
1269.52
1335.37
1398.89
1463.27
1512.81
1608.73
1607.13
1065.34
853.973
756.251
334.337
387.021
506.164
683.768
844.957
1112.24
1553.73
1907.46
1175.83
579.664
651.024
660.545
-0.137406
-0.319302
43.5646
45.0184
3.54541
5.47235
11.5019
22.3109
304.521
1152.29
918.944
479.011
1.80774
1.79925
0.87951
-0.880954
-2.24395
-3.99081
-0.921135
-0.319388
46.5792
199.863
688.986
381.638
1.87398
7.60923
0.980148
-2.49287
-1.24113
-5.84801
-1.59262
-1.07024
-5.3602
-2.1589
-2.13906
-6.01519
-1.92875
-2.40337
-6.30202
-2.25917
-3.00677
-6.60163
1.81771
-0.839506
-6.61634
8.07859
-0.0725127
-4.4859
15.5146
18.365
-11.6158
44.343
20.7912
-9.01515
226.18
164.872
37.2673
5399.53
-65.7317
-30.136
1091.65
321.295
-6.57676
1042.04
100.437
-4.29462
962.142
818.643
179.431
2039.5
1611.03
120.854
9203.52
228.973
-36.1149
10355.6
-15.4797
-18.0706
0.385046
0.0915003
-0.391478
0.24774
-0.258297
-0.838608
-0.538697
-0.427288
-1.01486
-2.55509
-0.962542
-1.19673
-2.72311
-0.290246
-0.866112
-1.81023
1.70851
0.0658269
3.45604
7.36482
1.05176
5.63016
9.21643
2.23088
94.0069
2.90348
-7.15011
201.262
118.603
1.84988
288.202
293.279
125.852
1007.96
735.719
34.2512
)
;
    }
    water_back_surface
    {
        type            fixedFluxPressure;
        gradient        uniform 0;
        value           nonuniform List<scalar> 
186
(
10493.7
11230.8
12237.3
12633.7
13003.3
13426.8
14137.2
15160.8
16297
17265
18221.8
17559.4
5266
5746.02
5972.67
6632.27
7197.2
8011.19
9164.18
11480.4
16140.8
17673.7
18661.9
15841.8
-2.0258
-4.31272
-6.93353
-7.65222
-7.5323
-7.30521
1.78637
122.457
361.183
2344.74
12755.1
17550.2
8.10506
7.9482
8.07819
6.17109
4.55898
0.617494
-6.96529
9.60328
16.2759
35.0649
175.171
17941.1
949.57
1009.78
1139.91
1271.96
1332.38
1366.87
1436.16
1567.22
1694.38
1344.57
1101.3
828.914
77.3697
141.091
296.835
496.731
650.539
641.726
666.976
894.597
1400.22
1443.64
826.193
560.383
1.71892
1.97827
1.38581
-0.280134
1.51004
7.24391
12.1109
15.0157
29.5441
815.042
971.981
487.059
5.11406
3.68426
2.74417
0.222327
-0.874641
-0.0255355
2.75333
2.6757
19.554
237.024
772.159
369.225
-0.455602
5.16081
1.30763
-2.4992
-1.36302
-6.22523
-1.55835
-1.08239
-5.41605
-2.12375
-2.15961
-6.06637
-1.93456
-2.42791
-6.31912
-2.23454
-2.90167
-6.63776
1.75284
-0.911797
-6.72924
8.56178
1.145
-5.46455
17.2687
15.5292
-11.5279
31.6743
16.0564
-10.3323
86.3657
12.7569
-12.5302
9487.19
-46.7147
-23.6551
1061.02
180.677
-8.53944
932.246
59.6123
-3.50885
853.964
672.41
90.5062
2277.4
1557.54
77.49
10089
454.124
-29.5164
10560.7
105.823
-21.2751
1.04684
0.35395
-0.353268
0.959195
0.105467
-0.768243
0.565838
-0.0989901
-0.916621
-0.702878
-0.731056
-1.07735
-0.126037
0.103533
-0.52187
2.00507
2.29636
0.177195
6.01994
5.87747
0.0596049
9.37751
9.31927
-0.181951
16.2236
13.7642
-3.21135
385.251
76.4979
-10.2945
777.46
432.546
-17.6454
908.043
567.419
2.14928
)
;
    }
    water_left_surface
    {
        type            fixedFluxPressure;
        gradient        uniform 0;
        value           nonuniform List<scalar> 
42
(
10492.5
10506.5
10506.1
10471.6
10461.1
10493.7
5241.04
5282.66
5270.72
5239.27
5232.08
5266
-2.17424
-2.06381
-2.05528
-2.0775
-1.96389
-2.0258
8.16406
8.1054
8.09921
8.20919
8.33669
8.10506
1.87398
1.19738
1.37121
1.60361
1.75239
-0.455602
7.60923
4.04873
2.65932
7.7161
8.05575
5.16081
0.980148
-4.89336
-4.6578
-4.98895
0.819537
1.30763
)
;
    }
    water_right_surface
    {
        type            fixedFluxPressure;
        gradient        uniform 0;
        value           nonuniform List<scalar> 
42
(
1184.32
1208.28
1191.02
1100.76
1022.58
949.57
334.337
539.884
622.131
286.648
134.242
77.3697
-0.137406
-0.812094
-0.644469
-0.551471
0.255531
1.71892
1.80774
0.328426
-0.592808
1.53989
3.42662
5.11406
0.385046
0.217714
0.579393
1.04259
0.880289
1.04684
0.0915003
0.16535
0.556084
0.315872
0.320241
0.35395
-0.391478
-0.39131
-0.244781
-0.322264
-0.361977
-0.353268
)
;
    }
    water_top_surface
    {
        type            totalPressure;
        rho             rho;
        psi             none;
        gamma           1;
        p0              uniform 0;
        value           nonuniform List<scalar> 
180
(
0
-2.22106
-2.06487
-1.74788
0
0
-6.09892
-5.79945
-5.80539
-5.92521
-6.30441
-6.3827
-4.9625
-4.96296
-4.97189
-4.97414
-4.99955
-5.02127
-6.22325
-6.22601
-6.23428
-6.24136
-6.27788
-6.28628
-6.96546
-6.98794
-6.98477
-6.98686
-6.99831
-7.01087
-8.09569
-8.11767
-8.10334
-8.12074
-8.127
-8.12661
-8.75932
-9.10464
-8.98868
-9.04745
-9.00611
-9.04692
-10.0762
-11.8618
-10.9352
-10.3562
-10.7895
-11.7214
-5.71789
-16.6024
-8.21651
-6.34375
-9.9936
-14.3989
0
0
0
0
0
0
0
0
0
0
0
0
0
0
0
0
0
0
0
0
0
0
0
0
0
0
0
0
0
0
0
0
0
0
0
0
0
0
0
0
0
0
-16.9314
-14.8269
-17.9672
-21.359
-14.4714
-13.5559
-6.96388
-2.6458
-0.924267
-1.27786
0
-0.0106168
-0.697224
-0.706481
-0.346619
-0.690963
-0.825117
-0.758629
-1.33783
-1.41311
-1.46314
-1.47514
-1.39282
-1.28458
-1.34355
-1.45403
-1.55057
-1.57352
-1.49524
-1.41983
-1.31635
-1.51111
-1.68534
-1.80026
-1.79514
-1.58105
-0.909148
-1.25759
-1.55455
-1.76509
-1.72909
-1.1679
-0.548015
-1.13318
-1.5402
-1.89502
-1.7809
-0.915186
-0.201769
-0.92465
-1.57491
-1.72103
-1.5953
-0.617584
-0.476146
-2.04139
-2.53271
-3.09822
-2.48506
-0.890733
-6.83329
-9.94945
-4.46045
-9.08979
-6.93149
-1.9566
-0.126666
-0.0872104
0
0
0
-1.26938
0
0
0
0
0
0
0
0
0
0
0
0
)
;
    }
}


// ************************************************************************* //
