/*--------------------------------*- C++ -*----------------------------------*\
| =========                 |                                                 |
| \\      /  F ield         | OpenFOAM: The Open Source CFD Toolbox           |
|  \\    /   O peration     | Version:  v1612+                                |
|   \\  /    A nd           | Web:      www.OpenFOAM.com                      |
|    \\/     M anipulation  |                                                 |
\*---------------------------------------------------------------------------*/
FoamFile
{
    version     2.0;
    format      ascii;
    class       volScalarField;
    location    "5.4";
    object      alpha.water;
}
// * * * * * * * * * * * * * * * * * * * * * * * * * * * * * * * * * * * * * //

dimensions      [0 0 0 0 0 0 0];

internalField   nonuniform List<scalar> 
320
(
1
1
1
1
1.28576e-05
1.23615e-05
1.35643e-05
1.43196e-05
1.42001e-05
1.47198e-05
1.51895e-05
1.4507e-05
1.43681e-05
1.32194e-05
1.15696e-05
1.44111e-05
0.999984
0.999986
0.999988
0.999986
0.999983
0.999983
0.999984
0.999989
0.999983
0.999984
0.999993
0.999982
1
1
1
1
1
1
1
1
1
1
1
1
1
1
1
1
1
1
1
1
1
1
1
1
1
1
1
1
1.29305e-05
1.38755e-05
1.26587e-05
1.42551e-05
1.26705e-05
1.07084e-05
1.20436e-05
1.05042e-05
1.44676e-05
1.22585e-05
1.09624e-05
1.13045e-05
1.54304e-05
1.26822e-05
1.2424e-05
1.15478e-05
1.15215e-05
1.36204e-05
1.36602e-05
1.10911e-05
0.999986
0.99998
0.999988
0.999987
0.999994
0.999997
0.999993
0.999995
0.999983
0.999988
0.999993
0.999994
0.999984
0.999994
0.999992
0.999993
0.999993
0.999985
0.999986
0.999991
1
1
1
1
1
1
1
1
1
1
1
1
1
1
1
1
1
1
1
1
1
1
1
1
1
1
1
1
1
1
1
1
1
1
1
1
1
1
1
1
1
1
1
1
1
1
1
1
1
1
1
1
1
1
1
1
1
1
1
1
1
1
1
1
1
1
1
1
1
1
1
1
1
1
1
1
1.33073e-05
1.21379e-05
1.34477e-05
1.17975e-05
1.4547e-05
1.45706e-05
1.49734e-05
1.34623e-05
1.29208e-05
1.56077e-05
1.32285e-05
1.25984e-05
1.33068e-05
1.25559e-05
1.29952e-05
1.2476e-05
1.37194e-05
1.40142e-05
1.54059e-05
1.67389e-05
1.47459e-05
1.2102e-05
1.1982e-05
1.28063e-05
1.18341e-05
1.27668e-05
1.3089e-05
1.4259e-05
0.999983
0.999982
0.999984
0.999991
0.999989
0.999988
0.999981
0.999985
0.999989
0.99998
0.999982
0.999985
0.99998
0.999986
0.999985
0.999985
0.999982
0.999985
0.999987
0.999982
0.99998
0.999985
0.99999
0.999985
0.99999
0.999986
0.999985
0.999984
1
1
1
1
1
1
1
1
1
1
1
1
1
1
1
1
1
1
1
1
1
1
1
1
1
1
1
1
1
1
1
1
1
1
1
1
1
1
1
1
1
1
1
1
1
1
1
1
1
1
1
1
1
1
1
1
1
1
1
1
1
1
1
1
1
1
1
1
1
1
1
1
1
1
1
1
1
1
1
1
1
1
1
1
1.58796e-05
1.37377e-05
1.45054e-05
1.29173e-05
0.999982
0.999991
0.999988
0.999994
)
;

boundaryField
{
    top_fluid_surface
    {
        type            inletOutlet;
        inletValue      uniform 0;
        value           nonuniform List<scalar> 
64
(
0
1.23615e-05
1.35643e-05
0
0
0
0
0
1.43681e-05
0
1.15696e-05
0
1.29305e-05
0
1.26587e-05
0
1.26705e-05
1.07084e-05
1.20436e-05
1.05042e-05
0
1.22585e-05
1.09624e-05
1.13045e-05
0
1.26822e-05
1.2424e-05
1.15478e-05
1.15215e-05
1.36204e-05
1.36602e-05
1.10911e-05
0
1.21379e-05
1.34477e-05
1.17975e-05
0
0
0
0
0
0
0
1.25984e-05
0
1.25559e-05
1.29952e-05
1.2476e-05
0
0
0
0
0
1.2102e-05
1.1982e-05
1.28063e-05
1.18341e-05
1.27668e-05
0
0
0
0
0
1.29173e-05
)
;
    }
    bottom_fluid_surface
    {
        type            zeroGradient;
    }
    lateral_surface_1
    {
        type            zeroGradient;
    }
    lateral_surface_2
    {
        type            zeroGradient;
    }
    lateral_surface_3
    {
        type            zeroGradient;
    }
    lateral_surface_4
    {
        type            zeroGradient;
    }
}


// ************************************************************************* //
