/*--------------------------------*- C++ -*----------------------------------*\
| =========                 |                                                 |
| \\      /  F ield         | OpenFOAM: The Open Source CFD Toolbox           |
|  \\    /   O peration     | Version:  v1612+                                |
|   \\  /    A nd           | Web:      www.OpenFOAM.com                      |
|    \\/     M anipulation  |                                                 |
\*---------------------------------------------------------------------------*/
FoamFile
{
    version     2.0;
    format      ascii;
    class       surfaceScalarField;
    location    "5.4";
    object      phi;
}
// * * * * * * * * * * * * * * * * * * * * * * * * * * * * * * * * * * * * * //

dimensions      [0 3 -1 0 0 0 0];

internalField   nonuniform List<scalar> 
816
(
-6.24487e-06
-8.78088e-06
5.02201e-06
-1.1252e-06
-8.90065e-06
2.0029e-05
3.56617e-06
8.70016e-06
-1.0665e-06
1.32586e-05
-3.06941e-05
-6.80621e-06
2.25622e-06
6.66955e-06
8.25811e-06
-1.915e-05
-1.89008e-06
1.00241e-05
9.57041e-06
-2.09421e-05
6.64944e-05
2.10824e-05
1.93528e-05
5.93689e-05
-0.000145736
-5.50204e-07
-6.73937e-06
6.94377e-05
-0.000140625
-3.06474e-05
-1.45558e-05
-9.00265e-05
0.000149482
0.000107954
8.68175e-06
-3.31255e-05
0.000100808
0.000172258
-4.15713e-07
0.000205849
-7.9386e-05
-6.64351e-06
-4.87781e-07
0.000120217
0.000343063
0.000120029
-6.88597e-06
0.000129449
0.000116691
0.000380584
1.26553e-05
-3.6853e-05
-1.33972e-05
0.000183274
-6.52467e-07
-3.2466e-05
0.000319519
0.000170387
6.53541e-06
0.000177576
-0.000129426
2.97944e-05
-1.16475e-06
0.000260236
-0.000489006
3.56836e-06
8.1982e-05
0.000120006
1.27277e-05
9.10097e-06
-1.7838e-05
4.16608e-06
1.0441e-05
1.7501e-05
-2.39391e-05
6.28786e-06
5.79784e-06
-1.70344e-06
-7.98821e-06
9.90722e-07
1.21012e-05
-2.02741e-06
1.43952e-05
-5.4855e-06
-1.62103e-06
1.31263e-06
1.50611e-06
-3.99202e-06
-1.50182e-06
4.72487e-06
-2.05452e-05
1.67117e-06
1.33206e-05
2.43576e-06
-1.49046e-05
1.02002e-06
1.0225e-05
4.78018e-06
1.6309e-05
-1.05556e-05
2.01977e-06
1.82686e-06
-2.97133e-05
1.41451e-05
1.58858e-05
1.85989e-05
-2.10156e-05
3.43281e-06
7.68992e-06
5.41968e-06
1.58534e-05
9.28638e-06
-1.42267e-05
-7.75861e-06
1.28226e-05
1.34602e-05
-4.9379e-06
4.06888e-08
-9.04257e-06
1.1324e-06
-9.96972e-06
-9.65428e-06
-5.57277e-07
-1.41419e-06
-3.00665e-06
-9.94741e-07
-1.25418e-05
2.66034e-06
6.20477e-06
3.04271e-06
2.27264e-06
8.11373e-07
-8.00659e-07
-2.15253e-06
-9.80958e-06
-2.51096e-06
-3.79593e-06
-2.28469e-06
-6.92487e-06
2.17477e-06
5.97218e-07
6.96266e-06
8.72148e-06
-3.90647e-06
-1.33688e-05
-3.21562e-06
-8.61692e-06
-9.08781e-06
-9.43094e-06
2.76575e-07
-1.08408e-06
7.01952e-06
-2.79327e-07
-3.78276e-06
-4.3081e-06
-6.98817e-07
-3.59345e-06
-4.68708e-06
2.55534e-06
-8.51964e-07
-2.3145e-06
1.9555e-06
4.47921e-06
-1.11643e-06
4.34851e-06
-4.10526e-06
1.85641e-06
3.60574e-06
2.22212e-06
-1.49743e-06
5.20932e-06
3.71826e-06
-3.06894e-06
-1.81958e-07
-2.41091e-07
-2.99237e-06
-5.96956e-06
-7.78135e-07
-1.49659e-06
-9.80407e-07
-4.71207e-07
-7.09599e-06
-4.30869e-07
2.07858e-06
1.22192e-06
8.06105e-07
1.6449e-06
-5.34417e-07
2.85037e-07
-7.40834e-07
-2.16973e-06
-2.41708e-06
-2.8341e-06
-1.12498e-06
8.42549e-07
-2.16632e-06
3.7831e-07
5.71663e-06
1.60301e-06
-2.14674e-06
-1.83593e-06
-5.06015e-06
-3.9384e-06
-5.39034e-06
3.37732e-08
-2.60261e-06
-1.1515e-06
-7.5859e-08
2.00352e-06
-3.20413e-06
-5.31852e-07
-1.37858e-06
-0.000312652
0.000211594
-8.91623e-06
7.27664e-05
-0.000138164
7.78937e-06
3.17306e-05
-0.000227012
-7.07696e-06
4.4945e-05
-6.85759e-05
-1.50224e-06
-6.76972e-05
0.000202088
-6.49063e-06
-0.000261148
-0.000166092
1.6128e-06
1.70645e-06
-0.00016178
2.01547e-05
1.11385e-06
-0.000285103
-0.000177026
9.30402e-06
-0.000148849
4.82179e-05
6.78923e-07
5.19822e-05
3.14021e-05
-2.79154e-06
-0.000128289
-1.38694e-05
-0.000154921
-2.79149e-06
7.07265e-05
-0.000326924
-5.88931e-06
-0.000126678
7.60936e-05
1.61999e-06
-7.39958e-06
0.000119319
-8.36135e-06
-0.00028505
0.000297854
-7.44588e-06
-0.000440455
3.42094e-05
7.22529e-05
9.27019e-06
0.000174352
-0.00011031
6.01478e-06
-4.84215e-06
-2.06708e-05
-1.77391e-05
0.000155739
2.51407e-05
-1.69743e-05
7.43003e-05
-4.96236e-06
-0.00014882
-4.89321e-05
-1.38484e-05
-2.68256e-06
1.07737e-05
1.03315e-05
-1.90341e-07
-8.78546e-06
7.82703e-06
3.8433e-06
-1.67279e-05
1.13011e-05
-1.26213e-06
-2.27521e-07
4.75486e-06
7.78602e-06
2.43138e-05
-1.83182e-05
-2.18458e-05
-2.27912e-06
3.59707e-05
-1.30993e-05
-5.70469e-06
2.4321e-05
-2.45166e-05
-2.09895e-05
5.08536e-05
-3.31497e-05
-1.29754e-05
1.67339e-06
-7.97873e-06
9.90346e-06
-1.94508e-05
7.09116e-07
-6.45338e-06
-3.56093e-07
1.79805e-05
2.47598e-06
-1.58613e-05
2.73698e-05
-1.70218e-05
6.34835e-06
-2.86265e-05
-2.02069e-06
2.75292e-06
1.83644e-05
-8.30809e-06
7.14174e-06
6.93841e-06
-1.07823e-05
-7.69953e-06
3.34049e-06
1.94048e-05
9.47847e-06
-3.05027e-06
2.97431e-05
-1.35623e-05
-9.03121e-06
6.41316e-06
-8.06227e-06
-9.34662e-06
-5.37769e-06
2.63892e-06
1.85823e-05
-1.6826e-05
-1.93737e-05
4.17925e-06
1.66551e-06
5.05441e-06
-4.4334e-06
-1.59784e-06
-3.88838e-06
2.01099e-06
-4.68954e-06
-6.67961e-06
-7.5141e-06
-1.61627e-06
-1.95547e-07
-4.09898e-06
-7.10667e-06
1.14106e-05
8.91756e-06
9.47254e-06
-2.92403e-07
1.66069e-05
1.19423e-08
4.11547e-06
1.12977e-05
1.16554e-05
1.56978e-05
2.30576e-05
1.54186e-05
1.24667e-05
8.17085e-07
1.59949e-06
-4.41276e-06
-8.82251e-06
-2.21097e-06
8.47544e-06
6.00117e-07
8.67092e-06
4.98526e-07
8.18248e-06
1.28272e-05
9.14628e-06
-4.35592e-07
-1.38092e-05
2.52365e-06
-3.6823e-07
8.00636e-06
7.08331e-06
-9.52446e-06
3.15275e-06
9.3544e-06
3.5914e-06
-2.41741e-06
8.50468e-06
-4.81592e-06
6.20396e-06
1.31424e-05
8.26356e-06
4.71454e-06
3.29363e-06
4.34604e-06
8.81316e-07
-2.69806e-06
4.61804e-07
8.71882e-06
3.71702e-06
8.69406e-06
2.44526e-06
1.10827e-06
1.75861e-06
-3.46103e-06
-3.12341e-07
-1.69231e-06
3.19413e-07
-2.66641e-06
-4.49562e-07
-4.65681e-06
-8.20989e-07
-2.0757e-07
-2.3002e-06
-3.99349e-06
3.38291e-06
5.64592e-06
5.55148e-06
-2.32092e-07
6.02894e-06
-2.80445e-07
2.26843e-06
4.04103e-06
5.98695e-06
8.70625e-06
7.40769e-06
8.6772e-06
6.99329e-06
2.21571e-08
3.61355e-07
-2.33908e-06
-1.56532e-06
-2.28498e-06
4.37545e-06
9.66839e-07
2.57282e-06
3.71904e-07
5.54759e-06
4.02246e-06
5.07031e-06
-4.33662e-07
-3.4707e-06
1.36733e-06
-6.78972e-07
2.22031e-06
4.20562e-06
-5.51898e-06
7.01921e-07
5.85232e-06
1.4411e-06
-1.79706e-06
3.07944e-06
-3.33195e-06
3.21111e-06
3.77587e-06
4.41856e-06
2.46278e-06
1.27072e-06
2.70503e-06
6.49421e-08
-9.6249e-07
1.30684e-07
2.06383e-06
2.10307e-06
5.72484e-06
-1.86965e-06
-1.93401e-06
1.4094e-06
8.23252e-08
1.89269e-06
7.73874e-07
-1.86828e-07
-3.11853e-06
1.08047e-06
2.32839e-06
-1.2678e-06
3.76225e-06
-3.02919e-06
9.29207e-07
5.19047e-07
-3.08643e-06
-6.65221e-07
-1.17112e-07
1.89978e-07
-3.58937e-06
4.68075e-07
3.40848e-08
8.68738e-07
-1.37569e-06
-2.03025e-07
-1.05505e-06
-7.04459e-07
7.13374e-08
1.32287e-06
3.29314e-07
2.43017e-06
-2.05975e-06
4.0551e-07
-1.94871e-06
-3.08022e-06
7.59815e-07
-9.93683e-07
3.64494e-09
-2.08816e-06
6.41993e-07
5.34742e-07
8.86638e-07
-1.75087e-06
-1.22655e-06
5.86814e-07
-8.14475e-07
-1.52854e-06
-4.24299e-07
-3.99623e-07
-1.76554e-06
2.11141e-06
2.62635e-06
4.48197e-07
2.15196e-07
1.83864e-06
2.68906e-06
4.9742e-06
2.89675e-06
3.44697e-06
4.9382e-07
-2.78079e-07
-6.83716e-07
2.84671e-06
9.78014e-07
6.17429e-07
3.15536e-06
3.17224e-06
8.59278e-07
1.26546e-06
5.90289e-07
2.90986e-06
-3.04111e-06
3.08847e-06
1.24644e-06
-1.11847e-06
-7.87721e-07
1.15756e-06
2.26974e-06
1.28409e-06
1.15239e-06
2.74754e-07
6.88795e-07
9.00464e-07
2.31911e-06
7.05896e-05
-0.000134137
1.57971e-05
-0.000113374
-1.16942e-05
-8.41215e-05
-2.04886e-05
-0.000329674
2.69435e-06
-0.000155768
1.02195e-05
-0.00014887
7.70192e-06
0.00016919
-1.69637e-05
9.34688e-05
3.92284e-06
-5.74474e-05
2.58061e-05
0.000208948
5.80578e-06
0.000189585
6.51067e-06
0.000175727
7.63394e-06
0.000107706
3.62873e-06
-5.15388e-05
-1.00951e-05
-0.000115811
-1.35635e-05
-0.000189473
-4.45436e-06
-0.000191859
6.06323e-06
-5.74658e-05
2.87142e-06
1.51252e-05
-6.8697e-06
0.000126753
-1.38388e-05
0.000368003
-1.14163e-05
0.000167346
1.05334e-07
9.42796e-05
1.02795e-05
6.19347e-05
1.30364e-06
-5.12594e-05
-5.01047e-06
-0.000130821
-1.7813e-05
-0.000164501
2.23101e-06
1.982e-05
1.86877e-05
-1.47953e-05
-4.9755e-06
1.28139e-06
1.62322e-05
5.61478e-06
-1.71588e-05
-4.49768e-06
2.41943e-05
-1.39571e-05
2.42873e-05
-1.4672e-05
-9.40841e-06
6.12497e-06
-3.77396e-05
3.86726e-06
-1.64398e-05
-1.15884e-05
2.94802e-05
-5.87606e-06
-2.3816e-05
1.3677e-05
-4.46922e-05
2.45595e-05
-7.84142e-06
1.30221e-05
1.58089e-05
-1.04044e-05
1.39598e-05
-3.66918e-06
-2.64273e-05
-5.8315e-06
-5.39026e-09
-3.34812e-06
-1.36903e-05
4.08292e-06
-6.29371e-06
2.35635e-06
-1.35783e-05
-6.76747e-06
-1.48697e-05
1.83178e-05
-3.65131e-05
2.89707e-06
7.52466e-06
-7.8878e-06
3.02057e-05
6.64362e-06
-2.33804e-05
1.94753e-06
-8.15533e-06
-1.52694e-05
1.52164e-06
-1.11689e-05
-2.1487e-05
-6.11684e-06
-2.7732e-06
4.304e-06
-2.78911e-06
1.61023e-07
8.8632e-06
-7.83573e-06
-7.15134e-06
-2.22931e-06
1.10743e-05
7.82291e-06
1.01398e-05
1.18922e-05
-4.55743e-06
-9.44325e-06
-1.64117e-05
-7.97368e-06
-8.43088e-06
8.13625e-06
1.34043e-05
5.6507e-06
-9.67113e-06
-4.316e-06
-1.93143e-05
-6.67512e-06
-3.87812e-06
-1.17372e-06
8.10707e-06
6.11997e-06
6.66223e-06
-2.30341e-10
-1.18383e-05
6.61516e-07
-1.66777e-07
2.73085e-06
-6.60642e-06
2.24418e-06
-3.27695e-06
3.52397e-06
-7.76942e-06
5.75121e-06
-7.73697e-06
-1.42874e-05
-1.64702e-05
-7.03526e-06
3.88103e-06
4.8922e-06
1.34696e-05
1.69125e-07
-1.03928e-05
9.45336e-08
-3.73111e-06
1.90288e-06
1.75068e-07
-8.16208e-07
-1.00733e-05
-2.62891e-06
-2.20297e-06
2.52782e-06
-1.00767e-06
1.31293e-07
3.06854e-06
-3.77631e-06
-2.92836e-06
-7.22926e-07
3.35862e-06
4.85056e-06
2.27088e-06
6.44673e-06
-4.87677e-07
-5.10427e-06
-4.8666e-06
-5.1476e-06
-2.87159e-06
4.30264e-06
3.67899e-06
3.57097e-06
-2.93471e-06
-2.84297e-06
-4.20807e-06
-4.60597e-06
-1.75347e-06
-9.43986e-07
2.16466e-06
4.37147e-06
1.35674e-06
8.03853e-07
-3.89418e-06
1.12608e-06
-1.23726e-07
2.1667e-06
-2.57635e-06
1.72533e-06
-1.46175e-06
1.63694e-06
-3.46928e-06
2.33303e-06
-2.57647e-06
-8.52136e-06
-5.62435e-06
-3.67125e-06
4.94876e-07
3.17323e-06
3.33033e-06
2.18782e-07
-3.00452e-06
-1.73306e-07
-6.30079e-07
7.25612e-07
-5.91862e-07
-8.47386e-07
-2.77434e-06
-9.47503e-07
-1.50949e-06
1.40532e-06
-1.83329e-07
-2.52044e-06
-6.96143e-07
1.16123e-06
2.79075e-06
-2.05336e-06
-2.30347e-06
1.58742e-06
1.34852e-06
4.51231e-08
-1.2208e-06
2.43392e-07
1.5974e-06
5.5453e-07
1.05148e-06
1.64894e-06
1.45491e-06
9.05832e-07
1.44322e-06
-4.17979e-06
-2.4375e-06
1.10351e-07
-6.22628e-07
-9.84364e-08
2.11277e-09
-4.5172e-07
-0.00017738
6.92889e-05
2.53553e-06
-0.000110983
2.34893e-05
0.000148814
5.40576e-06
7.72792e-07
1.20554e-06
1.67147e-05
-1.69339e-06
1.30321e-05
)
;

boundaryField
{
    top_fluid_surface
    {
        type            calculated;
        value           nonuniform List<scalar> 
64
(
-2.0864e-05
0.000144623
-1.48686e-05
-0.000214792
-0.0001911
-0.000285073
-0.000369284
-0.000220462
-8.67697e-05
-6.47249e-05
0.000372454
-0.00014833
0.0001059
-0.000152627
0.000121499
-0.0001779
0.000161513
0.000509874
0.000229823
0.000543516
-0.000157062
0.000146105
0.000459211
0.000438898
-0.000438337
0.000194902
0.00023621
0.000339047
0.000360338
3.04023e-05
2.32499e-06
0.000444496
-0.000101703
0.000270605
2.43713e-05
0.000285373
-0.000253406
-0.000276428
-0.000301042
-9.61213e-05
-3.75062e-05
-0.000560875
-0.000137361
3.78676e-05
-2.38812e-05
0.000169
6.45367e-05
0.000149716
-0.000131444
-0.000143395
-0.000350251
-0.000536898
-0.000231886
0.000237719
0.000238389
2.27897e-05
0.000309556
0.000173214
-1.83807e-05
-0.00031922
-0.000534226
-0.000124642
-0.000225728
7.01127e-05
)
;
    }
    bottom_fluid_surface
    {
        type            calculated;
        value           uniform 0;
    }
    lateral_surface_1
    {
        type            calculated;
        value           uniform 0;
    }
    lateral_surface_2
    {
        type            calculated;
        value           uniform 0;
    }
    lateral_surface_3
    {
        type            calculated;
        value           uniform 0;
    }
    lateral_surface_4
    {
        type            calculated;
        value           uniform 0;
    }
}


// ************************************************************************* //
