/*--------------------------------*- C++ -*----------------------------------*\
| =========                 |                                                 |
| \\      /  F ield         | OpenFOAM: The Open Source CFD Toolbox           |
|  \\    /   O peration     | Version:  v1612+                                |
|   \\  /    A nd           | Web:      www.OpenFOAM.com                      |
|    \\/     M anipulation  |                                                 |
\*---------------------------------------------------------------------------*/
FoamFile
{
    version     2.0;
    format      ascii;
    class       surfaceScalarField;
    location    "0.6";
    object      alphaPhi;
}
// * * * * * * * * * * * * * * * * * * * * * * * * * * * * * * * * * * * * * //

dimensions      [0 3 -1 0 0 0 0];

internalField   nonuniform List<scalar> 
2916
(
2.17961e-08
0.0445567
-0.0445567
-5.12628e-08
0.0445569
-0.0445568
-1.24649e-07
0.044557
-0.0445569
-1.33475e-07
0.044557
-0.0445569
-8.10351e-08
0.0445569
-0.044557
0.0445569
-0.0445569
2.67957e-07
0.122533
-0.0779761
5.52112e-07
0.122533
-0.0779763
7.70326e-07
0.122533
-0.0779762
7.48032e-07
0.122533
-0.0779759
4.31682e-07
0.122533
-0.0779755
0.122532
-0.0779751
5.778e-07
0.267375
-0.144843
1.01375e-06
0.267376
-0.144843
1.12511e-06
0.267376
-0.144843
1.05948e-06
0.267375
-0.144842
6.56524e-07
0.267375
-0.144842
0.267375
-0.144842
2.63586e-07
0.622555
-0.35518
3.50451e-07
0.622556
-0.35518
1.25054e-07
0.622555
-0.35518
-9.81255e-09
0.622555
-0.35518
-1.3462e-08
0.622555
-0.35518
0.622554
-0.35518
-3.85931e-07
0.000432219
-0.0120934
-1.81747e-07
0.00043222
-0.0120939
-4.78239e-08
0.000432265
-0.0120937
-1.65836e-07
0.000432268
-0.0120936
-2.48292e-07
0.000432264
-0.0120936
0.000432245
-0.0120936
-4.80548e-08
8.32189e-07
0.00037228
-3.62984e-08
8.32112e-07
0.00037225
-3.53357e-08
8.32334e-07
0.000372279
-4.45841e-08
8.32468e-07
0.000372289
-4.34715e-08
8.32439e-07
0.000372284
8.3228e-07
0.000372242
-1.06396e-10
6.35594e-10
6.13577e-07
-3.38356e-10
6.36158e-10
6.13648e-07
-3.07702e-10
6.36357e-10
6.13641e-07
-1.42675e-10
6.3643e-10
6.13637e-07
-4.21107e-11
6.36443e-10
6.13665e-07
6.36016e-10
6.13581e-07
-5.96589e-13
1.56308e-13
4.05815e-10
-6.62397e-13
1.56781e-13
4.06033e-10
-4.5828e-13
1.56447e-13
4.05972e-10
-1.47994e-13
1.56181e-13
4.05855e-10
9.00324e-14
1.56192e-13
4.05875e-10
1.56163e-13
4.05798e-10
-6.30675e-17
1.51361e-16
1.18142e-13
4.20227e-16
1.51384e-16
1.18157e-13
5.92696e-16
1.51302e-16
1.18045e-13
4.60339e-16
1.51217e-16
1.17952e-13
2.6412e-16
1.51154e-16
1.17923e-13
1.5112e-16
1.17923e-13
1.96913e-19
-0
2.42522e-17
2.65427e-19
-0
2.42864e-17
2.37858e-19
-0
2.45133e-17
1.67163e-19
-0
2.47383e-17
8.65303e-20
-0
2.48836e-17
-0
2.49246e-17
0
0
0
0
0
0
0
0
0
0
0
0
0
0
0
0
0
0
0
0
0
0
0
0
0
0
0
0
-1.58383e-07
0.0111539
-0.0557105
-4.31408e-07
0.0111541
-0.0557106
-6.02641e-07
0.0111539
-0.0557107
-6.28798e-07
0.0111536
-0.0557107
-4.39276e-07
0.0111533
-0.0557106
0.0111531
-0.0557104
2.10185e-07
0.038548
-0.10537
3.88372e-07
0.0385482
-0.105371
5.52392e-07
0.0385479
-0.10537
5.59141e-07
0.0385475
-0.10537
3.14118e-07
0.038547
-0.105369
0.0385466
-0.105368
5.53247e-07
0.0973135
-0.203609
1.06093e-06
0.0973138
-0.203609
1.24824e-06
0.0973134
-0.203609
1.14206e-06
0.0973128
-0.203608
7.19738e-07
0.0973123
-0.203607
0.097312
-0.203606
-1.27775e-08
0.202866
-0.460733
2.77744e-07
0.202866
-0.460733
1.75612e-07
0.202866
-0.460732
-1.55187e-08
0.202865
-0.460732
-2.19381e-08
0.202864
-0.460732
0.202864
-0.460731
-4.92157e-07
-0.000372197
-9.76223e-09
-2.46408e-07
-0.000372166
-9.72922e-09
-7.90747e-08
-0.000372196
-9.74028e-09
2.42985e-08
-0.000372206
-9.74748e-09
1.40055e-07
-0.000372201
-9.7516e-09
-0.000372159
-9.7495e-09
-1.23325e-10
-4.46692e-07
8.49409e-08
-1.8627e-10
-4.46711e-07
8.49141e-08
-1.25098e-10
-4.46802e-07
8.49288e-08
-6.03091e-11
-4.46837e-07
8.4933e-08
-2.58389e-11
-4.46862e-07
8.49284e-08
-4.46741e-07
8.49082e-08
6.83783e-13
-4.04852e-10
-2.162e-10
1.64648e-12
-4.05069e-10
-2.15637e-10
1.91664e-12
-4.0501e-10
-2.16432e-10
1.2847e-12
-4.04894e-10
-2.16767e-10
2.0724e-13
-4.04915e-10
-2.1673e-10
-4.04837e-10
-2.1613e-10
-9.87293e-17
-1.2632e-13
9.06581e-13
1.34691e-15
-1.26329e-13
9.06174e-13
2.00927e-15
-1.26226e-13
9.05399e-13
1.70195e-15
-1.26134e-13
9.0499e-13
7.02779e-16
-1.26103e-13
9.04972e-13
-1.26094e-13
9.0484e-13
7.21174e-19
-1.67202e-20
3.04365e-16
7.96813e-19
-1.67434e-20
3.03325e-16
6.95672e-19
-1.69011e-20
3.03678e-16
5.92443e-19
-1.70578e-20
3.04048e-16
3.8533e-19
-1.71595e-20
3.04137e-16
-1.71861e-20
3.04049e-16
3.28373e-23
-0
2.40838e-21
1.71016e-23
-0
2.46036e-21
8.60207e-26
-0
2.52233e-21
-5.33069e-24
-0
2.5704e-21
-3.05491e-24
-0
2.59618e-21
-0
2.6005e-21
0
0
0
0
0
0
0
0
0
0
0
0
0
0
0
0
0
0
0
0
0
0
0
0
0
0
0
0
-4.7237e-07
-0.0359357
-0.0197744
-9.24571e-07
-0.0359359
-0.0197744
-1.02755e-06
-0.0359363
-0.0197744
-8.65728e-07
-0.0359367
-0.0197742
-5.10397e-07
-0.0359371
-0.0197739
-0.0359372
-0.0197737
1.0247e-07
-0.0661357
-0.0751704
8.77356e-08
-0.0661359
-0.0751705
1.41534e-07
-0.0661366
-0.07517
1.95001e-07
-0.0661373
-0.0751692
1.04576e-07
-0.0661377
-0.0751682
-0.0661379
-0.0751675
4.19912e-07
-0.077865
-0.191881
8.16321e-07
-0.0778653
-0.19188
8.46911e-07
-0.0778658
-0.191879
5.68136e-07
-0.0778663
-0.191878
2.27575e-07
-0.0778667
-0.191878
-0.0778668
-0.191877
-4.97341e-07
-6.10123e-07
-0.464727
-2.58368e-07
-6.07425e-07
-0.464727
-3.81202e-07
-6.08384e-07
-0.464726
-3.95746e-07
-6.09042e-07
-0.464725
1.73254e-08
-6.09427e-07
-0.464725
-6.09173e-07
-0.464724
4.44589e-14
-3.91336e-08
3.75518e-09
1.44677e-13
-3.91158e-08
3.73808e-09
1.77648e-13
-3.91238e-08
3.74419e-09
2.61529e-13
-3.91286e-08
3.74849e-09
4.20338e-13
-3.91299e-08
3.75107e-09
-3.91189e-08
3.74962e-09
1.19225e-12
3.37799e-10
5.90464e-11
1.57583e-12
3.37747e-10
5.90142e-11
2.29145e-12
3.3778e-10
5.90251e-11
2.41449e-12
3.37792e-10
5.90312e-11
1.74966e-12
3.37783e-10
5.90276e-11
3.37638e-10
5.90098e-11
1.04793e-15
-6.34353e-13
-2.82463e-13
4.8e-15
-6.34075e-13
-2.82369e-13
6.88611e-15
-6.3354e-13
-2.8243e-13
5.9774e-15
-6.33258e-13
-2.82436e-13
2.80975e-15
-6.33245e-13
-2.82363e-13
-6.3316e-13
-2.82265e-13
1.69494e-18
-2.48241e-18
6.93207e-17
2.57186e-18
-2.471e-18
7.04623e-17
2.44097e-18
-2.47106e-18
7.0942e-17
1.56021e-18
-2.47247e-18
7.11709e-17
3.11208e-19
-2.47261e-18
7.11522e-17
-2.47093e-18
7.10969e-17
8.04857e-22
-2.41452e-24
4.98606e-20
5.61728e-22
-2.46784e-24
4.98669e-20
3.13085e-22
-2.53145e-24
5.0237e-20
1.9261e-22
-2.58072e-24
5.04446e-20
5.46161e-23
-2.60691e-24
5.05196e-20
-2.6104e-24
5.05493e-20
-2.44773e-27
-0
-0
-5.32449e-27
-0
-0
-6.14332e-27
-0
-0
-5.11297e-27
-0
-0
-2.98558e-27
-0
-0
-0
-0
0
0
0
0
0
0
0
0
0
0
0
0
0
0
0
0
0
0
0
0
0
0
0
0
0
0
0
0
-5.70105e-07
-0.0845588
0.064785
-9.29785e-07
-0.0845592
0.0647851
-8.91974e-07
-0.0845596
0.0647852
-5.45895e-07
-0.0845598
0.0647853
-1.79526e-07
-0.0845599
0.0647855
-0.0845595
0.0647855
-2.59987e-07
-0.176537
0.0168077
-6.3851e-07
-0.176537
0.0168078
-8.59119e-07
-0.176538
0.0168081
-8.63924e-07
-0.176538
0.0168087
-5.95809e-07
-0.176538
0.0168093
-0.176537
0.0168096
-3.51685e-07
-0.263046
-0.105369
-5.26054e-07
-0.263047
-0.105369
-7.75524e-07
-0.263047
-0.105368
-1.02773e-06
-0.263047
-0.105367
-8.28877e-07
-0.263047
-0.105367
-0.263047
-0.105367
-3.36839e-07
-6.66392e-09
-0.49677
9.25801e-08
-6.64602e-09
-0.49677
1.13251e-07
-6.65246e-09
-0.496769
-3.53796e-07
-6.65705e-09
-0.496769
-6.0869e-07
-6.65961e-09
-0.496768
-6.65712e-09
-0.496767
2.42295e-15
-5.59516e-11
4.32773e-11
1.9368e-15
-5.59219e-11
4.31627e-11
1.56593e-15
-5.59314e-11
4.32044e-11
1.21781e-15
-5.59386e-11
4.32359e-11
-1.10663e-16
-5.59396e-11
4.32552e-11
-5.59269e-11
4.32416e-11
4.06609e-15
2.87005e-13
3.49305e-13
4.31432e-15
2.869e-13
3.48885e-13
7.83158e-15
2.86964e-13
3.49015e-13
1.04824e-14
2.86972e-13
3.49148e-13
7.48653e-15
2.869e-13
3.49236e-13
2.86793e-13
3.49103e-13
4.55554e-19
-3.83575e-17
7.82733e-17
1.98398e-18
-3.82911e-17
7.79762e-17
2.78767e-18
-3.82321e-17
7.83766e-17
3.32249e-18
-3.82076e-17
7.84516e-17
3.71676e-18
-3.82102e-17
7.82316e-17
-3.81932e-17
7.83235e-17
3.54463e-21
-9.85948e-23
-0
4.13418e-21
-9.86836e-23
-0
3.2037e-21
-9.95208e-23
-0
1.75042e-21
-9.99708e-23
-0
9.40382e-22
-1.00118e-22
-0
-1.00165e-22
-0
5.49825e-27
-0
-0
-1.94621e-26
-0
-0
-3.33675e-26
-0
-0
-3.67422e-26
-0
-0
-2.75542e-26
-0
-0
-0
-0
0
0
0
0
0
0
0
0
0
0
0
0
0
0
0
0
0
0
0
0
0
0
0
0
0
0
0
0
0
0
0
0
0
0
0
0
0
0
0
0
0
0
0
0
0
0
0
0
0
0
0
0
0
0
0
0
0
0
0
0
0
0
0
0
0
0
0
0
0
0
0
0
0
0
0
0
0
0
0
0
0
0
0
0
0
0
0
0
0
0
0
0
0
0
0
0
0
0
0
0
0
0
0
0
0
0
0
0
0
0
0
0
0
0
0
0
0
0
0
0
0
0
0
0
0
0
0
0
0
0
0
0
0
0
0
0
0
0
0
0
0
0
0
0
0
0
0
0
0
0
0
0
0
0
0
0
0
0
0
0
0
0
0
0
0
0
0
0
0
0
0
0
0
0
0
0
0
0
0
0
0
0
0
0
0
0
0
0
0
0
0
0
0
0
0
0
0
0
0
0
0
0
0
0
0
0
0
0
0
0
0
0
0
0
0
0
0
0
0
0
0
0
0
0
0
0
0
0
0
0
0
0
0
0
0
0
0
0
0
0
0
0
0
0
0
0
0
0
0
0
0
0
0
0
0
0
0
0
0
0
0
0
0
0
0
0
0
0
0
0
0
0
0
0
0
0
0
0
0
0
0
0
0
0
0
0
0
0
0
0
0
0
0
0
0
0
0
0
0
0
0
0
0
0
0
0
0
0
0
0
0
0
0
0
0
0
0
0
0
0
0
0
0
0
0
0
0
0
0
0
0
0
0
0
0
0
0
0
0
0
0
0
0
0
0
0
0
0
0
0
0
0
0
0
0
0
0
0
0
0
0
0
0
0
0
0
0
0
0
0
0
0
0
0
0
0
0
0
0
0
0
0
0
0
0
0
0
0
0
0
0
0
0
0
0
0
0
0
0
0
0
0
0
0
0
0
0
0
0
0
0
0
0
0
0
0
0
0
0
0
0
0
0
0
0
0
0
0
0
0
0
0
0
0
0
0
0
0
0
0
0
0
0
0
0
0
0
0
0
0
0
0
0
0
0
0
0
0
0
0
0
0
0
0
0
0
0
0
0
0
0
0
0
0
0
0
0
0
0
0
0
0
0
0
0
0
0
0
0
0
0
0
0
0
0
0
0
0
0
0
0
0
0
0
0
0
0
0
0
0
0
0
0
0
0
0
0
0
0
0
0
0
0
0
0
0
0
0
0
0
0
0
0
0
0
0
0
0
0
0
0
0
0
0
0
0
0
0
0
0
0
0
0
0
0
0
0
0
0
0
0
0
0
0
0
0
0
0
0
0
0
0
0
0
0
0
0
0
0
0
0
0
0
0
0
0
0
0
0
0
0
0
0
0
0
0
0
0
0
0
0
0
0
0
0
0
0
0
0
0
0
0
0
0
0
0
0
0
0
0
0
0
0
0
0
0
0
0
0
0
0
0
0
0
0
0
0
0
0
0
0
0
0
0
0
0
0
0
0
0
0
0
0
0
0
0
0
0
0
0
0
0
0
0
0
0
0
0
0
0
0
0
0
0
0
0
0
0
0
0
0
0
0
0
0
0
0
0
0
0
0
0
0
0
0
0
0
0
0
0
0
0
0
0
0
0
0
0
0
0
0
0
0
0
0
0
0
0
0
0
0
0
0
0
0
0
0
0
0
0
0
0
0
0
0
0
0
0
0
0
0
0
0
0
0
0
0
0
0
0
0
0
0
0
0
0
0
0
0
0
0
0
0
0
0
0
0
0
0
0
0
0
0
0
0
0
0
0
0
0
0
0
0
0
0
0
0
0
0
0
0
0
0
0
0
0
0
0
0
0
0
0
0
0
0
0
0
0
0
0
0
0
0
0
0
0
0
0
0
0
0
0
0
0
0
0
0
0
0
0
0
0
0
0
0
0
0
-2.93444e-07
0.204833
-0.140047
-4.1397e-07
0.204833
-0.140048
-4.96433e-07
0.204833
-0.140048
-4.54443e-07
0.204833
-0.140048
-2.73257e-07
0.204833
-0.140048
0.204833
-0.140048
-1.90001e-07
0.369348
-0.164515
-2.20671e-07
0.369348
-0.164515
-2.47696e-07
0.369348
-0.164515
-2.77559e-07
0.369348
-0.164515
-1.0081e-07
0.369348
-0.164516
0.369348
-0.164515
-3.65719e-08
-0.196569
-8.43676e-08
-0.196569
-1.29685e-07
-0.196569
-1.4919e-07
-0.196569
-2.85371e-08
-0.196569
-0.196568
-3.49901e-07
0.181278
-0.304517
-7.17859e-07
0.181278
-0.304518
-9.15246e-07
0.181279
-0.304518
-9.43846e-07
0.181279
-0.304518
-5.038e-07
0.181279
-0.304518
0.181279
-0.304518
-8.82109e-08
0.419982
-0.403219
-2.86709e-07
0.419982
-0.403219
-4.15537e-07
0.419982
-0.403219
-4.41889e-07
0.419982
-0.403219
-2.0116e-07
0.419982
-0.403219
0.419982
-0.403219
-5.61814e-08
-0.559478
-1.50016e-07
-0.559478
-1.75318e-07
-0.559478
-7.39009e-08
-0.559478
-1.12036e-07
-0.559478
-0.559478
-3.62155e-07
0.101298
-0.51117
-7.872e-07
0.101298
-0.51117
-8.60422e-07
0.101299
-0.51117
-7.046e-07
0.101299
-0.51117
-3.26871e-07
0.101299
-0.51117
0.101299
-0.51117
2.35726e-08
0.589587
-0.891396
-2.60679e-07
0.589588
-0.891395
-3.29766e-07
0.589588
-0.891395
-1.83605e-07
0.589588
-0.891395
-1.44125e-07
0.589588
-0.891395
0.589587
-0.891395
2.2473e-08
-1.34076
3.89824e-08
-1.34076
-1.60305e-08
-1.34076
2.80553e-08
-1.34076
3.21023e-08
-1.34076
-1.34076
-2.04058e-07
-0.446926
-5.12482e-11
-3.29449e-07
-0.446926
-5.11317e-11
-4.27159e-07
-0.446926
-5.11734e-11
-4.74142e-07
-0.446926
-5.12061e-11
-3.46884e-07
-0.446926
-5.12263e-11
-0.446925
-5.12092e-11
-3.61236e-08
0.573469
-2.12993e-13
-2.5044e-07
0.573469
-2.1252e-13
-2.54243e-07
0.573469
-2.12691e-13
-2.15018e-07
0.573469
-2.1283e-13
-2.37151e-07
0.573469
-2.12922e-13
0.573469
-2.1286e-13
6.94532e-08
-5.58768e-213
-1.3064e-07
-4.78944e-213
-7.30856e-08
-5.58768e-213
1.46295e-08
-6.38592e-213
-1.38761e-07
-6.38592e-213
-9.57888e-213
-9.33384e-18
2.08304e-13
-3.42034e-13
-1.30599e-17
2.07837e-13
-3.41618e-13
-2.13397e-17
2.08005e-13
-3.41751e-13
-2.46023e-17
2.08143e-13
-3.4188e-13
-1.782e-17
2.08233e-13
-3.41962e-13
2.08173e-13
-3.41836e-13
-3.01147e-20
-4.38107e-215
-4.68916e-15
-3.67146e-20
-3.75521e-215
-4.68377e-15
-4.1628e-20
-4.38106e-215
-4.68544e-15
-3.7837e-20
-5.0069e-215
-4.68728e-15
-2.00556e-20
-5.00688e-215
-4.68853e-15
-7.51024e-215
-4.6868e-15
2.68478e-221
-0
-3.35529e-220
-0
-4.12787e-220
-0
-3.43169e-220
-0
-5.38774e-220
-0
-0
-7.92692e-19
5.15221e-15
-5.96925e-17
6.94764e-19
5.14662e-15
-5.97343e-17
-1.76267e-18
5.14837e-15
-5.96534e-17
-2.13297e-18
5.15025e-15
-5.9645e-17
1.75755e-18
5.15154e-15
-5.9702e-17
5.14982e-15
-5.96763e-17
-4.76173e-21
-0
-0
6.65756e-22
-0
-0
-3.60762e-21
-0
-0
-6.09871e-21
-0
-0
5.94258e-22
-0
-0
-0
-0
0
0
0
0
0
0
0
0
0
0
0
8.9464e-23
-0
-0
4.5413e-22
-0
-0
-3.85675e-22
-0
-0
-9.31928e-22
-0
-0
-6.88775e-23
-0
-0
-0
-0
0
0
0
0
0
0
0
0
0
0
0
0
0
0
0
0
0
0
0
0
0
0
0
0
0
0
0
0
0
0
0
0
0
0
0
0
0
0
0
0
0
0
0
0
0
0
0
0
0
0
0
0
0
0
0
0
0
0
0
0
0
0
0
0
0
0
0
0
0
0
0
0
0
0
0
0
0
0
0
0
0
0
0
0
0
0
0
0
0
0
0
0
0
0
0
0
0
0
0
0
0
0
0
0
0
0
0
0
0
0
0
0
0
0
0
0
0
0
0
0
0
0
0
0
0
0
0
0
0
0
0
0
0
0
0
0
0
0
0
0
0
0
0
0
0
0
0
0
0
0
0
0
0
0
0
0
0
0
0
0
0
0
0
0
0
0
0
0
0
0
0
0
0
0
0
0
0
0
0
0
0
0
0
0
0
0
0
0
0
0
0
0
0
0
0
0
0
0
0
0
0
0
0
0
0
0
0
0
0
0
0
0
0
0
0
0
0
0
0
0
0
0
0
0
0
0
0
0
0
0
0
0
0
0
0
0
0
0
0
0
0
0
0
0
0
0
0
0
0
0
0
0
0
0
0
0
0
0
0
0
0
0
0
0
0
0
0
0
0
0
0
0
0
0
0
0
0
0
0
0
0
0
0
0
0
0
0
0
0
0
0
0
0
0
0
0
0
0
0
0
0
0
0
0
0
0
0
0
0
0
0
0
0
0
0
0
0
0
0
0
0
0
0
0
0
0
0
0
0
0
0
0
0
0
0
0
0
0
0
0
0
0
0
0
0
0
0
0
0
0
0
0
0
0
0
0
0
0
0
0
0
0
0
0
0
0
0
0
0
0
0
0
0
0
0
0
0
0
0
0
0
0
0
0
0
0
0
0
0
0
0
0
0
0
0
0
0
0
0
0
0
0
0
0
0
0
0
0
0
0
0
0
0
0
0
0
0
0
0
0
0
0
0
0
0
0
0
0
0
0
0
0
0
0
0
0
0
0
0
0
0
0
0
0
0
0
0
0
0
0
0
0
0
0
0
0
0
0
0
0
0
0
0
0
0
0
0
0
0
0
0
0
0
0
0
0
0
0
0
0
0
0
0
0
0
0
0
0
0
0
0
0
0
0
0
0
0
0
0
0
0
0
0
0
0
0
0
0
0
0
0
0
0
0
0
0
0
0
0
0
0
0
0
0
0
0
0
0
0
0
0
0
0
0
0
0
0
0
0
0
0
0
0
0
0
0
0
0
0
0
0
0
0
0
0
0
0
0
0
0
0
0
0
0
0
0
0
0
0
0
0
0
0
0
0
0
0
0
0
0
0
0
0
0
0
0
0
0
0
0
0
0
0
0
0
0
0
0
0
0
0
0
0
0
0
0
0
0
0
0
0
0
0
0
0
0
0
0
0
0
0
0
0
0
0
0
0
0
0
0
0
0
0
0
0
0
0
0
0
0
0
0
0
0
0
0
0
0
0
0
0
0
0
0
0
0
0
0
0
0
0
0
0
0
0
0
0
0
0
0
0
0
0
0
0
0
0
0
0
0
0
0
0
0
0
0
0
0
0
0
0
0
0
0
0
0
0
0
0
0
0
0
0
0
0
0
0
0
0
0
0
0
0
0
0
0
0
0
0
0
0
0
0
0
0
0
0
0
0
0
0
0
0
0
0
0
0
0
0
0
0
0
0
0
0
0
0
0
0
0
0
0
0
0
0
0
0
0
0
0
0
0
0
0
0
0
0
0
0
0
0
0
0
0
0
0
0
0
0
0
0
0
0
0
0
0
0
0
0
0
0
0
0
0
0
0
0
0
0
0
0
0
0
0
0
0
0
0
0
0
0
0
0
0
0
0
0
0
0
0
0
0
0
0
0
0
0
0
0
0
0
0
0
0
0
0
0
0
0
0
0
0
0
0
0
0
0
0
0
0
0
0
0
0
0
0
0
0
0
0
0
0
0
0
0
0
0
0
0
0
0
0
0
0
0
0
0
0
0
0
0
0
0
0
0
0
0
0
0
0
0
0
0
0
0
0
0
0
0
0
0
0
0
0
0
0
0
0
0
0
0
0
0
0
0
0
0
0
0
0
0
0
0
0
0
0
0
0
0
0
0
0
0
0
0
0
0
0
0
0
0
0
0
0
0
0
0
0
0
0
0
0
0
0
0
0
0
0
0
0
0
0
0
0
0
0
0
0
0
0
0
0
0
0
0
0
0
0
0
0
0
0
0
0
0
0
0
0
0
0
0
0
0
0
0
0
0
0
0
0
0
0
0
0
0
0
0
0
0
0
0
0
0
0
0
0
0
0
0
0
0
0
0
0
0
0
0
0
0
0
0
0
0
0
0
0
0
0
0
0
0
0
0
0
0
)
;

boundaryField
{
    seabed_topleft_surface
    {
        type            calculated;
        value           uniform 0;
    }
    seabed_topright_surface
    {
        type            calculated;
        value           uniform 0;
    }
    breakwater_top_surface
    {
        type            calculated;
        value           uniform 0;
    }
    breakwater_left_surface
    {
        type            calculated;
        value           uniform 0;
    }
    breakwater_right_surface
    {
        type            calculated;
        value           uniform 0;
    }
    water_front_surface
    {
        type            calculated;
        value           uniform 0;
    }
    water_back_surface
    {
        type            calculated;
        value           uniform 0;
    }
    water_left_surface
    {
        type            calculated;
        value           uniform 0;
    }
    water_right_surface
    {
        type            calculated;
        value           uniform 0;
    }
    water_top_surface
    {
        type            calculated;
        value           nonuniform List<scalar> 
180
(
0.565917
0.565917
0.565917
0.565917
0.565917
0.565917
0.782893
0.782893
0.782893
0.782893
0.782893
0.782893
1.37123
1.37123
1.37123
1.37123
1.37123
1.37123
2.01636
2.01636
2.01636
2.01636
2.01636
2.01636
0
0
0
0
0
0
0
0
0
0
0
0
0
0
0
0
0
0
0
0
0
0
0
0
0
0
0
0
0
0
0
0
0
0
0
0
0
0
0
0
0
0
0
0
0
0
0
0
0
0
0
0
0
0
0
0
0
0
0
0
0
0
0
0
0
0
0
0
0
0
0
0
0
0
0
0
0
0
0
0
0
0
0
0
0
0
0
0
0
0
0
0
0
0
0
0
0
0
0
0
0
0
0
0
0
0
0
0
0
0
0
0
0
0
0
0
0
0
0
0
0
0
0
0
0
0
0
0
0
0
0
0
0
0
0
0
0
0
0
0
0
0
0
0
0
0
0
0
0
0
0
0
0
0
0
0
)
;
    }
}


// ************************************************************************* //
