/*--------------------------------*- C++ -*----------------------------------*\
| =========                 |                                                 |
| \\      /  F ield         | OpenFOAM: The Open Source CFD Toolbox           |
|  \\    /   O peration     | Version:  v1612+                                |
|   \\  /    A nd           | Web:      www.OpenFOAM.com                      |
|    \\/     M anipulation  |                                                 |
\*---------------------------------------------------------------------------*/
FoamFile
{
    version     2.0;
    format      ascii;
    class       volScalarField;
    location    "0.6";
    object      p_rgh;
}
// * * * * * * * * * * * * * * * * * * * * * * * * * * * * * * * * * * * * * //

dimensions      [1 -1 -2 0 0 0 0];

internalField   nonuniform List<scalar> 
1116
(
17403.3
17403.3
17403.3
17403.3
17403.3
17403.3
16567
16567
16566.9
16566.9
16566.9
16566.9
15612.7
15612.7
15612.7
15612.7
15612.7
15612.7
8399.65
8399.65
8399.65
8399.65
8399.65
8399.65
401.223
401.224
401.226
401.227
401.227
401.229
8.30367
8.30384
8.30439
8.30482
8.30529
8.30593
9.22703
9.22676
9.22666
9.22666
9.22671
9.22679
1.05672
1.05655
1.05632
1.05599
1.05569
1.05546
-1.77518
-1.77504
-1.77496
-1.77498
-1.7751
-1.77527
-3.04212
-3.0424
-3.04303
-3.04368
-3.04421
-3.04456
-3.45157
-3.45284
-3.45415
-3.45515
-3.45577
-3.45608
-3.59142
-3.59171
-3.59204
-3.59234
-3.59255
-3.59266
18323.3
18323.3
18323.3
18323.3
18323.3
18323.3
18142.6
18142.6
18142.6
18142.6
18142.6
18142.5
18159.2
18159.2
18159.2
18159.2
18159.2
18159.2
14827.5
14827.5
14827.5
14827.5
14827.5
14827.5
241.421
241.422
241.422
241.42
241.419
241.42
0.585859
0.585792
0.585888
0.586157
0.586458
0.586643
-2.43071
-2.43085
-2.43133
-2.43167
-2.43186
-2.43197
-3.68009
-3.68014
-3.68037
-3.68062
-3.68086
-3.68097
-4.14217
-4.14234
-4.14256
-4.14279
-4.14298
-4.14312
-4.14119
-4.14137
-4.14159
-4.14186
-4.14203
-4.14221
-3.9965
-3.99572
-3.99496
-3.99446
-3.99421
-3.99419
-3.81686
-3.81672
-3.81648
-3.81628
-3.81615
-3.81609
19420.9
19420.8
19420.8
19420.8
19420.8
19420.8
20240.9
20240.9
20240.9
20240.9
20240.9
20240.9
21766.4
21766.4
21766.4
21766.4
21766.4
21766.4
23884.4
23884.3
23884.3
23884.3
23884.3
23884.3
-56.546
-56.5451
-56.5446
-56.5441
-56.5435
-56.5432
-15.1276
-15.1273
-15.1273
-15.1272
-15.1272
-15.1273
-11.4797
-11.4795
-11.4796
-11.4797
-11.4798
-11.4799
-7.74978
-7.75009
-7.75012
-7.75006
-7.74995
-7.74974
-5.97356
-5.97388
-5.97405
-5.97414
-5.97412
-5.974
-4.86716
-4.86717
-4.86707
-4.86696
-4.86687
-4.8668
-4.15825
-4.15801
-4.15764
-4.15732
-4.15711
-4.15701
-3.73952
-3.73935
-3.73917
-3.73903
-3.73896
-3.73894
19853.8
19853.8
19853.8
19853.8
19853.8
19853.8
21664.3
21664.3
21664.3
21664.3
21664.3
21664.3
25181.3
25181.3
25181.3
25181.3
25181.3
25181.3
33074.2
33074.2
33074.2
33074.2
33074.2
33074.2
-32.5405
-32.5403
-32.5404
-32.5405
-32.5406
-32.5412
-20.9765
-20.9765
-20.9767
-20.9769
-20.9772
-20.9775
-13.8746
-13.8747
-13.8745
-13.8744
-13.8745
-13.8747
-9.46115
-9.46127
-9.46128
-9.46126
-9.46121
-9.4612
-6.68913
-6.68903
-6.68886
-6.68867
-6.68844
-6.68826
-4.96203
-4.96189
-4.96162
-4.9613
-4.96099
-4.96076
-3.89606
-3.89589
-3.89564
-3.89537
-3.89514
-3.89498
-3.30153
-3.3014
-3.3013
-3.30123
-3.30118
-3.30118
-0.0136665
-0.0136675
-0.0136681
-0.0136681
-0.0136681
-0.013668
-0.0143285
-0.0143296
-0.0143301
-0.01433
-0.0143298
-0.0143295
-0.0156721
-0.0156736
-0.0156741
-0.0156741
-0.0156738
-0.0156733
-0.0177408
-0.0177428
-0.0177434
-0.0177432
-0.0177427
-0.0177421
-0.0205927
-0.0205951
-0.0205956
-0.0205953
-0.0205945
-0.0205935
-0.0242918
-0.0242943
-0.0242946
-0.0242941
-0.024293
-0.0242917
-0.0288887
-0.0288912
-0.028891
-0.0288903
-0.0288889
-0.0288873
-0.0343896
-0.0343917
-0.0343911
-0.0343902
-0.0343887
-0.0343869
-0.040708
-0.0407096
-0.0407085
-0.0407077
-0.0407062
-0.0407045
-0.0476023
-0.0476034
-0.0476023
-0.0476017
-0.0476005
-0.0475991
-0.0543303
-0.0543309
-0.0543297
-0.0543292
-0.0543282
-0.054327
-0.0603471
-0.0603471
-0.0603461
-0.0603456
-0.0603449
-0.060344
-0.0130156
-0.0130163
-0.0130166
-0.0130165
-0.0130163
-0.013016
-0.0136813
-0.013682
-0.0136822
-0.0136821
-0.0136817
-0.0136811
-0.0150373
-0.0150383
-0.0150385
-0.0150383
-0.0150378
-0.015037
-0.0171366
-0.017138
-0.0171382
-0.0171378
-0.017137
-0.0171358
-0.0200541
-0.0200557
-0.0200557
-0.0200551
-0.0200539
-0.0200522
-0.0238801
-0.0238817
-0.0238813
-0.0238804
-0.0238789
-0.0238768
-0.0287044
-0.0287058
-0.028705
-0.0287039
-0.0287021
-0.0286996
-0.0345809
-0.0345819
-0.0345808
-0.0345795
-0.0345776
-0.0345751
-0.0414668
-0.0414674
-0.0414659
-0.0414647
-0.041463
-0.0414607
-0.0491688
-0.0491687
-0.0491673
-0.0491661
-0.0491646
-0.0491626
-0.0575239
-0.0575235
-0.0575221
-0.0575212
-0.0575201
-0.0575186
-0.0658362
-0.0658353
-0.0658341
-0.0658334
-0.0658327
-0.0658315
-0.011728
-0.0117284
-0.0117287
-0.0117285
-0.0117283
-0.011728
-0.0123681
-0.0123686
-0.0123687
-0.0123685
-0.0123681
-0.0123676
-0.0136796
-0.0136803
-0.0136804
-0.0136801
-0.0136795
-0.0136788
-0.0157306
-0.0157316
-0.0157315
-0.0157311
-0.0157302
-0.015729
-0.0186265
-0.0186276
-0.0186274
-0.0186266
-0.0186254
-0.0186238
-0.0225134
-0.0225144
-0.0225138
-0.0225128
-0.0225113
-0.0225092
-0.0275832
-0.027584
-0.0275831
-0.0275818
-0.0275801
-0.0275778
-0.0340894
-0.0340898
-0.0340886
-0.0340874
-0.0340856
-0.0340835
-0.0424117
-0.0424117
-0.0424104
-0.0424093
-0.0424079
-0.042406
-0.0533396
-0.0533389
-0.0533376
-0.0533368
-0.0533358
-0.0533343
-0.065097
-0.0650956
-0.0650941
-0.0650935
-0.0650929
-0.0650918
-0.0782985
-0.0782967
-0.0782953
-0.0782948
-0.0782945
-0.0782938
-0.00985092
-0.00985124
-0.00985138
-0.0098512
-0.00985098
-0.00985069
-0.010429
-0.0104293
-0.0104294
-0.0104292
-0.0104288
-0.0104283
-0.0116228
-0.0116233
-0.0116233
-0.0116229
-0.0116224
-0.0116217
-0.0135159
-0.0135165
-0.0135163
-0.0135159
-0.013515
-0.013514
-0.0162483
-0.0162489
-0.0162485
-0.0162478
-0.0162466
-0.0162452
-0.020035
-0.0200355
-0.0200348
-0.0200338
-0.0200324
-0.0200307
-0.025174
-0.0251743
-0.0251733
-0.0251722
-0.0251708
-0.025169
-0.0320036
-0.0320035
-0.0320025
-0.0320015
-0.0320002
-0.0319986
-0.0407388
-0.0407383
-0.0407372
-0.0407364
-0.0407355
-0.0407342
-0.0511141
-0.0511126
-0.0511113
-0.0511107
-0.05111
-0.051109
-0.0648788
-0.0648758
-0.0648742
-0.0648735
-0.0648732
-0.0648728
-0.0833758
-0.0833723
-0.0833711
-0.0833708
-0.0833712
-0.083372
18650
18650
18650
18650
18650
18650
14341.4
14341.4
14341.4
14341.4
14341.4
14341.4
8378.21
8378.21
8378.2
8378.2
8378.2
8378.19
21716.7
21716.7
21716.7
21716.7
21716.7
21716.7
17389.2
17389.2
17389.2
17389.2
17389.2
17389.2
12714.9
12714.9
12714.9
12714.9
12714.9
12714.9
27462.7
27462.7
27462.7
27462.7
27462.7
27462.7
21286.7
21286.6
21286.6
21286.6
21286.6
21286.6
19794.7
19794.7
19794.7
19794.7
19794.7
19794.7
41769.1
41769.1
41769.1
41769.1
41769.1
41769.1
43684.7
43684.7
43684.7
43684.7
43684.7
43684.7
43250.7
43250.7
43250.7
43250.7
43250.7
43250.7
-29.7073
-29.7072
-29.7074
-29.7077
-29.7079
-29.7084
-29.5327
-29.5322
-29.5323
-29.5324
-29.5324
-29.533
-45.7075
-45.707
-45.7072
-45.7072
-45.7069
-45.7076
-26.8997
-26.8996
-26.8996
-26.8996
-26.8998
-26.9
-34.7494
-34.7494
-34.7495
-34.7495
-34.7496
-34.7496
-43.0368
-43.0367
-43.0368
-43.0368
-43.0368
-43.0368
-15.0225
-15.0225
-15.0224
-15.0224
-15.0225
-15.0225
-13.5572
-13.5572
-13.5573
-13.5574
-13.5575
-13.5575
-11.514
-11.514
-11.514
-11.5141
-11.5141
-11.5141
-9.97285
-9.97277
-9.9728
-9.97285
-9.97289
-9.97291
-8.97957
-8.97963
-8.97972
-8.97979
-8.97983
-8.97983
-6.99134
-6.9914
-6.99143
-6.99144
-6.99143
-6.99139
-6.49081
-6.49081
-6.49081
-6.4908
-6.49077
-6.49075
-5.33055
-5.33063
-5.33065
-5.33065
-5.33062
-5.33056
-3.18277
-3.18279
-3.18279
-3.18277
-3.18274
-3.18269
-4.43832
-4.43831
-4.43823
-4.43812
-4.438
-4.4379
-3.39621
-3.39623
-3.3962
-3.39614
-3.39607
-3.39599
-1.69545
-1.69544
-1.69541
-1.69537
-1.69534
-1.69529
-3.15585
-3.15579
-3.15568
-3.15555
-3.15543
-3.15534
-2.24831
-2.24828
-2.24824
-2.24818
-2.24813
-2.24808
-0.973917
-0.973899
-0.973878
-0.973854
-0.973831
-0.973807
-2.31005
-2.30999
-2.30992
-2.30986
-2.30981
-2.30978
-1.5335
-1.53349
-1.53348
-1.53346
-1.53344
-1.53343
-0.600475
-0.600472
-0.600465
-0.600456
-0.600446
-0.600436
-0.261337
-0.261337
-0.261339
-0.261341
-0.261343
-0.261344
-0.18936
-0.18936
-0.189362
-0.189364
-0.189365
-0.189368
-0.0756615
-0.0756616
-0.0756625
-0.0756631
-0.075664
-0.0756663
-0.370086
-0.370099
-0.370105
-0.370109
-0.370111
-0.370113
-0.26811
-0.268122
-0.268126
-0.268128
-0.268129
-0.268131
-0.106307
-0.106311
-0.106312
-0.106313
-0.106313
-0.106314
-0.521022
-0.521044
-0.521051
-0.521056
-0.521056
-0.521054
-0.375491
-0.375509
-0.375514
-0.375515
-0.375513
-0.375508
-0.148435
-0.148441
-0.148442
-0.14844
-0.148438
-0.148434
-0.731274
-0.731289
-0.731294
-0.731296
-0.731293
-0.731285
-0.522786
-0.522802
-0.522804
-0.522802
-0.522796
-0.522782
-0.206486
-0.20649
-0.206489
-0.206485
-0.20648
-0.206471
-1.02657
-1.02656
-1.02656
-1.02656
-1.02656
-1.02654
-0.725208
-0.725214
-0.725215
-0.725211
-0.725202
-0.725183
-0.286677
-0.286678
-0.286675
-0.286671
-0.286664
-0.286652
-1.42034
-1.42033
-1.42031
-1.42029
-1.42027
-1.42025
-1.00133
-1.00133
-1.00132
-1.00131
-1.0013
-1.00128
-0.397621
-0.397618
-0.397614
-0.397608
-0.397599
-0.397587
-0.00746163
-0.00746181
-0.00746188
-0.00746172
-0.00746152
-0.00746128
-0.00466601
-0.00466608
-0.00466608
-0.00466597
-0.00466582
-0.00466564
-0.00161795
-0.00161795
-0.00161793
-0.00161789
-0.00161782
-0.00161773
-0.0079222
-0.00792241
-0.0079224
-0.0079222
-0.00792188
-0.00792148
-0.00496268
-0.00496275
-0.0049627
-0.00496256
-0.00496233
-0.00496204
-0.00172438
-0.00172437
-0.00172434
-0.00172428
-0.00172418
-0.00172406
-0.00888168
-0.00888197
-0.00888189
-0.0088816
-0.00888113
-0.00888055
-0.005585
-0.0055851
-0.00558499
-0.00558477
-0.00558444
-0.00558403
-0.00194932
-0.00194931
-0.00194926
-0.00194917
-0.00194903
-0.00194885
-0.010428
-0.0104284
-0.0104282
-0.0104277
-0.010427
-0.0104262
-0.00660047
-0.00660057
-0.00660037
-0.00660003
-0.00659956
-0.00659898
-0.00232114
-0.00232112
-0.00232102
-0.00232088
-0.0023207
-0.00232044
-0.0127201
-0.0127204
-0.01272
-0.0127194
-0.0127185
-0.0127173
-0.00813502
-0.00813505
-0.00813472
-0.00813426
-0.00813365
-0.0081329
-0.00289371
-0.00289365
-0.00289351
-0.00289332
-0.00289309
-0.00289278
-0.0160355
-0.0160357
-0.016035
-0.0160342
-0.0160332
-0.0160319
-0.0104157
-0.0104156
-0.0104152
-0.0104146
-0.010414
-0.0104132
-0.00376554
-0.00376545
-0.00376528
-0.00376508
-0.00376483
-0.00376451
-0.0208767
-0.0208767
-0.0208759
-0.0208751
-0.0208741
-0.0208728
-0.0138552
-0.0138551
-0.0138546
-0.0138541
-0.0138535
-0.0138528
-0.00511639
-0.0051163
-0.00511614
-0.00511597
-0.00511578
-0.00511551
-0.0282157
-0.0282155
-0.0282147
-0.0282141
-0.0282133
-0.0282123
-0.0192111
-0.0192109
-0.0192105
-0.0192102
-0.0192098
-0.0192092
-0.00727536
-0.00727528
-0.00727519
-0.0072751
-0.007275
-0.00727478
-0.0400053
-0.0400047
-0.0400039
-0.0400035
-0.040003
-0.0400022
-0.0278559
-0.0278554
-0.027855
-0.0278548
-0.0278546
-0.0278541
-0.0108458
-0.0108457
-0.0108456
-0.0108456
-0.0108456
-0.0108454
-0.060096
-0.0600941
-0.0600931
-0.0600926
-0.0600924
-0.0600919
-0.042208
-0.0422065
-0.0422058
-0.0422056
-0.0422056
-0.0422055
-0.0169368
-0.0169363
-0.0169362
-0.0169362
-0.0169363
-0.0169364
-0.0957642
-0.0957605
-0.0957592
-0.0957589
-0.0957592
-0.0957598
-0.0674312
-0.0674282
-0.0674276
-0.0674278
-0.0674286
-0.0674302
-0.0277114
-0.0277106
-0.0277106
-0.0277109
-0.0277117
-0.0277131
-0.156686
-0.156684
-0.156684
-0.156685
-0.156687
-0.156691
-0.111394
-0.111393
-0.111394
-0.111395
-0.111398
-0.111405
-0.0465555
-0.0465562
-0.046557
-0.046558
-0.04656
-0.0465646
)
;

boundaryField
{
    seabed_topleft_surface
    {
        type            fixedFluxPressure;
        gradient        uniform 0;
        value           nonuniform List<scalar> 
72
(
17403.3
17403.3
17403.3
17403.3
17403.3
17403.3
16567
16567
16566.9
16566.9
16566.9
16566.9
15612.7
15612.7
15612.7
15612.7
15612.7
15612.7
8399.65
8399.65
8399.65
8399.65
8399.65
8399.65
401.223
401.224
401.226
401.227
401.227
401.229
8.30367
8.30384
8.30439
8.30482
8.30529
8.30593
9.22703
9.22676
9.22666
9.22666
9.22671
9.22679
1.05672
1.05655
1.05632
1.05599
1.05569
1.05546
-1.77518
-1.77504
-1.77496
-1.77498
-1.7751
-1.77527
-3.04212
-3.0424
-3.04303
-3.04368
-3.04421
-3.04456
-3.45157
-3.45284
-3.45415
-3.45515
-3.45577
-3.45608
-3.59142
-3.59171
-3.59204
-3.59234
-3.59255
-3.59266
)
;
    }
    seabed_topright_surface
    {
        type            fixedFluxPressure;
        gradient        uniform 0;
        value           nonuniform List<scalar> 
72
(
-0.0136665
-0.0136675
-0.0136681
-0.0136681
-0.0136681
-0.013668
-0.0143285
-0.0143296
-0.0143301
-0.01433
-0.0143298
-0.0143295
-0.0156721
-0.0156736
-0.0156741
-0.0156741
-0.0156738
-0.0156733
-0.0177408
-0.0177428
-0.0177434
-0.0177432
-0.0177427
-0.0177421
-0.0205927
-0.0205951
-0.0205956
-0.0205953
-0.0205945
-0.0205935
-0.0242918
-0.0242943
-0.0242946
-0.0242941
-0.024293
-0.0242917
-0.0288887
-0.0288912
-0.028891
-0.0288903
-0.0288889
-0.0288873
-0.0343896
-0.0343917
-0.0343911
-0.0343902
-0.0343887
-0.0343869
-0.040708
-0.0407096
-0.0407085
-0.0407077
-0.0407062
-0.0407045
-0.0476023
-0.0476034
-0.0476023
-0.0476017
-0.0476005
-0.0475991
-0.0543303
-0.0543309
-0.0543297
-0.0543292
-0.0543282
-0.054327
-0.0603471
-0.0603471
-0.0603461
-0.0603456
-0.0603449
-0.060344
)
;
    }
    breakwater_top_surface
    {
        type            fixedFluxPressure;
        gradient        uniform 0;
        value           nonuniform List<scalar> 
36
(
-0.261337
-0.261337
-0.261339
-0.261341
-0.261343
-0.261344
-0.370086
-0.370099
-0.370105
-0.370109
-0.370111
-0.370113
-0.521022
-0.521044
-0.521051
-0.521056
-0.521056
-0.521054
-0.731274
-0.731289
-0.731294
-0.731296
-0.731293
-0.731285
-1.02657
-1.02656
-1.02656
-1.02656
-1.02656
-1.02654
-1.42034
-1.42033
-1.42031
-1.42029
-1.42027
-1.42025
)
;
    }
    breakwater_left_surface
    {
        type            fixedFluxPressure;
        gradient        uniform 0;
        value           nonuniform List<scalar> 
24
(
-3.59142
-3.59171
-3.59204
-3.59234
-3.59255
-3.59266
-3.81686
-3.81672
-3.81648
-3.81628
-3.81615
-3.81609
-3.73952
-3.73935
-3.73917
-3.73903
-3.73896
-3.73894
-3.30153
-3.3014
-3.3013
-3.30123
-3.30118
-3.30118
)
;
    }
    breakwater_right_surface
    {
        type            fixedFluxPressure;
        gradient        uniform 0;
        value           nonuniform List<scalar> 
24
(
-0.0603471
-0.0603471
-0.0603461
-0.0603456
-0.0603449
-0.060344
-0.0658362
-0.0658353
-0.0658341
-0.0658334
-0.0658327
-0.0658315
-0.0782985
-0.0782967
-0.0782953
-0.0782948
-0.0782945
-0.0782938
-0.0833758
-0.0833723
-0.0833711
-0.0833708
-0.0833712
-0.083372
)
;
    }
    water_front_surface
    {
        type            fixedFluxPressure;
        gradient        uniform 0;
        value           nonuniform List<scalar> 
186
(
17403.3
16567
15612.7
8399.65
401.223
8.30367
9.22703
1.05672
-1.77518
-3.04212
-3.45157
-3.59142
18323.3
18142.6
18159.2
14827.5
241.421
0.585859
-2.43071
-3.68009
-4.14217
-4.14119
-3.9965
-3.81686
19420.9
20240.9
21766.4
23884.4
-56.546
-15.1276
-11.4797
-7.74978
-5.97356
-4.86716
-4.15825
-3.73952
19853.8
21664.3
25181.3
33074.2
-32.5405
-20.9765
-13.8746
-9.46115
-6.68913
-4.96203
-3.89606
-3.30153
-0.0136665
-0.0143285
-0.0156721
-0.0177408
-0.0205927
-0.0242918
-0.0288887
-0.0343896
-0.040708
-0.0476023
-0.0543303
-0.0603471
-0.0130156
-0.0136813
-0.0150373
-0.0171366
-0.0200541
-0.0238801
-0.0287044
-0.0345809
-0.0414668
-0.0491688
-0.0575239
-0.0658362
-0.011728
-0.0123681
-0.0136796
-0.0157306
-0.0186265
-0.0225134
-0.0275832
-0.0340894
-0.0424117
-0.0533396
-0.065097
-0.0782985
-0.00985092
-0.010429
-0.0116228
-0.0135159
-0.0162483
-0.020035
-0.025174
-0.0320036
-0.0407388
-0.0511141
-0.0648788
-0.0833758
18650
14341.4
8378.21
21716.7
17389.2
12714.9
27462.7
21286.7
19794.7
41769.1
43684.7
43250.7
-29.7073
-29.5327
-45.7075
-26.8997
-34.7494
-43.0368
-15.0225
-13.5572
-11.514
-9.97285
-8.97957
-6.99134
-6.49081
-5.33055
-3.18277
-4.43832
-3.39621
-1.69545
-3.15585
-2.24831
-0.973917
-2.31005
-1.5335
-0.600475
-0.261337
-0.18936
-0.0756615
-0.370086
-0.26811
-0.106307
-0.521022
-0.375491
-0.148435
-0.731274
-0.522786
-0.206486
-1.02657
-0.725208
-0.286677
-1.42034
-1.00133
-0.397621
-0.00746163
-0.00466601
-0.00161795
-0.0079222
-0.00496268
-0.00172438
-0.00888168
-0.005585
-0.00194932
-0.010428
-0.00660047
-0.00232114
-0.0127201
-0.00813502
-0.00289371
-0.0160355
-0.0104157
-0.00376554
-0.0208767
-0.0138552
-0.00511639
-0.0282157
-0.0192111
-0.00727536
-0.0400053
-0.0278559
-0.0108458
-0.060096
-0.042208
-0.0169368
-0.0957642
-0.0674312
-0.0277114
-0.156686
-0.111394
-0.0465555
)
;
    }
    water_back_surface
    {
        type            fixedFluxPressure;
        gradient        uniform 0;
        value           nonuniform List<scalar> 
186
(
17403.3
16566.9
15612.7
8399.65
401.229
8.30593
9.22679
1.05546
-1.77527
-3.04456
-3.45608
-3.59266
18323.3
18142.5
18159.2
14827.5
241.42
0.586643
-2.43197
-3.68097
-4.14312
-4.14221
-3.99419
-3.81609
19420.8
20240.9
21766.4
23884.3
-56.5432
-15.1273
-11.4799
-7.74974
-5.974
-4.8668
-4.15701
-3.73894
19853.8
21664.3
25181.3
33074.2
-32.5412
-20.9775
-13.8747
-9.4612
-6.68826
-4.96076
-3.89498
-3.30118
-0.013668
-0.0143295
-0.0156733
-0.0177421
-0.0205935
-0.0242917
-0.0288873
-0.0343869
-0.0407045
-0.0475991
-0.054327
-0.060344
-0.013016
-0.0136811
-0.015037
-0.0171358
-0.0200522
-0.0238768
-0.0286996
-0.0345751
-0.0414607
-0.0491626
-0.0575186
-0.0658315
-0.011728
-0.0123676
-0.0136788
-0.015729
-0.0186238
-0.0225092
-0.0275778
-0.0340835
-0.042406
-0.0533343
-0.0650918
-0.0782938
-0.00985069
-0.0104283
-0.0116217
-0.013514
-0.0162452
-0.0200307
-0.025169
-0.0319986
-0.0407342
-0.051109
-0.0648728
-0.083372
18650
14341.4
8378.19
21716.7
17389.2
12714.9
27462.7
21286.6
19794.7
41769.1
43684.7
43250.7
-29.7084
-29.533
-45.7076
-26.9
-34.7496
-43.0368
-15.0225
-13.5575
-11.5141
-9.97291
-8.97983
-6.99139
-6.49075
-5.33056
-3.18269
-4.4379
-3.39599
-1.69529
-3.15534
-2.24808
-0.973807
-2.30978
-1.53343
-0.600436
-0.261344
-0.189368
-0.0756663
-0.370113
-0.268131
-0.106314
-0.521054
-0.375508
-0.148434
-0.731285
-0.522782
-0.206471
-1.02654
-0.725183
-0.286652
-1.42025
-1.00128
-0.397587
-0.00746128
-0.00466564
-0.00161773
-0.00792148
-0.00496204
-0.00172406
-0.00888055
-0.00558403
-0.00194885
-0.0104262
-0.00659898
-0.00232044
-0.0127173
-0.0081329
-0.00289278
-0.0160319
-0.0104132
-0.00376451
-0.0208728
-0.0138528
-0.00511551
-0.0282123
-0.0192092
-0.00727478
-0.0400022
-0.0278541
-0.0108454
-0.0600919
-0.0422055
-0.0169364
-0.0957598
-0.0674302
-0.0277131
-0.156691
-0.111405
-0.0465646
)
;
    }
    water_left_surface
    {
        type            fixedFluxPressure;
        gradient        uniform 0;
        value           nonuniform List<scalar> 
42
(
17403.3
17403.3
17403.3
17403.3
17403.3
17403.3
18323.3
18323.3
18323.3
18323.3
18323.3
18323.3
19420.9
19420.8
19420.8
19420.8
19420.8
19420.8
19853.8
19853.8
19853.8
19853.8
19853.8
19853.8
18650
18650
18650
18650
18650
18650
14341.4
14341.4
14341.4
14341.4
14341.4
14341.4
8378.21
8378.21
8378.2
8378.2
8378.2
8378.19
)
;
    }
    water_right_surface
    {
        type            fixedFluxPressure;
        gradient        uniform 0;
        value           nonuniform List<scalar> 
42
(
-0.0136665
-0.0136675
-0.0136681
-0.0136681
-0.0136681
-0.013668
-0.0130156
-0.0130163
-0.0130166
-0.0130165
-0.0130163
-0.013016
-0.011728
-0.0117284
-0.0117287
-0.0117285
-0.0117283
-0.011728
-0.00985092
-0.00985124
-0.00985138
-0.0098512
-0.00985098
-0.00985069
-0.00746163
-0.00746181
-0.00746188
-0.00746172
-0.00746152
-0.00746128
-0.00466601
-0.00466608
-0.00466608
-0.00466597
-0.00466582
-0.00466564
-0.00161795
-0.00161795
-0.00161793
-0.00161789
-0.00161782
-0.00161773
)
;
    }
    water_top_surface
    {
        type            totalPressure;
        rho             rho;
        psi             none;
        gamma           1;
        p0              uniform 0;
        value           nonuniform List<scalar> 
180
(
0
0
0
0
0
0
0
0
0
0
0
0
0
0
0
0
0
0
0
0
0
0
0
0
-8.01234
-8.01255
-8.01254
-8.01241
-8.0122
-8.01215
-4.71436
-4.71433
-4.71435
-4.71431
-4.7142
-4.71418
-0.857106
-0.857127
-0.857116
-0.857095
-0.857069
-0.857046
-0.30188
-0.301871
-0.301853
-0.301833
-0.30181
-0.301784
-0.10244
-0.102435
-0.102429
-0.102424
-0.102418
-0.102412
-0.0418858
-0.0418855
-0.0418852
-0.0418852
-0.0418853
-0.0418852
-0.019359
-0.0193596
-0.0193599
-0.0193603
-0.0193608
-0.019361
-0.00927534
-0.00927566
-0.00927581
-0.00927593
-0.00927601
-0.00927587
-0.000156893
-0.000156897
-0.000156897
-0.000156897
-0.000156897
-0.000156895
-0.000313656
-0.000313666
-0.000313666
-0.000313665
-0.000313665
-0.000313659
-0.000615212
-0.000615233
-0.000615232
-0.000615231
-0.000615227
-0.000615211
-0.00118972
-0.00118976
-0.00118976
-0.00118975
-0.00118973
-0.00118969
-0.00226994
-0.00227001
-0.00226999
-0.00226996
-0.00226993
-0.00226983
-0.00425805
-0.00425809
-0.00425806
-0.00425802
-0.00425795
-0.00425773
-8.53361e-08
-8.53383e-08
-8.53373e-08
-8.53373e-08
-8.53369e-08
-8.53345e-08
-9.66092e-08
-9.66114e-08
-9.66103e-08
-9.66097e-08
-9.66094e-08
-9.66059e-08
-1.22575e-07
-1.22578e-07
-1.22577e-07
-1.22576e-07
-1.22575e-07
-1.22571e-07
-1.71666e-07
-1.7167e-07
-1.71668e-07
-1.71666e-07
-1.71665e-07
-1.71659e-07
-2.617e-07
-2.61706e-07
-2.61702e-07
-2.617e-07
-2.61697e-07
-2.61687e-07
-4.30909e-07
-4.30919e-07
-4.30913e-07
-4.30908e-07
-4.30903e-07
-4.30888e-07
-7.66762e-07
-7.66781e-07
-7.6677e-07
-7.66763e-07
-7.66755e-07
-7.66727e-07
-1.48638e-06
-1.48641e-06
-1.48639e-06
-1.48638e-06
-1.48637e-06
-1.48631e-06
-3.17469e-06
-3.17477e-06
-3.17473e-06
-3.17472e-06
-3.1747e-06
-3.17459e-06
-7.52502e-06
-7.52517e-06
-7.52511e-06
-7.52508e-06
-7.52505e-06
-7.52482e-06
-1.98187e-05
-1.9819e-05
-1.9819e-05
-1.9819e-05
-1.9819e-05
-1.98186e-05
-5.67822e-05
-5.67827e-05
-5.67826e-05
-5.67825e-05
-5.67828e-05
-5.67817e-05
)
;
    }
}


// ************************************************************************* //
