/*--------------------------------*- C++ -*----------------------------------*\
| =========                 |                                                 |
| \\      /  F ield         | OpenFOAM: The Open Source CFD Toolbox           |
|  \\    /   O peration     | Version:  v1612+                                |
|   \\  /    A nd           | Web:      www.OpenFOAM.com                      |
|    \\/     M anipulation  |                                                 |
\*---------------------------------------------------------------------------*/
FoamFile
{
    version     2.0;
    format      ascii;
    class       volVectorField;
    location    "0.6";
    object      U;
}
// * * * * * * * * * * * * * * * * * * * * * * * * * * * * * * * * * * * * * //

dimensions      [0 1 -1 0 0 0 0];

internalField   nonuniform List<vector> 
1116
(
(0.0461163 3.56929e-08 -0.0525482)
(0.0461166 -4.1524e-09 -0.0525483)
(0.0461166 -1.09938e-07 -0.0525484)
(0.0461167 -1.51229e-07 -0.0525484)
(0.0461167 -1.24444e-07 -0.0525484)
(0.0461166 -4.69882e-08 -0.0525485)
(0.131367 1.52135e-07 -0.0908218)
(0.131368 4.37937e-07 -0.0908221)
(0.131368 7.31299e-07 -0.090822)
(0.131368 8.43959e-07 -0.0908217)
(0.131368 6.50677e-07 -0.0908212)
(0.131368 2.20586e-07 -0.0908208)
(0.477773 3.25272e-07 -0.169901)
(0.477774 8.859e-07 -0.169901)
(0.477774 1.17637e-06 -0.169901)
(0.477774 1.21362e-06 -0.169901)
(0.477773 9.82909e-07 -0.1699)
(0.477773 3.8041e-07 -0.1699)
(0.428671 2.20894e-07 -0.429061)
(0.428671 4.18654e-07 -0.429061)
(0.428671 2.27228e-07 -0.429061)
(0.42867 7.91458e-08 -0.429061)
(0.42867 3.05633e-10 -0.429061)
(0.428669 2.57366e-08 -0.429061)
(1.51408 -5.15744e-06 -0.389944)
(1.51408 -4.41527e-06 -0.389948)
(1.51408 -2.06683e-07 -0.389944)
(1.51408 -1.81436e-06 -0.389944)
(1.51408 -3.68394e-06 -0.389945)
(1.51407 -2.05367e-06 -0.389948)
(2.56462 -5.12774e-05 0.59446)
(2.56464 -5.30724e-05 0.594387)
(2.56462 -3.15113e-05 0.594442)
(2.56462 -5.34519e-05 0.59445)
(2.56463 -6.04585e-05 0.594427)
(2.56461 -3.02058e-05 0.594368)
(0.444536 2.54322e-06 0.435288)
(0.444538 -4.70166e-05 0.435354)
(0.444437 -8.53205e-05 0.435269)
(0.444415 -4.97154e-05 0.435219)
(0.444426 -1.95802e-05 0.435226)
(0.444426 -3.41447e-06 0.435258)
(0.288349 -3.4071e-05 0.164518)
(0.288238 -6.04401e-05 0.1645)
(0.288235 -4.37165e-05 0.164434)
(0.288269 -2.11485e-05 0.16439)
(0.28829 6.47811e-06 0.164381)
(0.288261 1.05796e-05 0.164406)
(0.0732051 -2.63538e-05 0.0699787)
(0.0730748 9.58233e-06 0.0698178)
(0.0731667 7.04516e-05 0.069842)
(0.073284 6.11949e-05 0.069872)
(0.0733604 4.28494e-05 0.0698658)
(0.0733712 1.63691e-05 0.0698445)
(-0.000426207 8.49903e-05 0.0269273)
(-0.00037518 0.000187189 0.0269821)
(-0.000286502 0.000192089 0.0270793)
(-0.000202522 0.0001526 0.0271557)
(-0.000139097 9.55129e-05 0.0271926)
(-0.000102079 3.28607e-05 0.0271998)
(-0.0195606 5.13117e-05 0.00505144)
(-0.0194739 9.61081e-05 0.00517463)
(-0.019446 8.00617e-05 0.00524467)
(-0.0194345 5.69515e-05 0.00529118)
(-0.019424 3.01771e-05 0.00531825)
(-0.019411 8.48861e-06 0.00532789)
(-0.0124032 3.28545e-06 -0.00821901)
(-0.0123712 1.25907e-06 -0.00818567)
(-0.0123719 -5.11566e-06 -0.00818156)
(-0.0123783 -8.03005e-06 -0.00818353)
(-0.0123827 -1.00724e-05 -0.00818646)
(-0.0123832 -5.11323e-06 -0.00819034)
(0.00992086 -2.48683e-08 -0.114295)
(0.00992106 -2.41523e-07 -0.114295)
(0.00992088 -5.07024e-07 -0.114296)
(0.00992055 -6.03704e-07 -0.114296)
(0.00992019 -5.5955e-07 -0.114296)
(0.00991994 -2.44935e-07 -0.114295)
(0.0271479 1.32035e-07 -0.203755)
(0.0271485 3.43586e-07 -0.203756)
(0.027148 5.45287e-07 -0.203755)
(0.0271471 6.77691e-07 -0.203754)
(0.0271461 5.26836e-07 -0.203753)
(0.0271455 1.78987e-07 -0.203752)
(0.155747 2.59626e-07 -0.378896)
(0.155748 8.27809e-07 -0.378896)
(0.155747 1.19696e-06 -0.378895)
(0.155746 1.23081e-06 -0.378894)
(0.155745 9.79809e-07 -0.378893)
(0.155744 3.93455e-07 -0.378892)
(0.0908733 -1.1547e-07 -0.902672)
(0.0908735 1.36052e-07 -0.902671)
(0.0908731 3.10702e-07 -0.902671)
(0.0908724 5.28479e-08 -0.902671)
(0.0908718 -3.5197e-08 -0.902671)
(0.0908713 2.97553e-08 -0.90267)
(0.422506 -1.72036e-05 -0.88454)
(0.422504 -2.22958e-05 -0.884571)
(0.422505 -7.45917e-06 -0.884559)
(0.422503 -2.69126e-06 -0.884556)
(0.422501 4.32235e-06 -0.884562)
(0.422498 5.44501e-06 -0.884571)
(-0.450402 -9.39353e-06 1.22343)
(-0.450456 -3.28235e-05 1.22329)
(-0.450472 -3.32495e-05 1.22338)
(-0.450507 -1.57081e-05 1.22339)
(-0.450549 -1.16759e-05 1.22335)
(-0.450502 -4.55425e-06 1.22324)
(0.0134378 1.71246e-05 0.671627)
(0.0133905 5.67632e-05 0.671792)
(0.0133092 8.67155e-05 0.671646)
(0.0132846 8.249e-05 0.671578)
(0.0132633 2.64766e-05 0.671606)
(0.0133223 -9.62623e-06 0.67163)
(-0.0750437 -2.8451e-05 0.28079)
(-0.0752066 2.17431e-05 0.280649)
(-0.0751903 0.00010335 0.280533)
(-0.0751233 0.000100262 0.280465)
(-0.0751059 6.19042e-05 0.280459)
(-0.075106 1.47749e-05 0.280502)
(-0.0714719 8.12452e-05 0.117457)
(-0.071625 0.000150829 0.117251)
(-0.0715104 0.000130438 0.117308)
(-0.0713696 0.000113039 0.117354)
(-0.0712958 8.99418e-05 0.117348)
(-0.0712801 3.77109e-05 0.117332)
(-0.066176 6.5913e-05 0.0369848)
(-0.0660826 7.89164e-05 0.0371598)
(-0.0659376 1.22817e-05 0.0373376)
(-0.0658113 -7.67456e-06 0.0374575)
(-0.0657246 -9.32378e-06 0.0375107)
(-0.0656771 -2.38083e-06 0.0375185)
(-0.0510392 -2.57216e-05 -0.00689445)
(-0.0508719 -7.97646e-05 -0.00669561)
(-0.0507774 -0.000116311 -0.00659771)
(-0.0507096 -0.000118013 -0.00653869)
(-0.050658 -9.19877e-05 -0.0065123)
(-0.050626 -3.62464e-05 -0.00651686)
(-0.0266639 -4.39442e-05 -0.0342518)
(-0.026597 -9.29222e-05 -0.0342039)
(-0.0265723 -9.74933e-05 -0.034196)
(-0.0265558 -8.87833e-05 -0.0341958)
(-0.0265428 -6.53709e-05 -0.0342)
(-0.0265368 -2.50432e-05 -0.034211)
(-0.0397606 -2.08762e-07 -0.0906411)
(-0.0397608 -6.55745e-07 -0.0906413)
(-0.0397612 -9.13571e-07 -0.0906414)
(-0.0397617 -8.58079e-07 -0.0906411)
(-0.0397621 -6.23087e-07 -0.0906407)
(-0.0397623 -2.38692e-07 -0.0906403)
(-0.115832 8.73433e-08 -0.193827)
(-0.115832 1.32843e-07 -0.193828)
(-0.115833 1.51614e-07 -0.193827)
(-0.115835 2.61375e-07 -0.193825)
(-0.115835 2.14578e-07 -0.193824)
(-0.115836 6.05798e-08 -0.193822)
(-0.194502 1.63967e-07 -0.408734)
(-0.194502 5.79234e-07 -0.408733)
(-0.194503 7.97063e-07 -0.408731)
(-0.194504 6.31456e-07 -0.40873)
(-0.194505 2.75028e-07 -0.408728)
(-0.194505 2.7081e-08 -0.408727)
(-0.177045 -4.74009e-07 -0.956803)
(-0.177046 -3.82891e-07 -0.956803)
(-0.177046 -1.34335e-07 -0.956802)
(-0.177047 -5.48469e-07 -0.956801)
(-0.177047 -1.35464e-07 -0.9568)
(-0.177047 1.68361e-07 -0.9568)
(-0.426857 4.58508e-06 0.504166)
(-0.426864 4.45779e-06 0.504077)
(-0.426862 1.06695e-05 0.504128)
(-0.426866 1.36742e-05 0.504174)
(-0.426871 4.50929e-05 0.5042)
(-0.426872 3.33675e-05 0.504161)
(-1.12811 2.92794e-05 0.785707)
(-1.12816 4.89184e-05 0.785635)
(-1.12813 6.16279e-05 0.785656)
(-1.12818 8.58903e-05 0.785689)
(-1.12826 7.62652e-05 0.78569)
(-1.12811 3.3068e-05 0.785584)
(-0.366009 -5.1961e-06 0.347422)
(-0.366039 5.37096e-05 0.347539)
(-0.366 0.000137739 0.347441)
(-0.365955 0.000148703 0.347433)
(-0.365932 9.86914e-05 0.347506)
(-0.365782 2.85038e-05 0.347452)
(-0.261603 4.05388e-05 0.175556)
(-0.261701 0.000102447 0.175333)
(-0.261603 0.000117256 0.175263)
(-0.261492 9.23623e-05 0.175228)
(-0.261414 3.37407e-05 0.175237)
(-0.261289 -3.28298e-06 0.175241)
(-0.171327 7.50781e-05 0.0600486)
(-0.171289 0.000105437 0.0600558)
(-0.171141 4.87362e-05 0.0601311)
(-0.171012 3.02273e-05 0.060165)
(-0.170928 1.3369e-05 0.0601759)
(-0.170845 1.50284e-06 0.0601911)
(-0.118719 -2.94744e-05 -0.00600234)
(-0.118551 -0.000103093 -0.00576367)
(-0.118421 -0.000153801 -0.00563189)
(-0.118324 -0.000145158 -0.00556599)
(-0.118261 -0.000103921 -0.00554676)
(-0.118217 -3.89493e-05 -0.00555659)
(-0.0782124 -7.19418e-05 -0.0449639)
(-0.0780974 -0.000168508 -0.0448547)
(-0.0780407 -0.000195017 -0.0448214)
(-0.0779982 -0.000179054 -0.0448119)
(-0.0779723 -0.000129932 -0.0448261)
(-0.0779678 -4.93343e-05 -0.0448669)
(-0.0403512 -3.62803e-05 -0.0730831)
(-0.0403239 -7.41805e-05 -0.0730741)
(-0.0403139 -7.47067e-05 -0.0730731)
(-0.040305 -6.57493e-05 -0.0730729)
(-0.0403007 -4.48958e-05 -0.0730795)
(-0.0403069 -1.58891e-05 -0.0730991)
(-0.0896133 -2.64999e-07 0.0295218)
(-0.0896137 -7.07038e-07 0.0295218)
(-0.0896142 -8.27762e-07 0.0295221)
(-0.0896144 -6.0656e-07 0.0295225)
(-0.0896145 -2.49566e-07 0.0295229)
(-0.089614 -4.54064e-08 0.0295233)
(-0.27708 -1.08341e-07 -0.0833121)
(-0.277081 -4.31341e-07 -0.083312)
(-0.277082 -7.48549e-07 -0.0833111)
(-0.277082 -8.53388e-07 -0.0833094)
(-0.277082 -7.65067e-07 -0.0833076)
(-0.277081 -3.32197e-07 -0.0833065)
(-0.565385 -2.86431e-07 -0.322627)
(-0.565386 -4.62333e-07 -0.322626)
(-0.565386 -6.29773e-07 -0.322625)
(-0.565386 -1.01698e-06 -0.322623)
(-0.565386 -1.06151e-06 -0.322622)
(-0.565385 -4.51979e-07 -0.322622)
(-0.447982 -3.4835e-07 -0.976297)
(-0.447982 -1.43515e-07 -0.976297)
(-0.447982 3.28334e-07 -0.976295)
(-0.447982 -1.06402e-07 -0.976294)
(-0.447981 -5.90475e-07 -0.976293)
(-0.447981 -4.82726e-07 -0.976292)
(-0.615041 3.62729e-05 0.929828)
(-0.61506 2.35523e-05 0.929825)
(-0.61504 1.33343e-05 0.929836)
(-0.615025 2.43254e-05 0.929881)
(-0.615023 1.22457e-05 0.929936)
(-0.615043 -1.41363e-05 0.929977)
(-0.459579 2.75981e-05 0.439377)
(-0.459652 3.02271e-05 0.439387)
(-0.45961 3.48192e-05 0.439341)
(-0.459556 7.5401e-05 0.439377)
(-0.459508 7.38815e-05 0.439423)
(-0.459619 3.06746e-05 0.439359)
(-0.475048 -5.63999e-06 0.156728)
(-0.475073 1.57691e-05 0.156729)
(-0.475072 4.20563e-05 0.156677)
(-0.475018 4.48305e-05 0.156689)
(-0.474895 6.47554e-05 0.156755)
(-0.47488 4.08587e-05 0.156716)
(-0.327625 5.80253e-05 0.0522354)
(-0.327658 0.000114278 0.0521016)
(-0.327597 9.91941e-05 0.0520847)
(-0.327534 6.40818e-05 0.0520726)
(-0.327438 3.38829e-05 0.0520723)
(-0.327353 1.27559e-05 0.052041)
(-0.227217 1.34751e-05 -0.0241893)
(-0.227126 -5.62271e-06 -0.0240896)
(-0.22703 -4.03543e-05 -0.0240228)
(-0.226964 -4.51179e-05 -0.0239936)
(-0.226901 -4.38661e-05 -0.0239753)
(-0.22683 -1.99999e-05 -0.0239646)
(-0.151683 -6.28787e-05 -0.0660453)
(-0.151561 -0.000140751 -0.0658761)
(-0.151493 -0.000151884 -0.0658035)
(-0.151453 -0.000131776 -0.0657702)
(-0.151426 -9.22675e-05 -0.0657644)
(-0.151405 -3.45166e-05 -0.0657813)
(-0.0960596 -4.54174e-05 -0.0919719)
(-0.096024 -9.56924e-05 -0.0919348)
(-0.0960218 -9.75364e-05 -0.091932)
(-0.0960264 -8.24624e-05 -0.0919399)
(-0.0960391 -5.36709e-05 -0.0919628)
(-0.0960613 -1.8496e-05 -0.0920059)
(-0.0535656 -3.71933e-06 -0.12047)
(-0.0535775 -2.11314e-06 -0.120492)
(-0.0535942 5.00811e-06 -0.120509)
(-0.0536096 8.87137e-06 -0.120523)
(-0.0536264 1.23426e-05 -0.120542)
(-0.0536469 6.88538e-06 -0.120568)
(-4.42445e-05 2.93509e-08 -4.47602e-05)
(-4.42435e-05 1.57006e-08 -4.47643e-05)
(-4.4242e-05 -8.99491e-10 -4.47649e-05)
(-4.42402e-05 4.36062e-09 -4.47666e-05)
(-4.42394e-05 -8.68459e-09 -4.47669e-05)
(-4.42349e-05 -2.97674e-10 -4.47692e-05)
(-0.000134416 2.8324e-08 -4.65311e-05)
(-0.000134418 1.26422e-08 -4.65357e-05)
(-0.000134416 -5.78344e-09 -4.65362e-05)
(-0.000134413 6.37124e-10 -4.65385e-05)
(-0.000134411 -1.6574e-08 -4.65393e-05)
(-0.000134404 -7.45452e-09 -4.65422e-05)
(-0.000229587 3.69862e-08 -4.99408e-05)
(-0.000229594 2.13725e-08 -4.99462e-05)
(-0.000229592 -6.06058e-09 -4.99467e-05)
(-0.00022959 4.04431e-10 -4.99498e-05)
(-0.000229587 -1.81582e-08 -4.9951e-05)
(-0.000229579 -9.16032e-09 -4.99544e-05)
(-0.000332625 4.82751e-08 -5.46082e-05)
(-0.000332634 3.27395e-08 -5.46167e-05)
(-0.000332631 -6.27512e-09 -5.46182e-05)
(-0.000332628 1.57967e-10 -5.46227e-05)
(-0.000332625 -2.08085e-08 -5.46245e-05)
(-0.000332614 -1.18685e-08 -5.46294e-05)
(-0.000445267 6.42885e-08 -5.97326e-05)
(-0.000445277 5.03092e-08 -5.97458e-05)
(-0.000445278 -3.70199e-09 -5.97474e-05)
(-0.000445274 1.59646e-09 -5.9753e-05)
(-0.000445271 -2.26668e-08 -5.97541e-05)
(-0.000445258 -1.41599e-08 -5.9759e-05)
(-0.00056705 7.97972e-08 -6.37283e-05)
(-0.000567065 7.66531e-08 -6.37421e-05)
(-0.00056707 5.0763e-09 -6.37444e-05)
(-0.000567064 1.65978e-09 -6.37468e-05)
(-0.000567062 -2.39091e-08 -6.37464e-05)
(-0.000567046 -1.75276e-08 -6.37499e-05)
(-0.000693453 1.031e-07 -6.36803e-05)
(-0.000693481 1.07264e-07 -6.36897e-05)
(-0.00069348 7.74064e-09 -6.36911e-05)
(-0.000693476 -3.37895e-09 -6.36887e-05)
(-0.000693469 -3.33542e-08 -6.36884e-05)
(-0.000693448 -2.65668e-08 -6.36922e-05)
(-0.00081318 1.33195e-07 -5.47688e-05)
(-0.000813219 1.30374e-07 -5.4772e-05)
(-0.000813208 -4.26461e-09 -5.47724e-05)
(-0.000813201 -1.8755e-08 -5.47708e-05)
(-0.000813185 -5.80798e-08 -5.47735e-05)
(-0.000813156 -4.08965e-08 -5.47827e-05)
(-0.000904184 1.63963e-07 -2.9653e-05)
(-0.000904226 1.40802e-07 -2.96542e-05)
(-0.000904206 -3.60891e-08 -2.96575e-05)
(-0.000904192 -4.70636e-08 -2.96608e-05)
(-0.000904167 -9.38932e-08 -2.96698e-05)
(-0.000904129 -5.97948e-08 -2.96882e-05)
(-0.0009243 1.89356e-07 2.29074e-05)
(-0.000924325 1.4398e-07 2.28946e-05)
(-0.000924295 -7.01089e-08 2.28794e-05)
(-0.000924271 -7.55634e-08 2.2862e-05)
(-0.000924236 -1.28705e-07 2.28398e-05)
(-0.000924183 -7.77607e-08 2.28033e-05)
(-0.000822823 1.95074e-07 0.000123886)
(-0.000822777 1.2687e-07 0.000123849)
(-0.000822753 -1.02762e-07 0.000123827)
(-0.000822724 -9.80414e-08 0.000123803)
(-0.000822687 -1.60012e-07 0.000123776)
(-0.000822624 -9.60557e-08 0.000123729)
(-0.000422497 1.21228e-07 0.000313794)
(-0.000422445 6.83349e-08 0.000313762)
(-0.000422439 -8.52514e-08 0.00031375)
(-0.000422424 -8.98775e-08 0.000313735)
(-0.000422406 -1.56015e-07 0.000313715)
(-0.000422367 -9.88346e-08 0.000313663)
(-4.33303e-05 2.21879e-08 -0.000130705)
(-4.33289e-05 7.72264e-09 -0.000130712)
(-4.33278e-05 -4.81163e-09 -0.000130711)
(-4.33259e-05 1.11766e-09 -0.000130714)
(-4.33253e-05 -1.35746e-08 -0.000130714)
(-4.33212e-05 -4.91371e-09 -0.000130716)
(-0.000131864 2.11057e-08 -0.000136163)
(-0.000131864 5.72894e-09 -0.00013617)
(-0.000131861 -8.53924e-09 -0.00013617)
(-0.000131858 -1.83422e-09 -0.000136174)
(-0.000131856 -1.97579e-08 -0.000136175)
(-0.000131848 -1.10887e-08 -0.000136178)
(-0.000226006 2.72563e-08 -0.000146747)
(-0.000226009 1.21286e-08 -0.000146755)
(-0.000226005 -9.43986e-09 -0.000146755)
(-0.000226001 -2.94559e-09 -0.000146761)
(-0.000225998 -2.25861e-08 -0.000146762)
(-0.000225988 -1.3954e-08 -0.000146766)
(-0.000329223 3.58885e-08 -0.000161465)
(-0.000329225 2.12317e-08 -0.000161479)
(-0.000329221 -1.05601e-08 -0.000161481)
(-0.000329215 -4.5397e-09 -0.000161489)
(-0.00032921 -2.75766e-08 -0.000161491)
(-0.000329197 -1.89393e-08 -0.000161496)
(-0.000444219 4.71944e-08 -0.000178082)
(-0.000444222 3.52059e-08 -0.000178103)
(-0.000444218 -9.98514e-09 -0.000178105)
(-0.000444211 -7.30403e-09 -0.000178113)
(-0.000444205 -3.45465e-08 -0.000178114)
(-0.000444189 -2.52336e-08 -0.000178116)
(-0.000572059 6.04852e-08 -0.000192)
(-0.000572069 5.24067e-08 -0.000192019)
(-0.000572066 -9.67513e-09 -0.00019202)
(-0.00057206 -1.44546e-08 -0.000192021)
(-0.000572052 -4.7565e-08 -0.000192018)
(-0.000572033 -3.46925e-08 -0.000192015)
(-0.00071032 7.973e-08 -0.000194391)
(-0.000710347 6.75503e-08 -0.000194397)
(-0.00071034 -1.97696e-08 -0.000194395)
(-0.000710335 -3.02738e-08 -0.000194388)
(-0.000710323 -7.22617e-08 -0.000194384)
(-0.000710298 -4.95472e-08 -0.000194382)
(-0.00085008 1.03511e-07 -0.000169362)
(-0.000850124 7.53231e-08 -0.000169356)
(-0.000850111 -4.6827e-08 -0.000169352)
(-0.0008501 -5.69486e-08 -0.000169347)
(-0.000850079 -1.08489e-07 -0.000169351)
(-0.000850039 -7.01232e-08 -0.00016936)
(-0.000971954 1.27492e-07 -8.96884e-05)
(-0.000971996 7.57146e-08 -8.96832e-05)
(-0.00097197 -8.26898e-08 -8.96866e-05)
(-0.000971942 -8.6507e-08 -8.96956e-05)
(-0.000971902 -1.50011e-07 -8.9713e-05)
(-0.000971838 -9.43232e-08 -8.97405e-05)
(-0.00104703 1.40402e-07 9.61512e-05)
(-0.00104704 6.56862e-08 9.61334e-05)
(-0.001047 -1.21275e-07 9.61093e-05)
(-0.00104695 -1.21097e-07 9.60803e-05)
(-0.00104689 -1.98833e-07 9.60458e-05)
(-0.00104681 -1.24146e-07 9.59926e-05)
(-0.00101291 1.49161e-07 0.000398911)
(-0.00101284 6.94916e-08 0.000398844)
(-0.00101279 -1.25791e-07 0.000398799)
(-0.00101273 -1.22295e-07 0.000398756)
(-0.00101266 -2.18073e-07 0.00039871)
(-0.00101256 -1.41553e-07 0.000398638)
(-0.000650864 9.25836e-08 0.000986773)
(-0.0006508 3.95422e-08 0.000986728)
(-0.000650775 -9.31936e-08 0.000986703)
(-0.000650739 -1.12424e-07 0.000986671)
(-0.0006507 -2.41022e-07 0.000986634)
(-0.000650633 -1.69971e-07 0.000986562)
(-4.05549e-05 1.91589e-08 -0.000211447)
(-4.05538e-05 6.48765e-09 -0.000211452)
(-4.05534e-05 -4.47539e-09 -0.00021145)
(-4.05516e-05 7.45281e-10 -0.000211452)
(-4.05516e-05 -1.18407e-08 -0.000211451)
(-4.05486e-05 -4.27744e-09 -0.00021145)
(-0.000123865 1.77508e-08 -0.000221169)
(-0.000123865 5.04966e-09 -0.000221176)
(-0.000123864 -7.69451e-09 -0.000221174)
(-0.000123861 -2.0509e-09 -0.000221178)
(-0.000123861 -1.70834e-08 -0.000221178)
(-0.000123856 -1.00297e-08 -0.000221178)
(-0.000213925 2.2862e-08 -0.000240294)
(-0.000213928 1.07528e-08 -0.000240302)
(-0.000213927 -8.55534e-09 -0.000240301)
(-0.000213923 -3.0059e-09 -0.000240305)
(-0.000213923 -1.92031e-08 -0.000240306)
(-0.000213918 -1.26472e-08 -0.000240305)
(-0.000315582 2.99563e-08 -0.00026772)
(-0.000315584 1.84932e-08 -0.000267732)
(-0.000315583 -1.01438e-08 -0.000267733)
(-0.000315579 -5.07661e-09 -0.000267739)
(-0.000315578 -2.44202e-08 -0.000267739)
(-0.000315572 -1.8028e-08 -0.000267738)
(-0.000433984 3.87852e-08 -0.000300602)
(-0.00043399 2.87783e-08 -0.000300618)
(-0.000433988 -1.2183e-08 -0.000300619)
(-0.000433984 -1.1159e-08 -0.000300622)
(-0.000433982 -3.42342e-08 -0.00030062)
(-0.000433975 -2.52531e-08 -0.000300614)
(-0.00057449 5.12793e-08 -0.000332453)
(-0.000574506 3.87886e-08 -0.000332461)
(-0.000574502 -1.99329e-08 -0.000332458)
(-0.000574499 -2.45494e-08 -0.000332454)
(-0.000574494 -5.38038e-08 -0.000332446)
(-0.000574485 -3.66926e-08 -0.000332433)
(-0.000742169 7.04314e-08 -0.000350198)
(-0.000742203 4.67573e-08 -0.000350192)
(-0.000742194 -3.98261e-08 -0.000350181)
(-0.000742189 -4.67318e-08 -0.000350172)
(-0.000742178 -8.32666e-08 -0.000350164)
(-0.000742158 -5.26706e-08 -0.000350153)
(-0.000941165 9.31864e-08 -0.000330625)
(-0.000941207 5.07426e-08 -0.00033061)
(-0.000941191 -6.99579e-08 -0.0003306)
(-0.000941175 -7.35811e-08 -0.000330597)
(-0.000941151 -1.19738e-07 -0.000330599)
(-0.00094111 -7.36452e-08 -0.000330602)
(-0.00117702 1.14497e-07 -0.000239421)
(-0.00117705 5.49292e-08 -0.000239421)
(-0.00117701 -9.68747e-08 -0.000239425)
(-0.00117698 -9.60843e-08 -0.00023944)
(-0.00117694 -1.54761e-07 -0.000239459)
(-0.00117687 -9.59588e-08 -0.000239481)
(-0.00137955 1.33877e-07 -3.45678e-05)
(-0.00137954 6.55335e-08 -3.46038e-05)
(-0.00137947 -1.0623e-07 -3.46353e-05)
(-0.00137942 -1.00846e-07 -3.46694e-05)
(-0.00137936 -1.7772e-07 -3.47023e-05)
(-0.00137928 -1.1489e-07 -3.47397e-05)
(-0.0015089 1.43231e-07 0.000400931)
(-0.00150882 7.22966e-08 0.000400844)
(-0.00150874 -1.09029e-07 0.000400789)
(-0.00150866 -1.08063e-07 0.000400734)
(-0.00150858 -2.08335e-07 0.000400686)
(-0.00150849 -1.38729e-07 0.000400642)
(-0.00104963 1.08204e-07 0.0014363)
(-0.00104958 5.97176e-08 0.00143627)
(-0.00104954 -9.50619e-08 0.00143624)
(-0.00104949 -1.3457e-07 0.00143621)
(-0.00104945 -2.66046e-07 0.00143617)
(-0.0010494 -1.82275e-07 0.00143615)
(-3.56181e-05 1.50167e-08 -0.000283375)
(-3.56169e-05 4.9519e-09 -0.000283381)
(-3.56168e-05 -4.02957e-09 -0.000283379)
(-3.56153e-05 3.55606e-10 -0.000283381)
(-3.56157e-05 -9.90108e-09 -0.00028338)
(-3.56133e-05 -4.1266e-09 -0.000283378)
(-0.000109347 1.37561e-08 -0.000298082)
(-0.000109346 4.24754e-09 -0.000298089)
(-0.000109346 -6.48522e-09 -0.000298087)
(-0.000109344 -1.95244e-09 -0.00029809)
(-0.000109345 -1.39384e-08 -0.000298089)
(-0.000109341 -8.96881e-09 -0.000298088)
(-0.000190927 1.78369e-08 -0.000327564)
(-0.000190929 9.09308e-09 -0.000327573)
(-0.000190928 -7.20048e-09 -0.000327572)
(-0.000190926 -2.70113e-09 -0.000327576)
(-0.000190927 -1.56177e-08 -0.000327576)
(-0.000190924 -1.13827e-08 -0.000327574)
(-0.000286823 2.37647e-08 -0.000371528)
(-0.000286824 1.46882e-08 -0.000371541)
(-0.000286822 -9.89959e-09 -0.000371541)
(-0.00028682 -5.80316e-09 -0.000371545)
(-0.000286821 -2.16784e-08 -0.000371545)
(-0.000286817 -1.67132e-08 -0.000371541)
(-0.000405531 2.88172e-08 -0.00042826)
(-0.000405535 1.89491e-08 -0.000428275)
(-0.000405532 -1.58688e-08 -0.000428274)
(-0.000405531 -1.54135e-08 -0.000428275)
(-0.00040553 -3.37956e-08 -0.000428273)
(-0.000405526 -2.44047e-08 -0.000428264)
(-0.00055844 3.91569e-08 -0.000492133)
(-0.000558453 2.14949e-08 -0.000492143)
(-0.000558447 -2.98933e-08 -0.000492136)
(-0.000558447 -3.22872e-08 -0.000492131)
(-0.000558444 -5.50546e-08 -0.000492123)
(-0.000558437 -3.50244e-08 -0.000492109)
(-0.000759057 5.45401e-08 -0.000547929)
(-0.00075908 2.53882e-08 -0.00054793)
(-0.000759071 -4.95528e-08 -0.000547916)
(-0.000759067 -5.15369e-08 -0.000547907)
(-0.000759059 -8.03275e-08 -0.000547899)
(-0.00075904 -4.91973e-08 -0.000547888)
(-0.00101685 7.62812e-08 -0.000557283)
(-0.00101687 3.4313e-08 -0.000557286)
(-0.00101685 -6.8442e-08 -0.000557273)
(-0.00101683 -6.72656e-08 -0.000557271)
(-0.00101681 -1.07991e-07 -0.000557271)
(-0.00101677 -6.71022e-08 -0.000557272)
(-0.00132092 1.00035e-07 -0.000427814)
(-0.00132092 4.68331e-08 -0.000427838)
(-0.00132087 -8.23697e-08 -0.000427843)
(-0.00132084 -7.79431e-08 -0.000427855)
(-0.0013208 -1.37106e-07 -0.000427869)
(-0.00132074 -8.80015e-08 -0.000427882)
(-0.0017007 1.11644e-07 4.77889e-05)
(-0.00170064 4.90139e-08 4.77203e-05)
(-0.00170057 -9.83926e-08 4.76904e-05)
(-0.00170051 -9.60976e-08 4.76573e-05)
(-0.00170046 -1.74944e-07 4.76341e-05)
(-0.00170039 -1.13911e-07 4.76112e-05)
(-0.00219407 9.14158e-08 0.00137104)
(-0.00219399 1.57479e-08 0.00137096)
(-0.00219393 -1.33514e-07 0.00137092)
(-0.00219384 -1.38883e-07 0.00137088)
(-0.00219376 -2.27449e-07 0.00137085)
(-0.00219369 -1.43938e-07 0.00137083)
(-0.00205593 9.62801e-08 0.00450922)
(-0.00205602 4.49469e-08 0.00450969)
(-0.00205601 -1.08979e-07 0.00450971)
(-0.00205593 -1.47642e-07 0.0045096)
(-0.00205586 -2.59286e-07 0.00450948)
(-0.0020558 -1.67062e-07 0.0045094)
(-0.148192 -1.44609e-07 0.260442)
(-0.148192 -3.5002e-07 0.260442)
(-0.148192 -4.17625e-07 0.260442)
(-0.148192 -4.24696e-07 0.260442)
(-0.148192 -3.58015e-07 0.260442)
(-0.148192 -1.6889e-07 0.260442)
(-0.168039 -7.73279e-08 0.544731)
(-0.168039 -2.11537e-07 0.544731)
(-0.168039 -2.29107e-07 0.544731)
(-0.168039 -2.55018e-07 0.544731)
(-0.168039 -1.94732e-07 0.544732)
(-0.168039 -7.70082e-08 0.544731)
(-0.19452 -1.02572e-08 1.08735)
(-0.19452 -5.94873e-08 1.08735)
(-0.19452 -1.22161e-07 1.08735)
(-0.19452 -1.78084e-07 1.08735)
(-0.19452 -1.08766e-07 1.08735)
(-0.19452 -1.25194e-08 1.08735)
(-0.451951 -1.37586e-07 0.178836)
(-0.451952 -4.81393e-07 0.178836)
(-0.451952 -8.00547e-07 0.178837)
(-0.451952 -9.34952e-07 0.178838)
(-0.451952 -7.24523e-07 0.178839)
(-0.451952 -2.26316e-07 0.178839)
(-0.508101 1.00991e-08 0.492952)
(-0.508101 -1.03898e-07 0.492952)
(-0.508101 -3.35138e-07 0.492952)
(-0.508101 -4.74823e-07 0.492952)
(-0.508101 -3.1528e-07 0.492953)
(-0.508101 -4.81147e-08 0.492952)
(-0.641856 -8.22373e-08 1.47981)
(-0.641857 -8.62115e-08 1.47981)
(-0.641857 -1.78712e-07 1.47981)
(-0.641857 -1.17758e-07 1.47981)
(-0.641856 -1.19183e-07 1.47981)
(-0.641856 -3.90323e-08 1.47981)
(-1.02 -1.5989e-07 -0.000865966)
(-1.02 -4.53995e-07 -0.000866119)
(-1.02 -7.83631e-07 -0.000865163)
(-1.02 -6.55575e-07 -0.000864593)
(-1.02 -4.3972e-07 -0.00086433)
(-1.02 -2.2183e-08 -0.000864599)
(-1.56685 8.31258e-09 0.276939)
(-1.56686 1.01964e-07 0.276939)
(-1.56686 -3.30305e-07 0.276939)
(-1.56686 -1.38433e-07 0.276939)
(-1.56686 -2.08899e-07 0.27694)
(-1.56685 8.22827e-08 0.276939)
(-2.21752 -2.66839e-07 2.62069)
(-2.21752 3.45815e-07 2.6207)
(-2.21752 -1.39141e-07 2.6207)
(-2.21752 1.65023e-07 2.6207)
(-2.21752 -1.33917e-07 2.6207)
(-2.21752 4.03465e-07 2.62069)
(-0.769266 -2.5023e-08 -1.00961)
(-0.769266 -3.66853e-07 -1.0096)
(-0.769266 -3.68684e-07 -1.0096)
(-0.769266 -5.43889e-07 -1.0096)
(-0.769265 -4.45208e-07 -1.0096)
(-0.769265 -3.69948e-07 -1.0096)
(-1.49075 4.39519e-07 -0.963699)
(-1.49075 -4.79949e-07 -0.963699)
(-1.49075 -2.62893e-07 -0.963699)
(-1.49075 -4.08775e-07 -0.963699)
(-1.49075 -5.68679e-08 -0.963699)
(-1.49075 -6.68578e-07 -0.963698)
(-2.43897 8.98101e-07 5.25591)
(-2.43897 -5.67038e-07 5.25591)
(-2.43897 3.70138e-08 5.25591)
(-2.43897 -2.96414e-07 5.25591)
(-2.43897 3.70719e-07 5.25591)
(-2.43897 -9.68872e-07 5.25591)
(-1.30302 1.02865e-05 0.762742)
(-1.30302 -2.22586e-05 0.762785)
(-1.30302 -1.73576e-05 0.762775)
(-1.30302 -3.09336e-05 0.762796)
(-1.30302 -2.34771e-05 0.762836)
(-1.30301 -3.52615e-05 0.762874)
(-6.30651 1.84639e-05 0.660102)
(-6.30651 -2.73487e-05 0.660104)
(-6.30652 -6.79096e-06 0.66011)
(-6.30652 -1.73107e-05 0.660119)
(-6.30651 7.31176e-06 0.660125)
(-6.30651 -2.76893e-05 0.66014)
(-9.62872 3.06071e-05 -4.00218)
(-9.62872 -2.12284e-05 -4.00218)
(-9.62873 2.66835e-06 -4.00218)
(-9.62873 -1.51146e-05 -4.00218)
(-9.62872 1.24715e-05 -4.00217)
(-9.62872 -3.28224e-05 -4.00216)
(-0.576909 -3.89999e-06 0.497322)
(-0.576905 1.63693e-06 0.49735)
(-0.576901 2.69995e-06 0.497313)
(-0.576894 -6.80143e-06 0.497318)
(-0.576889 2.98403e-06 0.497347)
(-0.576887 6.24467e-06 0.497341)
(-0.823247 -5.07198e-06 0.420858)
(-0.82324 -1.66764e-06 0.42086)
(-0.823239 1.01835e-06 0.420857)
(-0.823236 -6.93114e-06 0.42086)
(-0.823233 -1.72689e-06 0.420863)
(-0.823235 2.16054e-06 0.42086)
(-1.05903 -2.84786e-07 -3.06967)
(-1.05902 -6.87068e-07 -3.06969)
(-1.05902 2.69267e-06 -3.06969)
(-1.05902 4.09696e-07 -3.06969)
(-1.05902 2.11286e-06 -3.06969)
(-1.05902 7.38623e-07 -3.06968)
(-0.683765 -1.91415e-06 0.000604673)
(-0.683763 3.8498e-06 0.000582461)
(-0.683764 3.32462e-06 0.000572438)
(-0.68376 -1.21719e-05 0.000576063)
(-0.683757 -5.98143e-06 0.000592773)
(-0.683755 4.08272e-06 0.00059059)
(-1.01974 -3.55324e-07 -0.24649)
(-1.01974 3.12659e-06 -0.246492)
(-1.01974 3.95399e-06 -0.246494)
(-1.01974 -1.0054e-06 -0.246493)
(-1.01974 -1.52034e-06 -0.246488)
(-1.01973 1.15881e-06 -0.246487)
(-1.3079 -8.91847e-07 -1.30834)
(-1.3079 -2.62192e-07 -1.30835)
(-1.3079 6.49543e-07 -1.30835)
(-1.3079 -3.43723e-07 -1.30835)
(-1.3079 5.35354e-08 -1.30835)
(-1.3079 7.75976e-07 -1.30834)
(-0.402099 8.81705e-06 -0.0864351)
(-0.402109 1.30851e-05 -0.0864691)
(-0.402119 7.41122e-06 -0.0864686)
(-0.402124 3.94949e-06 -0.0864708)
(-0.402123 4.41338e-06 -0.0864764)
(-0.402125 3.55451e-06 -0.0864936)
(-0.430576 4.44814e-06 -0.259666)
(-0.43058 7.07097e-06 -0.259672)
(-0.430584 4.84568e-06 -0.259674)
(-0.430586 3.46498e-06 -0.259675)
(-0.430587 2.3829e-06 -0.259675)
(-0.430586 1.15882e-06 -0.259675)
(-0.39745 1.76729e-06 -0.7761)
(-0.397452 2.10459e-06 -0.776108)
(-0.397453 9.42836e-07 -0.77611)
(-0.397454 -2.75847e-09 -0.776112)
(-0.397454 -7.25021e-07 -0.776113)
(-0.397452 -7.93137e-07 -0.776109)
(-0.26028 -1.7199e-05 -0.124444)
(-0.260296 -3.2848e-05 -0.124392)
(-0.260306 -2.84793e-05 -0.124362)
(-0.260314 -2.18358e-05 -0.124346)
(-0.260318 -1.30723e-05 -0.124336)
(-0.260318 -4.06983e-06 -0.124334)
(-0.25693 -2.67884e-06 -0.240188)
(-0.256936 -7.09761e-06 -0.240182)
(-0.25694 -8.8628e-06 -0.240175)
(-0.256943 -8.1155e-06 -0.240169)
(-0.256945 -6.07435e-06 -0.240165)
(-0.256945 -2.35626e-06 -0.240162)
(-0.20233 -3.53007e-07 -0.451962)
(-0.202332 -1.6886e-06 -0.451964)
(-0.202333 -2.70369e-06 -0.451961)
(-0.202334 -2.85742e-06 -0.451959)
(-0.202335 -2.62184e-06 -0.451956)
(-0.202334 -1.27421e-06 -0.451952)
(-0.166375 -2.21571e-05 -0.130009)
(-0.166371 -4.00622e-05 -0.129949)
(-0.166364 -3.15513e-05 -0.12992)
(-0.166358 -2.12214e-05 -0.129903)
(-0.166352 -7.98811e-06 -0.129898)
(-0.166346 -4.14731e-07 -0.129904)
(-0.148595 -4.09017e-06 -0.196166)
(-0.148596 -9.36529e-06 -0.196157)
(-0.148594 -1.00928e-05 -0.196149)
(-0.148592 -8.23945e-06 -0.196142)
(-0.14859 -5.00081e-06 -0.196139)
(-0.148587 -1.57734e-06 -0.196138)
(-0.0897875 -1.10574e-06 -0.288936)
(-0.089788 -2.63458e-06 -0.288935)
(-0.0897877 -2.96965e-06 -0.288932)
(-0.0897872 -2.69647e-06 -0.288929)
(-0.0897866 -2.1114e-06 -0.288926)
(-0.0897856 -9.19482e-07 -0.288923)
(-0.115417 -4.96244e-06 -0.128747)
(-0.115405 -5.94748e-06 -0.12874)
(-0.115394 2.73375e-07 -0.128742)
(-0.115385 5.42027e-06 -0.128746)
(-0.115378 1.05754e-05 -0.128757)
(-0.115374 6.44676e-06 -0.128776)
(-0.0948993 -1.00809e-06 -0.156913)
(-0.0948971 -1.582e-06 -0.156912)
(-0.0948935 -6.40567e-07 -0.156912)
(-0.09489 5.32041e-07 -0.156912)
(-0.0948872 1.52107e-06 -0.156915)
(-0.0948849 9.1767e-07 -0.156917)
(-0.0471963 -4.11722e-07 -0.196335)
(-0.0471959 -8.30912e-07 -0.196336)
(-0.0471951 -7.43198e-07 -0.196335)
(-0.0471943 -5.3146e-07 -0.196335)
(-0.0471936 -4.06118e-07 -0.196335)
(-0.0471928 -2.19693e-07 -0.196334)
(-0.11821 4.12967e-06 -0.131491)
(-0.118209 9.89151e-06 -0.13151)
(-0.118208 1.24976e-05 -0.131524)
(-0.118209 1.35969e-05 -0.131539)
(-0.11821 1.28458e-05 -0.131554)
(-0.118213 5.97692e-06 -0.13157)
(-0.0760614 2.13371e-06 -0.122208)
(-0.0760614 4.63394e-06 -0.12221)
(-0.0760609 5.28553e-06 -0.122213)
(-0.0760607 5.42563e-06 -0.122216)
(-0.0760609 4.64258e-06 -0.122219)
(-0.0760611 1.95888e-06 -0.122222)
(-0.0301734 2.61038e-07 -0.135825)
(-0.0301734 5.31158e-07 -0.135827)
(-0.0301731 5.96565e-07 -0.135829)
(-0.030173 6.13409e-07 -0.13583)
(-0.0301729 4.13612e-07 -0.135832)
(-0.0301727 1.11377e-07 -0.135832)
(-0.0193103 2.26335e-07 -0.00459156)
(-0.0193107 2.46294e-07 -0.00459164)
(-0.0193109 1.0804e-07 -0.00459166)
(-0.019311 1.13254e-07 -0.00459168)
(-0.0193111 1.91379e-08 -0.00459169)
(-0.019311 -2.37701e-08 -0.00459165)
(-0.0138183 1.0601e-07 -0.0123115)
(-0.0138187 1.02421e-07 -0.0123117)
(-0.0138188 2.54925e-08 -0.0123117)
(-0.0138188 4.72579e-08 -0.0123118)
(-0.0138188 3.12526e-08 -0.0123118)
(-0.0138187 1.24175e-08 -0.0123117)
(-0.00519085 2.03897e-08 -0.0176597)
(-0.00519096 1.1538e-08 -0.0176599)