/*--------------------------------*- C++ -*----------------------------------*\
| =========                 |                                                 |
| \\      /  F ield         | OpenFOAM: The Open Source CFD Toolbox           |
|  \\    /   O peration     | Version:  v1612+                                |
|   \\  /    A nd           | Web:      www.OpenFOAM.com                      |
|    \\/     M anipulation  |                                                 |
\*---------------------------------------------------------------------------*/
FoamFile
{
    version     2.0;
    format      ascii;
    class       volScalarField;
    location    "1";
    object      alpha.water;
}
// * * * * * * * * * * * * * * * * * * * * * * * * * * * * * * * * * * * * * //

dimensions      [0 0 0 0 0 0 0];

internalField   nonuniform List<scalar> 
1116
(
1
1
1
1
1
1
1
1
1
1
1
1
1
1
1
1
1
1
1
1
1
1
1
1
0.975936
0.975937
0.975937
0.975937
0.975936
0.975935
0.553822
0.553829
0.553828
0.553827
0.553827
0.553819
0.0290203
0.0290219
0.0290216
0.0290213
0.0290218
0.0290189
0.000161427
0.000161426
0.000161422
0.000161422
0.00016143
0.000161412
5.88436e-06
5.88443e-06
5.88424e-06
5.88427e-06
5.88463e-06
5.88384e-06
1.24924e-07
1.24936e-07
1.24932e-07
1.24932e-07
1.24938e-07
1.24919e-07
1.05937e-09
1.05937e-09
1.05917e-09
1.05908e-09
1.0591e-09
1.0588e-09
1.0221e-10
1.02232e-10
1.02223e-10
1.02214e-10
1.02212e-10
1.02175e-10
1
1
1
1
1
1
1
1
1
1
1
1
1
1
1
1
1
1
0.999995
0.999995
0.999995
0.999995
0.999995
0.999995
0.480729
0.480736
0.480735
0.480732
0.48073
0.480725
0.00423984
0.00424057
0.00424048
0.00424035
0.00424024
0.00423992
0.00267058
0.00267092
0.00267097
0.00267095
0.00267085
0.00267075
0.000647926
0.000647971
0.000647979
0.000647974
0.000647969
0.000647865
2.06516e-06
2.06408e-06
2.06365e-06
2.06375e-06
2.06436e-06
2.06427e-06
9.11277e-09
9.11409e-09
9.11362e-09
9.11344e-09
9.11418e-09
9.11197e-09
7.66382e-11
7.66541e-11
7.66489e-11
7.66435e-11
7.66412e-11
7.66161e-11
-4.59456e-13
-4.60792e-13
-4.6147e-13
-4.61676e-13
-4.61348e-13
-4.61595e-13
1
1
1
1
1
1
1
1
1
1
1
1
0.999997
0.999997
0.999997
0.999997
0.999997
0.999997
0.992124
0.992125
0.992125
0.992125
0.992126
0.992126
0.0995274
0.0995317
0.0995317
0.0995315
0.0995317
0.0995332
4.13545e-05
4.13645e-05
4.13632e-05
4.13629e-05
4.13638e-05
4.13607e-05
1.20612e-06
1.20651e-06
1.20646e-06
1.20648e-06
1.20654e-06
1.20634e-06
3.8488e-05
3.84954e-05
3.84964e-05
3.8496e-05
3.84949e-05
3.84881e-05
1.26736e-07
1.2672e-07
1.26701e-07
1.26695e-07
1.26713e-07
1.26665e-07
2.4133e-10
2.41359e-10
2.41354e-10
2.41363e-10
2.41404e-10
2.41357e-10
1.95257e-12
1.95309e-12
1.9529e-12
1.9527e-12
1.95265e-12
1.95187e-12
8.23301e-14
8.23998e-14
8.24146e-14
8.24092e-14
8.23804e-14
8.23658e-14
1
1
1
1
1
1
0.999999
0.999999
0.999999
0.999999
0.999999
0.999999
0.9897
0.989701
0.989701
0.989701
0.989701
0.989701
0.399915
0.399918
0.399918
0.399918
0.399921
0.399925
0.00735977
0.00736004
0.00736006
0.00736022
0.00736061
0.00736109
1.29534e-06
1.29575e-06
1.29569e-06
1.29571e-06
1.29577e-06
1.29557e-06
3.49234e-08
3.49339e-08
3.49326e-08
3.49349e-08
3.49381e-08
3.49314e-08
1.88221e-08
1.88202e-08
1.88175e-08
1.88166e-08
1.88187e-08
1.88123e-08
6.37519e-10
6.37806e-10
6.37883e-10
6.379e-10
6.37914e-10
6.3772e-10
8.08497e-12
8.08597e-12
8.08624e-12
8.08713e-12
8.08929e-12
8.08817e-12
6.83547e-14
6.8369e-14
6.83642e-14
6.83604e-14
6.83621e-14
6.83404e-14
4.93131e-15
4.93249e-15
4.93203e-15
4.93156e-15
4.93142e-15
4.92957e-15
1.42734e-89
1.42802e-89
1.42787e-89
1.42749e-89
1.42698e-89
1.42555e-89
1.39258e-84
1.39311e-84
1.3929e-84
1.39253e-84
1.39205e-84
1.39069e-84
6.59531e-80
6.59725e-80
6.59609e-80
6.59446e-80
6.59229e-80
6.58604e-80
1.99805e-75
1.99851e-75
1.99814e-75
1.99765e-75
1.99703e-75
1.9952e-75
4.31705e-71
4.31781e-71
4.31691e-71
4.31589e-71
4.31461e-71
4.31079e-71
7.06236e-67
7.06328e-67
7.06165e-67
7.06e-67
7.058e-67
7.05195e-67
9.12724e-63
9.12791e-63
9.12565e-63
9.12354e-63
9.12111e-63
9.1136e-63
9.69037e-59
9.69044e-59
9.68789e-59
9.6857e-59
9.68333e-59
9.67573e-59
8.84237e-55
8.84171e-55
8.83929e-55
8.83738e-55
8.83553e-55
8.82907e-55
7.3815e-51
7.38031e-51
7.37825e-51
7.37681e-51
7.3756e-51
7.37068e-51
5.69944e-47
5.69807e-47
5.69673e-47
5.69604e-47
5.69572e-47
5.6929e-47
3.51318e-43
3.51274e-43
3.51224e-43
3.51216e-43
3.5124e-43
3.51137e-43
3.15279e-85
3.15501e-85
3.15474e-85
3.15387e-85
3.1526e-85
3.14925e-85
3.09934e-80
3.10118e-80
3.10082e-80
3.09998e-80
3.09878e-80
3.09561e-80
1.47247e-75
1.47321e-75
1.47302e-75
1.47265e-75
1.47211e-75
1.47067e-75
4.44404e-71
4.44598e-71
4.44537e-71
4.44427e-71
4.44276e-71
4.43862e-71
9.47425e-67
9.47779e-67
9.47631e-67
9.47407e-67
9.47106e-67
9.4626e-67
1.50995e-62
1.51042e-62
1.51015e-62
1.5098e-62
1.50936e-62
1.50807e-62
1.86982e-58
1.87023e-58
1.86986e-58
1.86944e-58
1.86894e-58
1.86744e-58
1.86399e-54
1.8642e-54
1.8638e-54
1.86341e-54
1.86299e-54
1.86162e-54
1.56667e-50
1.56668e-50
1.56633e-50
1.56603e-50
1.56576e-50
1.56474e-50
1.18747e-46
1.18735e-46
1.18709e-46
1.18691e-46
1.18679e-46
1.18614e-46
8.20968e-43
8.20794e-43
8.20635e-43
8.20577e-43
8.20596e-43
8.20308e-43
4.00137e-39
4.00104e-39
4.00058e-39
4.00062e-39
4.0011e-39
4.00032e-39
4.46502e-81
4.46715e-81
4.46677e-81
4.46603e-81
4.46523e-81
4.46226e-81
4.6348e-76
4.63656e-76
4.63608e-76
4.63538e-76
4.63462e-76
4.63168e-76
2.30889e-71
2.30961e-71
2.30936e-71
2.30905e-71
2.30873e-71
2.30738e-71
7.22168e-67
7.22349e-67
7.22266e-67
7.22179e-67
7.22099e-67
7.21707e-67
1.56842e-62
1.56873e-62
1.56853e-62
1.56836e-62
1.56822e-62
1.56743e-62
2.4885e-58
2.48883e-58
2.48848e-58
2.48823e-58
2.48807e-58
2.4869e-58
2.97703e-54
2.97722e-54
2.97677e-54
2.9765e-54
2.97638e-54
2.9751e-54
2.7492e-50
2.74917e-50
2.74873e-50
2.74851e-50
2.74848e-50
2.74744e-50
1.99342e-46
1.99324e-46
1.99292e-46
1.9928e-46
1.99285e-46
1.99221e-46
1.14854e-42
1.14836e-42
1.14818e-42
1.14813e-42
1.14821e-42
1.14791e-42
6.06633e-39
6.06526e-39
6.06437e-39
6.06428e-39
6.06494e-39
6.06373e-39
2.06117e-35
2.06105e-35
2.06086e-35
2.06092e-35
2.06124e-35
2.06093e-35
2.73093e-77
2.73164e-77
2.73122e-77
2.73079e-77
2.73045e-77
2.72889e-77
3.14125e-72
3.14182e-72
3.14133e-72
3.14088e-72
3.14052e-72
3.13879e-72
1.71539e-67
1.71562e-67
1.71536e-67
1.71514e-67
1.715e-67
1.71413e-67
5.77605e-63
5.77662e-63
5.77572e-63
5.77511e-63
5.77476e-63
5.77209e-63
1.31419e-58
1.31428e-58
1.31407e-58
1.31395e-58
1.3139e-58
1.31334e-58
2.10056e-54
2.10062e-54
2.10028e-54
2.10011e-54
2.10008e-54
2.09927e-54
2.40355e-50
2.40352e-50
2.40314e-50
2.40298e-50
2.40301e-50
2.40218e-50
2.00445e-46
2.00435e-46
2.00404e-46
2.00395e-46
2.00404e-46
2.00343e-46
1.26064e-42
1.26052e-42
1.26034e-42
1.26031e-42
1.26041e-42
1.26009e-42
6.41109e-39
6.41038e-39
6.40955e-39
6.40952e-39
6.41025e-39
6.40899e-39
2.69668e-35
2.69644e-35
2.69617e-35
2.69622e-35
2.69661e-35
2.69622e-35
5.61067e-32
5.61043e-32
5.61005e-32
5.61035e-32
5.61132e-32
5.6106e-32
0.999999
0.999999
0.999999
0.999999
0.999999
0.999999
0.99988
0.99988
0.99988
0.99988
0.99988
0.99988
0.86659
0.866592
0.866592
0.866592
0.866592
0.866595
0.993213
0.993213
0.993213
0.993213
0.993213
0.993213
0.637817
0.637819
0.637818
0.637817
0.637818
0.637821
0.089028
0.0890302
0.0890296
0.0890295
0.0890299
0.0890334
0.480579
0.48058
0.480579
0.480579
0.480581
0.480585
8.87312e-09
8.87312e-09
8.87253e-09
8.87045e-09
8.87045e-09
8.87045e-09
3.70577e-23
3.49401e-23
3.81165e-23
3.81165e-23
3.59989e-23
3.70577e-23
6.03512e-07
6.03138e-07
6.03097e-07
6.03057e-07
6.02815e-07
6.0279e-07
1.89301e-08
1.94246e-08
1.94394e-08
1.9387e-08
1.94334e-08
1.92946e-08
2.32411e-07
2.3263e-07
2.32654e-07
2.32626e-07
2.32666e-07
2.32629e-07
1.59779e-06
1.59873e-06
1.59857e-06
1.59865e-06
1.59894e-06
1.59845e-06
0.000216759
0.000216763
0.000216763
0.000216763
0.000216763
0.000216762
4.19155e-06
4.19497e-06
4.19526e-06
4.19459e-06
4.19499e-06
4.19381e-06
3.55829e-08
3.55949e-08
3.55934e-08
3.55956e-08
3.5599e-08
3.55916e-08
7.08197e-10
1.82646e-09
1.88607e-09
1.68391e-09
1.88644e-09
1.33231e-09
4.93344e-08
4.94038e-08
4.94024e-08
4.93886e-08
4.94058e-08
4.93605e-08
7.08183e-10
7.08406e-10
7.08385e-10
7.08448e-10
7.08533e-10
7.084e-10
2.73219e-11
2.73276e-11
2.73264e-11
2.73261e-11
2.7327e-11
2.73174e-11
1.50845e-11
1.50845e-11
1.50891e-11
1.50895e-11
1.50878e-11
1.50877e-11
5.78982e-10
5.79004e-10
5.78934e-10
5.78874e-10
5.78869e-10
5.78624e-10
1.26452e-11
1.26462e-11
1.26444e-11
1.2643e-11
1.26429e-11
1.26374e-11
2.26795e-13
2.26818e-13
2.26789e-13
2.26761e-13
2.26756e-13
2.26652e-13
9.34578e-12
9.34524e-12
9.34481e-12
9.34548e-12
9.34792e-12
9.34614e-12
2.51884e-13
2.51858e-13
2.51844e-13
2.51862e-13
2.5193e-13
2.51888e-13
4.15973e-15
4.15911e-15
4.15886e-15
4.15921e-15
4.16032e-15
4.15971e-15
2.08319e-13
2.08326e-13
2.08334e-13
2.08366e-13
2.08435e-13
2.08421e-13
1.82899e-14
1.82892e-14
1.82881e-14
1.82889e-14
1.82924e-14
1.82889e-14
2.29142e-16
2.29126e-16
2.29107e-16
2.29116e-16
2.2916e-16
2.29115e-16
1.55416e-14
1.55418e-14
1.55429e-14
1.55461e-14
1.5552e-14
1.5552e-14
4.14332e-16
4.1431e-16
4.14337e-16
4.14433e-16
4.14616e-16
4.14617e-16
2.28735e-17
2.28733e-17
2.28732e-17
2.28742e-17
2.28764e-17
2.28758e-17
2.40396e-16
2.40425e-16
2.40419e-16
2.40435e-16
2.40485e-16
2.40436e-16
2.33117e-17
2.3312e-17
2.33121e-17
2.33133e-17
2.33158e-17
2.33149e-17
3.5022e-18
3.50246e-18
3.50243e-18
3.50269e-18
3.50338e-18
3.50285e-18
3.88135e-26
3.88158e-26
3.88144e-26
3.88167e-26
3.88231e-26
3.88174e-26
4.3145e-28
4.31474e-28
4.3146e-28
4.31489e-28
4.31566e-28
4.31506e-28
1.73938e-30
1.73948e-30
1.73942e-30
1.73954e-30
1.73985e-30
1.73962e-30
6.79823e-24
6.79866e-24
6.79843e-24
6.7988e-24
6.7999e-24
6.79885e-24
9.74182e-26
9.74235e-26
9.74203e-26
9.74266e-26
9.74436e-26
9.74298e-26
5.60516e-28
5.60545e-28
5.60526e-28
5.60564e-28
5.60664e-28
5.60589e-28
8.03095e-22
8.03149e-22
8.03123e-22
8.03163e-22
8.0329e-22
8.0316e-22
1.48461e-23
1.48469e-23
1.48464e-23
1.48473e-23
1.48499e-23
1.48477e-23
1.20778e-25
1.20784e-25
1.2078e-25
1.20788e-25
1.2081e-25
1.20793e-25
6.21616e-20
6.21664e-20
6.21646e-20
6.21674e-20
6.21769e-20
6.21663e-20
1.49733e-21
1.49741e-21
1.49737e-21
1.49746e-21
1.49772e-21
1.49749e-21
1.72056e-23
1.72064e-23
1.72059e-23
1.7207e-23
1.721e-23
1.72077e-23
3.03152e-18
3.03182e-18
3.03175e-18
3.03187e-18
3.03231e-18
3.03176e-18
9.75597e-20
9.75661e-20
9.75638e-20
9.75695e-20
9.75863e-20
9.75711e-20
1.60129e-21
1.60137e-21
1.60133e-21
1.60143e-21
1.60172e-21
1.60149e-21
2.69015e-17
2.69019e-17
2.69018e-17
2.69019e-17
2.69025e-17
2.69017e-17
3.96281e-18
3.96315e-18
3.96309e-18
3.96332e-18
3.96401e-18
3.96336e-18
9.44917e-20
9.44972e-20
9.44954e-20
9.45018e-20
9.45192e-20
9.45055e-20
9.09951e-74
9.10166e-74
9.10117e-74
9.10132e-74
9.10228e-74
9.10001e-74
2.74335e-77
2.74395e-77
2.74378e-77
2.74382e-77
2.74409e-77
2.74339e-77
1.77707e-81
1.77744e-81
1.77734e-81
1.77738e-81
1.77757e-81
1.77713e-81
1.4511e-68
1.45136e-68
1.45128e-68
1.45132e-68
1.45148e-68
1.45112e-68
5.91857e-72
5.91951e-72
5.91916e-72
5.91929e-72
5.91989e-72
5.91837e-72
4.41723e-76
4.41791e-76
4.41764e-76
4.41776e-76
4.41822e-76
4.4171e-76
1.09339e-63
1.09355e-63
1.0935e-63
1.09354e-63
1.09369e-63
1.09345e-63
6.21254e-67
6.2134e-67
6.21307e-67
6.21329e-67
6.21406e-67
6.21266e-67
5.62968e-71
5.63046e-71
5.63016e-71
5.63038e-71
5.63108e-71
5.62981e-71
5.02803e-59
5.0287e-59
5.0285e-59
5.02875e-59
5.02948e-59
5.02851e-59
4.03409e-62
4.03459e-62
4.03439e-62
4.03458e-62
4.03515e-62
4.03434e-62
4.64807e-66
4.64867e-66
4.64843e-66
4.64865e-66
4.64929e-66
4.64833e-66
1.53215e-54
1.53233e-54
1.53227e-54
1.53236e-54
1.5326e-54
1.53232e-54
1.73399e-57
1.73418e-57
1.73409e-57
1.73419e-57
1.73445e-57
1.73414e-57
2.64458e-61
2.64488e-61
2.64474e-61
2.64487e-61
2.64525e-61
2.64475e-61
3.16666e-50
3.16699e-50
3.16687e-50
3.16706e-50
3.16758e-50
3.16706e-50
4.97788e-53
4.97835e-53
4.97812e-53
4.97843e-53
4.97925e-53
4.97846e-53
1.04124e-56
1.04134e-56
1.04129e-56
1.04134e-56
1.0415e-56
1.04133e-56
4.39597e-46
4.39637e-46
4.3962e-46
4.3965e-46
4.39723e-46
4.39657e-46
9.3305e-49
9.33125e-49
9.33087e-49
9.33152e-49
9.33315e-49
9.3318e-49
2.76503e-52
2.76527e-52
2.76514e-52
2.76532e-52
2.76579e-52
2.76537e-52
3.94782e-42
3.94812e-42
3.94799e-42
3.94826e-42
3.94893e-42
3.94836e-42
1.09485e-44
1.09493e-44
1.09489e-44
1.09497e-44
1.09517e-44
1.09502e-44
4.74629e-48
4.74664e-48
4.74645e-48
4.74679e-48
4.74763e-48
4.74697e-48
2.15542e-38
2.15557e-38
2.15549e-38
2.15564e-38
2.15601e-38
2.15571e-38
7.6608e-41
7.66128e-41
7.66104e-41
7.66162e-41
7.66303e-41
7.66205e-41
5.00967e-44
5.01001e-44
5.00983e-44
5.01021e-44
5.01113e-44
5.01051e-44
6.67796e-35
6.67839e-35
6.67815e-35
6.67859e-35
6.67974e-35
6.6788e-35
3.06098e-37
3.06116e-37
3.06107e-37
3.0613e-37
3.06187e-37
3.06148e-37
3.09179e-40
3.09199e-40
3.0919e-40
3.09215e-40
3.09273e-40
3.09237e-40
1.11867e-31
1.11874e-31
1.1187e-31
1.11877e-31
1.11896e-31
1.1188e-31
6.68043e-34
6.68082e-34
6.68061e-34
6.6811e-34
6.68232e-34
6.68148e-34
1.06292e-36
1.06299e-36
1.06296e-36
1.06304e-36
1.06324e-36
1.06311e-36
9.46356e-29
9.46408e-29
9.46372e-29
9.4643e-29
9.46589e-29
9.46456e-29
7.57576e-31
7.57617e-31
7.57593e-31
7.57646e-31
7.57781e-31
7.57682e-31
1.97102e-33
1.97113e-33
1.97107e-33
1.97121e-33
1.97157e-33
1.97132e-33
)
;

boundaryField
{
    seabed_topleft_surface
    {
        type            zeroGradient;
    }
    seabed_topright_surface
    {
        type            zeroGradient;
    }
    breakwater_top_surface
    {
        type            zeroGradient;
    }
    breakwater_left_surface
    {
        type            zeroGradient;
    }
    breakwater_right_surface
    {
        type            zeroGradient;
    }
    water_front_surface
    {
        type            zeroGradient;
    }
    water_back_surface
    {
        type            zeroGradient;
    }
    water_left_surface
    {
        type            zeroGradient;
    }
    water_right_surface
    {
        type            zeroGradient;
    }
    water_top_surface
    {
        type            inletOutlet;
        inletValue      uniform 0;
        value           nonuniform List<scalar> 
180
(
0.86659
0.866592
0.866592
0.866592
0.866592
0.866595
0.089028
0.0890302
0.0890296
0.0890295
0.0890299
0.0890334
0
0
0
0
0
0
0
0
0
0
0
0
0
0
0
0
0
0
4.93344e-08
4.94038e-08
4.94024e-08
4.93886e-08
4.94058e-08
4.93605e-08
1.50845e-11
1.50845e-11
1.50891e-11
1.50895e-11
1.50878e-11
1.50877e-11
2.26795e-13
2.26818e-13
2.26789e-13
2.26761e-13
2.26756e-13
2.26652e-13
4.15973e-15
4.15911e-15
4.15886e-15
4.15921e-15
4.16032e-15
4.15971e-15
2.29142e-16
2.29126e-16
2.29107e-16
2.29116e-16
2.2916e-16
2.29115e-16
2.28735e-17
2.28733e-17
2.28732e-17
2.28742e-17
2.28764e-17
2.28758e-17
3.5022e-18
3.50246e-18
3.50243e-18
3.50269e-18
3.50338e-18
3.50285e-18
1.73938e-30
1.73948e-30
1.73942e-30
1.73954e-30
1.73985e-30
1.73962e-30
5.60516e-28
5.60545e-28
5.60526e-28
5.60564e-28
5.60664e-28
5.60589e-28
1.20778e-25
1.20784e-25
1.2078e-25
1.20788e-25
1.2081e-25
1.20793e-25
1.72056e-23
1.72064e-23
1.72059e-23
1.7207e-23
1.721e-23
1.72077e-23
1.60129e-21
1.60137e-21
1.60133e-21
1.60143e-21
1.60172e-21
1.60149e-21
9.44917e-20
9.44972e-20
9.44954e-20
9.45018e-20
9.45192e-20
9.45055e-20
1.77707e-81
1.77744e-81
1.77734e-81
1.77738e-81
1.77757e-81
1.77713e-81
4.41723e-76
4.41791e-76
4.41764e-76
4.41776e-76
4.41822e-76
4.4171e-76
5.62968e-71
5.63046e-71
5.63016e-71
5.63038e-71
5.63108e-71
5.62981e-71
4.64807e-66
4.64867e-66
4.64843e-66
4.64865e-66
4.64929e-66
4.64833e-66
2.64458e-61
2.64488e-61
2.64474e-61
2.64487e-61
2.64525e-61
2.64475e-61
1.04124e-56
1.04134e-56
1.04129e-56
1.04134e-56
1.0415e-56
1.04133e-56
2.76503e-52
2.76527e-52
2.76514e-52
2.76532e-52
2.76579e-52
2.76537e-52
4.74629e-48
4.74664e-48
4.74645e-48
4.74679e-48
4.74763e-48
4.74697e-48
5.00967e-44
5.01001e-44
5.00983e-44
5.01021e-44
5.01113e-44
5.01051e-44
3.09179e-40
3.09199e-40
3.0919e-40
3.09215e-40
3.09273e-40
3.09237e-40
1.06292e-36
1.06299e-36
1.06296e-36
1.06304e-36
1.06324e-36
1.06311e-36
1.97102e-33
1.97113e-33
1.97107e-33
1.97121e-33
1.97157e-33
1.97132e-33
)
;
    }
}


// ************************************************************************* //
