/*--------------------------------*- C++ -*----------------------------------*\
| =========                 |                                                 |
| \\      /  F ield         | OpenFOAM: The Open Source CFD Toolbox           |
|  \\    /   O peration     | Version:  v1612+                                |
|   \\  /    A nd           | Web:      www.OpenFOAM.com                      |
|    \\/     M anipulation  |                                                 |
\*---------------------------------------------------------------------------*/
FoamFile
{
    version     2.0;
    format      ascii;
    class       volScalarField;
    location    "1";
    object      p;
}
// * * * * * * * * * * * * * * * * * * * * * * * * * * * * * * * * * * * * * //

dimensions      [1 -1 -2 0 0 0 0];

internalField   nonuniform List<scalar> 
1116
(
39184.6
39184.6
39184.6
39184.6
39184.6
39184.7
37542.8
37542.8
37542.8
37542.8
37542.8
37542.8
34141.3
34141.3
34141.3
34141.3
34141.3
34141.3
27760.6
27760.6
27760.6
27760.6
27760.6
27760.6
15705.7
15705.8
15705.8
15705.7
15705.7
15705.6
3215.34
3215.36
3215.36
3215.33
3215.3
3215.21
158.077
158.096
158.099
158.098
158.092
158.086
40.1625
40.1641
40.1651
40.166
40.1657
40.1653
52.873
52.8727
52.8727
52.8718
52.8706
52.869
47.7876
47.7881
47.789
47.7888
47.7884
47.7877
38.5193
38.5191
38.5192
38.5197
38.5205
38.521
34.4944
34.4942
34.4937
34.4935
34.4936
34.4937
30599.3
30599.3
30599.3
30599.3
30599.3
30599.3
28533.2
28533.2
28533.2
28533.2
28533.2
28533.1
24752.9
24752.8
24752.8
24752.8
24752.8
24752.8
16515.2
16515.2
16515.2
16515.2
16515.1
16515.1
2389.82
2389.84
2389.86
2389.84
2389.81
2389.77
-86.6635
-86.6611
-86.6603
-86.6608
-86.6679
-86.6603
-161.768
-161.765
-161.764
-161.761
-161.758
-161.752
1.03257
1.03113
1.03151
1.03142
1.0305
1.02835
36.893
36.8941
36.8946
36.8938
36.8927
36.8906
28.1437
28.1442
28.1444
28.1444
28.1446
28.1447
22.2697
22.269
22.2682
22.268
22.2682
22.2683
19.1039
19.1036
19.1033
19.1031
19.1031
19.103
23701.7
23701.7
23701.7
23701.7
23701.7
23701.7
20575
20574.9
20574.9
20574.9
20574.9
20574.9
16344.6
16344.5
16344.5
16344.5
16344.4
16344.4
7288.88
7288.83
7288.8
7288.79
7288.81
7288.86
101.01
101.002
101.001
101
100.998
100.999
-45.9471
-45.9446
-45.9433
-45.9421
-45.9418
-45.9385
-54.8271
-54.8286
-54.828
-54.8272
-54.8266
-54.8248
-20.0863
-20.0866
-20.086
-20.086
-20.0855
-20.0854
2.7795
2.78068
2.78147
2.78169
2.78221
2.78252
3.7752
3.77472
3.77411
3.77378
3.77354
3.77332
2.4828
2.48218
2.48161
2.48121
2.48078
2.48047
0.59185
0.591877
0.592113
0.59245
0.592732
0.592891
15549.6
15549.6
15549.6
15549.6
15549.6
15549.6
14032.7
14032.7
14032.6
14032.6
14032.6
14032.6
8428.29
8428.15
8428.09
8428.07
8428.05
8428.06
1115.18
1115.22
1115.23
1115.24
1115.26
1115.32
-26.4951
-26.492
-26.4906
-26.4904
-26.4889
-26.486
-32.5889
-32.5896
-32.5893
-32.5893
-32.5897
-32.5898
-44.0626
-44.0631
-44.063
-44.0631
-44.0623
-44.0614
-29.5799
-29.5803
-29.5805
-29.5806
-29.5799
-29.5786
-19.1068
-19.1069
-19.107
-19.1063
-19.1055
-19.1049
-15.956
-15.9562
-15.9561
-15.9558
-15.9556
-15.9557
-16.0154
-16.0153
-16.0149
-16.0147
-16.0149
-16.0151
-17.3939
-17.3936
-17.3934
-17.3934
-17.3933
-17.3933
-4.87168
-4.87169
-4.87169
-4.8717
-4.87171
-4.87171
-4.86905
-4.86907
-4.86909
-4.8691
-4.8691
-4.86911
-4.86361
-4.86366
-4.86368
-4.86369
-4.86369
-4.86368
-4.855
-4.85507
-4.85509
-4.85509
-4.85508
-4.85506
-4.84275
-4.84282
-4.84284
-4.84283
-4.84281
-4.84277
-4.8264
-4.82647
-4.82649
-4.82647
-4.82643
-4.82638
-4.80571
-4.80576
-4.80577
-4.80574
-4.80569
-4.80564
-4.78077
-4.78081
-4.78081
-4.78077
-4.78072
-4.78067
-4.75225
-4.75228
-4.75227
-4.75224
-4.75219
-4.75214
-4.72154
-4.72156
-4.72155
-4.72152
-4.72148
-4.72144
-4.69438
-4.6944
-4.6944
-4.69438
-4.69435
-4.69433
-4.67088
-4.67091
-4.67091
-4.67089
-4.67087
-4.67084
-14.6839
-14.6839
-14.6839
-14.6839
-14.6839
-14.6839
-14.6813
-14.6813
-14.6813
-14.6813
-14.6813
-14.6813
-14.676
-14.676
-14.6761
-14.6761
-14.6761
-14.676
-14.6676
-14.6676
-14.6676
-14.6676
-14.6676
-14.6675
-14.6554
-14.6554
-14.6555
-14.6554
-14.6554
-14.6553
-14.639
-14.639
-14.639
-14.639
-14.6389
-14.6388
-14.6178
-14.6179
-14.6178
-14.6178
-14.6177
-14.6177
-14.592
-14.592
-14.5919
-14.5919
-14.5918
-14.5918
-14.5621
-14.5621
-14.5621
-14.562
-14.562
-14.5619
-14.5302
-14.5303
-14.5302
-14.5302
-14.5302
-14.5301
-14.4957
-14.4958
-14.4958
-14.4957
-14.4957
-14.4957
-14.4623
-14.4623
-14.4623
-14.4623
-14.4622
-14.4622
-24.4984
-24.4984
-24.4984
-24.4984
-24.4984
-24.4984
-24.496
-24.496
-24.496
-24.496
-24.496
-24.496
-24.491
-24.491
-24.491
-24.491
-24.491
-24.491
-24.4829
-24.483
-24.483
-24.483
-24.4829
-24.4829
-24.4712
-24.4712
-24.4712
-24.4712
-24.4711
-24.4711
-24.4549
-24.4549
-24.4549
-24.4549
-24.4548
-24.4548
-24.4332
-24.4332
-24.4331
-24.4331
-24.433
-24.433
-24.4045
-24.4045
-24.4045
-24.4044
-24.4044
-24.4043
-24.3661
-24.3661
-24.366
-24.366
-24.366
-24.3659
-24.314
-24.3141
-24.314
-24.314
-24.314
-24.314
-24.2609
-24.2609
-24.2609
-24.2609
-24.2609
-24.2609
-24.2068
-24.2069
-24.2069
-24.2069
-24.2068
-24.2068
-34.315
-34.315
-34.315
-34.315
-34.315
-34.315
-34.3129
-34.3129
-34.3129
-34.3129
-34.3129
-34.3129
-34.3084
-34.3084
-34.3084
-34.3084
-34.3084
-34.3084
-34.3012
-34.3012
-34.3012
-34.3012
-34.3011
-34.3011
-34.2903
-34.2904
-34.2903
-34.2903
-34.2903
-34.2902
-34.275
-34.275
-34.275
-34.2749
-34.2749
-34.2748
-34.2539
-34.2539
-34.2539
-34.2538
-34.2538
-34.2537
-34.2263
-34.2263
-34.2262
-34.2262
-34.2262
-34.2261
-34.1928
-34.1928
-34.1928
-34.1928
-34.1927
-34.1927
-34.1545
-34.1545
-34.1545
-34.1545
-34.1545
-34.1545
-34.1018
-34.1019
-34.1019
-34.1019
-34.1019
-34.1018
-34.039
-34.039
-34.039
-34.0389
-34.0388
-34.0387
17071.3
17071.3
17071.2
17071.2
17071.2
17071.2
-1929.63
-1929.69
-1929.71
-1929.73
-1929.74
-1929.79
-528.284
-528.422
-528.415
-528.434
-528.43
-528.514
12398.8
12398.8
12398.8
12398.8
12398.8
12398.8
163.476
163.478
163.48
163.485
163.491
163.49
-304.823
-304.826
-304.824
-304.824
-304.823
-304.84
2384.29
2384.29
2384.29
2384.29
2384.3
2384.29
-12.9914
-12.9901
-12.9895
-12.988
-12.9883
-12.9944
-164.849
-164.845
-164.842
-164.84
-164.836
-164.832
-91.1646
-91.1605
-91.1588
-91.1591
-91.1594
-91.1607
-95.3885
-95.3867
-95.3847
-95.3836
-95.383
-95.3832
-123.12
-123.12
-123.119
-123.118
-123.117
-123.116
-139.496
-139.496
-139.497
-139.499
-139.499
-139.499
-95.1427
-95.1437
-95.1444
-95.145
-95.1463
-95.1473
-84.7892
-84.7894
-84.7893
-84.7893
-84.7898
-84.79
-57.8072
-57.806
-57.8052
-57.8047
-57.8044
-57.8047
-77.2697
-77.2697
-77.2696
-77.2699
-77.2701
-77.2707
-76.6136
-76.6135
-76.6136
-76.6137
-76.614
-76.6145
-55.5129
-55.5125
-55.5128
-55.5131
-55.5128
-55.5126
-63.8663
-63.8664
-63.8667
-63.8668
-63.8668
-63.8668
-69.2172
-69.2172
-69.2174
-69.2175
-69.2176
-69.2178
-41.9588
-41.9595
-41.9601
-41.96
-41.9596
-41.9591
-54.6863
-54.6867
-54.6868
-54.6865
-54.6862
-54.686
-65.5043
-65.5043
-65.5042
-65.5041
-65.504
-65.504
-36.1163
-36.1167
-36.1164
-36.1156
-36.1147
-36.1142
-50.799
-50.7988
-50.7982
-50.7977
-50.7973
-50.7972
-63.3253
-63.325
-63.3247
-63.3245
-63.3244
-63.3244
-32.8838
-32.8832
-32.8823
-32.8817
-32.8813
-32.8812
-48.1225
-48.122
-48.1214
-48.1213
-48.1213
-48.1214
-62.2814
-62.2812
-62.2811
-62.2812
-62.2812
-62.2813
-32.8923
-32.8917
-32.8914
-32.8915
-32.8918
-32.892
-47.798
-47.7978
-47.798
-47.7983
-47.7986
-47.7987
-61.8718
-61.872
-61.8722
-61.8723
-61.8725
-61.8726
-34.5878
-34.5878
-34.5882
-34.5887
-34.589
-34.5892
-48.2902
-48.2905
-48.2909
-48.2912
-48.2915
-48.2915
-61.8929
-61.8931
-61.8933
-61.8934
-61.8934
-61.8934
-43.097
-43.0971
-43.097
-43.0969
-43.0968
-43.0967
-53.1949
-53.1949
-53.1948
-53.1946
-53.1945
-53.1944
-63.4736
-63.4736
-63.4735
-63.4735
-63.4734
-63.4734
-42.6774
-42.6774
-42.6773
-42.6771
-42.677
-42.6769
-52.8791
-52.8791
-52.8789
-52.8788
-52.8786
-52.8785
-63.3577
-63.3577
-63.3576
-63.3576
-63.3575
-63.3575
-42.1106
-42.1106
-42.1105
-42.1104
-42.1103
-42.1102
-52.4554
-52.4553
-52.4552
-52.4551
-52.455
-52.4549
-63.2032
-63.2032
-63.2032
-63.2031
-63.2031
-63.2031
-41.3293
-41.3293
-41.3293
-41.3292
-41.3291
-41.3291
-51.8844
-51.8844
-51.8844
-51.8843
-51.8842
-51.8842
-63.0002
-63.0002
-63.0002
-63.0001
-63.0001
-63.0001
-40.4171
-40.4172
-40.4173
-40.4173
-40.4173
-40.4173
-51.147
-51.1471
-51.1472
-51.1472
-51.1471
-51.1471
-62.7422
-62.7422
-62.7422
-62.7422
-62.7422
-62.7421
-39.7669
-39.7672
-39.7675
-39.7678
-39.7679
-39.7678
-50.2287
-50.2289
-50.2291
-50.2292
-50.2292
-50.2291
-62.4163
-62.4164
-62.4164
-62.4164
-62.4164
-62.4164
-44.1178
-44.1178
-44.1178
-44.1178
-44.1178
-44.1178
-53.938
-53.938
-53.938
-53.938
-53.938
-53.938
-63.7591
-63.7591
-63.7591
-63.7591
-63.7591
-63.7591
-44.1161
-44.1161
-44.1161
-44.1161
-44.1161
-44.1161
-53.9369
-53.9369
-53.9369
-53.9369
-53.9369
-53.9369
-63.7587
-63.7587
-63.7587
-63.7587
-63.7587
-63.7587
-44.1126
-44.1126
-44.1126
-44.1126
-44.1126
-44.1126
-53.9346
-53.9346
-53.9346
-53.9346
-53.9346
-53.9346
-63.7579
-63.7579
-63.7579
-63.7579
-63.7579
-63.7579
-44.1066
-44.1067
-44.1066
-44.1066
-44.1066
-44.1066
-53.9307
-53.9307
-53.9307
-53.9307
-53.9307
-53.9306
-63.7565
-63.7565
-63.7565
-63.7565
-63.7565
-63.7565
-44.0976
-44.0976
-44.0976
-44.0976
-44.0976
-44.0975
-53.9246
-53.9246
-53.9246
-53.9246
-53.9246
-53.9246
-63.7542
-63.7542
-63.7542
-63.7542
-63.7542
-63.7542
-44.0842
-44.0842
-44.0842
-44.0842
-44.0841
-44.0841
-53.9154
-53.9154
-53.9154
-53.9154
-53.9154
-53.9153
-63.7507
-63.7507
-63.7507
-63.7507
-63.7507
-63.7507
-44.0642
-44.0642
-44.0642
-44.0642
-44.0642
-44.0641
-53.9014
-53.9014
-53.9014
-53.9013
-53.9013
-53.9013
-63.7454
-63.7454
-63.7454
-63.7454
-63.7454
-63.7453
-44.0334
-44.0334
-44.0333
-44.0333
-44.0333
-44.0333
-53.8796
-53.8796
-53.8796
-53.8796
-53.8795
-53.8795
-63.7369
-63.7369
-63.7369
-63.7369
-63.7369
-63.7369
-43.983
-43.983
-43.983
-43.983
-43.983
-43.983
-53.8451
-53.8451
-53.8451
-53.8451
-53.8451
-53.8451
-63.7231
-63.7231
-63.7231
-63.7231
-63.7231
-63.7231
-43.8973
-43.8973
-43.8973
-43.8973
-43.8973
-43.8973
-53.7895
-53.7895
-53.7895
-53.7895
-53.7895
-53.7895
-63.7
-63.7001
-63.7001
-63.7001
-63.7
-63.7
-43.7481
-43.7482
-43.7482
-43.7482
-43.7481
-43.748
-53.6897
-53.6898
-53.6898
-53.6897
-53.6897
-53.6896
-63.6587
-63.6587
-63.6587
-63.6587
-63.6586
-63.6586
-43.5077
-43.5078
-43.5077
-43.5076
-43.5075
-43.5073
-53.5157
-53.5157
-53.5156
-53.5155
-53.5154
-53.5152
-63.5867
-63.5867
-63.5866
-63.5866
-63.5865
-63.5865
)
;

boundaryField
{
    seabed_topleft_surface
    {
        type            calculated;
        value           nonuniform List<scalar> 
72
(
44106.5
44106.5
44106.5
44106.5
44106.5
44106.5
42464.6
42464.7
42464.7
42464.6
42464.6
42464.6
39063.2
39063.2
39063.2
39063.2
39063.1
39063.1
32682.5
32682.5
32682.5
32682.5
32682.5
32682.4
20509.3
20509.3
20509.3
20509.3
20509.2
20509.1
5943.37
5943.42
5943.42
5943.38
5943.36
5943.22
305.689
305.716
305.718
305.715
305.712
305.692
45.8781
45.8797
45.8807
45.8815
45.8813
45.8808
57.8238
57.8235
57.8235
57.8226
57.8214
57.8198
52.7101
52.7106
52.7114
52.7113
52.7108
52.7101
43.4411
43.441
43.4411
43.4416
43.4423
43.4429
39.4163
39.4161
39.4155
39.4153
39.4154
39.4155
)
;
    }
    seabed_topright_surface
    {
        type            calculated;
        value           nonuniform List<scalar> 
72
(
0.0501787
0.0501696
0.0501616
0.050153
0.0501462
0.0501428
0.0528083
0.0527821
0.0527676
0.0527578
0.0527519
0.05275
0.0582463
0.0581964
0.0581755
0.0581678
0.058168
0.0581737
0.0668564
0.0667875
0.0667654
0.0667641
0.0667762
0.0667955
0.0791105
0.0790329
0.0790135
0.0790231
0.0790501
0.0790849
0.0954532
0.0953812
0.0953687
0.0953901
0.0954296
0.0954766
0.11615
0.116091
0.116086
0.116117
0.116164
0.116217
0.141087
0.141045
0.141048
0.141083
0.141132
0.141186
0.169604
0.169577
0.169585
0.169621
0.169667
0.169715
0.200311
0.200292
0.200302
0.200333
0.200372
0.200411
0.227478
0.227454
0.227457
0.227476
0.227502
0.22753
0.250971
0.25095
0.250948
0.250962
0.250986
0.251012
)
;
    }
    breakwater_top_surface
    {
        type            calculated;
        value           nonuniform List<scalar> 
36
(
-38.192
-38.1921
-38.192
-38.1919
-38.1918
-38.1917
-37.7724
-37.7724
-37.7723
-37.7721
-37.772
-37.7719
-37.2056
-37.2056
-37.2055
-37.2054
-37.2053
-37.2052
-36.4243
-36.4243
-36.4243
-36.4242
-36.4241
-36.4241
-35.5121
-35.5122
-35.5123
-35.5123
-35.5123
-35.5123
-34.8619
-34.8622
-34.8625
-34.8628
-34.8629
-34.8628
)
;
    }
    breakwater_left_surface
    {
        type            calculated;
        value           nonuniform List<scalar> 
24
(
34.5113
34.5111
34.5105
34.5103
34.5104
34.5105
19.1204
19.1202
19.1198
19.1197
19.1196
19.1195
0.608038
0.608065
0.608301
0.608638
0.60892
0.609079
-17.378
-17.3777
-17.3775
-17.3775
-17.3774
-17.3774
)
;
    }
    breakwater_right_surface
    {
        type            calculated;
        value           nonuniform List<scalar> 
24
(
-4.65403
-4.65405
-4.65405
-4.65404
-4.65401
-4.65399
-14.4457
-14.4458
-14.4458
-14.4458
-14.4457
-14.4457
-24.1906
-24.1907
-24.1907
-24.1907
-24.1906
-24.1906
-34.0231
-34.0231
-34.0231
-34.023
-34.0229
-34.0228
)
;
    }
    water_front_surface
    {
        type            calculated;
        value           nonuniform List<scalar> 
186
(
39184.6
37542.8
34141.3
27760.6
15705.7
3215.34
158.077
40.1625
52.873
47.7876
38.5193
34.4944
30599.3
28533.2
24752.9
16515.2
2389.82
-86.6635
-161.768
1.03257
36.893
28.1437
22.2697
19.1039
23701.7
20575
16344.6
7288.88
101.01
-45.9471
-54.8271
-20.0863
2.7795
3.7752
2.4828
0.59185
15549.6
14032.7
8428.29
1115.18
-26.4951
-32.5889
-44.0626
-29.5799
-19.1068
-15.956
-16.0154
-17.3939
-4.87168
-4.86905
-4.86361
-4.855
-4.84275
-4.8264
-4.80571
-4.78077
-4.75225
-4.72154
-4.69438
-4.67088
-14.6839
-14.6813
-14.676
-14.6676
-14.6554
-14.639
-14.6178
-14.592
-14.5621
-14.5302
-14.4957
-14.4623
-24.4984
-24.496
-24.491
-24.4829
-24.4712
-24.4549
-24.4332
-24.4045
-24.3661
-24.314
-24.2609
-24.2068
-34.315
-34.3129
-34.3084
-34.3012
-34.2903
-34.275
-34.2539
-34.2263
-34.1928
-34.1545
-34.1018
-34.039
17071.3
-1929.63
-528.284
12398.8
163.476
-304.823
2384.29
-12.9914
-164.849
-91.1646
-95.3885
-123.12
-139.496
-95.1427
-84.7892
-57.8072
-77.2697
-76.6136
-55.5129
-63.8663
-69.2172
-41.9588
-54.6863
-65.5043
-36.1163
-50.799
-63.3253
-32.8838
-48.1225
-62.2814
-32.8923
-47.798
-61.8718
-34.5878
-48.2902
-61.8929
-43.097
-53.1949
-63.4736
-42.6774
-52.8791
-63.3577
-42.1106
-52.4554
-63.2032
-41.3293
-51.8844
-63.0002
-40.4171
-51.147
-62.7422
-39.7669
-50.2287
-62.4163
-44.1178
-53.938
-63.7591
-44.1161
-53.9369
-63.7587
-44.1126
-53.9346
-63.7579
-44.1066
-53.9307
-63.7565
-44.0976
-53.9246
-63.7542
-44.0842
-53.9154
-63.7507
-44.0642
-53.9014
-63.7454
-44.0334
-53.8796
-63.7369
-43.983
-53.8451
-63.7231
-43.8973
-53.7895
-63.7
-43.7481
-53.6897
-63.6587
-43.5077
-53.5157
-63.5867
)
;
    }
    water_back_surface
    {
        type            calculated;
        value           nonuniform List<scalar> 
186
(
39184.7
37542.8
34141.3
27760.6
15705.6
3215.21
158.086
40.1653
52.869
47.7877
38.521
34.4937
30599.3
28533.1
24752.8
16515.1
2389.77
-86.6603
-161.752
1.02835
36.8906
28.1447
22.2683
19.103
23701.7
20574.9
16344.4
7288.86
100.999
-45.9385
-54.8248
-20.0854
2.78252
3.77332
2.48047
0.592891
15549.6
14032.6
8428.06
1115.32
-26.486
-32.5898
-44.0614
-29.5786
-19.1049
-15.9557
-16.0151
-17.3933
-4.87171
-4.86911
-4.86368
-4.85506
-4.84277
-4.82638
-4.80564
-4.78067
-4.75214
-4.72144
-4.69433
-4.67084
-14.6839
-14.6813
-14.676
-14.6675
-14.6553
-14.6388
-14.6177
-14.5918
-14.5619
-14.5301
-14.4957
-14.4622
-24.4984
-24.496
-24.491
-24.4829
-24.4711
-24.4548
-24.433
-24.4043
-24.3659
-24.314
-24.2609
-24.2068
-34.315
-34.3129
-34.3084
-34.3011
-34.2902
-34.2748
-34.2537
-34.2261
-34.1927
-34.1545
-34.1018
-34.0387
17071.2
-1929.79
-528.514
12398.8
163.49
-304.84
2384.29
-12.9944
-164.832
-91.1607
-95.3832
-123.116
-139.499
-95.1473
-84.79
-57.8047
-77.2707
-76.6145
-55.5126
-63.8668
-69.2178
-41.9591
-54.686
-65.504
-36.1142
-50.7972
-63.3244
-32.8812
-48.1214
-62.2813
-32.892
-47.7987
-61.8726
-34.5892
-48.2915
-61.8934
-43.0967
-53.1944
-63.4734
-42.6769
-52.8785
-63.3575
-42.1102
-52.4549
-63.2031
-41.3291
-51.8842
-63.0001
-40.4173
-51.1471
-62.7421
-39.7678
-50.2291
-62.4164
-44.1178
-53.938
-63.7591
-44.1161
-53.9369
-63.7587
-44.1126
-53.9346
-63.7579
-44.1066
-53.9306
-63.7565
-44.0975
-53.9246
-63.7542
-44.0841
-53.9153
-63.7507
-44.0641
-53.9013
-63.7453
-44.0333
-53.8795
-63.7369
-43.983
-53.8451
-63.7231
-43.8973
-53.7895
-63.7
-43.748
-53.6896
-63.6586
-43.5073
-53.5152
-63.5865
)
;
    }
    water_left_surface
    {
        type            calculated;
        value           nonuniform List<scalar> 
42
(
39201.5
39201.5
39201.5
39201.5
39201.5
39201.5
30615.8
30615.8
30615.8
30615.8
30615.8
30615.8
23717.8
23717.8
23717.9
23717.9
23717.9
23717.8
15565.5
15565.5
15565.5
15565.5
15565.5
15565.4
17071.3
17071.3
17071.2
17071.2
17071.2
17071.2
-1929.63
-1929.69
-1929.71
-1929.73
-1929.74
-1929.79
-528.284
-528.422
-528.415
-528.434
-528.43
-528.514
)
;
    }
    water_right_surface
    {
        type            calculated;
        value           nonuniform List<scalar> 
42
(
-4.85482
-4.85483
-4.85484
-4.85485
-4.85485
-4.85486
-14.6673
-14.6673
-14.6674
-14.6674
-14.6674
-14.6674
-24.4822
-24.4822
-24.4822
-24.4822
-24.4822
-24.4822
-34.2991
-34.2991
-34.2991
-34.2991
-34.2991
-34.2991
-44.1178
-44.1178
-44.1178
-44.1178
-44.1178
-44.1178
-53.938
-53.938
-53.938
-53.938
-53.938
-53.938
-63.7591
-63.7591
-63.7591
-63.7591
-63.7591
-63.7591
)
;
    }
    water_top_surface
    {
        type            calculated;
        value           nonuniform List<scalar> 
180
(
-59517.9
-59518
-59518
-59518
-59518
-59518.3
-6176.11
-6176.26
-6176.22
-6176.21
-6176.24
-6176.48
-156.052
-156.045
-156.04
-156.038
-156.03
-156.013
-110.79
-110.791
-110.791
-110.79
-110.789
-110.785
-70.1953
-70.1953
-70.1958
-70.196
-70.1961
-70.1959
-68.6734
-68.6734
-68.6734
-68.6734
-68.6734
-68.6734
-68.67
-68.67
-68.67
-68.67
-68.67
-68.67
-68.67
-68.67
-68.67
-68.67
-68.67
-68.67
-68.67
-68.67
-68.67
-68.67
-68.67
-68.67
-68.67
-68.67
-68.67
-68.67
-68.67
-68.67
-68.67
-68.67
-68.67
-68.67
-68.67
-68.67
-68.67
-68.67
-68.67
-68.67
-68.67
-68.67
-68.67
-68.67
-68.67
-68.67
-68.67
-68.67
-68.67
-68.67
-68.67
-68.67
-68.67
-68.67
-68.67
-68.67
-68.67
-68.67
-68.67
-68.67
-68.67
-68.67
-68.67
-68.67
-68.67
-68.67
-68.67
-68.67
-68.67
-68.67
-68.67
-68.67
-68.67
-68.67
-68.67
-68.67
-68.67
-68.67
-68.67
-68.67
-68.67
-68.67
-68.67
-68.67
-68.67
-68.67
-68.67
-68.67
-68.67
-68.67
-68.67
-68.67
-68.67
-68.67
-68.67
-68.67
-68.67
-68.67
-68.67
-68.67
-68.67
-68.67
-68.67
-68.67
-68.67
-68.67
-68.67
-68.67
-68.67
-68.67
-68.67
-68.67
-68.67
-68.67
-68.67
-68.67
-68.67
-68.67
-68.67
-68.67
-68.67
-68.67
-68.67
-68.67
-68.67
-68.67
-68.67
-68.67
-68.67
-68.67
-68.67
-68.67
-68.67
-68.67
-68.67
-68.67
-68.67
-68.67
-68.67
-68.67
-68.67
-68.67
-68.67
-68.67
-68.67
-68.67
-68.67
-68.67
-68.67
-68.67
)
;
    }
}


// ************************************************************************* //
