/*--------------------------------*- C++ -*----------------------------------*\
| =========                 |                                                 |
| \\      /  F ield         | OpenFOAM: The Open Source CFD Toolbox           |
|  \\    /   O peration     | Version:  v1612+                                |
|   \\  /    A nd           | Web:      www.OpenFOAM.com                      |
|    \\/     M anipulation  |                                                 |
\*---------------------------------------------------------------------------*/
FoamFile
{
    version     2.0;
    format      ascii;
    class       volVectorField;
    location    "1";
    object      U;
}
// * * * * * * * * * * * * * * * * * * * * * * * * * * * * * * * * * * * * * //

dimensions      [0 1 -1 0 0 0 0];

internalField   nonuniform List<vector> 
1116
(
(0.276469 1.17652e-07 -0.284747)
(0.27647 1.5e-08 -0.284748)
(0.27647 -1.98724e-07 -0.284748)
(0.27647 -1.90411e-07 -0.284749)
(0.27647 -4.90874e-08 -0.284749)
(0.27647 4.26975e-08 -0.284748)
(0.733137 6.23391e-07 -0.396226)
(0.73314 9.91981e-07 -0.396228)
(0.73314 1.50838e-06 -0.396228)
(0.73314 1.83533e-06 -0.396227)
(0.73314 1.57506e-06 -0.396226)
(0.733138 3.96915e-07 -0.396224)
(1.82517 1.26055e-06 -0.614029)
(1.82517 2.90701e-06 -0.61403)
(1.82517 4.20669e-06 -0.614027)
(1.82517 4.23749e-06 -0.614025)
(1.82517 3.21332e-06 -0.614023)
(1.82516 8.8402e-07 -0.61402)
(2.9504 1.13801e-07 -0.891142)
(2.9504 1.94015e-06 -0.891147)
(2.9504 4.76594e-06 -0.891146)
(2.95039 5.66261e-06 -0.891145)
(2.95039 4.69376e-06 -0.891144)
(2.95039 1.98835e-06 -0.891141)
(4.32069 7.4399e-06 -1.19792)
(4.3207 8.52777e-06 -1.19792)
(4.3207 1.36937e-06 -1.19792)
(4.3207 2.89708e-06 -1.19792)
(4.3207 -7.45832e-07 -1.19793)
(4.3207 -1.14109e-06 -1.19792)
(6.33974 1.9508e-05 -1.67149)
(6.33981 1.84236e-05 -1.67143)
(6.33979 -1.08681e-05 -1.67142)
(6.3398 -1.59457e-05 -1.67142)
(6.33981 -3.75059e-05 -1.67145)
(6.33977 -2.51488e-05 -1.67144)
(9.16044 3.52504e-05 -1.42602)
(9.16043 3.7642e-05 -1.42598)
(9.16042 -2.16478e-05 -1.42596)
(9.16042 -2.96433e-05 -1.42596)
(9.1605 -8.24736e-05 -1.42599)
(9.16044 -5.38601e-05 -1.42594)
(10.4685 -2.03398e-05 0.149194)
(10.4683 -5.27557e-05 0.149262)
(10.4683 -0.00011285 0.149246)
(10.4683 -9.28725e-05 0.14921)
(10.4684 -9.96036e-05 0.149122)
(10.468 -3.72225e-05 0.149138)
(5.03065 4.26718e-05 1.20523)
(5.0306 1.68654e-05 1.20519)
(5.03052 -4.98012e-05 1.20513)
(5.03056 2.37287e-06 1.20511)
(5.03068 4.33343e-05 1.20513)
(5.03051 4.82218e-05 1.20515)
(2.9281 2.62444e-05 0.990948)
(2.9283 0.000103087 0.99086)
(2.92832 0.000170335 0.990874)
(2.92834 0.000201226 0.990946)
(2.92836 0.000187028 0.991058)
(2.92831 8.77198e-05 0.991183)
(1.86218 4.52256e-05 0.616185)
(1.86237 0.000138947 0.616254)
(1.86236 0.000195737 0.616329)
(1.86233 0.000199657 0.616404)
(1.86229 0.000161457 0.616477)
(1.86221 6.89044e-05 0.616547)
(0.703953 3.32795e-05 0.587214)
(0.704011 9.49264e-05 0.58729)
(0.703992 0.000132819 0.587311)
(0.703964 0.000137093 0.587324)
(0.703931 0.000108762 0.587333)
(0.703887 4.40465e-05 0.587328)
(0.193246 -3.60737e-07 -0.726346)
(0.193246 -1.41333e-06 -0.726347)
(0.193245 -2.3841e-06 -0.726348)
(0.193244 -2.26456e-06 -0.726348)
(0.193243 -1.35558e-06 -0.726348)
(0.193242 -3.2949e-07 -0.726347)
(0.46633 6.52005e-07 -1.02396)
(0.466332 3.85523e-07 -1.02396)
(0.466329 -4.16189e-07 -1.02396)
(0.466326 -5.64375e-07 -1.02396)
(0.466323 -7.98895e-07 -1.02396)
(0.466322 -5.58361e-07 -1.02395)
(1.47633 2.6513e-06 -1.60664)
(1.47633 7.14465e-06 -1.60664)
(1.47632 7.29213e-06 -1.60663)
(1.47632 5.12565e-06 -1.60662)
(1.47632 4.24463e-06 -1.60662)
(1.47631 2.06605e-06 -1.60661)
(1.94983 1.24916e-06 -2.30597)
(1.94985 8.52922e-06 -2.30598)
(1.94985 7.96868e-06 -2.30598)
(1.94984 7.21477e-06 -2.30598)
(1.94984 3.34641e-06 -2.30597)
(1.94984 3.82077e-06 -2.30597)
(3.30927 1.41584e-05 -3.33251)
(3.3093 1.71109e-05 -3.33253)
(3.30929 7.79234e-06 -3.33252)
(3.30929 5.51946e-06 -3.33252)
(3.30929 -9.37228e-06 -3.33254)
(3.30928 -1.19774e-05 -3.33251)
(5.21542 1.84986e-05 -5.05216)
(5.21561 5.80046e-06 -5.05199)
(5.2156 -2.71847e-05 -5.05196)
(5.21558 -5.99358e-06 -5.05196)
(5.21557 -5.03128e-05 -5.05206)
(5.21547 -6.15816e-05 -5.05216)
(12.073 -4.29603e-05 1.67603)
(12.0727 -7.71311e-05 1.67616)
(12.0727 -0.000130543 1.67617)
(12.0726 -0.00010744 1.67615)
(12.073 -0.000221084 1.6761)
(12.0723 -0.000145897 1.67616)
(6.17563 5.33706e-05 4.3611)
(6.17568 7.76875e-06 4.36128)
(6.17553 -0.000112455 4.36118)
(6.17543 -4.44713e-05 4.36108)
(6.17566 -1.49482e-05 4.36098)
(6.17465 2.24026e-05 4.36075)
(2.96621 2.51203e-05 3.73573)
(2.96626 5.81803e-05 3.73562)
(2.96608 6.67943e-05 3.73544)
(2.96604 6.36765e-05 3.73539)
(2.96616 7.80881e-05 3.73547)
(2.96607 5.86967e-05 3.73547)
(2.47521 5.88074e-06 2.29184)
(2.47532 3.70253e-05 2.29168)
(2.4753 4.66414e-05 2.29173)
(2.47532 9.51155e-06 2.29188)
(2.4754 -1.34127e-05 2.29212)
(2.47537 -7.34708e-06 2.29231)
(1.48293 -7.97051e-06 1.57948)
(1.4831 4.23014e-06 1.57962)
(1.48312 2.68611e-05 1.57978)
(1.4831 2.72713e-05 1.57994)
(1.48307 1.86576e-05 1.5801)
(1.48299 6.80874e-06 1.58022)
(0.722651 3.94841e-06 1.49717)
(0.72272 4.47986e-05 1.4973)
(0.722702 9.8571e-05 1.49734)
(0.722669 0.000118928 1.49737)
(0.722622 0.000111423 1.49739)
(0.722555 4.84725e-05 1.49737)
(0.02005 5.65366e-07 -0.832399)
(0.0200485 5.10393e-08 -0.8324)
(0.0200465 -9.61816e-07 -0.832399)
(0.020045 -7.64625e-07 -0.832398)
(0.0200445 -8.20773e-09 -0.832396)
(0.0200454 2.22884e-07 -0.832394)
(-0.0350249 2.36155e-06 -1.47696)
(-0.0350252 4.84853e-06 -1.47696)
(-0.0350295 3.83898e-06 -1.47695)
(-0.0350322 2.38946e-06 -1.47695)
(-0.0350317 1.93166e-06 -1.47695)
(-0.0350281 9.82794e-07 -1.47694)
(0.692217 4.91824e-06 -2.31084)
(0.692232 1.25795e-05 -2.31084)
(0.69223 6.76114e-06 -2.31083)
(0.692228 4.43656e-06 -2.31083)
(0.692227 3.08642e-06 -2.31082)
(0.69223 3.70008e-06 -2.31081)
(0.58692 3.26133e-06 -3.3998)
(0.586981 1.17488e-05 -3.39982)
(0.586982 1.10977e-05 -3.39982)
(0.58698 1.12e-05 -3.39981)
(0.586975 1.17776e-05 -3.39981)
(0.586982 9.33695e-06 -3.39981)
(2.78988 2.59015e-05 -4.87305)
(2.78997 1.52735e-05 -4.87312)
(2.78997 1.86496e-05 -4.8731)
(2.78997 1.16272e-05 -4.87309)
(2.78997 1.70524e-05 -4.8731)
(2.78996 -4.11089e-06 -4.87308)
(2.92788 -4.62214e-05 -4.91605)
(2.92825 -9.73171e-05 -4.91576)
(2.92819 -8.75243e-05 -4.91572)
(2.92816 -4.54275e-05 -4.9157)
(2.92821 -7.99318e-05 -4.9158)
(2.92815 -7.48884e-05 -4.91588)
(-1.16486 -3.10085e-06 1.68102)
(-1.16477 2.86247e-05 1.68131)
(-1.16484 5.71927e-05 1.68129)
(-1.1648 0.000125707 1.68132)
(-1.16453 6.0455e-05 1.68131)
(-1.16453 -7.35261e-06 1.68109)
(0.0765431 -2.23676e-05 5.34757)
(0.0766256 3.75698e-05 5.34786)
(0.0765365 0.000102665 5.34777)
(0.0765429 8.26087e-05 5.34767)
(0.076764 5.80366e-05 5.34765)
(0.0767499 2.62177e-05 5.34739)
(0.866902 7.6516e-06 3.95619)
(0.866762 2.25996e-05 3.95607)
(0.866667 -1.78222e-05 3.95593)
(0.866692 -0.000110691 3.95586)
(0.866851 -0.000131104 3.95591)
(0.866938 -5.51575e-05 3.95572)
(1.08225 1.72861e-05 2.62452)
(1.08219 -3.94875e-05 2.62442)
(1.08219 -0.000156523 2.62449)
(1.08223 -0.00022439 2.62464)
(1.08233 -0.000227631 2.62487)
(1.08235 -0.00010431 2.62493)
(0.850808 -3.07448e-05 2.04329)
(0.85085 -8.09469e-05 2.04339)
(0.850841 -0.000107112 2.04353)
(0.850819 -0.00010897 2.04369)
(0.850791 -9.05422e-05 2.04387)
(0.85072 -3.90188e-05 2.04396)
(0.61145 -2.80968e-06 1.94644)
(0.611475 2.6692e-05 1.94652)
(0.611452 7.12946e-05 1.94655)
(0.611416 8.87103e-05 1.94658)
(0.611368 8.68009e-05 1.9466)
(0.611304 3.88329e-05 1.94659)
(-0.377734 3.2985e-06 -1.13807)
(-0.377732 5.47667e-06 -1.13807)
(-0.377732 4.58133e-06 -1.13806)
(-0.377731 4.00634e-06 -1.13806)
(-0.377729 3.63763e-06 -1.13806)
(-0.377727 1.46997e-06 -1.13806)
(-0.859508 4.74536e-06 -1.84824)
(-0.859501 1.07533e-05 -1.84824)
(-0.859502 5.54224e-06 -1.84824)
(-0.859501 3.95615e-06 -1.84824)
(-0.859499 3.2792e-06 -1.84824)
(-0.859492 3.42555e-06 -1.84824)
(-0.627179 -1.86373e-06 -2.63561)
(-0.62713 3.53514e-06 -2.63562)
(-0.627124 -6.51424e-07 -2.63561)
(-0.627121 2.59759e-06 -2.63561)
(-0.627118 1.62404e-07 -2.63561)
(-0.627103 3.72841e-06 -2.63559)
(0.453536 2.96363e-05 -4.98199)
(0.453574 -2.91422e-07 -4.98202)
(0.453579 3.37813e-05 -4.98201)
(0.45358 1.79866e-05 -4.98201)
(0.453589 5.36193e-05 -4.982)
(0.453591 -1.59825e-06 -4.98196)
(4.83071 3.68666e-05 -5.43451)
(4.83078 -2.57173e-05 -5.43469)
(4.83078 5.76492e-05 -5.43465)
(4.83078 9.57095e-06 -5.43464)
(4.83079 8.22129e-05 -5.43467)
(4.8307 -1.2624e-05 -5.43463)
(-1.74117 -8.76086e-05 0.0108242)
(-1.74084 -8.93889e-05 0.0110382)
(-1.741 -9.77219e-06 0.010926)
(-1.74092 5.95629e-05 0.0109707)
(-1.74063 0.000107778 0.0109029)
(-1.74059 7.00891e-05 0.0103392)
(-2.03791 -8.45873e-05 3.08433)
(-2.03805 -2.92496e-05 3.08449)
(-2.03808 0.000121287 3.08447)
(-2.03799 0.000146744 3.08459)
(-2.03783 0.000160696 3.0847)
(-2.03764 7.64768e-05 3.08439)
(-0.933365 -6.30646e-05 3.43482)
(-0.933587 1.13807e-05 3.43501)
(-0.93354 0.000107983 3.43509)
(-0.933374 5.12457e-05 3.4351)
(-0.933155 5.54725e-05 3.43506)
(-0.932964 3.75655e-05 3.43484)
(0.16699 5.92342e-05 2.99408)
(0.166823 8.69455e-05 2.99421)
(0.166885 1.6639e-05 2.99416)
(0.167011 -5.47425e-05 2.99407)
(0.167155 -5.52441e-05 2.99397)
(0.16729 -1.22838e-05 2.99373)
(0.491 1.43304e-05 2.39385)
(0.490989 -6.54633e-05 2.39385)
(0.491034 -0.00019871 2.39388)
(0.491097 -0.00024721 2.39394)
(0.491181 -0.000214693 2.39405)
(0.49123 -8.685e-05 2.394)
(0.563985 -4.71958e-05 2.09064)
(0.564013 -0.000128891 2.09067)
(0.56403 -0.000177046 2.09076)
(0.564045 -0.000182349 2.09088)
(0.564064 -0.000147054 2.09102)
(0.564049 -6.00577e-05 2.09107)
(0.535128 -1.0319e-05 2.09116)
(0.535136 -5.82041e-06 2.0912)
(0.53513 1.35847e-05 2.09122)
(0.535119 2.20295e-05 2.09124)
(0.535103 2.27842e-05 2.09127)
(0.535078 1.04209e-05 2.09127)
(0.00043689 5.89862e-08 0.000441913)
(0.000436848 1.40966e-07 0.000441907)
(0.000436837 1.11984e-07 0.000441886)
(0.000436831 8.02414e-08 0.000441886)
(0.000436837 8.32266e-08 0.00044188)
(0.000436841 3.30753e-08 0.000441869)
(0.0013278 1.56615e-07 0.000459249)
(0.00132771 2.65981e-07 0.000459224)
(0.00132769 1.52722e-07 0.000459201)
(0.00132769 8.37493e-08 0.000459191)
(0.00132772 5.87134e-08 0.000459177)
(0.00132774 2.07661e-08 0.000459158)
(0.00226859 2.80544e-07 0.000492391)
(0.00226852 4.20559e-07 0.000492336)
(0.00226852 1.79814e-07 0.000492299)
(0.00226855 3.68843e-08 0.000492274)
(0.00226862 -3.13994e-08 0.000492244)
(0.00226867 -2.58878e-08 0.000492206)
(0.00328687 3.53066e-07 0.00053728)
(0.00328689 4.9122e-07 0.000537189)
(0.00328693 1.20562e-07 0.000537131)
(0.003287 -1.05662e-07 0.000537091)
(0.0032871 -2.04589e-07 0.000537048)
(0.00328717 -1.13734e-07 0.000536991)
(0.00439887 3.49156e-07 0.00058538)
(0.00439897 4.2142e-07 0.000585252)
(0.00439905 -1.68829e-08 0.000585184)
(0.00439913 -2.72479e-07 0.000585135)
(0.00439921 -3.91505e-07 0.000585093)
(0.00439924 -2.05228e-07 0.000585034)
(0.00559831 2.95921e-07 0.000619729)
(0.00559848 2.82021e-07 0.000619552)
(0.00559857 -1.62842e-07 0.000619479)
(0.00559861 -3.85039e-07 0.000619436)
(0.00559864 -4.88695e-07 0.00061941)
(0.00559859 -2.49639e-07 0.000619369)
(0.00684077 1.56732e-07 0.000608091)
(0.00684102 7.49696e-08 0.000607855)
(0.00684106 -2.58938e-07 0.000607784)
(0.00684106 -4.20371e-07 0.000607765)
(0.00684101 -4.90174e-07 0.000607781)
(0.00684086 -2.44367e-07 0.000607787)
(0.00801946 -2.34743e-08 0.000502325)
(0.00801972 -1.41052e-07 0.000502042)
(0.00801969 -2.77267e-07 0.000501976)
(0.00801962 -3.44059e-07 0.000501971)
(0.00801948 -3.64093e-07 0.000502012)
(0.0080192 -1.78163e-07 0.000502068)
(0.00893204 -1.74728e-07 0.000236413)
(0.00893228 -2.47273e-07 0.000236072)
(0.00893217 -1.70581e-07 0.000236014)
(0.00893202 -1.58785e-07 0.000236051)
(0.00893178 -1.23212e-07 0.000236143)
(0.00893137 -6.28501e-08 0.000236281)
(0.0091425 -2.34323e-07 -0.000265711)
(0.00914266 -2.21911e-07 -0.000266016)
(0.00914245 1.88499e-08 -0.000265985)
(0.00914217 9.27656e-08 -0.00026584)
(0.0091418 1.55225e-07 -0.000265627)
(0.00914119 6.54607e-08 -0.000265344)
(0.00824155 -6.43971e-08 -0.00131303)
(0.00824155 1.50376e-07 -0.00131287)
(0.00824139 4.41106e-07 -0.00131271)
(0.00824114 4.56865e-07 -0.00131251)
(0.00824079 4.65399e-07 -0.00131223)
(0.00824 2.24293e-07 -0.00131181)
(0.00430699 5.61499e-08 -0.00327427)
(0.00430693 2.28728e-07 -0.00327396)
(0.0043069 3.42788e-07 -0.00327385)
(0.00430684 2.85328e-07 -0.00327379)
(0.00430672 2.49056e-07 -0.00327369)
(0.0043063 1.36385e-07 -0.00327343)
(0.000428616 4.09799e-08 0.00129073)
(0.000428589 8.21005e-08 0.00129073)
(0.000428579 7.27236e-08 0.00129071)
(0.000428581 6.94187e-08 0.00129071)
(0.000428594 6.3221e-08 0.0012907)
(0.000428604 2.33342e-08 0.00129068)
(0.00130479 1.10557e-07 0.00134405)
(0.00130475 1.78744e-07 0.00134402)
(0.00130474 9.78059e-08 0.00134399)
(0.00130476 4.45299e-08 0.00134397)
(0.00130482 1.35052e-08 0.00134395)
(0.00130486 -1.30656e-09 0.00134392)
(0.00223719 1.77012e-07 0.00144694)
(0.00223719 2.48427e-07 0.00144686)
(0.00223721 6.62371e-08 0.0014468)
(0.00223728 -6.75659e-08 0.00144676)
(0.00223738 -1.54994e-07 0.00144673)
(0.00223747 -9.25198e-08 0.00144669)
(0.00326013 1.98528e-07 0.00158927)
(0.0032602 2.36116e-07 0.00158912)
(0.00326026 -5.06876e-08 0.00158904)
(0.00326035 -2.61678e-07 0.00158898)
(0.00326046 -3.94155e-07 0.00158894)
(0.00326055 -2.20696e-07 0.00158889)
(0.00440068 1.74579e-07 0.00174867)
(0.0044008 1.45997e-07 0.00174846)
(0.00440089 -1.98982e-07 0.00174835)
(0.00440096 -4.40212e-07 0.0017483)
(0.00440103 -5.96273e-07 0.00174827)
(0.00440105 -3.2645e-07 0.00174823)
(0.00567089 1.1637e-07 0.00188083)
(0.00567109 1.78349e-08 0.00188053)
(0.00567115 -3.1637e-07 0.00188042)
(0.00567117 -5.27368e-07 0.00188038)
(0.00567116 -6.78698e-07 0.00188039)
(0.00567107 -3.69224e-07 0.0018804)
(0.00704564 -2.39505e-09 0.0019022)
(0.00704589 -1.35999e-07 0.0019018)
(0.0070459 -3.49722e-07 0.00190169)
(0.00704587 -4.90065e-07 0.00190168)
(0.00704578 -6.07867e-07 0.00190174)
(0.00704557 -3.34075e-07 0.00190183)
(0.00842838 -9.71005e-08 0.00165764)
(0.0084287 -2.22833e-07 0.00165709)
(0.00842865 -3.19464e-07 0.00165696)
(0.00842854 -4.17322e-07 0.00165699)
(0.00842833 -4.80707e-07 0.00165711)
(0.00842795 -2.57589e-07 0.00165731)
(0.00960527 -1.91886e-07 0.000851266)
(0.0096057 -2.37707e-07 0.000850564)
(0.00960559 -1.24939e-07 0.000850438)
(0.00960535 -1.32007e-07 0.000850525)
(0.00960494 -1.18027e-07 0.000850738)
(0.00960429 -6.63471e-08 0.000851095)
(0.0104065 -1.84797e-07 -0.0011039)
(0.0104069 -5.86081e-08 -0.0011045)
(0.0104067 2.59562e-07 -0.00110447)
(0.0104064 3.40487e-07 -0.00110423)
(0.0104058 4.01407e-07 -0.00110384)
(0.0104049 1.91524e-07 -0.00110326)
(0.0102383 7.26842e-08 -0.00412028)
(0.0102385 4.02128e-07 -0.00411988)
(0.0102383 6.57111e-07 -0.00411955)
(0.010238 6.48423e-07 -0.00411917)
(0.0102374 6.25395e-07 -0.00411864)
(0.0102362 2.97493e-07 -0.00411776)
(0.00661931 1.99638e-07 -0.00993145)
(0.0066193 4.02716e-07 -0.00993077)
(0.00661924 3.13981e-07 -0.0099305)
(0.0066191 1.65557e-07 -0.00993034)
(0.00661885 1.30833e-07 -0.00993015)
(0.0066182 9.57374e-08 -0.00992962)
(0.000402195 3.41688e-08 0.00208982)
(0.000402178 6.58365e-08 0.00208983)
(0.000402171 6.67441e-08 0.00208982)
(0.000402178 7.42229e-08 0.00208982)
(0.000402191 6.64754e-08 0.00208981)
(0.0004022 2.54615e-08 0.00208979)
(0.00122877 8.31983e-08 0.00218486)
(0.00122876 1.31944e-07 0.00218484)
(0.00122876 7.16461e-08 0.00218482)
(0.00122879 3.65133e-08 0.00218481)
(0.00122884 1.19086e-08 0.00218481)
(0.00122888 -1.58244e-09 0.00218478)
(0.00212299 1.13365e-07 0.00237117)
(0.00212302 1.47921e-07 0.00237113)
(0.00212305 1.06166e-08 0.00237109)
(0.00212312 -9.34151e-08 0.00237107)
(0.00212321 -1.56712e-07 0.00237108)
(0.00212327 -8.71132e-08 0.00237107)
(0.00313253 1.03884e-07 0.00263741)
(0.00313261 9.66622e-08 0.00263732)
(0.00313267 -1.15657e-07 0.00263727)
(0.00313274 -2.80627e-07 0.00263726)
(0.00313283 -3.71277e-07 0.00263729)
(0.00313288 -1.98984e-07 0.0026373)
(0.00430651 6.87757e-08 0.00295443)
(0.00430664 -3.22569e-09 0.0029543)
(0.0043067 -2.52175e-07 0.00295424)
(0.00430674 -4.34759e-07 0.00295425)
(0.00430678 -5.39961e-07 0.0029543)
(0.00430677 -2.85373e-07 0.00295436)
(0.00569326 7.93433e-09 0.00325716)
(0.00569344 -1.1203e-07 0.00325695)
(0.00569348 -3.34906e-07 0.0032569)
(0.00569347 -4.98783e-07 0.00325694)
(0.00569344 -5.98716e-07 0.00325703)
(0.00569334 -3.15129e-07 0.00325714)
(0.00734359 -6.18823e-08 0.00341598)
(0.00734383 -2.04114e-07 0.00341566)
(0.00734383 -3.51126e-07 0.0034156)
(0.00734377 -4.78652e-07 0.00341566)
(0.00734368 -5.58221e-07 0.00341578)
(0.00734346 -2.89123e-07 0.00341596)
(0.0093341 -1.326e-07 0.00322098)
(0.00933443 -2.5229e-07 0.00322045)
(0.00933439 -2.91239e-07 0.00322035)
(0.00933427 -3.8563e-07 0.00322043)
(0.00933408 -4.14269e-07 0.00322063)
(0.00933371 -2.00844e-07 0.00322093)
(0.0118043 -1.64942e-07 0.00239901)
(0.0118047 -1.84934e-07 0.00239829)
(0.0118046 -7.76009e-08 0.0023982)
(0.0118044 -1.1963e-07 0.00239835)
(0.011804 -8.36142e-08 0.00239867)
(0.0118035 -2.16784e-08 0.00239917)
(0.0138232 1.3123e-08 0.000613849)
(0.0138237 1.99354e-07 0.000613249)
(0.0138236 2.88499e-07 0.000613343)
(0.0138232 2.20401e-07 0.000613683)
(0.0138227 2.20853e-07 0.000614219)
(0.0138218 1.05841e-07 0.000615025)
(0.0150285 2.77819e-07 -0.00333509)
(0.0150288 5.9588e-07 -0.00333444)
(0.0150285 5.11673e-07 -0.00333388)
(0.015028 3.48632e-07 -0.00333327)
(0.0150273 2.61428e-07 -0.00333252)
(0.0150261 1.14577e-07 -0.00333132)
(0.010194 2.95131e-07 -0.0129408)
(0.010194 4.83961e-07 -0.0129401)
(0.0101938 1.20274e-07 -0.0129398)
(0.0101936 -2.09964e-07 -0.0129396)
(0.0101932 -3.42055e-07 -0.0129394)
(0.0101925 -1.26389e-07 -0.0129387)
(0.00035445 2.76741e-08 0.00280446)
(0.000354444 4.52321e-08 0.00280448)
(0.00035444 4.90494e-08 0.00280447)
(0.000354447 6.5586e-08 0.00280446)
(0.000354458 5.6779e-08 0.00280446)
(0.000354464 2.11209e-08 0.00280442)
(0.00108855 5.19636e-08 0.00294881)
(0.00108856 8.13978e-08 0.00294881)
(0.00108857 4.60561e-08 0.00294879)
(0.00108859 2.67267e-08 0.00294878)
(0.00108864 1.0037e-08 0.00294878)
(0.00108866 9.83654e-11 0.00294874)
(0.0019018 5.45931e-08 0.00323768)
(0.00190184 6.35138e-08 0.00323766)
(0.00190187 -2.12946e-08 0.00323763)
(0.00190192 -8.69455e-08 0.00323763)
(0.00190199 -1.25644e-07 0.00323765)
(0.00190203 -6.86871e-08 0.00323764)
(0.00285917 3.44664e-08 0.00366748)
(0.00285924 2.37582e-09 0.00366744)
(0.00285928 -1.29149e-07 0.00366742)
(0.00285933 -2.33347e-07 0.00366744)
(0.00285939 -2.87198e-07 0.00366749)
(0.00285941 -1.50579e-07 0.00366751)
(0.00404587 -1.29635e-09 0.00421963)
(0.00404596 -8.165e-08 0.00421956)
(0.00404599 -2.28967e-07 0.00421955)
(0.00404601 -3.43593e-07 0.00421959)
(0.00404602 -4.04545e-07 0.00421967)
(0.00404598 -2.09059e-07 0.00421973)
(0.00557569 -4.49071e-08 0.00483413)
(0.0055758 -1.49439e-07 0.00483403)
(0.00557578 -2.71788e-07 0.00483402)
(0.00557575 -3.84989e-07 0.00483409)
(0.00557572 -4.44478e-07 0.0048342)
(0.0055756 -2.26084e-07 0.0048343)
(0.00756224 -8.03286e-08 0.00535161)
(0.00756234 -1.79763e-07 0.00535142)
(0.00756228 -2.48298e-07 0.0053514)
(0.00756219 -3.54331e-07 0.00535147)
(0.0075621 -4.08664e-07 0.00535161)
(0.0075619 -2.02893e-07 0.00535175)
(0.0100351 -9.49064e-08 0.00536754)
(0.0100351 -1.38793e-07 0.00536718)
(0.010035 -1.45794e-07 0.00536712)
(0.0100348 -2.55162e-07 0.00536719)
(0.0100346 -2.81881e-07 0.00536737)
(0.0100343 -1.3038e-07 0.0053676)
(0.0127951 1.64103e-08 0.00396732)
(0.0127951 1.60486e-07 0.00396679)
(0.0127948 1.85057e-07 0.00396671)
(0.0127945 4.09283e-08 0.00396683)
(0.0127942 1.44202e-08 0.00396711)
(0.0127936 8.25101e-09 0.00396753)
(0.0162853 3.12737e-07 -0.000938986)
(0.0162852 6.73633e-07 -0.000939439)
(0.0162847 5.85242e-07 -0.000939362)
(0.0162843 3.76817e-07 -0.000939046)
(0.0162837 2.84336e-07 -0.000938571)
(0.0162829 1.19078e-07 -0.000937817)
(0.0208784 6.49089e-07 -0.0145589)
(0.020878 1.07561e-06 -0.0145583)
(0.0208775 6.54487e-07 -0.0145579)
(0.0208769 2.26177e-07 -0.0145574)
(0.0208762 4.04322e-09 -0.0145568)
(0.0208749 -3.71618e-08 -0.0145557)
(0.0201891 3.65238e-07 -0.0455537)
(0.020189 1.9486e-07 -0.0455538)
(0.0201888 -5.64456e-07 -0.0455535)
(0.0201885 -1.04151e-06 -0.0455533)
(0.0201881 -1.27144e-06 -0.0455532)
(0.0201874 -6.63622e-07 -0.0455527)
(-0.842634 8.5831e-06 0.922702)
(-0.842636 1.53875e-05 0.922712)
(-0.842637 8.7702e-06 0.92271)
(-0.842639 5.34972e-06 0.92271)
(-0.842641 5.24692e-06 0.92271)
(-0.842638 4.38941e-06 0.922708)
(-1.65035 5.01075e-06 0.778249)
(-1.65031 1.61555e-05 0.778294)
(-1.65031 6.23273e-06 0.778295)
(-1.65031 9.33134e-06 0.778296)
(-1.65032 5.84565e-06 0.778295)
(-1.65031 1.09759e-05 0.778296)
(-3.44941 4.63594e-06 10.8159)
(-3.44936 1.63235e-05 10.8159)
(-3.44936 1.24628e-05 10.8159)
(-3.44936 1.7282e-05 10.8159)
(-3.44936 3.38252e-05 10.8159)
(-3.44933 2.82913e-05 10.8159)
(-2.00082 -2.28526e-06 -0.661274)
(-2.00079 2.552e-06 -0.661267)
(-2.00079 -9.45481e-07 -0.66127)
(-2.00079 2.77125e-06 -0.66127)
(-2.00079 -1.99288e-06 -0.66127)
(-2.00078 2.33204e-06 -0.661269)
(-5.37067 7.39207e-06 -1.77048)
(-5.37065 -4.34655e-06 -1.77048)
(-5.37065 1.426e-06 -1.77048)
(-5.37065 7.70854e-07 -1.77048)
(-5.37065 6.20454e-06 -1.77048)
(-5.37062 -6.45263e-06 -1.77048)
(-10.7395 1.98735e-05 2.84075)
(-10.7394 -2.116e-05 2.84092)
(-10.7395 -1.78046e-06 2.84089)
(-10.7395 -2.49276e-05 2.8409)
(-10.7395 3.69429e-06 2.8409)
(-10.7393 -2.43843e-05 2.84104)
(-2.56551 1.95889e-05 -3.73036)
(-2.56552 -1.08502e-05 -3.73038)
(-2.56552 1.32193e-05 -3.73037)
(-2.56552 -4.19177e-08 -3.73037)
(-2.56551 1.79048e-05 -3.73036)
(-2.56551 -2.16398e-05 -3.73033)
(-5.41776 0.00013763 -9.1409)
(-5.41783 -0.000110651 -9.1409)
(-5.41783 3.2669e-05 -9.14087)
(-5.41784 -9.6637e-05 -9.14083)
(-5.41787 -3.03254e-05 -9.14081)
(-5.41809 -0.000284382 -9.14085)
(-9.30418 4.41205e-05 -13.2144)
(-9.30428 -2.63021e-05 -13.2144)
(-9.30427 -5.11719e-08 -13.2144)
(-9.30428 -5.5891e-05 -13.2144)
(-9.3043 7.10098e-06 -13.2145)
(-9.30432 -1.30897e-05 -13.2146)
(2.59689 5.66395e-05 -8.43517)
(2.59691 -1.38183e-05 -8.43523)
(2.5969 6.27089e-05 -8.43524)
(2.59689 -7.47932e-06 -8.43524)
(2.59687 4.40855e-05 -8.43519)
(2.59684 -4.86842e-05 -8.43507)
(2.66607 0.000139464 -10.474)
(2.66633 0.000155627 -10.4743)
(2.66627 0.000261986 -10.4743)
(2.66626 0.000113637 -10.4744)
(2.66637 0.000216245 -10.4744)
(2.66626 5.76427e-05 -10.4742)
(-5.34025 7.87001e-06 -9.17434)
(-5.34029 -1.83814e-06 -9.17443)
(-5.34029 -4.07707e-05 -9.17451)
(-5.34029 -2.52441e-05 -9.17459)
(-5.34028 -6.68815e-05 -9.17474)
(-5.34023 -3.17747e-05 -9.17475)
(5.34914 0.000116519 -3.36969)
(5.34945 6.06448e-06 -3.37004)
(5.34952 0.000130258 -3.36995)
(5.34961 1.24537e-05 -3.36995)
(5.34973 0.000162261 -3.37009)
(5.34964 -7.77951e-06 -3.37007)
(-3.94962 4.13926e-05 2.28788)
(-3.94938 -7.39974e-05 2.28794)
(-3.94927 -4.86248e-05 2.28794)
(-3.9492 -8.59617e-05 2.28792)
(-3.94902 -1.05212e-05 2.28788)
(-3.94886 -1.02649e-05 2.28788)
(-6.15683 4.65989e-07 -1.74657)
(-6.15688 6.73538e-06 -1.74649)
(-6.15688 4.7453e-06 -1.74646)
(-6.15686 -5.96437e-06 -1.74647)
(-6.1568 -1.5501e-05 -1.74648)
(-6.15668 -1.87584e-06 -1.7464)
(-3.97512 -6.17386e-05 1.82442)
(-3.97501 -3.58093e-05 1.82453)
(-3.97498 3.25345e-05 1.82448)
(-3.97493 2.34358e-05 1.82452)
(-3.97481 0.000102619 1.82454)
(-3.97466 8.80621e-05 1.82435)
(-2.06445 -6.59761e-05 3.44762)
(-2.06444 -3.1343e-05 3.44771)
(-2.06445 -6.01172e-06 3.4477)
(-2.06449 -3.51424e-05 3.44773)
(-2.0645 -1.3358e-05 3.44775)
(-2.06447 2.51937e-05 3.4477)
(-2.09867 -4.27267e-06 0.513845)
(-2.09871 -1.31165e-05 0.513852)
(-2.09876 -2.9427e-05 0.513909)
(-2.09881 -2.89044e-05 0.513966)
(-2.09884 -3.13249e-05 0.514007)
(-2.09885 -1.14107e-05 0.514057)
(-0.347055 -6.05477e-05 2.11324)
(-0.347094 -6.52367e-05 2.11326)
(-0.347115 -2.49888e-05 2.11326)
(-0.347097 -4.87405e-05 2.11338)
(-0.34709 8.68237e-06 2.11352)
(-0.347031 2.93218e-05 2.11344)
(-1.15618 -4.95535e-06 1.73081)
(-1.15623 -2.75648e-05 1.73082)
(-1.15622 -4.9588e-05 1.73084)
(-1.15619 -5.1553e-05 1.73087)
(-1.15617 -2.28654e-05 1.73091)
(-1.1561 2.46635e-06 1.73088)
(-1.81125 -1.08206e-06 0.602538)
(-1.81131 -1.03115e-05 0.602528)
(-1.8113 -1.37598e-05 0.602533)
(-1.8113 -1.24466e-05 0.60253)
(-1.8113 -4.85347e-06 0.602525)
(-1.81125 -5.1752e-07 0.602522)
(-0.928484 -3.10478e-05 2.43591)
(-0.928537 -3.03107e-05 2.43599)
(-0.928482 -5.63084e-06 2.43608)
(-0.928395 -8.40914e-06 2.43611)
(-0.928314 1.88264e-05 2.4361)
(-0.928236 2.19025e-05 2.43599)
(-0.573658 -8.47156e-06 2.40111)
(-0.573675 -3.43657e-05 2.40114)
(-0.573663 -4.54779e-05 2.40116)
(-0.57365 -3.16269e-05 2.40117)
(-0.573635 -1.04328e-05 2.40117)
(-0.573607 1.71059e-06 2.40112)
(-0.564318 -7.47932e-06 1.23684)
(-0.564334 -1.90708e-05 1.23683)
(-0.564331 -1.69935e-05 1.23684)
(-0.564328 -1.19561e-05 1.23683)
(-0.564324 -3.75448e-06 1.23683)
(-0.564305 -1.6064e-06 1.23683)
(0.0549339 1.36382e-05 2.31637)
(0.0549192 4.18302e-05 2.31652)
(0.0549558 5.78939e-05 2.3165)
(0.0549944 5.40509e-05 2.31643)
(0.0550243 6.26347e-05 2.31634)
(0.0550593 3.74696e-05 2.31619)
(-0.0983074 -1.55175e-05 2.0398)
(-0.0983132 -9.68636e-06 2.03984)
(-0.0983039 1.72489e-05 2.03983)
(-0.0982996 2.94914e-05 2.03981)
(-0.0982992 4.06486e-05 2.03979)
(-0.0982876 2.44924e-05 2.03974)
(-0.392298 -5.50984e-06 1.61462)
(-0.39231 -3.85968e-06 1.61463)
(-0.392307 3.87627e-06 1.61463)
(-0.392304 6.56492e-06 1.61463)
(-0.392303 1.09414e-05 1.61462)
(-0.392286 7.09664e-06 1.61461)
(0.281049 -2.69336e-06 2.11003)
(0.281045 -2.36935e-05 2.11006)
(0.281037 -5.04303e-05 2.11005)
(0.281027 -6.0798e-05 2.11006)
(0.28102 -3.96093e-05 2.11007)
(0.281016 -8.59294e-06 2.11002)
(0.156569 -4.25741e-06 1.91994)
(0.156571 -4.10797e-06 1.91996)
(0.156564 2.51393e-08 1.91997)
(0.156552 1.01753e-06 1.91997)
(0.156538 8.6529e-06 1.91997)
(0.156528 7.854e-06 1.91995)
(-0.0546465 -1.41837e-07 1.60366)
(-0.0546493 1.23051e-06 1.60368)
(-0.0546506 3.23442e-06 1.60368)
(-0.0546525 3.18129e-06 1.60369)
(-0.0546551 5.00847e-06 1.6037)
(-0.0546532 2.67925e-06 1.60369)
(0.521211 -1.61684e-05 1.91762)
(0.521213 -5.45519e-05 1.91763)
(0.521216 -8.41636e-05 1.91767)
(0.521221 -9.0668e-05 1.91773)
(0.521231 -7.18382e-05 1.9178)
(0.521224 -2.78371e-05 1.91782)
(0.318498 -2.58073e-06 1.6856)
(0.318501 -1.11764e-05 1.68563)
(0.318501 -1.99707e-05 1.68564)
(0.318501 -2.27586e-05 1.68566)
(0.3185 -1.69666e-05 1.68569)
(0.318494 -5.39281e-06 1.68568)
(0.0449957 1.53818e-07 1.49594)
(0.0449947 -5.62964e-07 1.49596)
(0.0449942 -2.02558e-06 1.49597)
(0.0449938 -3.05395e-06 1.49597)
(0.0449932 -2.11634e-06 1.49598)
(0.0449936 -4.96175e-07 1.49597)
(1.03403 -5.8104e-06 1.86069)
(1.03405 -1.52486e-05 1.86071)
(1.03406 -2.04431e-05 1.86073)
(1.03407 -2.22199e-05 1.86075)
(1.03408 -2.00536e-05 1.86078)
(1.03407 -8.64682e-06 1.86077)
(0.603229 -9.14699e-07 1.40938)
(0.603238 -4.04264e-06 1.4094)
(0.603242 -8.73161e-06 1.40941)
(0.603248 -1.10682e-05 1.40941)
(0.603254 -1.01025e-05 1.40942)
(0.60325 -3.78834e-06 1.40941)
(0.155958 7.58862e-08 1.2413)
(0.155959 -4.01758e-07 1.24132)
(0.15596 -1.63836e-06 1.24132)
(0.15596 -2.51576e-06 1.24132)
(0.155962 -2.19686e-06 1.24132)
(0.155961 -7.86832e-07 1.24131)
(0.190792 1.28036e-06 0.0463886)
(0.190794 8.0631e-07 0.0463888)
(0.190795 -1.77668e-06 0.0463886)
(0.190795 -2.48972e-06 0.0463886)
(0.190796 -2.35738e-06 0.0463886)
(0.190794 -8.62498e-07 0.046388)
(0.137963 6.50589e-07 0.123405)
(0.137965 -2.90792e-07 0.123405)
(0.137965 -2.19127e-06 0.123405)
(0.137966 -2.54678e-06 0.123406)
(0.137966 -2.38344e-06 0.123406)
(0.137965 -1.07116e-06 0.123405)
(0.050509 4.00296e-10 0.174593)
(0.0505096 -5.61852e-07 0.174595)
(0.0505097 -1.22679e-06 0.174595)
(0.0505099 -1.3249e-06 0.174596)
(0.0505099 -1.13263e-06 0.174597)
(0.0505093 -4.87928e-07 0.174596)
(0.262174 1.79778e-07 0.0672603)
(0.262179 -7.81432e-07 0.0672608)
(0.262179 -2.77825e-06 0.0672607)
(0.26218 -3.32091e-06 0.0672607)
(0.26218 -3.41298e-06 0.0672607)
(0.262178 -1.48645e-06 0.0672601)
(0.187714 -2.26893e-07 0.177256)
(0.187716 -1.67022e-06 0.177258)
(0.187717 -3.14797e-06 0.177258)
(0.187717 -3.31298e-06 0.177258)
(0.187718 -3.0765e-06 0.177259)
(0.187716 -1.46088e-06 0.177257)
(0.068053 -3.53823e-07 0.245713)
(0.0680539 -9.41445e-07 0.245716)
(0.0680539 -1.29512e-06 0.245717)
(0.068054 -1.35074e-06 0.245718)
(0.068054 -1.09289e-06 0.245719)
(0.0680533 -4.76795e-07 0.245717)
(0.366216 -4.99389e-07 0.0978117)
(0.366221 -1.77902e-06 0.0978129)
(0.366222 -3.41394e-06 0.0978129)
(0.366222 -3.55903e-06 0.097813)
(0.366222 -3.41719e-06 0.097813)
(0.366218 -1.38011e-06 0.0978121)
(0.25691 -2.9507e-07 0.252813)
(0.256913 -1.80984e-06 0.252816)
(0.256913 -3.31036e-06 0.252816)
(0.256913 -3.48219e-06 0.252817)
(0.256913 -2.92111e-06 0.252817)
(0.256909 -1.23896e-06 0.252815)
(0.0903737 -3.01322e-07 0.341776)
(0.0903746 -8.75702e-07 0.341781)
(0.0903746 -1.31241e-06 0.341782)
(0.0903747 -1.4074e-06 0.341783)
(0.0903747 -1.05221e-06 0.341784)
(0.0903736 -4.30705e-07 0.341781)
(0.505477 -1.25142e-06 0.141928)
(0.505484 -2.50847e-06 0.14193)
(0.505483 -3.86657e-06 0.14193)
(0.505483 -3.9329e-06 0.14193)
(0.505483 -2.92194e-06 0.14193)
(0.505477 -6.20775e-07 0.141929)
(0.349024 -2.4911e-07 0.361126)
(0.349028 -1.48915e-06 0.361131)
(0.349028 -2.95113e-06 0.361132)
(0.349028 -3.24002e-06 0.361132)
(0.349028 -2.00796e-06 0.361133)
(0.349023 -4.88722e-07 0.361129)
(0.11748 -1.90001e-07 0.470864)
(0.117481 -7.62789e-07 0.470869)
(0.117481 -1.31728e-06 0.47087)
(0.117481 -1.39979e-06 0.470872)
(0.117481 -7.50598e-07 0.470873)
(0.11748 -1.72511e-07 0.470868)
(0.709312 -1.07042e-06 0.199814)
(0.709321 -1.21284e-06 0.199817)
(0.70932 -2.87281e-06 0.199817)
(0.70932 -3.5043e-06 0.199817)
(0.709321 -3.11938e-06 0.199817)
(0.709313 -4.60114e-07 0.199814)
(0.47466 -8.39976e-09 0.511268)
(0.474665 -8.5013e-07 0.511275)
(0.474665 -2.33191e-06 0.511275)