/*--------------------------------*- C++ -*----------------------------------*\
| =========                 |                                                 |
| \\      /  F ield         | OpenFOAM: The Open Source CFD Toolbox           |
|  \\    /   O peration     | Version:  v1612+                                |
|   \\  /    A nd           | Web:      www.OpenFOAM.com                      |
|    \\/     M anipulation  |                                                 |
\*---------------------------------------------------------------------------*/
FoamFile
{
    version     2.0;
    format      ascii;
    class       surfaceScalarField;
    location    "10";
    object      alphaPhi;
}
// * * * * * * * * * * * * * * * * * * * * * * * * * * * * * * * * * * * * * //

dimensions      [0 3 -1 0 0 0 0];

internalField   nonuniform List<scalar> 
2916
(
-0.00698137
-0.183594
0.128238
0.00473323
-0.203407
0.128125
0.0249282
-0.209992
0.126042
0.0103554
-0.174988
0.126743
-0.0239934
-0.159663
0.129824
-0.210192
0.12318
0.00168684
-0.340203
0.0894124
-0.00298849
-0.352764
0.0881375
-0.0101204
-0.354946
0.087176
-0.00560452
-0.337964
0.0929194
-0.000816597
-0.328192
0.0982011
-0.361616
0.0859319
0.00219547
-0.337365
-0.00258687
-0.00266928
-0.343946
-0.00149403
-0.0103195
-0.343571
-0.00124978
-0.00551178
-0.337943
-0.00233856
0.00309648
-0.333248
-0.0010614
-0.354101
-0.00192835
0.00106942
-0.307086
-0.0242097
-0.00035643
-0.312364
-0.023278
-0.00366059
-0.31217
-0.0216435
-0.0023255
-0.308882
-0.0233704
0.00117472
-0.306409
-0.0232653
-0.324198
-0.0220563
0.00109351
-0.281308
-0.0207301
0.000719411
-0.286291
-0.0197951
-0.000925967
-0.286644
-0.0183294
-0.000219072
-0.282957
-0.0204639
0.000374969
-0.280084
-0.0206488
-0.298455
-0.0194116
0.00102644
-0.265758
-0.0149119
0.000856713
-0.270189
-0.0143362
0.000492486
-0.27116
-0.0136107
0.000641998
-0.26622
-0.0151151
-0.000844309
-0.261568
-0.0152399
-0.282335
-0.0151316
0.00148848
-0.282149
0.0149819
0.000521171
-0.284006
0.0148631
0.000505549
-0.286036
0.0149702
-0.000145373
-0.279497
0.0140068
-0.00242036
-0.272969
0.0137555
-0.295851
0.0111742
0.00171284
-0.294654
0.0108714
5.47742e-05
-0.292744
0.010475
-0.00172304
-0.294165
0.00998553
-0.0014205
-0.290626
0.0109052
0.000490795
-0.287418
0.012616
-0.300059
0.0047785
-0.000833281
-0.203933
-0.0988463
0.000494217
-0.210279
-0.0935462
0.00107776
-0.208662
-0.0955677
-0.00206137
-0.201768
-0.0940584
-0.00341701
-0.20203
-0.0924223
-0.212647
-0.100235
-0.00583862
-0.234237
0.0201861
0.0019103
-0.256672
0.0204949
0.00654426
-0.252596
0.0211726
0.000625768
-0.230672
0.0194083
-0.00870276
-0.224717
0.0179534
-0.260058
0.0201992
-0.000233126
-0.172956
-0.0318314
0.00427987
-0.190665
-0.0359279
0.00503883
-0.186363
-0.0335132
0.0030307
-0.170175
-0.0300362
0.00200216
-0.163351
-0.031691
-0.190666
-0.0327424
0.0220088
-0.145319
0.00430983
-0.11085
0.000194474
-0.123218
0.0148539
-0.135128
0.00866096
-0.109423
-0.120198
-0.000848286
-0.0481097
0.00517172
-0.00844531
-0.035683
0.00419095
-0.01856
-0.0370767
0.0041028
-0.00906908
-0.0591
0.00528603
0.0100594
-0.0657001
0.00536073
-0.0392779
0.00408759
0.00147792
-0.0164306
-0.000682839
0.00111143
-0.00817936
-0.000846389
0.00108529
-0.00939733
-0.000829408
0.00147419
-0.0177362
-0.000492895
0.00503345
-0.0190734
-0.000279534
-0.0093888
-0.000910175
0.00512743
0.0240222
-0.000831036
0.0014636
0.0307657
-0.00090335
-0.000325147
0.028098
-0.000877756
0.00367661
0.0259191
-0.000637609
0.0102838
0.0279448
-0.000524385
0.0320903
-0.000931184
0.0047694
0.0874389
-5.45951e-05
0.00346512
0.091286
-6.04096e-05
0.00238943
0.0885669
-5.88199e-05
0.00549142
0.090804
-4.20481e-05
0.00900022
0.0945425
-3.44944e-05
0.0954545
-6.28823e-05
0.00323989
0.174045
-4.67282e-06
0.00279552
0.176382
-5.19543e-06
0.00129273
0.174126
-5.06691e-06
0.00435851
0.176584
-3.61472e-06
0.00826512
0.178966
-2.96618e-06
0.182542
-5.4343e-06
0.0013418
0.275312
-5.02859e-07
0.00119356
0.277699
-5.60994e-07
-0.00013069
0.276844
-5.47129e-07
0.00254857
0.277062
-3.89306e-07
0.00631716
0.277892
-3.33209e-07
0.287163
-5.89437e-07
0.000239162
0.39569
-6.41695e-08
-0.000498497
0.39813
-7.47397e-08
-0.00249
0.399307
-7.2319e-08
-0.000122982
0.396849
-5.11964e-08
0.00539333
0.394972
-4.54236e-08
0.412643
-7.85648e-08
-7.45805e-06
0.515888
0.00530762
-0.00141682
0.517016
0.00577625
-0.00454448
0.519829
0.00584201
-0.00247196
0.514598
0.00543705
0.00512196
0.509989
0.00496797
0.535054
0.006223
0.00230383
0.439812
0.0458563
0.00150222
0.443256
0.0480329
0.000741274
0.442631
0.0485734
-0.000335721
0.439234
0.0476664
-0.00164959
0.438745
0.0453321
0.44667
0.0520884
0.0020781
0.135477
0.348617
0.00198562
0.147876
0.343207
0.00936911
0.141039
0.343217
0.000912859
0.152803
0.343092
-0.0211752
0.162827
0.345729
0.132529
0.341962
-0.00398675
-0.0773109
0.20999
0.00655018
-0.0841942
0.212633
0.013725
-0.0857238
0.215934
-0.00328114
-0.0622925
0.231826
-0.0257783
-0.0561236
0.239011
-0.099215
0.203041
0.00487373
-0.243546
0.000884772
-0.203993
-0.00240559
-0.220231
0.0070337
-0.222956
0.01014
-0.18272
-0.223679
-1.92056e-05
0.00168431
-4.38673e-05
-5.54354e-06
0.00191912
-1.8469e-05
-2.31018e-05
0.00186739
-3.71868e-06
-5.15948e-05
0.00141829
-3.0063e-05
-1.13975e-05
0.00145697
-5.50308e-05
0.00201209
-3.1552e-06
7.55143e-07
0.000890838
-1.80321e-07
5.70851e-06
0.000969702
-9.97993e-08
-3.63842e-06
0.000942132
-5.01002e-08
-5.16118e-06
0.000683789
-7.11117e-07
4.46206e-07
0.00056263
-1.27101e-07
0.000999777
-3.16534e-08
-3.83517e-08
5.98418e-05
-7.45052e-10
6.7239e-08
6.62468e-05
-4.12711e-10
-7.40362e-08
6.45176e-05
-1.93953e-10
-1.47601e-08
4.61235e-05
-2.6884e-09
3.72463e-07
3.78582e-05
-4.17632e-10
6.89658e-05
-1.2335e-10
-5.64899e-09
5.25237e-06
-2.6021e-12
-1.06928e-08
5.84231e-06
-2.59086e-12
-1.2168e-08
5.69912e-06
-7.70938e-13
-1.8874e-09
4.0651e-06
-1.38694e-11
2.9251e-08
3.33275e-06
-4.10387e-11
6.11275e-06
-5.55864e-13
-6.22895e-10
5.80189e-07
-7.8278e-12
-1.50511e-09
6.47764e-07
-2.42241e-12
-1.21027e-09
6.3192e-07
-1.83951e-12
-3.5643e-10
4.49532e-07
-1.22373e-12
1.0479e-09
3.68451e-07
-3.11775e-09
6.79512e-07
-1.88845e-11
1.4361e-10
7.76663e-08
-4.69794e-10
-5.09201e-11
8.71428e-08
-1.72999e-10
-1.91907e-10
8.50553e-08
-1.23314e-10
3.35049e-12
6.0137e-08
-1.05214e-10
1.57894e-10
5.45554e-08
-1.90365e-08
9.1595e-08
-1.32644e-09
-6.83269e-11
1.53741e-08
-8.68503e-10
-2.4461e-11
1.25716e-08
-8.48109e-11
3.81205e-11
1.29017e-08
-2.16251e-10
1.86302e-11
9.23402e-09
-1.67484e-10
-1.63634e-10
1.12407e-08
-7.28245e-10
1.3137e-08
-9.47901e-11
-3.52492e-05
0.0052183
0.000132387
-9.37175e-06
0.00562656
0.000133454
8.54662e-06
0.005693
0.000140596
-6.75362e-06
0.00532937
0.000132061
-4.48172e-05
0.00489863
0.000115325
0.00603738
0.000151229
3.00359e-05
0.0486909
0.00236815
-1.49868e-05
0.051302
0.00241594
-3.68537e-05
0.0518549
0.00244648
-3.66923e-05
0.0506854
0.00232184
6.20993e-05
0.0479092
0.00223469
0.0557141
0.00248541
0.00138457
0.257716
0.0316337
0.000769072
0.272806
0.0453078
0.00157974
0.265201
0.0463163
0.000467761
0.265796
0.0427133
-0.000979514
0.267952
0.0418325
0.2619
0.0432025
0.0269139
0.0822523
0.215629
0.0100213
0.035637
0.27619
0.0030363
0.0358829
0.265617
-0.010145
0.0497146
0.264103
-0.0221895
0.0491766
0.270737
0.00976599
0.25015
-0.000672069
-0.207092
0.00246105
-0.223519
-0.00223556
-0.229105
-0.00036838
-0.218435
0.0222827
-0.202608
-0.232397
6.0417e-08
-1.14534e-09
-4.19103e-05
1.4868e-08
-7.59226e-10
-1.84223e-05
-3.32641e-08
-3.33897e-10
-3.66996e-06
-4.01956e-08
-5.09951e-09
-3.00659e-05
6.73109e-08
-8.00874e-10
-5.51398e-05
-2.39523e-10
-3.08795e-06
1.70881e-10
-3.15457e-12
-1.8165e-07
3.39073e-11
-2.42929e-12
-1.00414e-07
-4.19237e-11
-1.21824e-12
-5.03546e-08
-3.56694e-11
-1.1943e-11
-7.16228e-07
-1.42949e-11
-2.1743e-12
-1.27919e-07
-6.37313e-13
-3.19063e-08
-1.11046e-13
-5.33121e-14
-7.48019e-10
1.19265e-13
-3.84672e-14
-4.15261e-10
1.47577e-13
-2.35234e-14
-1.95168e-10
9.87437e-13
-1.29974e-13
-2.70105e-09
-2.76013e-14
-5.04265e-13
-4.16011e-10
-9.27216e-14
-1.23776e-10
-9.48084e-16
-7.73024e-14
-2.53171e-12
2.85629e-17
-3.39705e-14
-2.57231e-12
8.08287e-16
-1.66166e-14
-8.14583e-13
-1.13122e-15
-4.42946e-14
-1.39457e-11
-7.44724e-15
-3.9072e-11
-2.39018e-12
-1.32987e-13
-3.89381e-13
-2.58685e-16
-7.77081e-12
-1.48896e-13
7.23795e-17
-2.40024e-12
-3.80698e-14
1.83115e-16
-1.80346e-12
-4.28573e-14
-1.72324e-13
-1.00336e-12
-8.93295e-14
-1.13748e-14
-3.15648e-09
-3.93391e-13
-1.90071e-11
-1.26757e-14
-1.25978e-14
-4.77071e-10
-3.22652e-13
9.27443e-15
-4.70525e-11
-1.28281e-10
2.08429e-14
-1.24562e-10
-5.61474e-13
-7.65674e-12
-9.82286e-11
-2.52933e-13
-8.90082e-13
9.96347e-10
-1.15608e-12
-4.76764e-11
-1.29811e-09
-3.24225e-12
3.87389e-08
-3.98008e-08
5.36037e-13
3.76654e-09
-3.86307e-09
4.17793e-12
9.41439e-09
-9.8058e-09
-1.88211e-12
7.24398e-09
-7.45627e-09
3.55175e-12
2.90146e-08
-2.81353e-08
3.63824e-09
-3.68195e-09
-1.58223e-06
0.000134397
-1.6237e-07
-7.66453e-09
0.000131967
-2.39939e-09
1.93402e-07
0.000140607
-1.71801e-07
-6.57925e-07
0.000133063
-1.23609e-07
-7.70383e-07
0.000115576
-4.69819e-08
0.000150548
-2.52471e-09
8.21155e-06
0.00231409
0.000181401
6.63401e-06
0.00238611
0.000167098
1.83586e-06
0.00242343
0.000166848
-3.41314e-07
0.00228707
0.000167864
-2.25306e-06
0.00218186
0.000171192
0.00247935
0.000156936
0.00153137
0.0300542
0.00237808
0.00065757
0.0452646
0.0033118
0.000643568
0.0456236
0.00313693
0.00029437
0.0418363
0.00352931
-0.000431652
0.0404775
0.00427622
0.0424343
0.0028283
0.0372556
0.102718
-0.0243067
0.0188844
0.173201
-0.0298826
0.0156164
0.165617
-0.0321765
0.00170231
0.168434
-0.00836505
-0.011223
0.171186
0.0141479
0.154464
-0.0290766
0.140193
-0.0570873
0.0724955
0.0966472
0.0253846
0.0745127
0.0164495
0.0749305
0.00606751
0.0859227
0.054126
-0.0042777
0.0145816
-0.00179069
0.010597
0.0175046
-0.0213775
0.0342392
0.0188016
-0.0275923
0.030831
0.0201808
-0.0121114
0.0188885
0.009855
0.00141271
0.00280192
0.00858333
-0.000934463
0.032293
-0.0126724
0.0167031
0.0340772
-0.0206082
0.0367453
0.0313706
-0.0186664
0.0332535
0.0259653
-0.00405479
0.0167085
0.0179478
0.00316391
0.0136048
0.00463493
0.00552383
0.0448357
-0.0128775
0.0107892
0.0548851
-0.0170065
0.0254916
0.040988
-0.0168285
0.037294
0.019292
-0.00565539
0.0179812
0.029552
0.00705125
0.0271386
0.00315243
0.0163631
0.0479275
-0.0173298
0.0138851
0.0786649
-0.0163103
0.0230828
0.0422106
-0.0111195
0.0297839
0.0174849
-0.00562777
0.00597344
0.0528202
0.00026207
0.0386471
-0.00566381
0.0216363
0.0504496
-0.0244301
0.0253577
0.093465
-0.0191836
0.0341683
0.0302529
0.00246408
0.0165078
0.0257526
0.00867934
-0.00627719
0.0831465
-0.0026939
0.0481427
-0.0157096
0.0253802
0.0586384
-0.0309598
0.0333624
0.103848
-0.0189535
0.0162173
0.0202087
0.0265342
-0.00560159
0.0288547
0.0180394
-0.01282
0.102506
-0.00588146
0.0569257
-0.0201217
0.0368898
0.070932
-0.0456059
0.0540294
0.106851
-0.0208129
0.0454372
0.0222674
0.00584925
0.0109355
0.0515655
0.0111065
-0.00840346
0.12129
0.000171022
0.0700099
-0.0164811
0.0576604
0.105605
-0.092857
0.0687084
0.117174
-0.0221059
0.0513683
0.0397297
-0.000805532
0.00288793
0.10125
-0.00190377
-0.0133467
0.139608
-0.00296298
0.0798239
-0.0161136
0.0443141
0.131093
-0.0704353
0.0505973
0.133837
-0.0234705
0.0213879
0.0266897
-0.00519703
-0.0299262
0.0673781
0.00749655
-0.0294864
0.152371
-0.0144923
0.0804086
-0.032188
-0.0207781
0.153995
-0.00227408
0.0305314
0.161867
-0.0799712
-0.00636234
0.0125036
0.0106558
-0.103404
0.0218616
0.0457157
-0.0563413
0.153107
-0.0507209
0.082047
-0.0611096
-0.0735166
0.0245504
0.0502486
-0.0212961
0.0371089
-0.0597747
-0.00907768
0.00930453
0.00311415
-0.0439023
0.00930377
0.0335528
-0.0294323
0.00916636
-0.00776615
0.0111421
-0.0559959
-0.0107723
0.0227579
-0.00268668
0.0131476
-0.00117101
0.0146658
-0.00774495
0.0180407
-0.0074303
0.0176106
0.0103736
-0.00288926
-0.000387584
9.74913e-06
0.000359847
0.000146049
-1.15239e-05
0.00433201
-7.57906e-05
-1.01323e-06
0.0105509
-0.000777009
-7.72252e-05
0.0059361
-0.00134914
3.06781e-06
-0.00150354
9.25438e-05
-0.00499694
0.00239441
1.42297e-05
-0.00150635
0.00191607
-1.15757e-06
0.00147782
0.000399861
-1.80935e-07
0.01156
-0.00042497
-1.07965e-06
0.012432
-0.000635506
-7.113e-05
-0.00121035
0.000145742
-0.00480807
0.00615209
-0.000133808
-0.00371376
0.00613737
-0.000101381
-0.00204427
0.000456285
-1.27625e-07
0.00743085
0.000376129
-1.37162e-07
0.0155259
0.00247868
-3.18477e-06
0.00507192
0.000180908
-0.00740135
0.0153924
-0.00102521
-0.00904618
0.0124917
-0.000175058
-0.00302593
0.00701458
-7.04145e-07
0.0119711
0.00692032
-6.80098e-08
0.0240637
0.0117577
-2.77541e-06
0.01722
0.000180587
-0.0172618
0.0249329
-0.00116265
-0.0170216
0.0270353
-5.65264e-06
0.0136387
0.0262511
-1.83805e-07
0.0380338
0.0278214
-9.72637e-08
0.0303159
0.0259965
-1.97e-06
0.0257982
0.000210805
-0.0145692
0.0294605
-0.000344346
-0.0116412
0.0392707
-3.68588e-07
0.0313241
0.0380468
-4.39554e-07
0.0300446
0.0384715
-2.709e-08
0.0196265
0.0276679
-4.719e-07
0.0223347
-5.90354e-05
-0.0125058
0.0461305
-0.00021473
0.00384034
0.0399264
-3.97665e-08
0.0226227
0.0307204
-5.48618e-07
0.0239056
0.0330999
-8.67563e-09
0.0165354
0.0242705
-2.82421e-08
0.0198229
-0.000135824
0.00343575
0.110798
-1.64797e-05
0.00480591
0.0528598
-9.666e-08
0.00652459
0.0436147
-2.48019e-08
0.0200644
0.0431212
-4.87412e-09
0.0134023
0.0188478
-1.96905e-08
0.0183245
-0.000195292
-0.00909174
0.0705795
-0.0156225
-0.0118022
0.100836
-0.00052012
0.0114171
0.102859
-0.000282847
0.0215355
0.0730244
-0.0212596
0.00679604
0.0384404
-0.000195015
0.0288833
-0.0001272
0.00236803
0.0147539
-0.00661329
-0.000614259
0.152939
-0.0104184
0.0152245
0.130693
-0.00438508
0.00441748
0.0319687
0.0322364
0.00704439
0.104497
-0.0213901
0.0933407
-0.00127245
-0.00721645
0.0057651
0.0129989
0.033032
0.150828
-0.0491466
0.0322644
0.0866441
0.00779906
-0.00412346
0.00250321
0.0568813
-0.00787075
0.0382032
0.0193435
0.044015
-0.0618109
-0.0136616
0.0303096
0.025341
0.0283304
0.0147491
0.0318848
0.00017042
0.0185792
-0.0139646
0.026534
0.0138201
1.08948e-05
-7.16141e-08
-2.11796e-07
4.9203e-08
2.78566e-08
-6.85552e-07
-6.28609e-07
6.71378e-11
-3.15059e-07
-7.68886e-05
-1.36168e-10
-9.30158e-07
-8.15459e-05
7.73409e-06
-3.2365e-07
6.03326e-06
1.31101e-06
-1.39876e-09
1.55361e-05
-1.35617e-06
-4.10007e-10
1.10688e-08
-1.12987e-06
-7.03275e-09
4.19583e-09
-1.60926e-07
-7.2692e-07
1.08544e-08
-3.62683e-07
-6.36208e-05
6.37821e-07
-1.10491e-06
8.94289e-05
-9.76932e-08
0.000103729
0.000809404
-2.0487e-06
1.12313e-07
2.41167e-06
-1.62331e-07
-2.63912e-10
5.8845e-09
-7.17318e-09
-4.89223e-09
3.94373e-09
-1.21069e-07
7.09656e-09
4.7493e-08
-2.59836e-06
0.000270121
1.96981e-07
0.000179183
0.00149636
-1.68637e-07
6.80287e-07
5.86307e-06
-6.43245e-09
2.82974e-09
2.3082e-08
-4.05251e-08
4.18508e-10
3.34863e-09
-6.37659e-08
1.32301e-08
5.79981e-08
-2.79416e-06
0.000449991
6.03392e-07
-1.28682e-08
0.000576729
-5.14953e-10
-2.40761e-10
2.18829e-07
-2.37017e-08
9.60843e-10
7.3459e-09
-1.68012e-07
6.71167e-10
3.45668e-09
-9.71291e-08
1.19684e-08
5.15237e-08
-1.97414e-06
0.000656659
4.1568e-06
-5.71472e-09
0.000230067
2.43845e-06
-5.62014e-09
1.75814e-08
-1.65414e-07
1.05561e-09
1.54791e-08
-4.5441e-07
4.45805e-10
1.51547e-09
-2.44334e-08
4.55219e-09
1.38012e-08
-4.38851e-07
0.000594869
2.76191e-06
-2.23868e-09
1.51897e-05
1.53617e-07
-1.37569e-08
4.10597e-09
-1.23423e-08
-7.92939e-11
1.44161e-08
-5.61127e-07
2.14005e-10
4.72844e-10
-7.77103e-09
5.47335e-10
1.17506e-09
-1.57187e-08
0.00046261
-3.69456e-06
-4.85636e-10
7.43049e-07
-2.03055e-06
-3.63608e-10
5.25632e-09
-9.81626e-08
-3.39452e-11
1.01197e-09
-1.15722e-08
7.10496e-11
5.20115e-10
-4.55992e-09
5.59124e-10
1.22209e-09
-2.03051e-08
0.000264811
2.51508e-06
0.000525852
-0.00159353
-0.000564925
2.58363e-06
2.68386e-05
-2.36822e-05
-0.000353565
0.000143807
-7.05056e-05
0.000607205
0.0186739
-0.012776
1.04812e-07
0.000416829
-4.74301e-06
9.54562e-05
-9.14883e-06
0.0111907
0.00550103
-0.010974
-0.00479388
0.00579673
-6.50066e-05
-0.00264705
0.0904564
-0.000125868
0.00364724
0.0160634
-0.000714699
0.00107551
0.0153613
0.000420516
0.000232141
-0.000414299
0.040454
-0.000867355
0.00753721
0.0365945
0.086167
-0.0260659
0.00315876
0.0639517
0.019376
0.000284884
-0.00429927
0.0335644
0.00961421
-0.00273
0.00985841
0.0145213
-0.0244728
0.00139549
0.0234385
0.0314585
0.0225086
0.010019
0.0396983
0.000519437
0.0159231
-0.00153607
0.0193043
0.00967544
2.4605e-07
4.38557e-08
-3.70618e-07
8.49433e-08
5.66018e-08
-1.20293e-06
-1.64731e-06
-5.0945e-08
3.97405e-07
-7.86655e-07
-3.67338e-09
6.73534e-07
-7.9024e-07
1.09263e-07
-3.03562e-07
1.74659e-07
-3.12149e-07
6.40372e-07
5.24601e-07
-1.90648e-06
-1.73027e-08
5.79376e-08
-5.84276e-07
-5.64064e-08
-5.63401e-09
-3.314e-07
-1.24707e-07
-1.28156e-08
-3.77285e-07
-1.00382e-06
2.64148e-07
-5.54102e-07
4.52217e-07
-1.53907e-06
-3.3371e-10
1.83271e-08
-1.54421e-06
-3.67014e-10
4.85067e-10
-1.04315e-07
2.11099e-09
1.63743e-10
-2.08365e-09
-1.83795e-07
7.74955e-09
-9.04809e-09
-4.85135e-07
8.81129e-07
-6.51068e-07
4.45952e-07
-2.30862e-07
-4.96232e-10
3.4415e-09
-1.56232e-07
-4.63369e-09
7.18016e-10
-2.07468e-09
2.92704e-11
1.86252e-08
-3.86267e-08
-2.37058e-08
5.15502e-09
-3.77021e-08
-4.11985e-07
7.5058e-07
-2.07373e-08
2.01748e-06
-3.80412e-07
-4.20909e-10
1.48621e-09
-1.11572e-09
-2.16237e-08
-6.79919e-10
-4.07791e-09
3.90364e-09
6.55619e-09
-1.69658e-07
-2.00383e-08
4.10793e-09
-6.90841e-08
-5.52187e-07
9.50762e-07
-8.72012e-07
7.08687e-06
-7.2076e-07
-1.84032e-08
2.1867e-06
2.6919e-07
-2.64682e-07
1.53502e-07
-5.56159e-07
3.77229e-08
1.07206e-08
-2.22689e-06
-2.69593e-08
7.16489e-10
-3.50915e-08
-6.34137e-07
3.61678e-07
-5.8619e-07
7.19282e-06
-1.55129e-06
4.60696e-08
2.08543e-06
1.87916e-07
-3.3158e-07
1.00483e-07
4.22909e-07
-2.14787e-08
7.35551e-10
-3.97034e-06
-1.32835e-08
1.02107e-10
-2.23387e-08
-4.03916e-07
1.3531e-07
-7.94771e-08
4.72115e-06
-2.16056e-06
2.4974e-06
-3.54076e-05
3.25959e-05
1.09724e-07
4.48111e-07
2.43845e-06
-1.25965e-09
5.26742e-07
-4.26828e-07
-1.43155e-07
1.38184e-07
-5.88256e-10
-3.32948e-06
2.08398e-06
3.71825e-08
3.07861e-06
3.21027e-07
0.000139307
-0.000147005
3.60267e-05
2.56464e-05
4.51029e-05
-0.000111162
-0.00166002
0.0018618
-0.000246101
-0.000220102
0.0068299
-0.000322506
-3.27836e-06
2.22267e-06
-6.51777e-05
-1.86535e-05
6.93131e-06
-5.67789e-05
-0.00363509
-0.00375605
-0.00637704
0.00636224
-1.52114e-05
-0.00277137
0.0159929
0.000634724
-0.00511731
-0.00204386
0.00529314
0.00387034
-0.0067863
0.011648
-4.27376e-05
0.000194813
0.0241684
-0.00273845
0.00170327
-0.00812875
0.0412501
0.00063332
-0.0219216
0.00808335
0.00516314
-0.00601731
-0.00752055
0.0192056
0.00333335
-0.0126675
0.00889158
-0.00026074
-0.0118518
0.00795671
0.011759
0.0283537
0.00204273
0.00315753
0.0160438
2.16276e-05
0.0117444
-0.000475264
0.0119744
0.0136879
5.70274e-06
-1.97242e-05
-4.52651e-06
8.72245e-06
-1.5531e-06
-3.95601e-06
3.36714e-06
1.28964e-05
-1.86157e-06
7.47283e-06
-1.668e-05
-5.82407e-06
9.45427e-06
-3.24332e-05
-4.73534e-06
3.36257e-05
-1.19035e-06
-2.7237e-05
1.4105e-05
1.03633e-05
-1.08393e-06
-0
4.3608e-06
1.49026e-05
-0
1.85176e-06
4.99821e-05
-2.63953e-301
1.17426e-05
4.0356e-05
-2.52674e-06
1.11872e-05
5.17112e-05
2.0674e-06
-0
-1.07717e-30
0
0
0
0
5.209e-301
1.28151e-304
2.40117e-05
-4.34837e-39
-3.21092e-15
7.00518e-09
-5.4355e-06
-3.63939e-09
2.65557e-09
-4.04656e-06
-5.36348e-09
4.73322e-10
-1.90703e-06
-2.62546e-09
1.78828e-08
-7.84877e-06
-6.66128e-09
1.48639e-09
-4.84478e-06
-2.19686e-09
-1.22011e-06
-6.64359e-10
-1.88163e-07
-6.19685e-32
4.27331e-09
1.58879e-08
-4.64946e-28
5.83098e-09
1.84609e-07
-1.49145e-259
2.83992e-09
7.56862e-07
-3.38466e-37
9.51797e-09
1.62286e-07
-2.06778e-40
2.40192e-09
-5.44859e-14
7.75498e-10
-3.77065e-31
-7.62073e-31
-2.41675e-263
-4.6532e-28
1.422e-262
8.05223e-264
5.52069e-40
-3.39017e-37
3.0649e-42
-4.00614e-39
-1.55382e-41
3.74081e-13
-4.38996e-09
-3.57662e-13
3.6504e-13
-5.77501e-09
-2.45729e-12
1.52712e-12
-2.81987e-09
-1.21905e-12
2.32722e-11
-9.39013e-09
4.65696e-12
1.81073e-13
-2.59103e-09
1.13681e-12
-7.88069e-10
2.16822e-13
-2.3496e-11
-2.1645e-27
2.92151e-12
1.81705e-11
-5.13496e-24
5.30189e-12
3.31711e-11
-6.15243e-30
2.06022e-12
1.45508e-10
-1.57053e-33
9.49874e-12
1.34018e-11
-6.21438e-36
1.55904e-12
-2.83853e-38
2.91255e-13
-3.53682e-28
5.94424e-31
-3.21491e-35
1.92366e-27
1.09412e-33
2.36036e-33
3.20509e-37
5.08984e-37
2.25566e-40
1.12935e-39
3.77153e-42
5.35029e-15
-3.07108e-12
1.55517e-13
3.77755e-15
-5.28174e-12
2.70097e-13
3.83606e-15
-2.0689e-12
4.44259e-14
5.83804e-14
-9.45092e-12
1.0778e-13
-1.64323e-16
-1.58905e-12
3.94891e-13
-2.92431e-13
1.23163e-13
6.54333e-16
-2.00368e-17
6.87626e-15
1.40141e-14
-4.69426e-14
7.64033e-15
1.16052e-14
-1.09543e-14
5.52025e-15
4.45817e-14
-2.00245e-17
7.84411e-15
2.01446e-15
-2.33002e-18
2.46539e-15
-6.19555e-20
8.39455e-16
-1.05711e-17
3.03778e-20
1.73649e-17
2.00155e-16
1.89742e-17
6.37393e-17
5.1238e-21
1.32273e-20
1.50975e-21
1.0943e-20
6.24082e-22
2.89223e-17
-5.07633e-15
1.3172e-14
2.05452e-17
-7.78786e-15
2.43816e-13
2.35993e-17
-2.31938e-15
6.15657e-15
2.49606e-16
-6.98153e-15
2.78501e-14
2.17418e-19
-2.41094e-15
3.84214e-15
-7.07028e-14
1.86447e-13
1.7456e-18
-3.17818e-19
1.78324e-15
5.56142e-19
-1.94127e-16
3.10003e-17
1.05403e-18
-1.51431e-16
3.40331e-15
3.59766e-18
-1.13514e-18
8.60037e-16
1.71923e-19
-1.11947e-18
1.03901e-17
-1.24892e-21
6.47515e-16
3.77318e-22
3.74647e-21
1.246e-19
2.49154e-18
1.7691e-19
1.84254e-18
1.21388e-21
1.49182e-20
6.82716e-23
1.50746e-20
1.76058e-23
-1.90333e-13
-7.60789e-12
7.45608e-12
-4.45184e-16
-1.3717e-11
5.29598e-11
9.4734e-16
-1.42106e-11
1.36615e-11
4.98232e-16
-5.41207e-12
5.20321e-12
1.85024e-16
-1.16787e-12
1.28678e-14
-6.66143e-13
3.52877e-10
-1.83631e-14
-1.70352e-17
-7.58814e-12
-1.488e-14
-2.47159e-18
-9.03008e-14
5.30477e-14
-1.78752e-18
-1.42813e-11
1.56959e-14
-1.57815e-20
-5.37537e-12
1.19499e-15
-2.38454e-20
-1.15336e-12
-3.35674e-23
-6.64346e-13
8.14514e-21
-2.5593e-17
1.76189e-22
-1.77637e-21
3.77167e-22
-6.94049e-25
1.16052e-23
-4.06688e-190
7.38307e-23
-1.70365e-164
1.25303e-25
-1.26806e-11
-1.26115e-08
-2.46909e-10
5.69008e-12
-8.54192e-11
-2.95471e-10
1.01074e-10
-1.06393e-08
-5.03721e-10
3.66821e-11
-5.58748e-09
-3.87234e-10
1.54125e-10
-1.27197e-09
4.15618e-10
-4.64413e-11
-1.15763e-10
-2.40044e-12
-7.08539e-14
-7.22175e-09
-2.24668e-11
-8.40342e-18
1.43946e-10
1.18592e-10
-4.45809e-21
-7.91353e-09
1.59012e-11
-3.74924e-186
-4.59137e-09
-6.56317e-14
-5.76725e-160
-2.08325e-09
-1.25063e-25
-4.71713e-11
3.93881e-17
-7.09189e-14
4.5244e-21
3.08134e-17
-1.36621e-190
6.561e-23
1.64388e-190
1.20869e-188
2.58413e-164
6.42973e-163
1.88928e-28
-3.29163e-10
-2.79641e-07
1.18669e-07
-6.69731e-11
-7.14017e-09
1.98731e-09
-2.58163e-11
-2.56552e-07
8.52589e-08
-1.65972e-10
-2.17617e-07
8.39374e-08
-1.83572e-10
-7.78497e-08
3.04133e-08
-5.16938e-09
1.67118e-09
-2.30539e-09
-5.242e-10
5.33245e-08
-1.85993e-09
-6.14942e-09
-9.85232e-10
2.71818e-09
-4.42409e-08
8.24191e-08
6.38092e-10
-1.63723e-09
6.31218e-08
-3.7598e-10
-4.0622e-12
5.62249e-08
-7.93541e-11
-5.44775e-09
2.20023e-12
-5.26471e-10
6.7536e-11
4.50551e-11
1.61379e-10
2.0792e-11
4.06746e-12
-1.47992e-09
4.285e-15
9.7844e-16
1.37322e-12
-1.2645e-06
1.25729e-05
0.000170303
6.65102e-07
3.96588e-06
0.000160879
1.79778e-07
6.5742e-06
0.00016049
-1.37679e-06
6.16707e-06
0.000163452
-2.63231e-06
5.98242e-06
0.000166477
6.14862e-06
0.000148138
4.16376e-08
1.35171e-07
1.24439e-05
3.20905e-08
-1.53597e-11
3.97336e-06
1.26624e-08
-9.60504e-10
6.70086e-06
-3.99962e-09
-3.04632e-08
6.61137e-06
-1.11641e-08
-1.2426e-10
6.04626e-06
-6.7487e-13
6.13202e-06
4.56277e-10
1.34188e-07
-3.78664e-11
5.23465e-10
-3.02132e-09
3.56682e-08
2.85278e-09
6.24141e-07
5.80331e-12
2.99713e-09
7.25835e-12
0.000108185
0.000626389
0.00181529
8.86025e-05
0.000143858
0.00334888
9.12253e-05
0.000193699
0.00310229
3.80271e-05
0.000201673
0.00354558
-0.000134956
0.000290734
0.00432616
0.000247181
0.00259539
4.44507e-06
0.000141107
0.00049333
8.57315e-06
2.84931e-05
0.000115163
8.42454e-06
1.69594e-05
0.000183642
7.22332e-07
1.21613e-05
0.000204341
-9.80902e-06
1.41763e-05
0.000293136
1.35778e-05
0.0002299
6.54188e-07
0.000132496
3.42487e-07
2.57707e-05
2.98594e-07
1.43094e-05
-6.16261e-08
1.14987e-05
-2.41e-07
1.26988e-05
1.25231e-05
0.00372511
-0.00176382
-0.0325609
0.00229371
-0.00240781
-0.0226522
0.00157967
-0.00240691
-0.0259231
0.000374314
-0.000758167
-0.00280219
-0.000166584
-0.000174974
0.0192397
-0.00126259
-0.0254553
0.000384323
0.00029784
-9.66184e-07
0.000133905
-8.78804e-05
0.000705525
0.000189417
-5.83984e-06
0.00110182
0.00013952
0.000118683
0.00138158
-3.81151e-05
0.000142906
0.00161969
0.000239359
0.00109449
6.83483e-05
0.000335416
2.57801e-06
0.000347709
1.44275e-05
0.000143743
6.3398e-06
0.000135492
-3.94892e-06
0.000160333
0.000169745
-0.00814592
-0.000400819
0.0241032
0.0536642
-0.00072497
0.297281
0.0343772
-0.0011215
0.207214
0.00402607
-0.00143909
0.180711
-0.00623219
-0.000856166
0.252777
-0.00110076
0.19852
1.02852e-05
-0.00039326
-1.33102e-05
-2.11751e-05
-4.25201e-06
2.71621e-05
-3.29478e-05
-4.72556e-06
2.36617e-05
-7.54636e-05
-1.41338e-05
-1.88061e-07
-6.22456e-06
-5.9321e-05
0.000784776
-1.26787e-05
-1.59909e-07
5.08954e-05
-2.79113e-07
-3.10797e-05
8.67633e-05
-1.08217e-05
3.40741e-05
2.63221e-06
6.22937e-06
2.32732e-05
2.19838e-05
4.95777e-05
0.00318207
0.00583348
-7.23903e-05
0.000984965
0.00495767
0.00856252
-0.0226073
-0.000343365
0.00447118
0.00827351
0.00337064
0.0012687
0.00109905
0.00759937
0.00183583
0.00390309
-0.00264625
0.00771368
-0.0174833
-0.00057444
0.00657895
0.0100746
-0.00019852
0.0054704
0.00818764
-0.0220228
0.000363843
0.00576698
0.0117647
-0.038582
0.000839777
0.0038395
0.00739598
-0.0263298
0.000157838
-9.56314e-05
0.00783087
-0.0273181
0.00231015
-0.0041376
0.0114518
-0.0314634
0.00393649
0.0114056
-0.0243144
-9.85345e-05
0.00195575
-0.00646321
-0.00385317
0.00180697
-0.0061722
0.0016689
0.000944338
-0.00872157
0.00152561
-0.000272447
-0.00974344
0.00305806
-0.0011878
-0.00819622
0.00179462
-0.0049871
-0.00154094
0.00135451
0.0131541
-0.0237574
0.0110953
0.0151654
-0.229409
0.00311472
0.013488
-0.0471993
0.00222435
0.0130197
-0.00091129
-0.000148321
0.0144128
-0.116998
0.0159644
-0.111216
0.00513422
0.0160227
-0.0785626
0.00580698
0.00299834
-0.0719709
0.00334285
0.0142871
-0.0732982
0.00167653
0.017524
-0.0688826
-0.00231888
0.00870841
-0.0545384
0.0100153
-0.059246
0.000989836
-0.00747952
0.000644757
-3.41897e-10
0.00071373
-0.00515422
-0.00118121
-0.00891806
-0.00140372
-0.00218124
-0.003144
-0.0107706
0.00539291
-0.281842
-0.0016203
-0.036935
-0.428757
0.00163043
0.00139091
-0.332761
-0.00062113
0.00766095
-0.190382
0.00160391
-0.0151829
-0.344805
-0.00832522
-0.372891
-0.00507158
-0.000987753
-0.000651951
0.0066945
-1.87647e-09
-0.0269651
0.00589862
-0.00150573
-0.0010617
0.00124619
-0.000105781
-2.55908e-05
0.00123517
-0.00273422
-3.06615e-07
-0.00365038
-1.52803e-08
-2.66186e-11
-1.30611e-09
2.8293e-12
-2.24782e-09
-4.57952e-05
-7.73405e-08
-4.3955e-05
-2.07674e-07
-8.1919e-05
-9.97877e-07
-1.17113e-06
-0.00514232
-0.00447426
-0.366544
-0.0428028
-0.00675232
-0.376058
-0.0228627
-0.00725976
-0.349877
-0.00524194
-0.000203998
-0.266287
0.000937695
-3.12577e-06
-0.327265
-8.8631e-08
-0.347082
-0.00472115
-1.77637e-10
-0.00040506
0.00795642
-3.74818e-08
-0.0340317
0.000227637
-3.4061e-08
-0.000592604
2.46125e-06
-1.15046e-08
-4.36129e-06
2.13721e-08
-4.98718e-08
-9.40294e-07
-5.54378e-08
-2.44951e-08
-4.32305e-10
-1.05144e-09
-2.46132e-10
-3.99157e-08
-1.40976e-09
-1.10238e-07
-1.248e-08
-2.08109e-07
-1.60926e-09
-1.05862e-06
-1.22818e-06
-0.00274114
-0.00859251
-0.119162
-0.0576043
0.0199804
-0.332889
-0.0420841
-0.0106652
-0.34405
0.00964477
-0.000227502
-0.285388
0.00665642
-2.8003e-05
-0.295017
-1.40406e-06
-0.314044
-0.00896977
-2.5427e-08
-2.77815e-05
0.0113882
-1.21576e-06
-0.025147
0.000233654
-2.42246e-06
-0.000100771
5.35781e-07
-2.21002e-06
3.39466e-06
3.79702e-07
-8.44366e-07
-2.79435e-05
-1.06099e-06
1.46155e-08
-1.80311e-08
-8.4474e-09
-4.58084e-09
-1.26913e-06
-3.33257e-11
-2.53725e-06
-3.77593e-08
-2.3804e-06
1.50973e-08
-2.97207e-06
-2.27407e-06
-0.0195843
-0.00124716
-0.0300926
-0.0168144
-0.0131685
-0.00258048
0.00212637
-6.60642e-06
0.00137322
-0.000753811
-1.35918e-05
-0.00128773
-4.89967e-07
0.00262574
-8.43332e-05
-6.37232e-08
-3.16158e-05
-1.83535e-06
-1.51311e-06
4.22842e-06
-3.25761e-06
-9.50665e-06
-7.77534e-07
3.83303e-07
3.55386e-07
1.62999e-06
2.00485e-06
2.14509e-08
-9.85119e-08
1.30697e-07
-1.86576e-06
-3.78643e-07
2.17848e-07
-4.58959e-07
5.46241e-07
2.68926e-07
1.86688e-07
-4.813e-08
4.67379e-07
-4.09094e-09
-3.93001e-08
4.87457e-08
-1.9025e-07
9.34801e-08
4.69814e-09
-0
1.22768e-08
-4.99776e-07
-0
4.23376e-08
4.75819e-08
-0
3.0847e-07
-6.94424e-10
-0
1.46405e-10
-8.977e-09
-0
4.10592e-09
-0
1.85513e-08
0
0
0
0
0
0
0
0
0
0
0
5.25636e-08
-1.22448e-08
2.00134e-07
-2.62241e-08
-7.26438e-08
1.35047e-09
-6.31325e-08
-2.33989e-07
4.44214e-09
-4.66294e-08
-1.66275e-10
-2.86957e-09
-1.44854e-07
-1.78791e-08
7.90962e-08
-4.8526e-07
1.52705e-07
1.3465e-11
-0
1.85238e-11
3.38697e-11
-0
4.14933e-10
-1.77148e-12
-5.43472e-322
-1.069e-09
-2.18498e-11
-2.43467e-227
2.07679e-13
-1.38294e-08
-1.3391e-230
3.43546e-11
-3.1279e-236
6.16296e-09
0
0
0
0
0
0
1.33048e-230
1.84657e-230
3.13009e-236
9.27025e-234
2.27079e-239
-8.42885e-08
-1.89276e-11
6.06583e-08
-3.13485e-09
-4.4012e-10
1.02354e-10
-1.07547e-10
-2.7577e-10
-4.79764e-10
-9.67912e-09
-1.2134e-09
-5.83935e-10
-6.26756e-09
-4.89534e-09
8.78838e-09
-5.1489e-08
1.68498e-08
3.73546e-14
-7.74912e-14
-3.6748e-13
5.19199e-13
-2.58866e-11
3.47131e-13
-1.92041e-11
-1.3559e-09
3.45711e-11
9.01517e-12
-2.68875e-11
7.01978e-11
-4.85455e-09
-5.19318e-14
2.63871e-12
-2.26972e-239
-3.99091e-13
-7.76611e-14
1.62047e-16
-5.66176e-11
1.19293e-12
1.93381e-12
7.25353e-11
5.19616e-14
1.83171e-13
-6.32645e-243
2.99731e-17
7.79499e-243
-5.19616e-09
-7.80738e-10
-1.40094e-08
-6.5806e-09
-6.64243e-11
1.36996e-10