/*--------------------------------*- C++ -*----------------------------------*\
| =========                 |                                                 |
| \\      /  F ield         | OpenFOAM: The Open Source CFD Toolbox           |
|  \\    /   O peration     | Version:  v1612+                                |
|   \\  /    A nd           | Web:      www.OpenFOAM.com                      |
|    \\/     M anipulation  |                                                 |
\*---------------------------------------------------------------------------*/
FoamFile
{
    version     2.0;
    format      ascii;
    class       volScalarField;
    location    "10";
    object      alpha.water;
}
// * * * * * * * * * * * * * * * * * * * * * * * * * * * * * * * * * * * * * //

dimensions      [0 0 0 0 0 0 0];

internalField   nonuniform List<scalar> 
1116
(
0.796906
0.79858
0.798729
0.793793
0.793898
0.79634
0.88248
0.886203
0.888964
0.884592
0.886789
0.888759
0.936667
0.936672
0.936674
0.936677
0.936677
0.936677
0.934447
0.934908
0.935272
0.934669
0.934687
0.93498
0.934179
0.934616
0.934948
0.934311
0.934295
0.934503
0.935129
0.935307
0.935406
0.935124
0.935016
0.934952
0.935883
0.935883
0.935883
0.935883
0.935883
0.935883
0.935883
0.935883
0.935883
0.935883
0.935883
0.935883
0.894431
0.88985
0.892291
0.891992
0.892466
0.892435
0.795459
0.796676
0.796537
0.794403
0.793945
0.797283
0.783171
0.781068
0.781374
0.783762
0.783485
0.781082
0.641276
0.621526
0.628131
0.640118
0.633752
0.626828
0.357925
0.354668
0.353904
0.357344
0.357911
0.352895
0.333205
0.332183
0.332227
0.331758
0.332916
0.332319
0.282637
0.28276
0.283028
0.282769
0.284325
0.28443
0.278253
0.278763
0.278568
0.277294
0.277126
0.27863
0.287928
0.288377
0.287883
0.286514
0.285984
0.286797
0.313837
0.314527
0.31413
0.31245
0.311799
0.312206
0.367813
0.368635
0.368697
0.367592
0.367501
0.366744
0.488321
0.489265
0.489766
0.490026
0.490783
0.489201
0.767106
0.768478
0.768092
0.768123
0.768397
0.768067
0.816447
0.81648
0.816507
0.816517
0.816514
0.816517
0.816399
0.816444
0.816493
0.816514
0.816517
0.816513
0.535529
0.53431
0.534398
0.537996
0.534514
0.532246
0.000221726
0.000105279
0.000101283
0.000295007
0.000328247
8.6478e-05
1.486e-05
7.13708e-06
9.74289e-06
2.84309e-05
7.52814e-05
6.26114e-06
4.82538e-12
3.80545e-12
1.79609e-12
1.79304e-11
3.49674e-12
9.46914e-13
8.36793e-14
5.6834e-14
4.07339e-14
1.35882e-13
5.28076e-13
1.68987e-13
8.50166e-14
3.51256e-14
2.2562e-14
4.86995e-14
2.82189e-11
1.78305e-13
4.75133e-12
1.62836e-12
1.17118e-12
1.02651e-12
6.13203e-10
1.14668e-11
3.86335e-10
3.66064e-11
9.7455e-11
7.49838e-11
3.65912e-10
5.367e-11
-2.82073e-06
-3.29213e-06
-3.53188e-06
-2.93651e-06
-2.45256e-06
-3.89714e-06
4.12005e-05
4.48877e-05
4.57535e-05
4.41685e-05
4.12422e-05
4.94352e-05
0.105477
0.103275
0.10321
0.104284
0.101738
0.107871
0.600087
0.610167
0.60956
0.607839
0.608346
0.607757
0.544558
0.544768
0.544559
0.543867
0.544614
0.54093
1.64781e-09
9.13821e-10
4.0757e-10
6.50128e-09
1.15793e-09
2.72048e-10
4.83155e-12
3.81082e-12
1.79958e-12
1.79479e-11
3.50385e-12
9.53302e-13
8.37147e-14
5.68717e-14
4.07445e-14
1.35873e-13
5.28173e-13
1.69014e-13
4.34131e-14
2.8201e-14
2.39449e-14
4.07471e-14
8.85761e-14
1.60125e-13
9.15214e-15
8.48772e-15
3.96294e-15
2.16428e-14
8.66412e-14
7.75876e-15
8.40168e-14
3.4969e-14
2.25619e-14
4.81471e-14
3.40147e-09
1.8119e-13
1.07972e-10
9.6248e-12
-1.96995e-12
1.65089e-11
1.73658e-10
2.88932e-11
-5.72942e-08
-2.62878e-08
-1.56558e-08
-1.37232e-08
-1.60054e-08
-1.93706e-08
2.84738e-06
2.30749e-06
2.41957e-06
2.05876e-06
1.59185e-06
2.69502e-06
4.29896e-05
4.63936e-05
4.73943e-05
4.69128e-05
4.425e-05
5.18194e-05
0.076304
0.0695447
0.0711695
0.0533441
0.049118
0.0634899
0.445113
0.466661
0.46048
0.450776
0.451184
0.451213
0.0947721
0.0947477
0.0950725
0.0951526
0.0913471
0.0900221
0.0945442
0.0949591
0.0954316
0.0997645
0.0961259
0.0888128
0.0961724
0.0965092
0.0978053
0.100311
0.100249
0.0935592
0.0994271
0.0989954
0.100398
0.100392
0.0982788
0.098289
0.100141
0.100414
0.100404
0.1004
0.0957673
0.0982361
0.09998
0.100443
0.100418
0.100404
0.0973565
0.0979285
0.100019
0.100426
0.100404
0.100396
0.100231
0.0977956
0.100203
0.100377
0.100396
0.100385
0.100334
0.09812
0.0999061
0.100202
0.0857741
0.0920639
0.100259
0.0996989
0.0996582
0.099905
0.0369519
0.0399723
0.0999402
0.0993827
0.0418692
0.069714
0.0171042
0.0175319
0.0591559
0.0635145
0.00752352
0.00796175
0.015627
0.0197951
0.0150736
0.0160826
0.013824
0.00780853
0.00656578
0.00903803
0.00829795
0.00499895
0.0153998
0.0071428
0.00635013
0.0110685
0.0115101
0.0126318
0.0166539
0.0126627
0.0134206
0.0154406
0.0158297
0.0220008
0.0213167
0.019618
0.0220733
0.0234081
0.0229361
0.0310654
0.0264218
0.0299212
0.0390684
0.0417416
0.0337334
0.0307718
0.0225571
0.0419783
0.0626049
0.0510274
0.0302775
0.0246422
0.0196918
0.039572
0.0491558
0.03807
0.0239008
0.018963
0.0456548
0.037271
0.0291468
0.0232459
0.0138918
0.0132149
0.0740853
0.0376064
0.0471177
0.0371397
0.00918841
0.0109742
0.0297288
0.0738445
0.0804804
0.0347008
0.04521
0.0343942
0.0122936
0.0809241
0.0809241
0.0177884
0.0488762
0.0600186
0.00742795
0.0244769
0.0180198
0.0131255
0.0115804
0.0184547
1.24258e-07
1.38495e-08
6.36702e-09
1.28112e-08
2.83149e-07
1.06873e-06
1.38495e-08
5.68602e-09
4.29774e-09
2.91586e-09
1.28112e-08
6.79714e-07
0.000681394
2.46797e-09
2.80076e-09
1.9515e-09
2.91535e-09
-2.79266e-08
0.00102302
1.14822e-09
1.652e-09
1.27981e-09
1.94908e-09
-5.5937e-08
0.000370371
1.11575e-09
1.27981e-09
5.49231e-10
1.18247e-09
-5.85291e-08
-1.44517e-08
1.27255e-09
5.49231e-10
2.70339e-10
3.53559e-10
-2.72065e-08
1.73647e-09
1.04769e-09
2.70339e-10
1.70664e-10
6.23993e-11
-9.94064e-09
1.43905e-09
4.26965e-10
1.70664e-10
1.24851e-10
1.0823e-10
-6.71703e-09
0.00257492
1.44005e-09
4.26892e-10
0.00301259
1.66211e-10
3.4687e-06
0.0296211
4.95099e-06
0.0150752
0.0177382
0.00677729
3.54932e-05
0.00661941
0.0498535
0.0519362
0.0111394
0.0194732
0.0217808
0.00516489
0.0312893
0.0235819
0.00461046
0.00493671
0.013625
5.5521e-07
7.38882e-07
8.61083e-07
3.82436e-06
2.28199e-07
5.16209e-07
1.94622e-06
5.86129e-07
1.46465e-07
2.61095e-07
4.97263e-07
5.38493e-07
1.92612e-09
1.14822e-09
2.69759e-09
5.85886e-08
1.32679e-06
4.83195e-08
8.70815e-10
1.05876e-09
2.39151e-08
2.92448e-08
1.31969e-06
1.78375e-07
8.70815e-10
8.70815e-10
8.16992e-08
4.20592e-08
1.43254e-06
1.43471e-06
6.92942e-10
1.20009e-07
2.86857e-07
1.45435e-08
8.8599e-07
8.11322e-07
6.14159e-09
1.77117e-09
3.84344e-07
4.74534e-09
8.84823e-08
4.34435e-08
6.06758e-08
4.56356e-07
4.26965e-10
1.70224e-10
3.52808e-08
5.75619e-08
0.000531161
4.63362e-05
5.9629e-09
0.00367702
3.91463e-06
1.56464e-07
0.00376742
2.90858e-05
0.00650104
0.00461567
0.0107315
0.00237397
0.0128783
0.025558
0.0194103
0.00404283
0.0044252
0.0160252
0.00503864
0.0246065
0.0147116
0.00404593
0.00461412
0.00730986
9.63264e-05
8.9863e-05
9.87298e-05
0.000101108
0.000101184
4.73675e-05
9.65647e-05
1.67048e-05
6.75484e-06
6.67238e-05
0.000106675
7.69654e-05
7.44724e-05
0
0
2.14564e-313
7.02003e-05
9.11661e-05
4.58611e-08
1.5733e-10
7.40493e-11
4.13493e-07
1.18251e-10
3.31977e-11
3.22681e-06
2.48661e-06
1.19661e-06
4.81393e-06
2.85853e-06
6.91491e-07
5.10574e-42
1.4238e-38
9.84437e-270
9.3443e-48
1.78823e-50
3.32151e-14
9.78779e-13
7.98135e-13
3.70627e-13
3.4764e-12
5.40625e-13
1.52218e-13
-6.81781e-12
-6.68454e-12
-1.98692e-12
-7.32458e-12
-7.15808e-12
-1.2395e-12
1.23913e-32
1.7251e-29
4.3225e-35
3.40928e-39
1.08283e-40
2.25272e-42
6.70724e-15
5.39854e-15
3.04725e-15
2.69117e-14
7.96398e-16
5.09167e-15
-9.34352e-15
-3.37334e-14
-8.9502e-15
-7.65437e-14
-1.0891e-14
1.53873e-17
1.27343e-18
9.22763e-15
3.15527e-15
3.15822e-19
5.53334e-19
3.40052e-20
1.26582e-15
1.72695e-15
8.33042e-16
3.49097e-15
3.88765e-17
4.34495e-15
-9.63422e-18
7.3372e-17
6.32637e-17
1.75591e-17
-2.45041e-18
4.15307e-14
1.89221e-19
1.08553e-16
8.34033e-17
6.59344e-19
6.50138e-19
7.50318e-22
1.56922e-14
6.43502e-11
3.12744e-15
1.87026e-14
1.79847e-14
6.03403e-10
-3.93463e-17
3.67998e-12
-1.09571e-15
-2.59475e-16
7.85172e-18
2.01273e-18
9.63005e-19
5.08958e-21
3.17754e-20
1.48064e-21
1.32638e-20
1.87108e-23
1.37679e-08
1.40467e-09
4.2174e-09
2.79818e-09
9.75036e-09
1.37943e-09
3.88462e-09
3.84446e-12
5.22918e-09
2.3918e-09
5.31305e-10
1.16796e-17
1.21949e-21
1.00028e-22
9.87682e-29
2.89897e-193
6.83553e-167
7.63318e-30
2.17244e-09
1.2688e-09
2.23113e-09
1.98562e-09
5.43811e-10
6.83256e-10
8.01006e-08
1.12463e-10
6.21716e-08
6.17247e-08
2.26077e-08
6.70131e-12
2.51824e-19
2.22416e-09
4.33693e-09
1.15916e-18
1.31685e-20
1.24443e-11
-1.04365e-07
-7.33564e-08
-6.77218e-08
-1.34621e-08
-6.18988e-09
-6.12971e-08
1.19514e-09
-6.53227e-11
9.44915e-10
2.62829e-08
5.4273e-11
-5.29914e-13
-9.68322e-15
-1.58159e-14
6.11269e-10
4.1181e-08
3.64334e-11
1.54385e-14
3.25247e-06
3.22968e-06
3.43411e-06
3.36523e-06
3.12043e-06
3.57082e-06
1.73237e-07
9.13064e-08
1.27617e-07
1.71053e-07
1.01739e-07
9.00563e-08
1.33582e-09
7.36599e-12
6.33343e-10
6.20122e-08
5.43569e-11
1.27654e-13
0.00307996
0.000175646
0.000166692
0.000170222
0.000174021
0.000168518
0.00167649
0.000163236
0.000198922
0.000205525
0.000249807
0.000369481
0.000480669
6.66831e-05
1.07923e-05
8.49319e-06
1.50761e-05
2.62369e-05
0.0574868
0.12597
0.119131
0.129023
0.139398
0.112524
4.65485e-06
9.28769e-06
1.09677e-05
4.95268e-07
9.96824e-06
1.80791e-07
0.000113048
0.000101302
3.51263e-05
7.22678e-06
4.07273e-06
5.22357e-05
0.0142176
0.0102945
0.0126593
0.0134806
0.00899437
0.0103752
0.0115846
0.0101581
0.00761505
0.00907607
0.00887918
0.0072262
0.00311775
0.00293446
0.00276774
0.00250462
0.00298436
0.0030028
0.0154504
0.0472991
0.0177636
0.0137484
0.0242442
0.0230515
0.0284168
0.0320678
0.0288845
0.0271834
0.0262331
0.0252853
0.00585933
0.00316865
0.0052521
0.00693764
0.00493652
0.00403634
0.0960718
0.211364
0.116575
0.0654094
0.155096
0.157587
0.0170535
0.0198735
0.0180252
0.01471
0.0113456
0.0171845
0.000853071
2.70074e-24
0.000565035
0.000964901
1.27878e-17
0.000347641
0.200746
0.21592
0.214103
0.188089
0.202164
0.200759
1.95397e-11
0.00921622
1.49063e-09
2.918e-09
2.69295e-09
2.69295e-09
2.18086e-23
6.40569e-23
-5.99199e-17
-8.32506e-18
4.16025e-18
-3.20608e-18
0.163829
0.21592
0.215416
0.208001
0.204375
0.202582
3.68013e-10
0.0144903
3.58328e-08
6.14154e-08
1.74649e-08
2.69293e-09
2.47661e-21
-2.15668e-12
-2.05333e-12
-1.03487e-14
1.17604e-07
-1.97923e-13
0.0766706
0.21592
0.171988
0.163548
0.198536
0.174393
1.10118e-08
0.00846364
2.43994e-07
3.14051e-07
1.80811e-07
2.01578e-08
-1.36446e-12
-1.04302e-11
5.2014e-07
1.68266e-06
4.31677e-06
1.50551e-05
5.28621e-07
2.27653e-06
4.74852e-06
4.20852e-06
2.24243e-07
6.23925e-07
8.629e-08
2.93696e-07
4.41203e-06
2.32241e-18
3.08331e-08
1.67516e-07
0
0
0
0
0
0
1.49226e-06
4.28373e-07
4.09146e-07
4.33402e-07
5.08214e-07
1.29773e-06
2.26469e-19
4.55974e-09
1.66191e-07
4.62064e-20
-1.29591e-17
1.0557e-07
0
0
0
5.03747e-232
2.16913e-237
7.08851e-246
1.10225e-06
7.06743e-08
2.14303e-10
6.13932e-10
1.21455e-07
4.78556e-08
1.59053e-15
1.73908e-13
5.21971e-12
8.00691e-10
4.73906e-16
4.42619e-08
5.08027e-18
2.0888e-11
1.66983e-09
5.00239e-12
-5.28176e-22
2.63457e-248
1.07404e-07
1.00135e-09
3.14472e-08
2.97135e-08
2.20502e-12
1.6033e-07
2.94751e-18
1.0085e-12
5.067e-12
1.66413e-15
5.42613e-18
4.34708e-17
4.92167e-22
1.20336e-12
1.63268e-10
9.93525e-19
1.20998e-19
6.70516e-20
1.09452e-09
2.32152e-09
1.07352e-07
4.65724e-08
4.44295e-07
3.82965e-06
9.25223e-12
1.61081e-13
3.60588e-14
9.79494e-09
7.0662e-10
3.25344e-12
-2.83826e-16
1.21588e-18
1.16764e-18
1.64427e-23
5.36632e-21
1.84714e-19
1.50712e-09
1.97322e-06
1.58568e-06
5.94054e-08
8.30516e-07
3.81741e-06
1.10851e-06
3.09031e-06
6.66606e-07
1.09539e-07
2.10635e-07
8.68766e-07
5.38604e-08
-2.93003e-16
1.06044e-20
1.90956e-21
9.17069e-20
-7.83897e-17
1.00337e-08
1.25768e-05
5.84219e-06
6.63385e-10
1.95849e-07
1.78526e-07
2.24845e-05
2.24172e-05
7.25078e-06
2.10949e-11
4.55657e-08
1.39887e-07
5.84925e-06
2.58254e-07
1.09506e-18
8.15683e-18
1.1956e-08
6.66098e-08
0.000249373
4.22548e-05
1.68058e-10
2.32575e-10
3.28682e-10
2.63402e-09
9.76159e-05
1.56825e-05
1.19789e-10
1.24339e-10
2.48678e-10
4.74186e-10
2.52014e-08
1.61277e-07
2.26816e-09
1.26881e-17
1.10375e-07
4.92633e-07
0.00152542
0.000168108
0.000122997
3.28682e-10
0.000102119
9.20185e-08
1.71675e-08
3.07111e-06
1.73205e-11
0.000140372
3.49847e-10
6.78656e-05
1.22797e-08
-7.71798e-19
-2.4006e-21
-8.16597e-21
2.40938e-18
1.02972e-05
0.00124171
2.56627e-05
0.00154547
0.00391756
0.00888372
0.00352312
2.52879e-10
4.12914e-06
0.00238788
0.00401719
0.00320132
0.000452703
2.16692e-20
4.2967e-22
0.00123722
0.00284891
-6.82267e-17
8.45678e-18
0.0041867
0.0119759
0.0083928
0.00378221
0.0143673
0.0164805
0.0003741
1.97111e-05
0.00302655
0.00388177
0.0142087
0.00548767
2.52879e-10
1.99578e-11
0.000445387
0.00330766
0.00405485
1.05964e-20
0.0146712
0.0139566
0.00507304
0.0037253
0.0145799
0.0164457
0.0145858
0.0144826
0.00496393
0.0019531
0.0111626
0.0163967
0.00478114
0.00598601
0.0036833
0.0019531
0.00225262
0.00570402
)
;

boundaryField
{
    seabed_topleft_surface
    {
        type            zeroGradient;
    }
    seabed_topright_surface
    {
        type            zeroGradient;
    }
    breakwater_top_surface
    {
        type            zeroGradient;
    }
    breakwater_left_surface
    {
        type            zeroGradient;
    }
    breakwater_right_surface
    {
        type            zeroGradient;
    }
    water_front_surface
    {
        type            zeroGradient;
    }
    water_back_surface
    {
        type            zeroGradient;
    }
    water_left_surface
    {
        type            zeroGradient;
    }
    water_right_surface
    {
        type            zeroGradient;
    }
    water_top_surface
    {
        type            inletOutlet;
        inletValue      uniform 0;
        value           nonuniform List<scalar> 
180
(
7.44724e-05
0
0
0
7.02003e-05
9.11661e-05
0
0
0
0
0
0
0
0
0
0
0
0
0
0
0
0
0
0
0
0
0
0
0
0
0
0
0
0
0
0
0
0
0
0
0
0
0
0
0
0
0
0
0
0
0
0
0
0
1.33582e-09
7.36599e-12
6.33343e-10
6.20122e-08
5.43569e-11
1.27654e-13
0.000480669
6.66831e-05
1.07923e-05
8.49319e-06
1.50761e-05
2.62369e-05
0
0.000101302
3.51263e-05
7.22678e-06
4.07273e-06
5.22357e-05
0.00311775
0.00293446
0.00276774
0.00250462
0.00298436
0.0030028
0.00585933
0.00316865
0.0052521
0.00693764
0.00493652
0.00403634
0.000853071
0
0
0.000964901
0
0
0
0
0
0
0
0
0
0
0
0
0
0
0
0
0
1.68266e-06
4.31677e-06
1.50551e-05
0
0
0
0
0
0
0
0
0
0
0
0
0
0
0
0
0
0
0
0
0
0
0
0
0
0
0
0
0
0
0
0
0
0
0
0
5.84925e-06
0
0
0
0
0
2.52014e-08
0
0
0
0
4.92633e-07
0
0
0
0
0
0
0
0
0.00123722
0.00284891
0
0
2.52879e-10
1.99578e-11
0.000445387
0.00330766
0.00405485
0
0.00478114
0.00598601
0.0036833
0.0019531
0.00225262
0.00570402
)
;
    }
}


// ************************************************************************* //
