/*--------------------------------*- C++ -*----------------------------------*\
| =========                 |                                                 |
| \\      /  F ield         | OpenFOAM: The Open Source CFD Toolbox           |
|  \\    /   O peration     | Version:  v1612+                                |
|   \\  /    A nd           | Web:      www.OpenFOAM.com                      |
|    \\/     M anipulation  |                                                 |
\*---------------------------------------------------------------------------*/
FoamFile
{
    version     2.0;
    format      ascii;
    class       volScalarField;
    location    "10";
    object      p;
}
// * * * * * * * * * * * * * * * * * * * * * * * * * * * * * * * * * * * * * //

dimensions      [1 -1 -2 0 0 0 0];

internalField   nonuniform List<scalar> 
1116
(
7577.86
7575.87
7573.29
7569.51
7566.01
7567.18
7579.72
7578.91
7581.42
7582.37
7590.88
7585.78
7527.47
7527.78
7529.01
7529.3
7534.03
7532.57
7528.83
7530.38
7529.54
7526.81
7527.44
7529.93
7647.26
7647.86
7645.79
7642.46
7641.47
7641.72
7943.39
7943.83
7941.41
7937.01
7934.01
7932.9
8537.82
8539.43
8537.4
8534.11
8529.54
8527.4
9592.64
9595.1
9593.9
9595.85
9595.54
9586.51
11381.7
11382.1
11383.1
11382.8
11383.2
11382.7
12934.2
12936.1
12936.3
12933.4
12926.6
12940.7
14392.4
14395.5
14394
14391.9
14393.4
14397.3
14360.7
14341.6
14341.7
14348.9
14327.8
14332.8
1746.95
1731.15
1728.2
1745.52
1748.73
1723.86
1624.5
1621.11
1619.68
1618.04
1624.48
1620.41
1384.79
1387.1
1388.06
1385.33
1393.12
1395.14
1363.45
1365.13
1364.01
1359.09
1359.74
1363.91
1417.89
1418.81
1416.43
1411.17
1409.61
1410.92
1560.75
1562.52
1560.53
1553.74
1550.57
1550.93
1832.48
1836.11
1836.21
1831.17
1830.08
1825.53
2400.85
2405.67
2408.33
2409.78
2412.58
2405.69
3894.04
3900.35
3900.83
3899.5
3894.32
3908.84
5693.54
5693.03
5698.26
5700.69
5690.43
5715.94
7260.4
7278.43
7276.79
7268.31
7271.44
7284.46
8347.6
8373.62
8369.41
8363.71
8359.22
8372.92
-28.4051
-28.1374
-28.1086
-28.3319
-28.2059
-27.9201
-30.4778
-30.3347
-30.4339
-30.6496
-30.7512
-30.5546
-29.7376
-29.8829
-29.7583
-29.6697
-29.7856
-30.0171
-27.7912
-27.9837
-27.877
-27.6921
-27.5803
-27.9398
-24.2978
-24.446
-24.3933
-24.3223
-24.3158
-24.3722
-20.52
-20.695
-20.7198
-20.6898
-20.8559
-20.8189
2.91619
3.26137
3.16245
2.8503
2.12254
3.56631
83.561
84.4805
84.1774
84.3816
84.6382
84.9701
276.531
272.731
272.744
274.657
276.669
270.383
715.965
732.075
735.286
732.778
736.93
729.868
2926.27
2795.59
2768.68
2754.08
2779.57
2782.32
4209.82
4270.11
4249.93
4189.45
4200.16
4204.87
-27.7894
-27.7862
-27.7658
-27.6873
-27.5123
-27.5661
-27.7431
-27.7476
-27.7282
-27.6811
-27.5593
-27.6144
-27.2692
-27.2397
-27.2816
-27.3128
-27.3587
-27.3434
-28.1405
-28.0949
-28.1091
-28.1454
-28.1838
-28.12
-28.3589
-28.3119
-28.3126
-28.3273
-28.3369
-28.2615
-30.3346
-30.3798
-30.3725
-30.3253
-30.3412
-30.2645
-34.3995
-34.0575
-34.2809
-34.2467
-34.1273
-34.0814
-35.5089
-35.2874
-35.5947
-35.3995
-35.2534
-35.191
-38.7942
-40.5943
-41.2928
-41.5409
-41.9848
-40.8408
17.671
2.9929
-2.93996
-9.75306
-12.9001
-5.82486
375.844
260.909
244.093
187.628
173.139
233.178
1583.49
1218.33
1178.5
1121.88
1055.84
1058.55
597.191
584.973
584.628
580.016
570.994
559.752
614.69
591.235
584.33
597.41
603.291
610.793
649.54
638.759
633.434
648.346
662.499
676.807
705.948
693.1
693.056
711.225
716.57
744.971
755.118
732.75
762.726
770.862
752.545
774.627
765.364
761.464
820.607
814.789
756.416
761.307
754.774
753.827
807.484
815.123
768.588
740.777
867.328
791.857
811.464
790.572
743.801
711.237
993.774
892.564
929.369
897.301
727.795
725.356
1135.92
1146.17
1151.11
1094.54
1050.78
1072.03
1194.51
1284.72
1269.93
1192.68
1215.38
1230.65
1183.6
1236.05
1207.09
1159.61
1154.53
1148.24
43.266
31.6916
30.0817
23.0138
22.7339
29.1353
47.9322
36.0182
31.7144
36.7779
39.9679
48.7289
70.4631
62.7999
62.3915
67.2919
69.4458
84.7724
100.453
89.621
92.1657
101.398
106.561
128.349
127.278
127.949
164.478
175.956
150.626
144.537
122.795
172.348
264.858
216.547
138.693
126.85
124.757
165.299
210.574
164.021
108.691
104.857
212.067
170.03
145.954
112.969
72.2211
84.4544
290.244
185.784
232.2
161.875
91.2208
101.371
307.781
300.821
367.094
254.411
183.967
206.621
384.006
340.719
624.389
551.261
409.449
495.527
692.866
776.923
779.477
692.722
685.106
717.022
-22.2795
-21.8569
-21.3206
-23.4977
-24.3073
-22.6738
-22.1674
-21.5359
-20.6325
-22.6223
-24.6731
-24.1369
-20.9052
-21.5828
-21.4918
-21.6862
-23.6168
-24.4235
-22.0509
-23.2853
-22.989
-23.2463
-24.2369
-24.8104
-22.913
-23.8442
-23.3028
-24.3885
-24.978
-24.1381
-19.5119
-20.8393
-20.9934
-21.8659
-21.8046
-20.5621
-14.0645
-15.5848
-14.3688
-14.3328
-14.4767
-13.2116
-0.703378
-6.06079
-5.74732
-6.81567
-8.37313
-4.49471
16.6591
6.84286
9.8869
8.89689
8.57888
11.0424
37.8274
26.301
27.0578
16.9217
24.4124
30.4115
135.061
85.9017
-4.20719
127.767
39.4438
74.3024
314.003
277.474
337.027
336.992
322.51
311.526
-32.5803
-32.3504
-32.3199
-32.2139
-31.3042
-30.7057
-32.6519
-32.3763
-32.2787
-32.4979
-32.0813
-31.675
-31.7664
-31.7379
-31.9895
-32.2016
-32.595
-32.504
-32.7394
-32.5675
-32.8081
-33.2752
-34.0443
-34.1469
-34.0999
-34.091
-34.4523
-35.2428
-36.1687
-35.8476
-34.5248
-37.4297
-36.6865
-36.3874
-36.494
-34.8618
-31.0575
-36.8498
-34.2097
-32.0653
-32.8365
-29.7338
-24.277
-27.8384
-25.7708
-26.7166
-26.8237
-22.102
-18.3509
-19.9158
-20.8762
-20.505
-14.3876
-11.6153
-18.663
-21.371
-31.8889
-31.4861
-11.9444
0.055046
56.7535
24.5628
-106.801
11.7038
28.7413
16.9792
225.071
169.414
164.405
187.174
205.997
191.608
-47.626
-47.8447
-47.8896
-47.8641
-47.653
-47.6859
-52.0111
-51.7381
-51.8964
-51.9795
-52.161
-51.9559
-68.2949
-67.9019
-67.444
-68.0205
-68.6755
-68.2801
-47.0157
-47.3428
-47.4171
-47.1708
-46.9017
-46.9123
-54.1651
-54.3773
-54.5388
-54.3728
-54.2564
-54.3638
-68.176
-68.0536
-68.0443
-68.1304
-68.3721
-68.4023
-45.2192
-45.1992
-45.2051
-45.1896
-45.2005
-45.1967
-54.0301
-54.0112
-54.0182
-54.0282
-54.0494
-54.0578
-67.8517
-67.8439
-67.8238
-67.8482
-67.8739
-67.8704
-44.9091
-44.9157
-44.9232
-44.8966
-44.9023
-44.8725
-54.6361
-54.6393
-54.6517
-54.6515
-54.6584
-54.6576
-68.0189
-68.0159
-68.0204
-68.0319
-68.0539
-68.0592
-44.405
-44.386
-44.3884
-44.3922
-44.388
-44.3584
-54.8506
-54.838
-54.8329
-54.8327
-54.8261
-54.8117
-68.0846
-68.0929
-68.0933
-68.0993
-68.1046
-68.1055
-44.3528
-44.3315
-44.32
-44.3184
-44.2937
-44.2901
-55.6479
-55.582
-55.5322
-55.5365
-55.5356
-55.5067
-68.1696
-68.197
-68.1963
-68.2198
-68.2392
-68.2562
-41.9324
-41.7766
-41.8965
-41.9077
-41.8247
-41.783
-55.2714
-55.0536
-55.1274
-55.1351
-55.0933
-54.9918
-68.1037
-68.2665
-68.2811
-68.2999
-68.3254
-68.346
-53.0542
-52.5291
-52.759
-52.4332
-52.2616
-51.5048
-63.7963
-61.9848
-61.7536
-61.7441
-61.4366
-60.5638
-67.1576
-67.8274
-67.5392
-67.7691
-68.064
-68.3349
-58.0764
-56.9289
-58.0684
-58.1363
-57.4877
-55.2588
-44.6341
-46.0406
-45.7813
-45.6889
-46.4298
-46.5911
-67.5537
-69.1019
-69.1028
-69.379
-69.8189
-70.148
-26.5652
-29.5544
-30.566
-30.6399
-36.8036
-32.5774
-46.3998
-45.8197
-45.2727
-43.8427
-45.4175
-45.0851
-70.1025
-69.429
-69.5256
-69.4994
-69.2961
-68.9842
-11.7095
-33.6225
-32.7744
-30.2634
-30.2951
-32.1697
-73.8722
-67.3217
-66.2954
-62.4453
-65.4227
-66.1892
-82.8509
-81.6656
-81.4865
-81.4598
-82.2783
-83.8012
215.69
388.277
341.141
302.007
351.022
327.353
-91.1111
-101.086
-100.027
-97.1378
-98.2452
-95.2575
-92.2469
-104.151
-102.065
-106.248
-105.898
-110.131
304.026
298.794
289.912
279.324
284.414
291.978
2.84615
-14.5252
-34.6683
-44.5929
-37.8366
-19.1063
-131.654
-144.942
-148.386
-151.998
-157.222
-155.905
423.415
424.545
392.053
384.897
392.438
418.332
-11.2827
-72.2538
-65.9281
-65.9672
-88.2767
-64.7604
-141.725
-157.457
-153.957
-158.547
-161.046
-153.833
590.942
774.043
582.366
545.883
630.247
625.33
-2.8957
13.0181
-17.8902
-33.1224
-31.6122
-34.8094
-116.482
-113.602
-110.878
-113.205
-108.757
-108.501
904.189
949.077
953.224
877.053
946.68
953.416
-16.5581
-13.4248
-38.4989
-46.3224
-48.8467
-50.1849
-98.4841
-92.7942
-95.5355
-93.7959
-86.981
-87.9889
646.652
862.111
880.595
945.632
951.938
936.4
-39.8201
-28.2223
-59.9146
-68.1331
-60.4474
-65.3555
-83.5017
-78.7888
-79.5466
-78.1132
-75.3895
-74.609
365.605
790.981
767.467
749.86
919.397
781.446
-61.2559
-64.1795
-70.8615
-69.6834
-70.4122
-71.9473
-77.824
-74.0401
-79.5813
-82.7177
-84.634
-81.7559
-42.9673
-43.0511
-43.0004
-43.1563
-43.0718
-42.4707
-53.1726
-53.0916
-52.9629
-53.1017
-53.0408
-52.9449
-63.8327
-63.8297
-63.7363
-63.81
-63.8417
-63.8124
-43.0996
-43.1511
-43.3115
-43.2409
-42.9717
-42.5607
-53.5102
-53.5301
-53.6031
-53.476
-53.3846
-53.2603
-64.1884
-64.224
-64.16
-64.1819
-64.196
-64.1254
-43.3282
-43.1009
-43.0742
-43.0906
-43.1079
-42.9102
-53.589
-53.5914
-53.5977
-53.5998
-53.5784
-53.5175
-64.3311
-64.3625
-64.307
-64.321
-64.3134
-64.2585
-44.6068
-43.8728
-43.7223
-43.7549
-43.9803
-44.2254
-54.0546
-53.9065
-53.8897
-53.9296
-54.0093
-54.1299
-64.4673
-64.5304
-64.4821
-64.487
-64.4903
-64.4197
-46.2313
-45.196
-44.4202
-44.4232
-45.014
-45.1794
-54.5074
-54.1699
-53.9002
-53.9227
-54.0825
-54.2622
-64.2322
-64.3473
-64.3435
-64.3016
-64.2141
-64.0243
-46.4451
-46.7776
-44.3481
-43.635
-44.3008
-43.5061
-54.0217
-53.6383
-52.9867
-52.6818
-52.8203
-52.7769
-63.0728
-63.179
-63.445
-63.4076
-63.1857
-62.9093
-42.0909
-43.0925
-41.3245
-40.1687
-41.2716
-39.0711
-50.6505
-49.9781
-50.061
-50.0805
-50.4091
-49.917
-62.3963
-61.9022
-62.5006
-62.5576
-62.4046
-62.2068
-37.4443
-38.2187
-36.2548
-35.3685
-35.452
-33.8221
-50.6798
-49.2274
-47.8068
-46.1674
-45.6383
-45.6328
-62.9778
-61.6686
-62.2864
-62.3152
-61.9642
-62.1085
-34.079
-32.687
-35.4095
-37.4728
-32.2227
-30.8731
-51.6289
-49.5215
-46.872
-45.3721
-44.7502
-45.2222
-65.2648
-63.8896
-62.851
-58.7602
-63.5841
-63.4413
-25.5842
-25.9318
-31.0334
-39.8327
-31.7421
-29.5307
-39.9777
-39.1728
-46.3654
-53.0958
-42.0341
-45.1037
-73.6362
-69.2523
-82.4021
-83.1705
-70.2517
-73.1592
7.59543
5.16952
-27.5128
-3.82226
3.8094
-8.45396
-34.0437
-39.7932
-49.3043
-62.7386
-81.7817
-38.1787
-77.9514
-79.0325
-87.5089
-108.55
-99.9188
-89.2838
183.797
148.964
122.788
147.028
198.043
195.608
-20.0071
-41.6025
-40.0915
-29.16
-27.6839
-10.3997
-125.442
-140.111
-143.882
-142.006
-141.204
-148.446
)
;

boundaryField
{
    seabed_topleft_surface
    {
        type            calculated;
        value           nonuniform List<scalar> 
72
(
11501.1
11507.4
11505.5
11477.5
11474.5
11487.7
11923.7
11941.2
11957.3
11936.8
11956.1
11960.7
12137.9
12138.3
12139.5
12139.8
12144.5
12143.1
12128.4
12132.2
12133.1
12127.4
12128.2
12132.1
12245.5
12248.2
12247.8
12241.3
12240.3
12241.5
12546.3
12547.6
12545.7
12539.9
12536.3
12534.9
13144.4
13146
13144
13140.7
13136.1
13134
14199.2
14201.7
14200.5
14202.4
14202.1
14193.1
15784.5
15762.3
15775.3
15773.6
15776.3
15775.6
16850.3
16858.2
16857.8
16844.3
16835.3
16865.8
18248.1
18240.9
18240.9
18250.5
18250.7
18242.8
17518.8
17402.5
17435.1
17501.2
17448.8
17419.8
)
;
    }
    seabed_topright_surface
    {
        type            calculated;
        value           nonuniform List<scalar> 
72
(
1068.1
1055.76
1057.02
1052.8
1025.06
1007.31
1084.48
1063.06
1058.48
1092.87
1080.86
1052.4
1127.34
1118.21
1119.26
1146.49
1160.34
1141.75
1199.75
1184.78
1191.63
1209.77
1204.72
1233.17
1252.43
1231.4
1261.33
1269.45
1228.35
1262.57
1261.88
1260.26
1319.28
1313.39
1240.03
1247.74
1251.48
1252.54
1306.09
1313.69
1266.34
1226.55
1364.94
1290.32
1310.03
1289.08
1242.06
1198.61
1489.93
1390.17
1356.04
1354.9
1225.68
1220.49
1630.85
1642.32
1337.72
1296
1547.11
1565.61
1405.3
1632.43
1358.95
1283.8
1511.17
1547.86
1225.51
1280.12
1288.85
1261.86
1233.57
1232.24
)
;
    }
    breakwater_top_surface
    {
        type            calculated;
        value           nonuniform List<scalar> 
36
(
378.598
354.143
356.849
350.286
333.392
347.723
504.028
661.22
484.001
457.171
516.142
536.192
1066.61
1814.65
1158.5
871.301
1395.14
1402.43
1892.77
2012.01
2007.26
1803.61
1942.21
1942.06
1454.33
1925.04
1941.06
1969.76
1958.3
1933.98
746.203
1853.91
1615.13
1556.17
1897.15
1640.89
)
;
    }
    breakwater_left_surface
    {
        type            calculated;
        value           nonuniform List<scalar> 
24
(
14371.5
14352
14352.3
14359.7
14338.4
14343.3
8356.45
8382.45
8378.24
8372.6
8368.05
8381.72
4218.65
4278.93
4258.75
4198.27
4208.99
4213.64
1590.57
1225.75
1185.82
1129.04
1063.01
1065.73
)
;
    }
    breakwater_right_surface
    {
        type            calculated;
        value           nonuniform List<scalar> 
24
(
1183.74
1236.2
1207.37
1159.96
1154.8
1148.53
693.005
777.343
779.79
692.955
685.314
717.343
314.102
277.997
337.424
337.082
322.606
311.763
225.167
169.82
164.654
187.254
206.086
191.74
)
;
    }
    water_front_surface
    {
        type            calculated;
        value           nonuniform List<scalar> 
186
(
7577.86
7579.72
7527.47
7528.83
7647.26
7943.39
8537.82
9592.64
11381.7
12934.2
14392.4
14360.7
1746.95
1624.5
1384.79
1363.45
1417.89
1560.75
1832.48
2400.85
3894.04
5693.54
7260.4
8347.6
-28.4051
-30.4778
-29.7376
-27.7912
-24.2978
-20.52
2.91619
83.561
276.531
715.965
2926.27
4209.82
-27.7894
-27.7431
-27.2692
-28.1405
-28.3589
-30.3346
-34.3995
-35.5089
-38.7942
17.671
375.844
1583.49
597.191
614.69
649.54
705.948
755.118
765.364
754.774
867.328
993.774
1135.92
1194.51
1183.6
43.266
47.9322
70.4631
100.453
127.278
122.795
124.757
212.067
290.244
307.781
384.006
692.866
-22.2795
-22.1674
-20.9052
-22.0509
-22.913
-19.5119
-14.0645
-0.703378
16.6591
37.8274
135.061
314.003
-32.5803
-32.6519
-31.7664
-32.7394
-34.0999
-34.5248
-31.0575
-24.277
-18.3509
-18.663
56.7535
225.071
-47.626
-52.0111
-68.2949
-47.0157
-54.1651
-68.176
-45.2192
-54.0301
-67.8517
-44.9091
-54.6361
-68.0189
-44.405
-54.8506
-68.0846
-44.3528
-55.6479
-68.1696
-41.9324
-55.2714
-68.1037
-53.0542
-63.7963
-67.1576
-58.0764
-44.6341
-67.5537
-26.5652
-46.3998
-70.1025
-11.7095
-73.8722
-82.8509
215.69
-91.1111
-92.2469
304.026
2.84615
-131.654
423.415
-11.2827
-141.725
590.942
-2.8957
-116.482
904.189
-16.5581
-98.4841
646.652
-39.8201
-83.5017
365.605
-61.2559
-77.824
-42.9673
-53.1726
-63.8327
-43.0996
-53.5102
-64.1884
-43.3282
-53.589
-64.3311
-44.6068
-54.0546
-64.4673
-46.2313
-54.5074
-64.2322
-46.4451
-54.0217
-63.0728
-42.0909
-50.6505
-62.3963
-37.4443
-50.6798
-62.9778
-34.079
-51.6289
-65.2648
-25.5842
-39.9777
-73.6362
7.59543
-34.0437
-77.9514
183.797
-20.0071
-125.442
)
;
    }
    water_back_surface
    {
        type            calculated;
        value           nonuniform List<scalar> 
186
(
7567.18
7585.78
7532.57
7529.93
7641.72
7932.9
8527.4
9586.51
11382.7
12940.7
14397.3
14332.8
1723.86
1620.41
1395.14
1363.91
1410.92
1550.93
1825.53
2405.69
3908.84
5715.94
7284.46
8372.92
-27.9201
-30.5546
-30.0171
-27.9398
-24.3722
-20.8189
3.56631
84.9701
270.383
729.868
2782.32
4204.87
-27.5661
-27.6144
-27.3434
-28.12
-28.2615
-30.2645
-34.0814
-35.191
-40.8408
-5.82486
233.178
1058.55
559.752
610.793
676.807
744.971
774.627
761.307
740.777
711.237
725.356
1072.03
1230.65
1148.24
29.1353
48.7289
84.7724
128.349
144.537
126.85
104.857
84.4544
101.371
206.621
495.527
717.022
-22.6738
-24.1369
-24.4235
-24.8104
-24.1381
-20.5621
-13.2116
-4.49471
11.0424
30.4115
74.3024
311.526
-30.7057
-31.675
-32.504
-34.1469
-35.8476
-34.8618
-29.7338
-22.102
-11.6153
0.055046
16.9792
191.608
-47.6859
-51.9559
-68.2801
-46.9123
-54.3638
-68.4023
-45.1967
-54.0578
-67.8704
-44.8725
-54.6576
-68.0592
-44.3584
-54.8117
-68.1055
-44.2901
-55.5067
-68.2562
-41.783
-54.9918
-68.346
-51.5048
-60.5638
-68.3349
-55.2588
-46.5911
-70.148
-32.5774
-45.0851
-68.9842
-32.1697
-66.1892
-83.8012
327.353
-95.2575
-110.131
291.978
-19.1063
-155.905
418.332
-64.7604
-153.833
625.33
-34.8094
-108.501
953.416
-50.1849
-87.9889
936.4
-65.3555
-74.609
781.446
-71.9473
-81.7559
-42.4707
-52.9449
-63.8124
-42.5607
-53.2603
-64.1254
-42.9102
-53.5175
-64.2585
-44.2254
-54.1299
-64.4197
-45.1794
-54.2622
-64.0243
-43.5061
-52.7769
-62.9093
-39.0711
-49.917
-62.2068
-33.8221
-45.6328
-62.1085
-30.8731
-45.2222
-63.4413
-29.5307
-45.1037
-73.1592
-8.45396
-38.1787
-89.2838
195.608
-10.3997
-148.446
)
;
    }
    water_left_surface
    {
        type            calculated;
        value           nonuniform List<scalar> 
42
(
7591.3
7589.34
7586.76
7582.89
7579.4
7580.6
1752.87
1737.01
1734.05
1751.43
1754.65
1729.69
-28.3853
-28.1195
-28.0908
-28.311
-28.1844
-27.9026
-27.7735
-27.7703
-27.75
-27.6714
-27.4964
-27.5503
-47.626
-47.8447
-47.8896
-47.8641
-47.653
-47.6859
-52.0111
-51.7381
-51.8964
-51.9795
-52.161
-51.9559
-68.2949
-67.9019
-67.444
-68.0205
-68.6755
-68.2801
)
;
    }
    water_right_surface
    {
        type            calculated;
        value           nonuniform List<scalar> 
42
(
598.804
586.585
586.246
581.635
572.549
561.284
43.5106
31.837
30.2065
23.1795
22.8873
29.2343
-22.2633
-21.8407
-21.3044
-23.4816
-24.2911
-22.6576
-32.5644
-32.3345
-32.304
-32.1979
-31.2883
-30.6898
-42.9673
-43.0511
-43.0004
-43.1563
-43.0718
-42.4707
-53.1726
-53.0916
-52.9629
-53.1017
-53.0408
-52.9449
-63.8327
-63.8297
-63.7363
-63.81
-63.8417
-63.8124
)
;
    }
    water_top_surface
    {
        type            calculated;
        value           nonuniform List<scalar> 
180
(
-73.7789
-70.8376
-70.3832
-70.7795
-73.4858
-74.9241
-72.7197
-72.5582
-72.6198
-72.6244
-72.8993
-73.0065
-72.151
-72.1412
-72.1469
-72.1566
-72.1864
-72.195
-72.8812
-72.8799
-72.8884
-72.8961
-72.9189
-72.9333
-73.2917
-73.3038
-73.3004
-73.303
-73.307
-73.3147
-73.8862
-73.9137
-73.895
-73.9071
-73.9165
-73.9227
-74.2503
-74.4057
-74.3407
-74.3942
-74.3835
-74.3689
-75.4504
-75.5778
-75.2511
-75.3044
-75.3003
-75.2925
-71.7092
-76.6004
-73.0923
-72.1671
-73.699
-74.7086
-68.6701
-68.67
-68.67
-68.6743
-68.67
-68.67
-101.645
-73.2446
-69.4104
-69.2526
-69.7042
-70.4699
-73.3431
-75.6195
-71.0797
-69.1658
-68.9494
-72.2534
-282.552
-269.978
-258.541
-240.49
-273.401
-274.666
-470.628
-286.044
-428.971
-544.601
-407.322
-345.569
-127.192
-85.2179
-69.4706
-134.863
-75.3933
-71.3489
-85.4922
-109.845
-90.4637
-92.0981
-84.0351
-91.1977
-80.7676
-103.598
-77.0298
-73.4247
-68.8148
-72.6327
-80.7408
-85.732
-68.9214
-68.7854
-68.9661
-69.7028
-69.1623
-69.1361
-68.9126
-69.1456
-69.212
-69.1647
-69.6686
-69.7066
-69.7473
-69.7436
-69.66
-69.575
-69.7171
-69.7811
-69.8599
-69.8485
-69.7754
-69.7095
-69.8116
-69.913
-70.0129
-70.0645
-70.0643
-69.9282
-69.5206
-69.708
-69.8235
-69.9398
-69.9466
-69.5718
-68.9822
-69.3001
-69.4389
-69.6295
-69.5761
-69.048
-69.0713
-68.7455
-69.0039
-69.1349
-69.0987
-68.6967
-68.6717
-68.6818
-68.8621
-68.9439
-68.796
-68.7038
-70.7333
-72.0671
-71.8181
-71.7997
-70.6521
-68.6776
-73.3153
-70.9252
-153.545
-264.109
-68.9841
-68.9367
-68.67
-68.67
-99.2241
-295.58
-346.838
-76.3848
-396.663
-479.318
-321.349
-202.655
-223.203
-459.973
)
;
    }
}


// ************************************************************************* //
