/*--------------------------------*- C++ -*----------------------------------*\
| =========                 |                                                 |
| \\      /  F ield         | OpenFOAM: The Open Source CFD Toolbox           |
|  \\    /   O peration     | Version:  v1612+                                |
|   \\  /    A nd           | Web:      www.OpenFOAM.com                      |
|    \\/     M anipulation  |                                                 |
\*---------------------------------------------------------------------------*/
FoamFile
{
    version     2.0;
    format      ascii;
    class       volScalarField;
    location    "10";
    object      p_rgh;
}
// * * * * * * * * * * * * * * * * * * * * * * * * * * * * * * * * * * * * * //

dimensions      [1 -1 -2 0 0 0 0];

internalField   nonuniform List<scalar> 
1116
(
11501.1
11507.4
11505.5
11477.5
11474.5
11487.7
11923.7
11941.2
11957.3
11936.8
11956.1
11960.7
12137.9
12138.3
12139.5
12139.8
12144.5
12143.1
12128.4
12132.2
12133.1
12127.4
12128.2
12132.1
12245.5
12248.2
12247.8
12241.3
12240.3
12241.5
12546.3
12547.6
12545.7
12539.9
12536.3
12534.9
13144.4
13146
13144
13140.7
13136.1
13134
14199.2
14201.7
14200.5
14202.4
14202.1
14193.1
15784.5
15762.3
15775.3
15773.6
15776.3
15775.6
16850.3
16858.2
16857.8
16844.3
16835.3
16865.8
18248.1
18240.9
18240.9
18250.5
18250.7
18242.8
17518.8
17402.5
17435.1
17501.2
17448.8
17419.8
7029.19
6965.45
6951.26
7019.2
7030.76
6932.06
6542.94
6524.5
6523.72
6515.18
6538.67
6525.82
5559.04
5563.16
5568.05
5561.51
5592.21
5595.77
5473.16
5482.35
5478.37
5454.7
5452.86
5479.17
5669.99
5677.52
5667.87
5642.46
5633.11
5646.38
6194.15
6206.08
6198.24
6166.73
6153.98
6160.33
7260.24
7275.97
7276.97
7255.67
7253.24
7237.56
9602.09
9620.8
9630.85
9636.11
9650.05
9619.89
15198.1
15224.6
15219.4
15218.5
15217.4
15227
17723.7
17723.7
17729.3
17731.9
17721.6
17747.2
19289.9
19308.6
19307.7
19299.5
19302.7
19315.6
16243.6
16251.7
16248.8
16296
16240.3
16220.6
1.57206
-1.01515
-1.08427
3.44183
4.3828
-1.2588
-5.57233
-5.61857
-5.65385
-5.41134
-4.36437
-5.85986
-5.19639
-5.34169
-5.2171
-5.12852
-5.24444
-5.47587
-3.25004
-3.44249
-3.33579
-3.15087
-3.03906
-3.39856
0.24337
0.095206
0.147931
0.218865
0.225342
0.16895
4.0212
3.84618
3.82142
3.85142
3.68533
3.72231
27.4574
27.8026
27.7036
27.3915
26.6637
28.1075
108.033
108.941
108.632
108.851
109.119
109.416
302.082
298.373
298.406
300.281
302.221
296.136
3326.45
3288.57
3290.19
3314.02
3255.74
3399.06
17662.9
17779.4
17737.6
17680.8
17718.7
17707
17585.1
17650.5
17625.2
17547.8
17576.8
17491.2
6.56155
6.56473
6.58506
6.66378
6.83865
6.78474
6.60778
6.60331
6.62271
6.66978
6.79156
6.73647
7.08172
7.1112
7.06932
7.03804
6.99213
7.00749
6.2104
6.25593
6.24174
6.20545
6.16707
6.23087
5.992
6.03896
6.03828
6.02356
6.01396
6.08936
4.01629
3.97103
3.9784
4.02553
4.00983
4.08638
-0.0486407
0.293393
0.0699913
0.104148
0.223573
0.26952
-1.15998
-0.937453
-1.24432
-1.04912
-0.903095
-0.840822
-4.34561
-6.16424
-6.85892
-7.11938
-7.57927
-6.3974
53.4972
38.9358
33.0373
26.2077
22.9693
30.3043
3028.68
2681.79
2720.73
2052.56
1893.05
2446.28
16892.6
17266.8
17014.9
16625.3
16573.3
16577
1068.1
1055.76
1057.02
1052.8
1025.06
1007.31
1084.48
1063.06
1058.48
1092.87
1080.86
1052.4
1127.34
1118.21
1119.26
1146.49
1160.34
1141.75
1199.75
1184.78
1191.63
1209.77
1204.72
1233.17
1252.43
1231.4
1261.33
1269.45
1228.35
1262.57
1261.88
1260.26
1319.28
1313.39
1240.03
1247.74
1251.48
1252.54
1306.09
1313.69
1266.34
1226.55
1364.94
1290.32
1310.03
1289.08
1242.06
1198.61
1489.93
1390.17
1356.04
1354.9
1225.68
1220.49
1630.85
1642.32
1337.72
1296
1547.11
1565.61
1405.3
1632.43
1358.95
1283.8
1511.17
1547.86
1225.51
1280.12
1288.85
1261.86
1233.57
1232.24
261.442
161.34
141.44
170.756
159.585
117.435
289.299
155.869
139.899
214.403
224.091
249.36
330.286
263.885
274.632
309.259
317.14
423.285
428.898
393.066
431.746
460.621
458.838
600.263
530.853
583.024
754.17
804.989
661.805
612.131
469.494
804.865
1200.93
982.237
599.012
504.236
429.289
762.403
948.721
739.021
475.166
398.663
898.691
733.271
589.632
469.805
291.395
293.666
1395.27
753.96
940.352
723.184
241.176
277.608
760.024
1402.31
1566.24
779.826
864.045
727.525
579.66
1546.39
1830.06
827.781
1143.48
1393.54
816.913
1151.88
1059.4
900.618
870.264
1003.35
2.26477
2.68462
3.22074
1.04376
0.240813
1.8936
2.37414
3.00539
3.90881
1.91897
-0.131558
0.420945
20.3415
2.95843
3.04942
2.85504
0.92442
0.117046
27.5713
1.25594
1.5522
1.29492
0.304322
-0.2706
10.7084
0.697008
1.23838
0.152732
-0.436795
0.401672
5.02897
3.70191
3.54776
2.67526
2.73656
3.9784
10.4767
8.95644
10.1724
10.2084
10.0645
11.3294
23.8378
18.4804
18.7939
17.7255
16.1681
20.0463
104.329
31.3841
34.4281
107.297
33.1201
35.6686
788.578
50.9635
421.193
476.345
215.11
55.8228
321.888
1332.68
1293.63
425.409
541.403
632.836
465.17
1069.13
939.717
474.566
468.082
670.107
1.78964
2.02584
2.06053
2.26824
3.05448
3.66289
1.7658
1.99471
2.07719
1.86189
2.28661
2.69439
2.58452
2.61301
2.36144
2.15127
1.80141
1.84849
1.61149
1.78338
1.54364
1.07673
0.35188
0.21006
0.251048
0.259899
-0.0986521
-0.890532
-1.76869
-1.44745
-0.173913
-3.07473
-2.32582
-2.03608
-2.11268
-0.483038
3.2936
-2.49885
0.154313
2.28572
1.51737
4.61852
10.0759
6.52812
8.58013
7.63424
7.52837
12.2508
34.2276
16.0252
13.4749
140.029
20.0976
22.7409
144.973
13.978
225.555
161.258
390.673
115.872
533.042
935.975
593.643
184.79
214.949
601.258
432.33
1048.17
703.605
360.367
398.689
476.808
0.767097
0.263342
0.609441
0.73982
0.954312
-1.45193
7.14884
3.11727
2.42272
5.57202
7.5439
6.14764
0.21408
-4.13686
-3.67898
-4.25554
-0.438635
1.29227
-2.86872
-3.19777
-3.27214
-3.00753
-2.75665
-2.76731
-0.0361504
-0.288315
-0.519289
-0.158361
-0.147301
-0.371493
-4.41105
-4.28856
-4.27931
-4.36538
-4.60705
-4.63729
-1.07422
-1.05424
-1.06008
-1.04462
-1.05554
-1.05166
-0.0750694
-0.0562162
-0.0632253
-0.0731604
-0.0943846
-0.102799
-4.08672
-4.07886
-4.05882
-4.08323
-4.10895
-4.10536
-0.764071
-0.7707
-0.778176
-0.751611
-0.757281
-0.727465
-0.681118
-0.684305
-0.696682
-0.696544
-0.703435
-0.702587
-4.25388
-4.25091
-4.25542
-4.26688
-4.28893
-4.2942
-0.259962
-0.240996
-0.243438
-0.247192
-0.243007
-0.213373
-0.895629
-0.883037
-0.877913
-0.877708
-0.871108
-0.856676
-4.3196
-4.32789
-4.32829
-4.33427
-4.33958
-4.34054
-0.207821
-0.186493
-0.175048
-0.173365
-0.1487
-0.145089
-1.6929
-1.62703
-1.57722
-1.58146
-1.58065
-1.55172
-4.40457
-4.43205
-4.4313
-4.45481
-4.47422
-4.49121
2.21326
2.36842
2.2487
2.23738
2.3207
2.36206
-1.31623
-1.09856
-1.17214
-1.17996
-1.13829
-1.03678
-4.33867
-4.5015
-4.51613
-4.53491
-4.56036
-4.58105
-8.90914
-8.38399
-8.61389
-8.28811
-8.11659
-7.35978
-9.83697
-8.02981
-7.79529
-7.78575
-7.48036
-6.60883
-3.3926
-4.06225
-3.77394
-4.00412
-4.29904
-4.5699
-13.936
-12.7871
-13.9264
-13.9919
-13.3429
-11.1166
9.32092
7.91443
8.17372
8.26749
7.52524
7.36386
-3.78869
-5.33689
-5.33777
-5.61133
-6.05391
-6.38303
17.7232
14.7331
13.7304
13.6535
7.47901
11.725
7.56458
8.1402
8.6892
10.1215
8.54299
8.87474
-6.33744
-5.66401
-5.76056
-5.73041
-5.5311
-5.21917
168.264
18.2686
18.7219
21.3886
21.5244
19.4071
70.4474
-4.56805
-1.61834
2.58769
1.99717
7.68117
11.5333
-13.6528
-17.034
-17.1537
-17.553
-18.3648
2795.05
5987.79
5639.06
6036.18
6542.73
5333.88
-36.9052
-46.6303
-45.4804
-43.1561
-43.7529
-41.2928
-21.2806
-33.9326
-36.0625
-42.0228
-41.8731
-43.0385
975.179
796.935
892.344
917.977
725.218
793.678
681.225
586.962
429.746
498.572
494.715
424.349
130.716
105.753
91.6876
71.314
96.6504
99.1418
1148.94
2554.62
1219.59
1035.36
1505.78
1479.07
1574.37
1710.19
1544.93
1453.2
1379.67
1352.1
295.287
108.155
244.373
347.154
217.181
167.053
4871.93
10139.5
5767.57
3474.64
7514.25
7619.19
970.261
1138.17
1007.64
813.714
633.883
945.408
1.62504
-49.8373
-11.1192
12.0251
-44.9925
-22.5908
9801.41
10515.5
10439.5
9216.1
9906.41
9851.19
37.3969
537.294
15.4562
7.63274
5.10846
3.77027
-34.7191
-29.0292
-31.7705
-30.0309
-23.216
-24.2239
7915.8
10428.5
10424.8
10162.8
10009.2
9914.59
14.135
806.772
-5.95764
-14.1748
-6.49147
-11.4003
-19.7367
-15.0238
-15.7816
-14.3482
-11.617
-10.844
3790.99
10357.4
8396.44
8006.62
9719.13
8516.47
-7.30034
445.975
-16.8933
-15.7115
-16.4474
-17.9913
-14.059
-10.2751
-15.7832
-18.8455
-20.594
-17.0319
1.20104
1.19432
1.354
1.17431
1.08306
1.7018
0.787067
0.879247
1.22989
0.853349
0.915824
1.01909
-0.067719
-0.0646759
0.0286846
-0.0450468
-0.0766527
-0.04739
1.11119
1.01276
0.851571
0.923217
1.19575
1.64155
0.444809
0.425143
0.360875
0.479046
0.570415
0.70037
-0.423357
-0.459007
-0.394964
-0.416852
-0.431022
-0.360372
0.865407
1.04725
1.07076
1.05444
1.04247
1.23689
0.365997
0.363608
0.357289
0.355219
0.376629
0.439866
-0.566081
-0.597543
-0.541879
-0.556034
-0.548421
-0.493526
-0.457017
0.272261
0.424103
0.391422
0.164744
-0.073321
-0.0996394
0.0485285
0.0653374
0.0253685
-0.0543118
-0.174932
-0.702255
-0.765362
-0.717091
-0.721987
-0.72526
-0.654737
-2.08628
-1.05085
-0.270452
-0.276148
-0.849426
-0.865491
-0.552442
-0.214948
0.0547662
0.0328696
-0.127482
-0.307181
-0.467231
-0.58228
-0.578473
-0.536596
-0.449111
-0.259258
-2.30007
-2.54553
-0.133139
0.512591
-0.119213
0.807244
-0.00691412
0.483307
1.00423
1.27907
1.14604
1.2249
0.695634
0.585969
0.320016
0.357432
0.579334
0.855741
2.05458
1.60717
3.07819
3.97631
2.88207
5.08182
4.5164
5.18516
4.28483
3.87453
3.54839
4.04553
1.74134
1.87924
1.26438
1.20743
1.3612
1.56248
17.6983
7.78981
7.89025
8.77648
8.69298
10.3231
8.53678
5.57288
6.14823
7.78757
8.31667
8.32227
0.788769
2.1067
1.47878
1.44983
1.80785
1.68792
77.3381
18.8717
14.1597
6.67217
16.4258
13.2759
2.32703
4.59905
7.08304
16.149
9.20481
12.3908
-1.49903
-0.12456
0.914047
5.00485
0.180877
0.979669
73.3215
19.345
81.2681
177.08
404.182
169.987
13.9774
15.0047
136.299
217.39
184.475
33.2524
-9.87117
-5.48732
60.1756
162.074
-6.48668
-9.39424
236.377
577.463
386.762
207.122
681.563
762.496
40.0756
15.2243
167.785
200.448
738.039
311.568
-14.1864
-15.2675
4.62778
165.917
222.146
-25.5188
874.956
808.607
390.659
355.462
885.175
965.022
820.136
792.98
281.425
130.069
627.949
927.352
242.888
304.97
154.513
46.1743
66.055
278.672
)
;

boundaryField
{
    seabed_topleft_surface
    {
        type            fixedFluxPressure;
        gradient        uniform 0;
        value           nonuniform List<scalar> 
72
(
11501.1
11507.4
11505.5
11477.5
11474.5
11487.7
11923.7
11941.2
11957.3
11936.8
11956.1
11960.7
12137.9
12138.3
12139.5
12139.8
12144.5
12143.1
12128.4
12132.2
12133.1
12127.4
12128.2
12132.1
12245.5
12248.2
12247.8
12241.3
12240.3
12241.5
12546.3
12547.6
12545.7
12539.9
12536.3
12534.9
13144.4
13146
13144
13140.7
13136.1
13134
14199.2
14201.7
14200.5
14202.4
14202.1
14193.1
15784.5
15762.3
15775.3
15773.6
15776.3
15775.6
16850.3
16858.2
16857.8
16844.3
16835.3
16865.8
18248.1
18240.9
18240.9
18250.5
18250.7
18242.8
17518.8
17402.5
17435.1
17501.2
17448.8
17419.8
)
;
    }
    seabed_topright_surface
    {
        type            fixedFluxPressure;
        gradient        uniform 0;
        value           nonuniform List<scalar> 
72
(
1068.1
1055.76
1057.02
1052.8
1025.06
1007.31
1084.48
1063.06
1058.48
1092.87
1080.86
1052.4
1127.34
1118.21
1119.26
1146.49
1160.34
1141.75
1199.75
1184.78
1191.63
1209.77
1204.72
1233.17
1252.43
1231.4
1261.33
1269.45
1228.35
1262.57
1261.88
1260.26
1319.28
1313.39
1240.03
1247.74
1251.48
1252.54
1306.09
1313.69
1266.34
1226.55
1364.94
1290.32
1310.03
1289.08
1242.06
1198.61
1489.93
1390.17
1356.04
1354.9
1225.68
1220.49
1630.85
1642.32
1337.72
1296
1547.11
1565.61
1405.3
1632.43
1358.95
1283.8
1511.17
1547.86
1225.51
1280.12
1288.85
1261.86
1233.57
1232.24
)
;
    }
    breakwater_top_surface
    {
        type            fixedFluxPressure;
        gradient        uniform 0;
        value           nonuniform List<scalar> 
36
(
975.179
796.935
892.344
917.977
725.218
793.678
1148.94
2554.62
1219.59
1035.36
1505.78
1479.07
4871.93
10139.5
5767.57
3474.64
7514.25
7619.19
9801.41
10515.5
10439.5
9216.1
9906.41
9851.19
7915.8
10428.5
10424.8
10162.8
10009.2
9914.59
3790.99
10357.4
8396.44
8006.62
9719.13
8516.47
)
;
    }
    breakwater_left_surface
    {
        type            fixedFluxPressure;
        gradient        uniform 0;
        value           nonuniform List<scalar> 
24
(
17518.8
17402.5
17435.1
17501.2
17448.8
17419.8
16243.6
16251.7
16248.8
16296
16240.3
16220.6
17585.1
17650.5
17625.2
17547.8
17576.8
17491.2
16892.6
17266.8
17014.9
16625.3
16573.3
16577
)
;
    }
    breakwater_right_surface
    {
        type            fixedFluxPressure;
        gradient        uniform 0;
        value           nonuniform List<scalar> 
24
(
1225.51
1280.12
1288.85
1261.86
1233.57
1232.24
816.913
1151.88
1059.4
900.618
870.264
1003.35
465.17
1069.13
939.717
474.566
468.082
670.107
432.33
1048.17
703.605
360.367
398.689
476.808
)
;
    }
    water_front_surface
    {
        type            fixedFluxPressure;
        gradient        uniform 0;
        value           nonuniform List<scalar> 
186
(
11501.1
11923.7
12137.9
12128.4
12245.5
12546.3
13144.4
14199.2
15784.5
16850.3
18248.1
17518.8
7029.19
6542.94
5559.04
5473.16
5669.99
6194.15
7260.24
9602.09
15198.1
17723.7
19289.9
16243.6
1.57206
-5.57233
-5.19639
-3.25004
0.24337
4.0212
27.4574
108.033
302.082
3326.45
17662.9
17585.1
6.56155
6.60778
7.08172
6.2104
5.992
4.01629
-0.0486407
-1.15998
-4.34561
53.4972
3028.68
16892.6
1068.1
1084.48
1127.34
1199.75
1252.43
1261.88
1251.48
1364.94
1489.93
1630.85
1405.3
1225.51
261.442
289.299
330.286
428.898
530.853
469.494
429.289
898.691
1395.27
760.024
579.66
816.913
2.26477
2.37414
20.3415
27.5713
10.7084
5.02897
10.4767
23.8378
104.329
788.578
321.888
465.17
1.78964
1.7658
2.58452
1.61149
0.251048
-0.173913
3.2936
10.0759
34.2276
144.973
533.042
432.33
0.767097
7.14884
0.21408
-2.86872
-0.0361504
-4.41105
-1.07422
-0.0750694
-4.08672
-0.764071
-0.681118
-4.25388
-0.259962
-0.895629
-4.3196
-0.207821
-1.6929
-4.40457
2.21326
-1.31623
-4.33867
-8.90914
-9.83697
-3.3926
-13.936
9.32092
-3.78869
17.7232
7.56458
-6.33744
168.264
70.4474
11.5333
2795.05
-36.9052
-21.2806
975.179
681.225
130.716
1148.94
1574.37
295.287
4871.93
970.261
1.62504
9801.41
37.3969
-34.7191
7915.8
14.135
-19.7367
3790.99
-7.30034
-14.059
1.20104
0.787067
-0.067719
1.11119
0.444809
-0.423357
0.865407
0.365997
-0.566081
-0.457017
-0.0996394
-0.702255
-2.08628
-0.552442
-0.467231
-2.30007
-0.00691412
0.695634
2.05458
4.5164
1.74134
17.6983
8.53678
0.788769
77.3381
2.32703
-1.49903
73.3215
13.9774
-9.87117
236.377
40.0756
-14.1864
874.956
820.136
242.888
)
;
    }
    water_back_surface
    {
        type            fixedFluxPressure;
        gradient        uniform 0;
        value           nonuniform List<scalar> 
186
(
11487.7
11960.7
12143.1
12132.1
12241.5
12534.9
13134
14193.1
15775.6
16865.8
18242.8
17419.8
6932.06
6525.82
5595.77
5479.17
5646.38
6160.33
7237.56
9619.89
15227
17747.2
19315.6
16220.6
-1.2588
-5.85986
-5.47587
-3.39856
0.16895
3.72231
28.1075
109.416
296.136
3399.06
17707
17491.2
6.78474
6.73647
7.00749
6.23087
6.08936
4.08638
0.26952
-0.840822
-6.3974
30.3043
2446.28
16577
1007.31
1052.4
1141.75
1233.17
1262.57
1247.74
1226.55
1198.61
1220.49
1565.61
1547.86
1232.24
117.435
249.36
423.285
600.263
612.131
504.236
398.663
293.666
277.608
727.525
1393.54
1003.35
1.8936
0.420945
0.117046
-0.2706
0.401672
3.9784
11.3294
20.0463
35.6686
55.8228
632.836
670.107
3.66289
2.69439
1.84849
0.21006
-1.44745
-0.483038
4.61852
12.2508
22.7409
115.872
601.258
476.808
-1.45193
6.14764
1.29227
-2.76731
-0.371493
-4.63729
-1.05166
-0.102799
-4.10536
-0.727465
-0.702587
-4.2942
-0.213373
-0.856676
-4.34054
-0.145089
-1.55172
-4.49121
2.36206
-1.03678
-4.58105
-7.35978
-6.60883
-4.5699
-11.1166
7.36386
-6.38303
11.725
8.87474
-5.21917
19.4071
7.68117
-18.3648
5333.88
-41.2928
-43.0385
793.678
424.349
99.1418
1479.07
1352.1
167.053
7619.19
945.408
-22.5908
9851.19
3.77027
-24.2239
9914.59
-11.4003
-10.844
8516.47
-17.9913
-17.0319
1.7018
1.01909
-0.04739
1.64155
0.70037
-0.360372
1.23689
0.439866
-0.493526
-0.073321
-0.174932
-0.654737
-0.865491
-0.307181
-0.259258
0.807244
1.2249
0.855741
5.08182
4.04553
1.56248
10.3231
8.32227
1.68792
13.2759
12.3908
0.979669
169.987
33.2524
-9.39424
762.496
311.568
-25.5188
965.022
927.352
278.672
)
;
    }
    water_left_surface
    {
        type            fixedFluxPressure;
        gradient        uniform 0;
        value           nonuniform List<scalar> 
42
(
11501.1
11507.4
11505.5
11477.5
11474.5
11487.7
7029.19
6965.45
6951.26
7019.2
7030.76
6932.06
1.57206
-1.01515
-1.08427
3.44183
4.3828
-1.2588
6.56155
6.56473
6.58506
6.66378
6.83865
6.78474
0.767097
0.263342
0.609441
0.73982
0.954312
-1.45193
7.14884
3.11727
2.42272
5.57202
7.5439
6.14764
0.21408
-4.13686
-3.67898
-4.25554
-0.438635
1.29227
)
;
    }
    water_right_surface
    {
        type            fixedFluxPressure;
        gradient        uniform 0;
        value           nonuniform List<scalar> 
42
(
1068.1
1055.76
1057.02
1052.8
1025.06
1007.31
261.442
161.34
141.44
170.756
159.585
117.435
2.26477
2.68462
3.22074
1.04376
0.240813
1.8936
1.78964
2.02584
2.06053
2.26824
3.05448
3.66289
1.20104
1.19432
1.354
1.17431
1.08306
1.7018
0.787067
0.879247
1.22989
0.853349
0.915824
1.01909
-0.067719
-0.0646759
0.0286846
-0.0450468
-0.0766527
-0.04739
)
;
    }
    water_top_surface
    {
        type            totalPressure;
        rho             rho;
        psi             none;
        gamma           1;
        p0              uniform 0;
        value           nonuniform List<scalar> 
180
(
0
-2.1676
-1.71317
-2.10947
0
0
-4.0497
-3.88823
-3.94984
-3.95443
-4.22931
-4.33649
-3.48104
-3.4712
-3.47693
-3.48658
-3.51637
-3.52501
-4.21116
-4.20986
-4.21845
-4.22607
-4.24894
-4.26327
-4.62167
-4.63379
-4.63041
-4.633
-4.63697
-4.64471
-5.21623
-5.24371
-5.22497
-5.23707
-5.2465
-5.25275
-5.58027
-5.73565
-5.67072
-5.72418
-5.71348
-5.69888
-6.78042
-6.90777
-6.58114
-6.63443
-6.63029
-6.6225
-3.03925
-7.93037
-4.42229
-3.49709
-5.02901
-6.03862
0
0
0
0
0
0
0
0
0
0
0
0
-4.6731
0
0
0
0
0
0
0
0
0
0
0
0
0
0
0
0
0
0
-16.5479
-0.800578
0
-6.72326
-2.67888
-16.8222
-41.1753
-21.7937
-23.4281
-15.3651
-22.5277
-12.0976
-34.9276
-8.35976
-4.75466
-0.144791
-3.96271
-12.0708
-17.062
-0.251389
0
0
0
-0.49231
-0.466069
-0.242555
-0.475592
-0.541991
-0.494661
-0.998574
-1.0366
-1.07727
-1.0736
-0.990045
-0.904982
-1.04709
-1.11113
-1.18988
-1.17852
-1.10538
-1.03952
-1.14164
-1.24296
-1.34287
-1.39447
-1.39428
-1.25819
-0.850567
-1.03803
-1.15352
-1.26983
-1.27658
-0.901823
-0.312224
-0.630086
-0.768862
-0.959498
-0.906092
-0.377979
0
-0.0755178
-0.333851
-0.464888
-0.428693
-0.0266648
0
-0.0117874
-0.192107
-0.273903
-0.126045
0
-2.06327
-3.39709
-3.14808
-3.12972
-1.98212
-0.00759307
-4.6453
-2.25518
0
0
-0.314137
-0.266674
0
0
0
0
0
-7.71476
0
0
0
0
0
0
)
;
    }
}


// ************************************************************************* //
