/*--------------------------------*- C++ -*----------------------------------*\
| =========                 |                                                 |
| \\      /  F ield         | OpenFOAM: The Open Source CFD Toolbox           |
|  \\    /   O peration     | Version:  v1612+                                |
|   \\  /    A nd           | Web:      www.OpenFOAM.com                      |
|    \\/     M anipulation  |                                                 |
\*---------------------------------------------------------------------------*/
FoamFile
{
    version     2.0;
    format      ascii;
    class       surfaceScalarField;
    location    "10";
    object      phi;
}
// * * * * * * * * * * * * * * * * * * * * * * * * * * * * * * * * * * * * * //

dimensions      [0 3 -1 0 0 0 0];

internalField   nonuniform List<scalar> 
2916
(
-0.00865395
-0.225348
0.234002
0.0059746
-0.247987
0.233358
0.0312941
-0.254883
0.229564
0.0130521
-0.214551
0.232793
-0.0300868
-0.195178
0.238316
-0.255594
0.225508
0.00191137
-0.366345
0.139086
-0.0034195
-0.378888
0.136232
-0.0115112
-0.380813
0.134022
-0.00642015
-0.363714
0.144073
-0.000874762
-0.352243
0.15152
-0.388612
0.132143
0.00231769
-0.364035
-0.00462775
-0.00285341
-0.370854
-0.00286299
-0.0109728
-0.370213
-0.0024805
-0.00590399
-0.364504
-0.00427927
0.00328388
-0.35939
-0.00204076
-0.381608
-0.00372022
0.00112203
-0.332196
-0.032961
-0.000351379
-0.337682
-0.0316993
-0.0038206
-0.337317
-0.0294275
-0.00245483
-0.334054
-0.0318151
0.00120442
-0.33139
-0.0316593
-0.350395
-0.0300086
0.00116649
-0.305983
-0.0273792
0.000814425
-0.311222
-0.0261078
-0.000900658
-0.311501
-0.0241011
-0.000183583
-0.307736
-0.0270354
0.000395862
-0.304663
-0.0273069
-0.324401
-0.0255978
0.00110272
-0.289051
-0.0180354
0.000962335
-0.2938
-0.0172814
0.000622378
-0.294838
-0.0163229
0.000750904
-0.289556
-0.0183086
-0.000888416
-0.284534
-0.0184892
-0.306973
-0.0183164
0.00158391
-0.309992
0.0193575
0.000582686
-0.311988
0.019189
0.000597409
-0.314164
0.0193119
-9.57658e-05
-0.307161
0.0182985
-0.00247867
-0.300148
0.0179965
-0.324824
0.0153719
0.0018011
-0.328246
0.0164525
3.39581e-05
-0.326294
0.0160733
-0.00187681
-0.327618
0.0153647
-0.00152121
-0.323976
0.0164587
0.000704739
-0.320825
0.018451
-0.33306
0.00894036
-0.000978384
-0.229878
-0.0973897
0.000557844
-0.235498
-0.0923324
0.00125639
-0.234074
-0.0942426
-0.00228954
-0.227614
-0.0928159
-0.00387829
-0.227992
-0.0912442
-0.238101
-0.0988367
-0.00740451
-0.252118
0.0296445
0.00241461
-0.275246
0.0299288
0.00836832
-0.271027
0.0309992
0.000806632
-0.248553
0.0285014
-0.0111351
-0.242319
0.0262689
-0.278638
0.0294022
-0.000106601
-0.20831
-0.0437012
0.00553742
-0.232086
-0.0488035
0.00642898
-0.226026
-0.045893
0.0039518
-0.204579
-0.0414978
0.00259325
-0.19752
-0.0434405
-0.231011
-0.0450344
0.0371481
-0.245458
0.00690175
-0.20184
0.000316891
-0.219441
0.023795
-0.228057
0.0144449
-0.18817
-0.216566
-0.00200012
-0.133213
0.369215
-0.0236546
-0.0998144
0.354827
-0.0524876
-0.103979
0.362376
-0.0251291
-0.164135
0.369569
0.0287182
-0.18202
0.366489
-0.110518
0.364744
0.00455548
-0.0539182
0.0552352
0.00341747
-0.0261259
0.0636819
0.00329799
-0.0302316
0.0603938
0.00435138
-0.058204
0.0370884
0.0149584
-0.0621273
0.0210204
-0.0299839
0.0665669
0.0178434
0.0864325
-0.162822
0.00509529
0.109675
-0.125916
-0.00114925
0.100413
-0.126881
0.0127906
0.0932929
-0.169716
0.0355502
0.100398
-0.187326
0.114333
-0.112487
0.0169252
0.292572
-0.256026
0.0124767
0.304825
-0.222401
0.00893542
0.295956
-0.221429
0.0198699
0.30506
-0.254516
0.0319397
0.318084
-0.261415
0.319404
-0.203139
0.0112007
0.526391
-0.272399
0.0098713
0.532621
-0.252574
0.00493837
0.526664
-0.249876
0.0154551
0.536868
-0.269361
0.0286882
0.545507
-0.267963
0.555908
-0.233414
0.00427941
0.70443
-0.200354
0.00400027
0.70883
-0.193211
-0.000101857
0.706785
-0.192342
0.00849391
0.710546
-0.200582
0.0203018
0.713652
-0.198443
0.737966
-0.180073
0.000589798
0.773207
-0.0500083
-0.00128106
0.776452
-0.0465623
-0.00640367
0.778106
-0.0468865
5.68785e-05
0.774026
-0.0516425
0.0148952
0.769759
-0.0529483
0.807077
-0.0388437
-0.000159262
0.74033
0.0494879
-0.00301735
0.740791
0.0545923
-0.00937994
0.744384
0.0554489
-0.00503311
0.735767
0.0503706
0.010718
0.728092
0.0443667
0.766211
0.0605243
0.00286426
0.56043
0.0796464
0.00185841
0.564403
0.0850612
0.000851431
0.564042
0.087106
-0.000506928
0.560284
0.0840258
-0.00210141
0.560154
0.0782882
0.569946
0.0953267
0.00247933
0.155801
0.431794
0.00235192
0.17069
0.423769
0.0113433
0.162378
0.423672
0.0010299
0.176871
0.422228
-0.0259683
0.189053
0.424368
0.151997
0.421382
-0.00514429
-0.142003
0.259247
0.00801249
-0.154651
0.263381
0.0168925
-0.158042
0.265647
-0.00405495
-0.120743
0.277063
-0.0315919
-0.111004
0.284154
-0.178666
0.254037
0.0078558
-0.395317
0.00125399
-0.349889
-0.00441502
-0.371814
0.0130238
-0.366239
0.0191186
-0.305269
-0.376114
-0.0164462
0.931876
-0.546214
-0.00626896
0.946914
-0.602263
-0.0183409
0.965493
-0.591045
-0.0363501
0.951353
-0.563775
-0.00860566
0.959
-0.620255
0.95187
-0.595731
0.00159216
2.29182
-1.3063
0.0169792
2.29794
-1.30273
-0.0111882
2.3083
-1.25425
-0.0303086
2.34139
-1.33383
-0.000532036
2.37571
-1.42546
2.28504
-1.26714
-0.0012236
3.66325
-1.53303
0.00394513
3.67958
-1.51272
-0.00589037
3.69314
-1.50188
-0.000452946
3.71026
-1.54402
0.0364965
3.72774
-1.5763
3.68862
-1.47957
-0.00386729
5.0621
-1.65101
-0.009638
5.08529
-1.62234
-0.0165196
5.09497
-1.61638
-0.00255761
5.08849
-1.64671
0.0464138
5.08695
-1.6696
5.10893
-1.57704
-0.00569223
6.53822
-1.74283
-0.015605
6.56574
-1.72312
-0.0178801
6.56709
-1.71971
-0.00613719
6.54888
-1.74149
0.0193752
6.54431
-1.75084
6.58337
-1.68847
0.0157058
8.11899
-1.79683
-0.00479499
8.16608
-1.77305
-0.0253749
8.17113
-1.77581
0.000537952
8.11942
-1.79703
0.0243557
8.11915
-1.7971
8.17656
-1.74891
-0.0404721
9.13964
-1.03018
-0.0119684
9.08825
-0.997239
0.0258142
9.08416
-0.997688
0.0202922
9.09946
-1.02616
-0.0976726
9.22119
-1.03701
8.97589
-0.935849
-0.108679
7.5579
1.7399
-0.0271734
7.43585
1.62549
0.0259443
7.3938
1.69269
-0.0254249
7.49502
1.70618
-0.119915
7.73274
1.62731
7.21039
1.70611
0.0218622
2.99372
4.62196
-0.0166916
2.9506
4.60886
-0.0319204
2.90633
4.58981
-0.0374253
2.9489
4.63565
0.0538766
3.03286
4.68686
2.84673
4.51287
0.0100374
0.74059
2.67489
0.00594016
0.787161
2.59131
0.0143035
0.764991
2.55664
0.00429268
0.766568
2.61457
-0.00819007
0.782974
2.68674
0.740217
2.5197
0.0464301
0.106185
0.847223
0.0173597
0.0426778
1.03693
0.00538504
0.0429426
0.99967
-0.0172107
0.0613744
1.00485
-0.0368648
0.0600221
1.02676
0.00868836
0.948701
0.000920441
-0.290053
0.00622717
-0.312518
-0.0028027
-0.319841
-3.18719e-05
-0.307635
0.041866
-0.287144
-0.325559
0.109344
-0.36695
-0.288606
0.0649058
-0.422311
-0.13551
-0.0897345
-0.412327
-0.0240748
-0.059606
-0.396088
-0.197813
0.0959766
-0.402573
-0.373262
-0.441857
-0.0578965
0.0522126
-0.336951
-1.38851
0.0188264
-0.32731
-1.36434
-0.00365113
-0.347422
-1.29667
-0.0156802
-0.348065
-1.36982
-0.0257833
-0.363074
-1.45486
-0.370739
-1.36404
-0.014478
-0.559802
-1.2957
0.015752
-0.548444
-1.32182
0.0416096
-0.556848
-1.31831
0.0291554
-0.575633
-1.304
-0.0165438
-0.592798
-1.30088
-0.55474
-1.31212
-0.0150436
-0.756192
-1.43957
0.000745751
-0.73604
-1.45053
0.0191921
-0.742384
-1.44929
-0.00103239
-0.763468
-1.43865
-0.0439037
-0.771381
-1.44815
-0.741576
-1.4341
-0.00471217
-0.877045
-1.61726
0.00136511
-0.841371
-1.62387
0.0076238
-0.846797
-1.62156
-0.00521746
-0.873973
-1.61815
-0.0330928
-0.869502
-1.62484
-0.851026
-1.61211
-0.00397515
-0.686129
-1.98377
0.00277504
-0.647723
-1.97345
0.00905376
-0.652154
-1.97673
-0.00213924
-0.680378
-1.97943
-0.0183086
-0.669219
-1.98122
-0.660571
-1.95767
-0.0797863
1.02411
-2.66063
0.0142355
0.8957
-2.63469
0.0400918
0.962936
-2.63864
-0.00664354
0.98897
-2.64878
0.0100819
0.916943
-2.6399
0.969041
-2.55538
-0.167575
3.88794
-0.956355
-0.00206176
3.64692
-1.29123
0.0174122
3.73164
-1.09549
-0.0860862
3.83186
-1.03321
-0.0736519
3.77867
-1.24685
3.70597
-1.10447
0.104532
3.66602
4.73934
0.0765327
3.82086
4.46292
0.0209031
3.85186
4.52522
-0.00754907
3.97056
4.52541
-0.0311782
4.00186
4.4873
3.87958
4.30808
0.330662
1.11166
4.89859
0.145629
1.88406
4.71314
0.146361
1.88755
4.52022
0.0684771
2.16909
4.49392
-0.0982347
2.22865
4.62666
1.91189
4.38916
0.480726
0.354904
1.12325
0.274876
0.622738
2.50411
0.225151
0.595792
2.34115
0.033796
0.694616
2.67068
-0.179223
0.728749
2.73967
0.590803
2.09056
0.316575
-0.251724
0.162518
0.464278
0.0613045
0.377165
0.039416
0.40887
0.0123907
0.46863
0.277635
-0.0431051
0.148309
-0.105204
0.111589
0.177679
-0.332373
0.371155
0.189183
-0.448749
0.358768
0.196321
-0.183935
0.226495
0.0973093
0.034964
0.0280037
0.198491
-0.00903158
0.315015
-0.157674
0.165834
0.331256
-0.328443
0.358987
0.299978
-0.303948
0.370819
0.243178
-0.0586893
0.220873
0.175315
0.0719399
0.13332
0.115557
0.0563249
0.412478
-0.153788
0.104625
0.506143
-0.223188
0.241715
0.377687
-0.214798
0.383339
0.180707
-0.0791522
0.189485
0.277596
0.0915725
0.24357
0.0792346
0.1619
0.43336
-0.182782
0.134671
0.710955
-0.177583
0.227518
0.414586
-0.129747
0.306695
0.169313
-0.0677833
0.0618837
0.515114
0.00729364
0.358091
-0.0526379
0.21015
0.458331
-0.235121
0.247825
0.857144
-0.183863
0.339707
0.301698
0.0210064
0.169065
0.250999
0.0889557
-0.0612149
0.770062
-0.0246675
0.449643
-0.152766
0.241301
0.526613
-0.309583
0.324837
0.955166
-0.181559
0.163046
0.204968
0.258521
-0.0509751
0.280884
0.184137
-0.121648
0.896509
-0.0557739
0.523135
-0.19514
0.352612
0.653772
-0.479771
0.530319
0.986914
-0.209454
0.450979
0.227949
0.05636
0.115467
0.498542
0.117854
-0.0738249
1.08146
0.0043363
0.626911
-0.177601
0.565767
1.02616
-0.938151
0.687257
1.11421
-0.248786
0.521181
0.413664
-0.0196393
0.0439448
1.02765
-0.05187
-0.118702
1.28337
-0.0392622
0.701435
-0.193226
0.475997
1.37913
-0.828968
0.572645
1.36383
-0.346266
0.246981
0.776565
-0.0372364
-0.308555
1.40829
0.174893
-0.29738
1.5732
-0.301004
0.833238
-0.429183
-0.17373
1.63358
-0.0807194
0.344112
1.73492
-0.888932
-0.162889
1.01622
0.267343
-1.24539
1.28245
1.20835
-0.694327
1.73816
-0.716023
1.0621
-0.923193
-1.05433
1.36389
1.32402
-0.410749
1.83938
-0.748047
-0.425217
0.91304
0.117651
-1.57885
0.655732
1.78034
-0.857807
1.16364
-0.146524
0.957311
-0.753013
-1.34672
2.71061
-0.304018
0.796682
-0.0476944
0.656716
-0.463418
1.07146
-0.414949
1.11518
0.542362
-0.256863
-0.0283258
0.179984
0.0664127
0.0138574
-0.669506
0.60852
-0.0170432
-0.973813
1.1745
-0.0899798
-0.659937
0.838828
-0.154717
0.525355
-0.217085
1.2544
-0.47332
0.13245
0.15487
-0.211935
0.215696
-0.791666
0.188368
0.0445011
-0.765795
0.927957
-0.0443433
-0.843915
1.00756
-0.0612077
-0.101175
-0.0965517
1.00259
-0.337421
0.297438
0.0186453
-0.283594
0.314793
-0.376112
-0.145884
0.0142547
-0.322262
0.420703
0.00946556
-0.699549
0.816188
0.103833
-0.468952
0.15504
0.643831
-0.365266
0.564196
-0.0842747
-0.441326
0.406862
-0.193593
-0.140154
0.172913
-0.589577
0.460328
0.168625
-0.827425
0.869382
0.346273
-0.644201
0.505543
0.466241
-0.742134
0.878739
0.19247
-0.582357
0.617699
-0.554477
0.300023
0.397296
-1.08576
1.05502
0.483393
-0.980804
1.12213
0.708147
-0.453658
0.835191
0.639718
-0.925986
1.16095
0.334196
-0.310167
0.841512
-1.02119
0.619739
0.604967
-0.879056
1.29927
0.772152
-0.784154
1.13434
0.982284
-0.164978
1.02579
0.748597
-0.637171
1.31727
0.00107407
0.05048
0.937171
-0.992765
0.601557
0.766199
-0.655949
1.2404
1.05689
-0.80573
1.09429
1.22106
-0.0883295
1.18123
0.76125
0.0872452
1.43675
-1.14487
0.220836
1.09152
-0.53673
0.374893
0.983129
-0.390626
1.33663
1.47281
-1.42952
1.13754
1.37286
0.00803079
1.25588
0.869662
-0.117976
1.17057
-0.444811
-0.182715
1.53524
-0.725246
0.365507
1.54902
-1.15135
1.32669
1.84164
-1.15512
0.952345
1.69123
-0.245033
1.28517
0.49388
0.0237339
1.21571
-0.149595
-0.0177754
2.07003
-1.38221
0.271299
1.70741
-0.180119
0.321265
1.22645
1.77357
0.198018
1.80842
-0.709967
1.3995
-0.839505
-0.117446
0.758556
1.89862
0.351325
1.85697
-1.00376
0.629265
1.4792
0.0679209
-0.101259
0.254155
3.48317
-0.380079
1.12256
0.818155
1.23
-0.963596
-1.00765
4.47681
0.968868
0.677131
1.82597
1.27881
0.0304141
3.12117
-0.975982
3.24413
0.796379
0.196891
0.000169459
-0.0170763
0.21358
0.119445
-0.805642
-0.412469
0.00033507
-0.3481
-0.910388
-0.00516078
-0.156858
-0.686212
0.0953309
0.205847
0.0491118
0.519079
-0.0765968
0.291311
-0.0596755
-0.0477205
0.543748
-1.24485
-0.301861
0.549363
-1.06068
-0.517963
0.495035
-1.12801
-0.253718
0.472014
-0.742104
0.337868
0.460111
0.145336
0.821248
-0.656627
0.0573762
1.22463
-0.96903
-0.066504
1.15086
-0.799879
-0.0943961
1.05917
-1.2358
0.158596
1.02326
-1.27319
0.924742
0.215552
0.174618
1.39348
-0.831128
0.201844
1.75546
-0.751658
0.192783
1.58415
-1.0138
0.199231
1.57884
-1.35354
0.364004
1.59865
-1.38436
1.43172
0.323267
-0.0949077
1.7673
-0.0864351
-0.0419437
2.06382
-0.915801
0.240405
1.83153
-1.61548
0.369455
1.93997
-1.47099
0.435453
2.00049
-0.921497
1.66378
0.843109
-0.658014
2.19462
0.564881
-0.610447
2.17643
-1.18137
0.11583
1.78982
-1.56363
0.557049
1.9642
-1.2496
0.599328
2.1255
-0.332271
1.69978
1.31192
-1.24084
2.6953
0.741238
-1.28891
2.31687
-1.08514
-0.250357
1.37236
-1.27704
0.648685
1.45493
-1.1955
0.80332
2.0153
-0.132763
1.74092
1.52343
-0.221276
1.18298
0.588727
-0.578251
2.31514
-0.178021
-0.164168
1.55411
-0.986463
0.321953
1.15342
-1.61413
0.492647
1.45276
0.399877
1.43138
1.67186
0.201572
-0.0843851
0.62098
0.259508
1.97469
-0.442735
-0.12395
2.48926
-1.70303
0.139164
1.68986
-1.95467
0.0697775
1.69451
-0.417392
0.906939
1.0881
0.435262
0.193879
-0.863121
-0.284175
1.51062
-0.198695
-0.166172
2.12123
0.0699073
0.338802
0.909511
2.04894
0.133139
0.930892
0.259312
0.334621
-0.134048
1.20734
-0.193389
1.07854
0.664341
1.50407
-0.454209
0.145647
1.30964
1.3982
0.167034
-0.670428
5.04172
0.352675
-0.431084
1.99449
0.501495
-0.777796
0.00469647
4.27873
1.33624
0.849659
2.07432
1.85037
0.375323
4.14974
-0.237979
3.42635
1.0599
0.356446
0.0638424
-0.437366
0.050664
0.0946785
-0.594539
-0.622738
-0.135729
0.461031
-0.941068
0.00121188
0.160258
-0.534943
0.254625
-0.454905
0.177626
-0.19349
0.426317
0.25943
-0.681581
0.205525
0.104608
-1.03399
-0.313556
0.176556
-0.853889
-0.833134
0.277526
-0.884747
-0.743735
0.368969
-0.945848
0.301709
-0.407707
-0.0883134
0.605313
-0.914197
-0.106778
0.249394
-1.09535
-0.0786447
0.290758
-0.942213
-0.268012
0.238947
-1.00785
-0.509767
0.434793
-1.09726
0.676737
-0.669242
-0.418032
1.13862
-0.946398
-0.245975
0.53309
-1.20741
-0.00584369
0.224754
-1.18793
-0.0451806
0.166956
-1.24221
-0.296548
0.600382
-1.29859
1.23299
-0.529539
-0.313281
1.68899
-0.323526
-0.294426
0.812132
-1.2137
-0.199751
0.0177388
-1.50314
-0.126696
0.0797142
-1.4568
-0.147581
0.781351
-1.08158
1.46952
0.459003
-0.113263
1.72539
0.641739
-0.752541
1.09837
-0.828327
-0.616346
-0.00386652
-1.67822
-0.34461
0.0718655
-1.51349
-0.158164
0.928185
-0.665552
1.33498
1.2883
0.404831
0.684782
1.37702
-0.745757
0.975392
0.188419
-0.802743
-0.0447391
-1.17918
-0.42596
-0.0758304
-1.42459
-0.139925
0.915487
-0.4061
1.06518
1.65329
0.50823
-0.914386
1.67966
0.222889
0.104972
0.97774
-0.481529
0.439853
-0.766639
-1.24946
0.462651
-1.38469
-0.900432
0.595739
0.3706
0.284238
1.55237
0.342075
-0.812497
0.177015
0.396111
0.250429
-0.642228
-0.488458
1.42912
-1.80773
-0.978178
1.08202
-2.08432
-0.407922
0.240327
-0.632236
-0.147804
1.11222
-0.315309
-0.441604
-0.918705
-1.01397
0.961362
-0.210962
-1.17873
0.950339
0.713448
-0.49686
-0.530316
2.9794
0.317344
-1.3559
1.04133
-0.0369613
0.0724546
1.03161
-0.580611
0.185942
-0.246117
1.08647
0.69841
-1.66786
0.375163
3.39513
-1.02032
-1.7818
5.64566
0.236418
-2.19541
1.57727
-0.0547973
-0.523542
1.39756
2.30055
1.94172
1.39197
1.70481
2.46243
0.0443913
4.02836
-0.109377
1.38471
0.895721
0.0620873
-0.243344
-0.10735
0.0847396
-0.0303752
-0.127788
0.0299784
0.181897
-0.151212
0.11782
-0.164788
-0.120866
0.188041
-0.303811
-0.139674
0.346206
-0.216062
-0.537184
0.15466
0.139181
-0.0938482
-0.756423
0.282711
0.402018
-0.596106
0.282136
0.751845
-0.75097
0.236353
0.380558
-0.0401006
0.107576
0.678242
0.0485209
-0.486816
-0.077224
-0.104742
0.0154728
0.288581
0.0380977
0.667875
0.00837981
0.343015
-0.111505
-0.0955383
0.0543797
-1.68102
0.130783
0.0398654
-1.63224
0.154624
0.0264445
-1.58726
0.152791
0.0349093
-1.63863
0.139479
0.0248042
-1.70002
0.115596
-1.68338
0.12808
-0.059725
-1.54126
0.0591492
0.0081128
-1.50813
0.0907611
0.118742
-1.50721
0.0914632
0.160464
-1.51894
0.0749403
0.0976896
-1.56551
0.0358413
-1.57931
0.0421401
-0.0444981
-0.0200951
-0.00908367
-0.0058359
0.0525124
0.00266255
0.0897826
-0.0125879
0.0369535
-0.0361756
-0.0305954
0.000822097
-1.42611
0.26037
0.00139028
-1.43488
0.267117
0.0102145
-1.43799
0.263648
0.016162
-1.43133
0.260866
0.00200759
-1.42347
0.252339
-1.43337
0.251339
-0.00603724
-1.41155
0.050629
0.00449614
-1.41113
0.0564801
0.0170893
-1.41313
0.0540079
0.022596
-1.41215
0.0502551
0.0113985
-1.41318
0.0367512
-1.41583
0.0360058
-0.0038183
0.0145442
-0.000452756
0.0200545
0.00983639
0.0206078
0.0112243
0.0173174
0.0019662
0.00943607
0.00674281
0.00344598
-1.58609
0.403446
0.00398813
-1.58648
0.402521
0.00551414
-1.58872
0.401548
0.00994747
-1.5868
0.404582
-0.000425308
-1.58929
0.403849
-1.58327
0.400074
0.000370363
-1.57821
0.0423767
0.00607539
-1.57821
0.0425079
0.00945865
-1.57933
0.0412328
0.0121834
-1.58006
0.040793
0.0053871
-1.58424
0.0385035
-1.58238
0.0405126
-0.00105184
0.0184151
0.00176013
0.0197959
0.00582125
0.0195447
0.00765891
0.0192182
0.00263067
0.0183178
0.0177248
0.00197972
-1.67963
0.463837
0.00248422
-1.68426
0.462411
0.00582611
-1.6823
0.458946
0.00481335
-1.68195
0.469398
-0.000103808
-1.68243
0.466347
-1.67912
0.466979
0.000972734
-1.65074
0.0125134
0.000221549
-1.65401
0.0130072
0.00118683
-1.65226
0.0102248
0.00114558
-1.65308
0.011963
0.000231607
-1.65381
0.0108052
-1.65269
0.0143152
0.00200593
0.019376
0.00116932
0.0225283
0.00212842
0.0216757
0.00185652
0.0222604
0.000125891
0.0228401
0.0231545
-0.00339264
-1.85342
0.336873
-0.00280651
-1.85483
0.343204
0.00381202
-1.85628
0.33187
0.00413506
-1.85362
0.343264
0.00254809
-1.85371
0.340425
-1.84972
0.361577
-0.00548683
-1.78527
-0.0501427
-0.00449135
-1.78502
-0.0577995
0.00695776
-1.78178
-0.0757181
0.00946448
-1.78365
-0.0605206
0.00183163
-1.78336
-0.0519062
-1.78094
-0.0526358
0.00668889
-0.0205207
0.00366985
-0.0025507
0.00610898
-0.00854761
0.00683209
-0.00597898
0.00559578
-0.00148375
0.00680819
-0.00641611
-2.00305
-0.314298
0.00701272
-2.02356
-0.281348
0.0202775
-2.01732
-0.302706
0.0118569
-2.01028
-0.286813
0.0134553
-2.00342
-0.297656
-1.96925
-0.211098
-0.0270376
-1.76629
-0.259863
-0.00472391
-1.78318
-0.320501
0.0220537
-1.77335
-0.34647
0.012558
-1.77682
-0.284484
-0.00440239
-1.76778
-0.270586
-1.76334
-0.262944
0.0320604
-0.0082849
0.00712315
0.0757977
-0.00176638
0.053409
0.00269325
0.0475838
0.00278895
0.0641013
0.0778527
-0.240961
-2.30551
1.27582
-0.02376
-2.80566
1.01587
-0.0114528
-2.53197
1.12146
-0.131673
-2.41892
1.21912
-0.238087
-2.61798
1.17988
-2.64323
1.08958
-0.159996
-1.9916
-0.413782
-0.0323083
-2.20411
-1.04974
0.0330357
-2.00619
-0.937592
0.0135759
-1.95005
-0.7339
-0.0507387
-2.00816
-0.816099
-2.06126
-0.895654
0.171218
-0.209408
0.0199025
0.0121697
0.0336121
-0.0255624
0.116627
-0.0351318
0.112675
0.012632
0.0850668
-0.234007
2.9682
3.28097
0.12658
1.56612
3.55208
0.027105
2.08651
3.65965
-0.269046
2.19033
3.85035
-0.424905
1.85453
3.96852
1.44062
3.53214
0.212351
0.456106
1.88596
0.231263
-1.13068
1.62814
0.0705171
-0.420809
1.73047
-0.0284224
-0.230232
1.7856
-0.0777643
-0.648946
1.73672
-1.0236
1.4908
0.28345
1.33506
-0.0396162
1.38101
-0.0714649
1.23436
0.0802923
1.06071
0.110798
1.08954
1.08987
0.379161
6.40079
1.39962
0.332724
5.83419
2.47747
0.298849
5.64582
2.56792
0.151542
5.44138
3.0502
-0.46652
5.43979
3.77346
5.01338
2.44139
0.209479
5.87191
2.20535
0.358342
4.44265
2.87082
0.332038
4.3807
3.0219
0.0408628
4.11834
3.39981
-0.445789
3.78121
3.88194
3.21815
2.84024
0.264032
2.53848
0.289137
3.31668
0.264743
3.14808
-0.0597734
3.28249
-0.318388
3.43027
2.89381
0.77496
2.69521
-0.947292
0.719581
5.53305
-0.496094
0.483196
5.59466
-0.449195
0.140305
6.18476
-0.12098
-0.0564063
6.06374
0.6461
5.01606
-0.540508
0.333862
4.65704
-0.0903428
0.662948
6.91508
1.1597
0.450899
6.94393
1.88467
0.330596
6.95396
2.75091
-0.0794774
6.82511
3.53066
6.13074
1.64609
0.233869
0.781707
0.359638
3.35734
0.472268
3.52343
0.193904
4.26895
-0.0951283
4.57847
3.61839
-0.0933562
-1.3265
0.22084
0.384721
-1.79443
1.28453
0.283109
-0.894691
0.924273
0.0296293
-0.286683
0.828053
-0.0497428
0.171537
1.02256
-1.21582
0.903206
1.17207
-2.14282
-0.446092
-0.603351
0.0821983
1.0585
-1.22255
0.835471
0.773705
-0.149016
1.79497
-0.404271
-0.381723
2.25501
1.67989
0.574544
-0.526002
0.696724
-0.314883
-0.182175
0.823205
-0.23004
1.61074
0.199612
2.72531
0.589855
3.466
2.16922
0.227297
0.688758
-1.82457
0.908513
0.420468
0.839811
-1.90434
0.87136
0.356803
0.810192
-1.85253
1.106
0.0894843
0.739058
-1.8947
1.42296
-0.222665
0.96138
-2.15811
1.50888
0.839586
-1.88022
0.817972
0.55861
1.58659
-1.81038
0.353946
0.70972
1.77097
-2.09578
1.01351
0.484604
1.77177
-2.12059
1.38413
-0.00975979
1.84296
-2.19031
1.58077
-0.457649
1.9042
-2.27115
1.77623
1.71915
-1.87464
0.53743
0.643769
-1.11817
-0.626669
0.673237
-1.56966
0.500863
0.359765
-1.67946
1.05353
-0.0836035
-1.68957
1.14122
-0.418895
-1.67857
0.986242
-1.0609
-0.215499
0.0505004
0.722325
-2.59739
0.236261
0.316678
-2.40678
0.219498
0.660337
-2.4961
0.112123
0.794414
-2.58174
-0.0184944
0.548859
-2.57635
0.643475
-2.54219
0.155529
1.40006
-2.64365
0.20832
0.807689
-2.63958
0.212328
1.10647
-2.57073
0.0867201
1.32352
-2.59381
-0.0770844
1.00266
-2.56115
1.08792
-2.39618
0.17825
-2.66966
0.158694
-2.60256
0.101412
-2.71416
-0.171171
-2.69488
-0.278811
-2.73879
-2.34055
-0.0777109
0.0330725
-2.55276
-0.0109658
-0.3309
-2.14263
0.0220294
-0.0293425
-2.49976
-0.0124112
0.120775
-2.66808
0.00649751
-0.248681
-2.34658
-0.131078
-2.40462
-0.267195
0.106123
-2.4495
0.352797
-1.10525
-2.48522
0.424523
-0.287229
-2.38457
0.109591
-0.073456
-2.08464
0.101347
-0.784705
-2.01689
-0.515758
-1.91015
-0.389083
-2.60166
-0.0229847
-2.03758
-0.0514234
-2.46996
-0.439951
-2.41528
-0.169798
-2.45944
-2.18905
-0.0255123
-0.879901
-1.64734
-0.209019
-0.22745
-1.73167
-0.115338
-0.740063
-1.85337
-0.0231907
-0.901954
-1.85827
0.00465951
-0.672595
-1.70183
-0.614333
-1.78563
-0.502372
-1.27357
-1.55347
0.845992
-1.75953
-2.3015
1.00843
-1.46722
-1.81985
0.410786
-1.76583
-0.623124
0.228684
-1.43142
-1.07596
-1.64906
-0.646732
-0.407084
-1.3875
-0.0911165
-1.08812
-0.24629
-1.49099
-0.400607
-1.67754
-0.0598632
-2.32426
-1.61835
-0.0302532
-0.876349
-0.74074
-0.2984
0.0846972
-1.54822
-0.193373
-0.510915
-1.44749
0.0486587
-0.883208
-1.21709
0.0331902
-0.331422
-1.35494
-0.336847
-1.41559
-0.626511
-1.18879
-0.614514
0.785092
-1.63804
-1.99037
0.742597
-0.976785
-1.31148
0.0847291
-1.36792
0.519451
0.457914
-0.562007
-1.21856
-0.976873
0.451208
-0.504537
-0.361944
-0.062631
-0.476967
-8.79115e-05
-1.13173
-0.0765238
-1.91313
0.0193646
-2.76053
-1.61809
-0.182703
-0.337197
-0.190924
-0.255465
-0.0670666
-0.64707
0.008259
-0.464363
0.00852619
-0.332645
-0.503856
-0.120734
-1.27707
0.283097
-1.59117
-0.115847
-0.785903
-0.0817697
-0.383261
0.201338
-0.154426
-0.377313
-0.300659
0.323673
0.299303
0.356199
0.159246
-0.153812
-0.416833
0.133278
-0.391429
-0.493715
0.136791
-0.106825
0.1206
0.0558255
0.109849
-0.221342
0.164925
0.0170706
-0.564541
0.202414
-0.321294
0.144874
-0.0564237
-0.500571
0.140161
-0.181335
-0.515201
0.146397
0.0126221
-0.197538
0.12418
0.051699
-0.413964
0.153544
-0.079492
-0.565162
0.131811
-0.519287
0.118501
-0.0249237
0.0618733
-0.0756266
0.0588275
0.0292619
0.0759405
0.0841697
0.0595438
0.0319566
0.0512004
0.0519044
0.0732232
-0.777518
0.155991
-0.0482426
-0.901461
0.125732
-0.154803
-0.827103
0.135598
-0.19487
-0.844267
0.164513
-0.233282
-0.883679
0.178657
-0.641326
0.145211
0.0561169
-0.777274
0.0837997
0.00074981
-0.821761
0.122064
-0.0454938
-0.78154
0.124861
-0.0664067
-0.790054
0.120243
-0.124458
-0.80518
0.111364
-0.740841
0.0935588
-0.00242574
0.0518184
-0.0337352
0.0476408
0.00802534
0.0461538
0.0297385
0.0404597
-8.97052e-05
0.0378055
0.039666
-0.121433
-0.78716
0.150386
-0.132705
-0.978318
0.0199721
-0.0891783
-0.892514
0.0423724
-0.0818246
-0.909998
0.0593076
-0.12537
-0.94764
0.072583
-0.780649
0.131249
0.108374
-0.793787
-0.017947
0.0291007
-0.824281
0.0473005
-0.0232651
-0.803288
0.088001
-0.0662228
-0.829622
0.0828259
-0.110716
-0.836206
0.0444239
-0.786312
-0.0114935
-0.00846219
0.0503285
-0.0337747
0.0560313
0.00100924
0.0427098
0.0094132
0.0332279
-0.0153112
0.0312726
0.0186995
-0.287793
-0.854831
0.346613
-0.157667
-1.2184
-0.0991701
-0.0848803
-1.09863
-0.119719
-0.0293131
-1.10364
-0.134826
-0.0643785
-1.19432
0.00338634
-0.891576
0.428908
0.164747
-0.854434
-0.183092
0.0578713
-0.909001
-0.155217
-0.027729
-0.891919
-0.0331078
-0.0673594
-0.932606
-0.0485804
-0.120349
-0.973562
-0.123348
-0.888278
-0.135141
0.0149468
-0.00125684
-0.0209203
0.0365933
-0.00666046
0.0230369
-0.0109528
0.00798087
-0.041019
-0.00940106
-0.0532168
-0.266548
-0.507377
0.797012
-0.193023
-1.32126
-0.0651315
-0.204973
-1.2822
-0.328718
-0.201996
-1.2562
-0.338406
-0.230338
-1.15734
0.107489
-0.168524
0.826096
0.255516
-0.693529
-0.252455
0.0809037
-0.919117
-0.382753
-0.12287
-0.899789
-0.211742
-0.292214
-0.92912
-0.20632
-0.395342
-0.9546
-0.222964
-0.641998
-0.0570098
0.0896311
-0.0802212
0.00897252
-0.0228824
-0.0469517
0.000496091
-0.0871801
-0.0200913
-0.134054
-0.0551491
-0.105371
0.301719
0.360985
0.776047
0.0389205
-0.850051
0.219391
-0.239213
-1.39756
-0.33125
-0.409304
-1.30948
-0.372332
-0.396788
-0.878202
0.307622
0.706111
1.0115
0.459878
-0.169566
-0.181783
0.354576
-0.735074
-0.392428
-0.0516179
-0.882738
-0.320368
-0.443648
-0.858798
-0.26497
-0.617307
-0.768187
-0.15932
-0.156783
0.188577
0.255225
-0.0845148
0.159401
-0.0613811
-0.0576639
0.00230379
-0.183742
-0.00713763
-0.244577
-0.0398207
-0.0416693
0.93708
1.45628
-0.240296
0.764206
0.761454
-0.180772
0.313667
-0.848465
-0.211427
-0.293798
-1.07111
-0.118344
-0.472361
-0.521833
0.601919
1.22015
0.972284
0.672209
0.914331
-0.312047
1.00232
0.122159
-0.0832414
0.359983
-0.616216
0.0897186
-0.376224
-0.599742
-0.000132282
-0.765606
-0.420283
0.128513
0.320011
0.32311
0.318913
0.213989
0.336248
0.248656
-0.0028553
0.165891
-0.189646
0.100105
-0.26946
0.117283
0.131805
0.538407
1.81237
-0.911408
0.752416
1.21438
-0.631423
-0.0375738
-0.546956
0.35888
-1.13748
-0.976199
0.57307
-0.984038
0.116257
0.702825
1.08968
0.45094
0.32695
1.28886
-0.115485
0.715041
0.457528
0.285523
-0.00634944
-0.474598
0.738752
-0.895345
-0.443806
0.356472
-0.793413
-0.0476591
0.190499
0.586741
0.032635
0.275898
0.607297
0.520966
0.539524
0.102894
0.448224
-0.196644
0.363969
-0.168661
0.320278
0.408656
0.146802
-0.545984
-0.335211
0.00860917
-1.11746
-0.017993
-0.484055
-1.69
0.733811
-0.990943
-1.38514
0.380788
-0.338642
-0.44065
-0.141061
1.1833
0.0412218
-0.412558
-0.833967
0.585055
-0.73986
-1.35463
0.849991
-0.904293
-1.25953
0.472721
-0.640683
-0.913131
-0.379149
-0.531745
-0.466538
0.107451
0.795437
-0.111249
0.0364362
0.843695
-0.242672
0.87051
-0.64646
0.946365
-0.107731
0.23322
-0.413616
1.24957
0.876263
-0.482001
-0.466622
-0.305293
-1.22157
0.122892
0.387723
-1.31974
1.80307
-0.257643
-0.506204
3.68589
-1.13924
0.619948
1.36047
-1.58635
0.490377
0.243248
-0.838645
-0.533002
1.49008
-1.04686
-0.0244837
1.20559
-1.22624
3.0282
-0.573032
-0.464942
4.4177
-1.87225
0.715136
0.79832
-0.51048
0.421034
0.67323
0.0777822
1.96792
0.0810358
2.05994
-0.916544
0.660223
-1.33574
-1.15289
-0.104806
1.28354
1.67628
0.223559
0.374542
-0.717453
-1.06044
1.97026
0.399872
-1.98163
4.85541
-0.796737
-1.03209
5.37651
-1.81962
0.337396
0.683116
-2.06169
0.0324269
0.0246759
-0.362361
1.03405
1.19293
-0.568971
2.70939
0.673069
-0.75212
5.26827
-0.802738
-0.415122
5.23249
-2.06524
-0.494793
1.78019
-1.52788
-0.613224
0.824088
-0.384759
3.04106
0.708677
2.32068
0.753162
0.267279
-0.500376
-1.26452
-1.23544
-0.240461
2.07419
1.62342
0.868192
2.16957
2.11706
1.20677
3.7345
-0.0483197
4.88678
-0.381601
1.16519
1.35677
0.704205
1.71087
1.3472
3.16064
0.942606
4.72048
0.346561
4.99836
-0.44547
2.20556
2.27281
0.215532
0.820516
0.393959
0.166688
-0.112648
)
;

boundaryField
{
    seabed_topleft_surface
    {
        type            calculated;
        value           uniform 0;
    }
    seabed_topright_surface
    {
        type            calculated;
        value           uniform 0;
    }
    breakwater_top_surface
    {
        type            calculated;
        value           uniform 0;
    }
    breakwater_left_surface
    {
        type            calculated;
        value           uniform 0;
    }
    breakwater_right_surface
    {
        type            calculated;
        value           uniform 0;
    }
    water_front_surface
    {
        type            calculated;
        value           uniform 0;
    }
    water_back_surface
    {
        type            calculated;
        value           uniform 0;
    }
    water_left_surface
    {
        type            calculated;
        value           uniform 0;
    }
    water_right_surface
    {
        type            calculated;
        value           uniform 0;
    }
    water_top_surface
    {
        type            calculated;
        value           nonuniform List<scalar> 
180
(
0.718699
-1.15397
-1.02753
-1.13865
0.396263
1.11679
-1.55389
-1.52224
-1.53337
-1.53525
-1.58801
-1.6073
-1.44237
-1.44038
-1.44136
-1.44345
-1.44953
-1.45121
-1.58103
-1.58076
-1.58232
-1.5838
-1.5881
-1.59074
-1.65371
-1.65591
-1.65535
-1.65586
-1.65661
-1.658
-1.75207
-1.75692
-1.754
-1.75613
-1.7578
-1.759
-1.81059
-1.83659
-1.82642
-1.83484
-1.83346
-1.8316
-1.96169
-1.98916
-1.94092
-1.95035
-1.95273
-1.9558