/*--------------------------------*- C++ -*----------------------------------*\
| =========                 |                                                 |
| \\      /  F ield         | OpenFOAM: The Open Source CFD Toolbox           |
|  \\    /   O peration     | Version:  v1612+                                |
|   \\  /    A nd           | Web:      www.OpenFOAM.com                      |
|    \\/     M anipulation  |                                                 |
\*---------------------------------------------------------------------------*/
FoamFile
{
    version     2.0;
    format      ascii;
    class       volVectorField;
    location    "10";
    object      U;
}
// * * * * * * * * * * * * * * * * * * * * * * * * * * * * * * * * * * * * * //

dimensions      [0 1 -1 0 0 0 0];

internalField   nonuniform List<vector> 
1116
(
(-0.202095 0.0016 0.328046)
(-0.258871 -0.0180746 0.330766)
(-0.276469 0.0298835 0.326404)
(-0.164414 0.0303226 0.329671)
(-0.114103 -0.00585343 0.336294)
(-0.266075 -0.0509761 0.318663)
(-0.66737 0.0116368 0.316527)
(-0.701576 -0.00830733 0.325584)
(-0.709977 0.00204023 0.330621)
(-0.658052 -0.0251464 0.317647)
(-0.628604 0.0141617 0.316792)
(-0.720374 -0.0165258 0.323599)
(-0.75689 0.00586194 0.0765062)
(-0.772025 -0.00160493 0.080638)
(-0.771443 -0.00374719 0.0859727)
(-0.757515 -0.0176402 0.0721438)
(-0.743301 0.00709016 0.0706276)
(-0.7935 -0.00137514 0.0766258)
(-0.708181 0.00198932 -0.0964455)
(-0.719102 0.000389904 -0.097601)
(-0.717357 -0.00117499 -0.0956723)
(-0.710959 -0.00641144 -0.096779)
(-0.705216 0.00193017 -0.0960562)
(-0.742002 0.000408166 -0.0973304)
(-0.656201 0.00195681 -0.172129)
(-0.667186 0.000518777 -0.173366)
(-0.667277 0.000940903 -0.172899)
(-0.66025 -0.00270606 -0.170979)
(-0.655093 0.00243418 -0.169569)
(-0.69458 -0.00168882 -0.170387)
(-0.630617 0.00218816 -0.162166)
(-0.641015 0.000224837 -0.162902)
(-0.641907 0.00154116 -0.163205)
(-0.633413 -0.000445031 -0.161248)
(-0.62605 0.00186936 -0.161708)
(-0.666141 -0.00363082 -0.158459)
(-0.565048 0.003814 -0.0796811)
(-0.574671 -0.000310001 -0.0822864)
(-0.57754 0.00129596 -0.0828515)
(-0.563861 -3.15453e-05 -0.0796892)
(-0.551504 -0.000272721 -0.0791668)
(-0.599844 -0.00408573 -0.0797566)
(-0.702056 0.004457 -0.0654048)
(-0.702289 -0.000420206 -0.0722168)
(-0.707961 0.000407794 -0.0733025)
(-0.690472 -0.00393729 -0.0629913)
(-0.671581 0.000932425 -0.0538026)
(-0.729354 0.000311562 -0.0819646)
(-0.584047 -0.000802623 -0.155834)
(-0.577034 -0.00117277 -0.151514)
(-0.577098 0.00242679 -0.154207)
(-0.577678 -0.000165926 -0.147047)
(-0.582033 -0.00403128 -0.143642)
(-0.581741 -0.00375923 -0.167992)
(-0.37073 -0.010616 -0.00247281)
(-0.398731 -0.00332595 -0.00461018)
(-0.392578 0.00828585 -0.000301931)
(-0.366892 0.00833132 -0.00431679)
(-0.367248 -0.00742594 -0.0139718)
(-0.405658 -0.0116404 -0.00231937)
(-0.677092 -0.00488832 -0.582565)
(-0.744595 0.00489368 -0.615487)
(-0.731883 0.00559633 -0.606607)
(-0.668142 0.00674846 -0.587644)
(-0.645903 0.00108213 -0.5955)
(-0.746161 0.00455167 -0.596446)
(-0.512692 0.0351508 -0.592658)
(-0.548469 0.0319907 -0.566941)
(-0.53505 -0.0167701 -0.573282)
(-0.511171 0.0179656 -0.605942)
(-0.503263 0.0229826 -0.588721)
(-0.537258 0.00930592 -0.560762)
(-0.241507 -0.0124488 0.527623)
(-0.168876 0.0066293 0.520584)
(-0.185182 -0.056191 0.510221)
(-0.345184 -0.0379396 0.520249)
(-0.399479 -0.00712093 0.535665)
(-0.197053 0.0541512 0.500834)
(-0.249771 -0.0210317 0.21871)
(-0.192758 0.0285919 0.200788)
(-0.192679 -0.0218879 0.190681)
(-0.266745 0.0278017 0.237628)
(-0.279434 -0.0171091 0.274807)
(-0.206118 0.0418631 0.188062)
(0.00398751 -0.0116282 -0.103332)
(0.0674424 0.0438947 -0.0988812)
(0.0488549 -0.0340685 -0.102319)
(0.00488269 0.0308007 -0.0973163)
(0.00355563 -0.00188068 -0.0845284)
(0.0641185 0.0642695 -0.0986513)
(0.355004 -0.00424955 -0.0575592)
(0.387984 0.0352826 -0.0508584)
(0.367991 -0.0119335 -0.0430509)
(0.381019 0.0293485 -0.0527315)
(0.409927 0.0119089 -0.0527017)
(0.407743 0.046368 -0.0440236)
(0.792432 -0.00276103 0.0410877)
(0.809924 0.0238382 0.0480292)
(0.795748 -0.0057173 0.0562064)
(0.817931 0.0151215 0.0409195)
(0.841972 0.0161476 0.0381821)
(0.849314 0.0367432 0.0466117)
(1.31187 -0.00366165 0.0708453)
(1.32148 0.0128454 0.0751488)
(1.31422 -0.00522963 0.079672)
(1.32842 0.00460132 0.0683346)
(1.33807 0.011725 0.0678213)
(1.37616 0.0267455 0.0653808)
(1.47216 -0.00361055 0.135113)
(1.48069 0.00523432 0.13729)
(1.48086 -0.00758914 0.138329)
(1.48046 -0.00580853 0.131602)
(1.48416 0.00622524 0.130159)
(1.54 0.0204544 0.121964)
(1.55654 -0.0023856 0.110817)
(1.56167 0.00221621 0.116524)
(1.56895 -0.00799779 0.115463)
(1.55258 -0.0104051 0.108612)
(1.5332 0.00191004 0.105962)
(1.62243 0.0168181 0.103997)
(1.51853 0.00257501 -0.194145)
(1.51934 0.00382766 -0.18005)
(1.52445 -0.00057868 -0.183894)
(1.50333 0.00249782 -0.186052)
(1.4899 -0.00398857 -0.184128)
(1.55625 0.00125955 -0.186601)
(0.811689 0.00412145 0.153218)
(0.827469 4.33463e-05 0.156698)
(0.821542 0.00523035 0.157214)
(0.826261 0.0172359 0.149908)
(0.837702 -0.0163572 0.14945)
(0.813584 -0.0278288 0.152527)
(-0.0884155 -0.00794923 0.387504)
(-0.0390896 -0.0001001 0.4002)
(-0.0657406 0.014873 0.404282)
(-0.0157216 0.0154302 0.404436)
(0.0244903 -0.023594 0.403478)
(-0.103256 -0.0332609 0.397935)
(-0.45984 0.0035866 -0.481383)
(-0.519857 0.0153634 -0.330283)
(-0.520246 -0.0142305 -0.395177)
(-0.427257 0.00585451 -0.392942)
(-0.397626 0.0164697 -0.246)
(-0.562227 0.0252484 -0.393845)
(0.41448 -0.0303337 0.500481)
(0.458286 0.00956535 0.449184)
(0.493868 -0.0199973 0.478727)
(0.371098 -0.0266576 0.508384)
(0.334828 -0.0431768 0.484384)
(0.489694 0.0345956 0.491736)
(3.11261 -0.0246704 -0.182648)
(3.11514 0.0313888 -0.148829)
(3.14566 -0.0037754 -0.142289)
(3.22831 -0.0238594 -0.242424)
(3.28574 -0.0407088 -0.341548)
(3.08713 0.0441346 -0.126861)
(5.92444 -0.0218238 -0.842631)
(5.95288 0.0156908 -0.674799)
(5.97774 -0.00381946 -0.673976)
(6.02958 -0.00344203 -0.880905)
(6.09401 0.00126337 -0.979688)
(5.94823 0.0543875 -0.607926)
(8.75655 -0.0168368 -1.29293)
(8.81489 0.0033089 -1.14425)
(8.83546 -0.0162903 -1.14548)
(8.82399 -0.00994168 -1.29136)
(8.83022 0.00940487 -1.32985)
(8.85635 0.0563458 -1.05894)
(11.4191 -0.0135353 -1.45996)
(11.4804 -0.00303806 -1.37232)
(11.5008 -0.0212059 -1.36805)
(11.4572 -0.00868661 -1.44744)
(11.4405 -0.00284402 -1.44431)
(11.5527 0.034865 -1.28299)
(14.3048 0.00539538 -1.19238)
(14.3412 0.0169202 -1.15718)
(14.3245 -0.0245174 -1.1577)
(14.3039 -0.0147161 -1.19122)
(14.3195 0.0122957 -1.18221)
(14.3299 0.0410909 -1.0864)
(17.2551 -0.0298496 -0.308289)
(17.4371 -0.0256512 -0.282579)
(17.4848 -0.00189275 -0.280584)
(17.2707 0.0579745 -0.310908)
(17.2151 -0.0465186 -0.330106)
(17.5532 -0.0678841 -0.209499)
(19.2074 -0.0842343 0.805645)
(18.9332 -0.0796399 0.821595)
(18.8542 0.00379139 0.823353)
(19.1125 0.0538096 0.814137)
(19.6819 -0.105559 0.801837)
(18.4202 -0.1063 0.854488)
(10.3332 6.93014e-05 1.27786)
(9.97923 0.00239878 1.2553)
(9.88567 -0.0225711 1.25862)
(10.0517 -0.0244996 1.26764)
(10.391 -0.000309929 1.2911)
(9.60979 0.0251781 1.23348)
(3.23991 0.0181195 1.27988)
(3.50823 0.00796617 1.25299)
(3.43649 0.00255079 1.25261)
(3.43376 0.0193461 1.25432)
(3.47608 -0.00754016 1.2641)
(3.42084 -0.0129322 1.24707)
(0.645596 0.033716 0.766839)
(0.543068 0.0374159 0.765754)
(0.518417 0.00202527 0.769739)
(0.539621 0.00787206 0.819971)
(0.583516 -0.0358398 0.851943)
(0.417142 -0.0399201 0.72982)
(-0.229305 0.00158958 -0.962472)
(-0.372238 0.00272202 -0.92529)
(-0.348497 0.0070386 -0.941756)
(-0.275893 -0.0163217 -0.926837)
(-0.29947 0.0176679 -0.843994)
(-0.416724 0.0568937 -0.959324)
(-1.3059 0.0188972 -1.91886)
(-1.56871 0.177708 -2.04128)
(-1.45734 -0.063187 -2.02852)
(-1.41858 -0.105801 -1.97638)
(-1.40723 0.0121024 -2.13496)
(-1.46485 0.145718 -2.05071)
(-0.299727 0.0617243 -3.74101)
(-0.267163 0.0316393 -3.74927)
(-0.330096 0.00416448 -3.60043)
(-0.307124 -0.0126257 -3.75472)
(-0.344007 -0.0086385 -3.95974)
(-0.44081 -0.0490839 -3.65946)
(-1.28279 -0.00658874 -3.81823)
(-1.27776 -0.0151907 -3.89441)
(-1.28944 0.0398165 -3.86709)
(-1.32348 0.0370541 -3.82145)
(-1.36377 0.0115061 -3.8296)
(-1.27923 -0.0376355 -3.84952)
(-1.54951 -0.00759415 -3.90268)
(-1.51794 -0.0151035 -3.95151)
(-1.53442 0.0159009 -3.93573)
(-1.56916 0.0171279 -3.89112)
(-1.59534 -0.0205422 -3.92305)
(-1.52631 -0.050527 -3.88846)
(-2.01331 -0.000227169 -4.15054)
(-1.96907 -0.00581081 -4.17539)
(-1.97601 0.00748368 -4.16886)
(-2.02011 0.00513896 -4.1556)
(-2.02841 -0.0175064 -4.18094)
(-1.97512 -0.0351829 -4.14498)
(-2.30189 -0.000625915 -4.67789)
(-2.22845 -0.00924212 -4.64147)
(-2.23737 0.0150206 -4.65098)
(-2.29441 0.00559446 -4.6764)
(-2.27966 -0.0119406 -4.68052)
(-2.25103 -0.0148934 -4.62031)
(-1.86434 -0.0609223 -4.20663)
(-1.74441 -0.0532938 -4.11936)
(-1.76148 0.0659829 -4.13237)
(-1.83818 0.0055837 -4.18694)
(-1.80209 -0.0157844 -4.17118)
(-1.76137 0.0375819 -3.98753)
(5.84773 -0.188008 3.19131)
(5.19841 -0.0886517 2.81071)
(5.53513 0.0751991 3.02266)
(5.73568 -0.0305004 3.06595)
(5.38328 -0.12174 2.81663)
(5.58688 -0.0134025 3.03189)
(11.6155 0.0275253 12.0858)
(11.439 0.108846 12.1174)
(11.5396 0.0486745 12.0667)
(11.9209 0.00320912 12.1654)
(12.0047 -0.0320908 12.1918)
(11.5291 0.00610018 11.9442)
(6.21722 0.200553 7.4803)
(7.67197 0.218717 7.23876)
(7.63616 0.126595 7.04266)
(7.99702 0.104734 7.19501)
(8.11545 -0.0249584 7.35174)
(7.6908 -0.0487151 6.98833)
(1.10988 0.33305 2.54098)
(2.06303 0.41363 3.26516)
(2.00133 0.18922 3.09398)
(2.39499 0.163364 2.97294)
(2.52145 -0.117986 3.01128)
(1.97311 -0.137297 2.93394)
(1.16821 0.226606 -0.0232862)
(1.42326 0.283714 -0.295017)
(1.32533 0.0574409 -0.301814)
(1.38325 0.0623652 -0.272383)
(1.38986 0.00227438 -0.295045)
(1.27838 0.0240692 -0.322904)
(-0.109378 -0.148388 -0.382853)
(-0.133247 0.0554125 -0.379858)
(-0.120354 0.187137 -0.58604)
(-0.167521 0.515986 0.000419399)
(-0.0617227 0.185238 -0.0404234)
(0.035923 0.230114 -0.500007)
(-0.462562 -0.218646 -0.617089)
(-0.542767 0.19178 -0.324193)
(-0.574214 0.124374 -0.621913)
(-0.593599 0.582704 -0.00665217)
(-0.330909 0.145904 0.196896)
(-0.144608 0.283723 -0.549546)
(-0.754527 -0.124163 -0.560634)
(-0.788167 0.23285 -0.223662)
(-0.602426 -0.0443769 -0.5717)
(-0.398821 0.550487 -0.28658)
(-0.423891 0.198206 0.168978)
(-0.378501 0.179019 -0.401966)
(-0.860451 0.0377064 -0.525661)
(-1.2047 0.255297 -0.236456)
(-0.865973 0.00694616 -0.273567)
(-0.324088 0.481413 -0.171649)
(-0.723821 0.0814767 -0.000268969)
(-0.575985 0.0649399 -0.545267)
(-0.799926 0.0757425 -0.683747)
(-1.58566 0.285249 -0.509934)
(-0.80742 0.266834 -0.180822)
(-0.346717 0.380457 0.147899)
(-1.28833 -0.0901508 -0.269122)
(-0.726292 -0.00275924 -0.812647)
(-0.859748 -0.00986532 -0.882932)
(-1.75389 0.432339 -0.866075)
(-0.394695 0.300561 0.0358508)
(-0.684823 -0.00183062 0.232753)
(-1.6494 -0.135579 -0.485681)
(-0.835352 -0.0635298 -0.960587)
(-0.928127 0.0733201 -1.12988)
(-1.73788 0.558054 -1.133)
(-0.271731 0.592735 -0.829103)
(-0.491305 0.320078 0.139879)
(-1.89832 -0.126849 -0.307464)
(-1.02725 -0.0117882 -0.965093)
(-1.36848 0.263212 -1.70681)
(-1.83277 0.72746 -1.41095)
(-0.320901 0.756151 -1.07898)
(-1.46751 0.278208 0.219718)
(-2.2483 -0.203537 -0.332098)
(-1.13453 -0.00825311 -1.04579)
(-2.16773 0.358191 -1.51885)
(-2.19563 0.456362 -1.34837)
(-1.03768 0.820387 -1.06395)
(-2.80155 -0.32084 0.404096)
(-2.6487 -0.42032 -0.954393)
(-1.28503 -0.0735461 -1.23066)
(-2.89015 -0.310998 -0.867524)
(-2.81493 0.003014 -1.7181)
(-2.23158 0.772611 0.443474)
(-3.28852 -1.1815 0.625265)
(-3.43228 -1.15777 -1.38348)
(-1.7755 -0.1084 -1.45504)
(-3.29708 -1.15782 -0.353311)
(-3.37229 -0.635112 -1.42569)
(-2.11366 -0.0331803 0.813536)
(-2.32177 -1.07255 1.46901)
(-3.359 -1.64889 -0.209618)
(-1.97449 -0.0241115 -0.840429)
(-2.74451 -1.22211 2.26283)
(-3.51471 -0.889449 1.32277)
(-1.3767 0.0756686 0.414769)
(-0.34496 -0.234988 -0.300176)
(-0.992944 -0.593907 0.302305)
(-1.52068 -0.174197 0.820923)
(0.277591 -0.688713 -0.092318)
(0.351233 0.114059 -1.06701)
(0.417727 0.054182 -1.3109)
(0.309188 1.01136 -0.842193)
(0.303899 1.23584 0.114592)
(0.407549 0.554896 1.12806)
(-0.14688 -0.821952 -0.0817844)
(-0.335592 -0.144837 -1.10123)
(-0.278686 -0.298724 -0.712523)
(0.0844631 0.723939 -0.258084)
(0.272235 0.999119 0.0265519)
(0.337556 1.03135 0.903355)
(-0.403293 -0.579404 -0.10626)
(-0.506829 -0.1187 -0.729822)
(0.0876171 -0.443905 -0.302689)
(0.0850674 0.196622 -0.0334356)
(-0.04349 0.533613 0.149789)
(-0.0471842 1.14176 0.664957)
(-0.801501 -0.499951 -0.222045)
(-0.633814 -0.287707 -0.482606)
(-0.0826875 -0.523065 -0.218006)
(-0.0936006 0.283305 -0.0797432)
(-0.416689 0.535218 0.0244592)
(-0.700543 1.17581 0.34724)
(-1.44362 -0.780054 -0.228026)
(-0.996189 -0.738348 -0.145776)
(-0.686287 -0.268316 0.301671)
(-0.68438 0.827956 0.276667)
(-1.04738 1.07467 0.19892)
(-1.39518 1.14942 0.209006)
(-1.93237 -1.14804 -0.368853)
(-1.52569 -0.540329 0.25179)
(-1.1181 0.0562984 1.1517)
(-1.30795 1.01386 0.600074)
(-1.74116 1.30013 0.280633)
(-1.90408 1.04714 0.14564)
(-2.39763 -1.13632 -0.780639)
(-1.83537 0.00717685 0.412361)
(-1.44908 0.140329 1.12715)
(-1.80573 0.92008 0.321319)
(-2.19961 1.28597 0.314243)
(-2.19642 1.00942 0.181546)
(-2.7212 -0.439378 -1.8144)
(-1.99112 0.561067 0.511626)
(-1.70489 -0.0837642 0.986925)
(-2.30725 0.832446 -0.486398)
(-2.56032 1.49039 0.102609)
(-2.44398 0.98098 0.160638)
(-2.32429 -0.323993 -1.59569)
(-2.4714 -0.0175335 0.0138314)
(-2.77034 -0.188303 0.878636)
(-3.43162 0.78025 0.121853)
(-2.88689 1.52832 -0.446995)
(-2.3673 0.598412 -0.674764)
(-1.98699 0.237697 0.457459)
(-3.40103 -0.219405 -1.75135)
(-3.51626 0.215395 0.369099)
(-4.50267 0.241785 3.32477)
(-3.436 0.315388 -1.69902)
(-2.27055 0.148178 -2.46958)
(-3.56919 -0.598679 4.55043)
(-4.02656 0.260977 -1.81531)
(-3.56252 0.658768 -0.490559)
(-2.54344 0.484427 4.59131)
(-3.6602 -0.817148 -0.508654)
(-2.59378 0.283312 -2.34597)
(-3.024 -1.66087 6.95165)
(-4.03671 0.129096 1.08524)
(-3.16421 1.60937 1.8385)
(-0.622977 1.45122 4.02736)
(-2.22447 -1.36093 3.42306)
(-2.54047 -0.21297 0.953934)
(0.205294 -0.0935451 1.00609)
(0.0962785 0.453487 -1.41605)
(0.563113 0.0551415 -2.33852)
(0.60772 -1.01498 -1.33519)
(0.229828 -0.724451 1.96316)
(0.0694802 -0.362619 3.13046)
(-0.241044 -0.330999 0.919584)
(-0.523558 0.206674 -2.15511)
(-0.480043 -0.242006 -2.30209)
(-0.513806 -0.456639 -2.70741)
(-0.598487 -0.678623 -0.426919)
(-0.351754 0.320567 2.74645)
(-1.08718 -0.168668 0.186539)
(-1.64793 0.387178 -0.970215)
(-1.66023 -0.244056 -1.1193)
(-1.39079 0.158639 -2.67988)
(-1.33759 -0.411274 -2.16729)
(-1.30383 0.739202 1.99795)
(-2.08531 -0.315484 -0.167962)
(-3.05731 0.570002 -0.410193)
(-2.78069 -0.103161 -1.88096)
(-2.4113 0.464101 -2.98683)
(-2.34135 -0.144399 -2.74334)
(-2.46324 0.861553 1.56731)
(-3.44348 -0.407288 0.810893)
(-3.84853 0.164202 -1.79534)
(-3.06871 -0.18791 -4.03826)
(-3.21631 0.561958 -3.65433)
(-3.45123 0.126342 -2.0321)
(-3.3869 0.804604 1.99179)
(-3.95065 -0.803304 1.39269)
(-3.82181 -0.591636 -3.57441)
(-3.24338 -0.443979 -3.93241)
(-3.66531 0.608413 -3.14427)
(-4.18189 0.482478 -0.857995)
(-3.75686 0.784475 2.40976)
(-5.19097 -1.34264 0.658231)
(-3.78417 -1.25852 -3.60133)
(-2.80802 -0.964047 -3.12668)
(-3.51044 0.440617 -2.91406)
(-4.32225 0.705741 -0.516238)
(-3.76401 0.975089 2.52569)
(-5.61319 -0.164012 -1.76573)
(-4.67926 -0.458228 -2.13545)
(-1.89545 -0.392309 -2.27321)
(-1.18014 0.0365939 -4.47205)
(-3.19829 0.400567 -0.0212112)
(-3.7473 0.809802 3.01512)
(1.63546 -1.11547 0.284902)
(-3.99793 1.27468 -2.17673)
(-3.86488 -0.508688 -4.552)
(-2.04282 0.197709 -4.30987)
(-3.40184 0.036184 -0.4788)
(-3.3605 0.188043 2.46666)
(-1.16872 0.255843 -1.01515)
(-2.68892 0.342435 -2.32172)
(-4.43555 -0.678572 -0.963104)
(-4.26067 0.346216 3.82871)
(-2.48392 0.291403 -0.728655)
(-0.163851 0.0849529 -0.434801)
(-0.0256845 1.14027 3.13685)
(-2.72765 0.876495 -1.76376)
(-3.65939 0.150999 0.672662)
(-1.73659 0.350645 8.0984)
(-1.37507 -0.266901 3.40152)
(-0.874749 1.1442 -1.60797)
(-2.39507 -0.891944 9.34242)
(-3.60055 0.810981 1.19253)
(-3.03838 1.76966 2.63917)
(0.121076 1.9763 7.20183)
(-0.270432 -1.28655 8.14359)
(-1.64778 0.767515 1.64161)
(0.143795 0.420637 -1.13761)
(-0.0540563 0.213988 -1.56185)
(0.769511 -0.139118 1.11775)
(0.605853 -1.05587 0.640203)
(-0.218086 -0.566734 -1.0694)
(-0.168061 -0.381591 -0.744044)
(-0.31734 0.359622 -1.27142)
(-0.213237 0.397751 -2.17342)
(-0.213705 0.0059848 -1.48957)
(-0.582929 -0.641183 -1.78337)
(-0.684464 -0.836202 -2.12189)
(-0.459318 -0.480857 -0.778387)
(-0.67208 0.0126534 -2.44073)
(-0.0816113 -0.180293 -2.25421)
(-0.423426 -0.0387708 -1.63165)
(-0.45339 -0.0886505 -1.93847)
(-0.65662 -0.463952 -2.27309)
(-0.714889 -0.409495 -1.2344)
(-1.31662 -0.355689 -2.62594)
(-0.596848 -0.375949 -2.13054)
(-0.468319 -0.0885855 -2.12068)
(-0.190006 0.0763015 -2.25689)
(-0.748038 -0.191112 -2.22792)
(-1.7857 -0.302886 -0.461241)
(-2.84121 -0.346781 -1.03884)
(-1.24389 -0.241569 -1.90646)
(0.0274525 -0.314542 -2.63019)
(-0.0127318 -0.0377778 -2.43521)
(-1.2232 -0.254421 -1.55479)
(-3.06847 0.0403055 1.37599)
(-3.70833 -0.101622 1.04577)
(-1.39848 -0.228101 -1.63745)
(0.539663 -0.950615 -2.90182)
(0.273706 -0.159137 -2.28515)
(-1.56872 -0.591491 -0.605176)
(-3.18902 0.384232 2.6949)
(-3.75628 0.396607 2.30446)
(-2.45388 0.0563819 -1.34418)
(0.192343 -1.11263 -2.59667)
(-0.0786306 -0.21773 -2.33403)
(-2.20769 -0.791718 -0.213685)
(-3.03567 0.650246 3.22791)
(0.127965 0.160776 3.30441)
(-1.5983 0.516748 1.12491)
(0.610283 0.0822407 -1.96457)
(1.06847 -1.1442 -2.36051)
(-1.30719 -1.44457 1.29669)
(-1.99826 0.128082 3.36178)
(2.38608 -0.317643 1.49076)
(0.865059 0.894596 -0.119951)
(-1.94663 -0.230646 -2.86742)
(-2.20704 -0.60287 -3.03026)
(-1.60637 -1.03477 -1.07787)
(-0.168409 0.264481 1.8998)
(1.52886 0.261723 -1.73075)
(-1.71152 -0.674348 0.894554)
(-3.09583 -1.51893 1.31194)
(-1.94794 -0.822942 4.37915)
(0.842569 0.0735592 1.59187)
(0.352111 0.647597 -0.214226)
(0.119766 1.71612 1.24993)
(-2.39131 0.163209 0.175953)
(-1.31521 -0.894884 4.76231)
(1.19453 -1.34944 11.0714)
(3.93422 -0.944119 4.53081)
(0.12224 1.22648 -1.07321)
(-0.246998 0.905905 7.16263)
(-2.88816 1.2319 2.20065)
(-2.69369 2.13509 4.14223)
(0.39895 1.22704 8.2158)
(1.55137 -1.08352 4.78348)
(-0.266814 0.758025 2.12355)
(-0.806064 -0.104781 0.427538)
(-1.0084 0.199122 1.2502)
(-1.1177 -0.0313724 1.77195)
(-0.911869 0.0810592 0.88835)
(-0.869145 0.163918 0.268466)
(-1.21614 0.154108 1.64772)
(0.18872 -0.588945 -0.990865)
(0.57019 -0.324247 -1.22645)
(0.548255 0.121705 -0.806369)
(0.461139 0.657082 -1.21561)
(0.134657 0.663348 -1.01751)
(-0.121241 0.0926857 0.0342256)
(-0.250147 -0.642584 1.35074)
(0.0902554 -0.21073 -2.08219)
(0.131225 0.0576112 -1.85112)
(0.0772724 0.419617 -2.05408)
(-0.338521 0.712323 0.76249)
(-0.336742 0.00880058 2.07572)
(0.351917 0.0265022 -2.2424)
(0.453331 0.0514342 -2.14559)
(0.462058 0.0161841 -2.03059)
(0.400984 0.0440296 -2.16276)
(0.313295 0.0331409 -2.29039)
(0.361242 0.00242481 -2.22365)
(0.270729 -0.0662222 -3.28609)
(0.403289 -0.058883 -3.20781)
(0.419484 0.067843 -3.16818)
(0.350322 0.176867 -3.22211)
(0.211569 0.131531 -3.31321)
(0.251129 0.0290246 -3.32373)
(-0.0712894 -0.0312166 -2.84597)
(-0.0396673 -0.0392657 -2.78865)
(-0.00646626 0.0209189 -2.81065)
(-0.0521137 0.0815968 -2.81228)
(-0.110979 0.064478 -2.90837)
(-0.0759308 0.0126425 -2.94499)
(0.245476 0.00340908 -1.73832)
(0.257645 -0.00102734 -1.76765)
(0.243797 0.00251007 -1.77703)
(0.238082 0.0191229 -1.76179)
(0.214958 0.0077788 -1.74082)
(0.21962 -0.00348258 -1.77059)
(0.0204597 -0.0049559 -2.97905)
(0.036514 -0.0041994 -2.98115)
(0.0265806 0.011259 -2.98425)
(0.0167806 0.0211381 -2.97764)
(-0.0244211 0.0181075 -2.97069)
(-0.0313876 0.00385122 -2.97616)
(0.00424123 -0.0028465 -2.63847)
(0.0237561 -0.00386962 -2.63472)
(0.024852 0.00358382 -2.63689)
(0.0137501 0.0126406 -2.64055)
(-0.0142447 0.00598812 -2.6518)
(-0.0227566 -0.0013603 -2.65506)
(0.71913 0.000979076 -2.11481)
(0.72248 0.00530658 -2.11496)
(0.720996 0.000561273 -2.12345)
(0.72288 0.0121145 -2.11933)
(0.719878 0.00306671 -2.11983)
(0.711781 -0.00303564 -2.11007)
(0.151639 -0.00101257 -3.25795)
(0.153448 0.00187721 -3.25774)
(0.151764 0.00797631 -3.25799)
(0.150253 0.0110211 -3.25817)
(0.14357 0.00994122 -3.26684)
(0.14662 0.000859856 -3.25419)
(0.0425672 -0.00123291 -2.90187)
(0.0449719 -0.000311769 -2.90142)
(0.0452662 0.00344208 -2.90438)
(0.0435301 0.00761915 -2.90701)
(0.0408559 0.0050123 -2.91488)
(0.0397574 0.000429477 -2.91982)
(0.947875 0.00183479 -2.4421)
(0.943662 0.0030142 -2.44879)
(0.941373 0.00080294 -2.44563)
(0.948383 0.00901663 -2.44206)
(0.94827 -0.000851726 -2.44126)
(0.941435 0.00119034 -2.43478)
(0.0426418 0.0025553 -3.33428)
(0.041467 -0.000147582 -3.34293)
(0.0378282 0.000590032 -3.33834)
(0.0373827 0.00110436 -3.34109)
(0.0346423 0.00118832 -3.34337)
(0.0402446 -0.000389338 -3.33628)
(0.0354713 0.00147887 -3.03997)
(0.0386914 0.00158064 -3.04397)
(0.0380214 0.00103233 -3.04289)
(0.0387851 0.00253556 -3.04376)
(0.0386146 0.000641891 -3.04508)
(0.0379071 -0.000341128 -3.04764)
(0.810735 -0.00236051 -3.02772)
(0.802618 -0.00302646 -3.02977)
(0.795308 -0.00195061 -3.03433)
(0.83204 0.00763349 -3.01851)
(0.818546 0.00168379 -3.02391)
(0.824007 0.00211701 -3.00539)
(-0.0116868 -0.00051582 -3.52923)
(-0.00954288 -0.00727308 -3.52728)
(-0.014005 0.000360704 -3.52547)
(-0.00771504 0.0101344 -3.53067)
(-0.0094084 0.00566809 -3.52791)
(-0.00375868 -0.000904355 -3.52255)
(0.0425548 0.00518578 -3.22958)
(0.0548361 0.00507912 -3.23811)
(0.0517937 0.00325287 -3.23233)
(0.0519283 0.00673625 -3.23607)
(0.0526597 0.0060274 -3.23897)
(0.0528945 0.00331653 -3.24087)
(0.809529 -3.46485e-05 -4.48078)
(0.845093 -0.00627397 -4.4798)
(0.802663 0.012139 -4.4766)
(0.809619 0.0225803 -4.46515)
(0.811319 0.00475115 -4.46612)
(0.890442 0.0189094 -4.32072)
(-0.092916 -0.00927906 -3.26902)
(-0.128351 -0.02598 -3.31701)
(-0.188878 0.0119853 -3.29968)
(-0.143189 0.0260008 -3.28895)
(-0.113765 -0.00298795 -3.26298)
(-0.126089 -0.00241015 -3.26701)
(-0.140285 0.0269088 -3.34015)
(-0.0693702 0.0215885 -3.38634)
(-0.0964897 -0.0047963 -3.36711)
(-0.0833592 0.00131723 -3.38292)
(-0.0613594 0.00317185 -3.37974)
(-0.0294896 0.00160889 -3.37542)
(-2.38213 -0.277734 -5.47123)
(-2.26638 -0.0987824 -6.14717)
(-2.3141 0.0335717 -5.73418)
(-2.24202 -0.0444574 -5.58152)
(-2.29252 -0.233216 -6.01027)
(-1.98638 -0.144261 -5.76097)
(-1.34959 -0.132854 -3.0943)
(-1.54688 -0.0720584 -4.02924)
(-1.60172 -0.0130041 -3.39106)
(-1.36771 0.0568374 -3.18327)
(-1.32169 -0.039479 -3.45386)
(-1.25498 -0.0203511 -3.74719)
(0.12308 0.165014 -3.68168)
(0.420456 0.092312 -3.7161)
(0.357984 -0.0343696 -3.62716)
(0.315879 0.0827764 -3.64182)
(0.362462 0.126229 -3.64072)
(0.385146 0.0666782 -3.63864)
(6.86584 -0.29617 8.95015)
(5.81702 -0.0321563 7.91228)
(6.24724 0.187041 8.18337)
(6.55308 -0.125461 8.09764)
(6.55594 -0.408047 7.98473)
(5.89094 -0.241775 7.49897)
(0.286523 -0.0818048 3.56062)
(-1.89803 0.371726 -1.00905)
(-1.42453 0.132848 0.827058)
(-0.918114 0.0265915 1.32956)
(-1.28478 -0.104964 0.0592893)
(-1.68423 -0.0167434 -1.1461)
(-1.00062 0.304228 -2.46472)
(-0.396919 0.114845 -3.98187)
(-0.496358 -0.151424 -2.97326)
(-0.500597 0.0222695 -2.64391)
(-0.341639 0.112447 -3.17072)
(-0.122589 0.0782842 -3.47451)
(7.23258 0.236306 11.7334)
(9.49208 0.335847 11.316)
(9.48585 0.334134 10.9031)
(9.82394 0.315577 10.7293)
(10.0252 -0.212349 11.0938)
(9.17619 -0.381936 10.3847)
(7.55903 0.114921 12.5406)
(8.75243 0.301954 10.7375)
(8.67136 0.339744 10.4358)
(8.34246 0.351821 9.87789)
(8.55291 -0.328433 9.62401)
(8.0525 -0.404197 8.713)
(6.72943 0.20477 8.24828)
(6.35885 0.317882 4.69474)
(5.86062 0.212473 4.71647)
(5.14871 0.240251 4.22433)
(5.13857 -0.338273 3.25143)
(4.97384 -0.222554 2.13664)
(-2.59587 0.113754 1.83505)
(-2.22155 0.922432 6.58479)
(-1.61526 0.650826 6.40593)
(-0.81351 0.330581 7.95594)
(2.25456 -0.104602 7.79861)
(-1.81066 -0.0370322 5.48918)
(0.491759 0.319202 7.2484)
(2.3617 0.487122 12.8511)
(3.06241 0.552699 13.0675)
(4.98718 0.46969 13.4126)
(6.61416 -0.0224606 13.5486)
(2.76176 -0.0949121 11.9806)
(2.88281 0.268741 11.3066)
(6.57273 0.224863 12.5791)
(6.45561 0.430283 12.0772)
(7.7901 0.460409 11.7059)
(8.32166 -0.112907 11.1819)
(6.27176 -0.110793 9.98224)
(-0.369865 -0.377718 -0.676145)
(1.63514 0.284398 2.36995)
(1.07449 0.322786 2.03109)
(1.42817 0.173812 2.12291)
(1.89526 -0.0943221 2.388)
(0.99701 -0.0210143 1.65972)
(-1.13554 0.650648 -5.20759)
(1.05334 0.913753 -7.26393)
(3.12197 -1.70515 -3.99068)
(4.44536 -0.208031 -2.13616)
(5.937 -0.208057 -0.73601)
(2.63343 -0.306936 -4.57526)
(-0.146652 0.116547 -3.05669)
(5.52859 0.715918 6.70742)
(6.42488 -0.775278 5.44717)
(8.00429 0.160446 5.74185)
(8.78483 0.363825 5.85549)
(6.76602 0.472492 5.22223)
(2.56651 0.161024 0.735113)
(3.21092 0.545095 0.854578)
(3.17257 0.625792 0.273311)
(2.9706 0.463885 0.058406)
(3.43276 -0.195135 0.923459)
(2.56507 -0.408197 0.667097)
(2.06457 0.458847 2.85571)
(3.6684 1.06213 3.41278)
(3.89334 0.98721 3.75738)
(3.68678 0.502664 3.61061)
(4.11046 -0.530699 3.89842)
(2.32642 -0.633233 3.59271)
(0.252414 0.452157 7.83235)
(2.44223 1.24549 8.25488)
(2.75802 0.847285 7.97794)
(2.49414 0.282347 8.37461)
(2.45768 -0.595808 8.63519)
(0.625961 -0.564547 7.59053)
(4.90513 0.0216048 1.49608)
(4.7457 0.170008 0.691745)
(4.68241 0.4093 1.27428)
(4.85803 0.314543 1.70787)
(5.36077 0.00500055 1.26634)
(5.13639 -0.0394971 1.10202)
(5.27913 0.0289649 2.21643)
(5.21694 0.30944 0.860965)
(5.01499 0.39284 2.05156)
(5.2458 0.266586 2.3429)
(5.25421 -0.0738099 1.43212)
(5.0555 -0.0783012 2.12409)
(4.56839 0.049995 7.90623)
(4.45264 0.324259 5.24525)
(4.44713 0.286052 6.18344)
(4.66026 -0.0229974 7.36733)
(4.60522 -0.485401 6.11875)
(3.9035 -0.251072 5.91026)
(5.61348 -0.0968633 0.561001)
(4.54883 -0.0544392 0.40495)
(5.34224 -0.00856804 0.540578)
(5.79807 0.0503292 0.841934)
(5.05791 -0.063846 0.582707)
(5.13805 0.0713862 0.456578)
(5.53494 -0.703105 -0.457177)
(5.30978 0.016288 -2.08339)
(5.32538 0.918086 -0.7222)
(5.19729 0.365842 -0.36478)
(4.96491 0.0117367 -1.88484)
(4.77192 0.259368 -1.12168)
(6.09687 -0.668627 1.31045)
(5.28656 -0.315859 -5.75359)
(6.1093 0.258497 -1.2654)
(5.89011 -0.470659 0.040847)
(5.8653 -0.622577 -3.66642)
(5.22727 0.0106411 -2.31438)
(4.1727 0.134954 0.346127)
(3.73558 -0.195796 0.86152)
(4.22708 -0.408597 0.601064)
(4.38613 0.00221221 0.658726)
(3.88594 -0.043108 0.949931)
(4.03267 0.0511865 0.749969)
(3.7955 -1.35286 -4.14766)
(4.65082 0.0369021 -1.93917)
(4.03006 2.06823 -3.96732)
(2.5604 1.19241 -5.26333)
(3.04455 0.203189 -4.35272)
(2.55636 0.470507 -4.19931)
(3.91716 -0.593643 -5.80048)
(2.94801 -0.337076 -9.07446)
(3.62223 -0.0826146 -6.602)
(3.56464 -0.615326 -6.84488)
(3.99832 -0.328625 -5.54319)
(3.37461 0.0443849 -6.71197)
(2.33717 0.228691 0.518004)
(3.23854 -0.289416 1.34587)
(3.2115 -0.615362 1.17896)
(2.87921 0.0684542 1.23928)
(2.95607 0.0619569 1.50864)
(3.12546 0.0270204 1.28616)
(2.71043 -1.47938 -4.20483)
(4.50954 -0.05006 -0.650257)
(3.50756 1.88452 -3.20703)
(0.61539 0.461758 -6.01333)
(1.45346 0.0598988 -3.48246)
(0.460736 0.860856 -3.47448)
(1.73989 -0.779726 -4.9185)
(1.39745 -0.44334 -8.35741)
(2.05036 0.15265 -4.08844)
(2.8251 -0.145076 -3.08341)
(4.85799 -0.00552303 -0.537797)
(2.67838 0.0384812 -2.81484)
(0.832006 -0.14598 0.46942)
(3.05026 -0.240108 1.58778)
(2.46623 -0.328848 1.51028)
(1.95062 0.0809 1.49047)
(2.33654 -0.0282023 1.60643)
(2.45577 0.0306275 1.39985)
(-0.353984 -0.546332 -2.79907)
(3.54796 0.127298 -2.85083)
(1.29716 0.489325 -4.86582)
(-3.42581 -0.65957 -4.20446)
(2.80863 0.353335 -3.77994)
(-2.73006 0.199785 -4.08301)
(-0.539915 -0.786203 -4.91269)
(0.0964532 0.182348 -5.84122)
(2.25443 0.506816 -0.708761)
(5.00105 0.471925 1.30347)
(6.77888 0.466039 2.44779)
(4.00685 0.180018 1.15575)
(-0.164626 0.109379 -0.578022)
(-0.150026 -0.418689 -0.731572)
(0.240314 -0.266204 0.592557)
(-0.166747 0.0513277 -0.148025)
(-0.376635 0.125015 -0.837051)
(-0.245315 -0.0722799 -0.114466)
(-0.254139 0.068121 -0.884023)
(-0.23769 -0.172012 -1.00033)
(-0.127075 -0.132913 -0.0960583)
(-0.289734 0.146246 -0.591767)
(-0.234924 -0.0399581 -1.08547)
(-0.206724 -0.0932973 -0.957224)
(-0.114206 0.0143795 -0.992345)
(-0.107236 -0.0662225 -0.965538)
(-0.162668 -0.0555556 -0.696564)
(-0.114194 0.0994621 -0.975354)
(-0.0903632 0.0526461 -1.04121)
(-0.0898378 0.0128652 -0.994721)
(-0.377568 0.116686 -1.35815)
(-0.377889 0.015368 -1.70646)
(-0.43454 -0.121165 -1.64353)
(-0.458328 -0.151503 -1.60555)
(-0.439997 -0.196701 -1.59835)
(-0.360722 -0.189503 -0.894455)
(-0.271019 0.0585698 -1.43528)
(-0.305041 0.0434618 -1.57984)
(-0.319063 -0.044757 -1.36776)
(-0.28496 -0.0262633 -1.42824)
(-0.261061 -0.104458 -1.56267)
(-0.242491 -0.107065 -1.38265)
(-0.110946 0.0192022 -1.41328)
(-0.104614 -0.0260012 -1.43995)
(-0.113262 -0.0265946 -1.46792)
(-0.101245 0.0379776 -1.46542)
(-0.0934784 0.0111631 -1.40725)
(-0.0986622 -0.00983138 -1.34544)
(-0.292829 -0.0519987 -1.21702)
(-0.166521 -0.141963 -1.93032)
(-0.16233 -0.122374 -1.87507)
(-0.251229 -0.0491676 -1.82626)
(-0.310596 -0.117635 -1.88249)
(-0.257891 -0.0848966 -1.38478)
(-0.0926857 0.118565 -1.54258)
(-0.217177 0.0840283 -1.58585)
(-0.22278 -0.0299609 -1.39179)
(-0.225056 -0.0157276 -1.50356)
(-0.209984 -0.10468 -1.5998)
(-0.155354 -0.0866548 -1.44871)
(-0.107542 0.0114318 -1.44722)
(-0.0992055 -0.0310033 -1.49083)
(-0.0849532 -0.0224981 -1.54275)
(-0.0722514 0.0230323 -1.53538)
(-0.0699725 -0.00746721 -1.48697)
(-0.0699242 -0.0159344 -1.44199)
(-0.261088 -0.272783 -1.21361)
(0.0936318 -0.178623 -2.49872)
(0.0152635 -0.143646 -2.2988)
(0.0410836 -0.0191649 -2.29103)
(0.0476648 -0.0449645 -2.5028)
(-0.210816 -0.0902439 -1.56573)
(0.178278 0.189122 -1.73203)
(0.0434307 0.141948 -1.8432)
(-0.0994236 -0.0398534 -1.67188)
(-0.0779264 -0.0130536 -1.75829)
(0.053156 -0.114932 -1.90731)
(0.215966 -0.122162 -1.65839)
(-0.0774853 0.0302183 -1.5111)