/*--------------------------------*- C++ -*----------------------------------*\
| =========                 |                                                 |
| \\      /  F ield         | OpenFOAM: The Open Source CFD Toolbox           |
|  \\    /   O peration     | Version:  v1612+                                |
|   \\  /    A nd           | Web:      www.OpenFOAM.com                      |
|    \\/     M anipulation  |                                                 |
\*---------------------------------------------------------------------------*/
FoamFile
{
    version     2.0;
    format      ascii;
    class       volVectorField;
    location    "8.45";
    object      U;
}
// * * * * * * * * * * * * * * * * * * * * * * * * * * * * * * * * * * * * * //

dimensions      [0 1 -1 0 0 0 0];

internalField   nonuniform List<vector> 
320
(
(5.60174e-06 -1.28124e-05 2.4613e-05)
(-1.0918e-05 -8.36694e-06 3.61105e-06)
(-2.00703e-05 -6.85678e-06 -6.43347e-06)
(9.49706e-07 2.17737e-05 8.02875e-06)
(0.000302458 -6.10942e-05 -0.000158685)
(0.000123925 -0.000320581 -0.000108665)
(0.000541745 -0.000109732 -3.95698e-05)
(0.000357053 1.47707e-05 -1.7932e-06)
(0.000469561 -6.69851e-05 -0.000209335)
(7.6669e-05 0.000369456 -0.00012301)
(-0.000118271 0.000431171 -0.000190906)
(-0.00012081 4.22414e-05 -0.00016748)
(-0.000623501 0.000286485 -8.13005e-05)
(-0.00044751 -0.000327475 4.34864e-05)
(-0.000439402 0.000344809 0.000396773)
(-5.13194e-05 0.000395482 -6.61261e-05)
(1.58602e-05 -3.07699e-07 4.05553e-05)
(1.81136e-05 -3.20799e-06 3.95255e-05)
(5.00517e-05 1.1176e-06 5.69041e-06)
(1.75435e-05 -1.40388e-07 -2.08666e-05)
(3.32164e-05 -9.83692e-06 1.96611e-05)
(1.03129e-05 3.1156e-05 3.40472e-05)
(-1.7308e-05 2.12818e-05 4.19008e-05)
(-1.50143e-06 -1.51306e-05 1.32116e-05)
(-4.3536e-05 3.43245e-05 5.95206e-05)
(-3.2219e-05 -5.41883e-05 3.86509e-05)
(-4.32828e-05 4.20583e-06 -7.46981e-05)
(-1.70186e-05 1.92566e-05 2.66868e-05)
(-1.27538e-05 1.40571e-06 2.4872e-05)
(-1.3402e-05 4.65839e-06 3.24128e-05)
(-3.13895e-05 -6.67279e-07 4.16902e-06)
(-1.47516e-05 1.53995e-06 -2.36533e-05)
(-2.28153e-05 6.97643e-06 1.27066e-05)
(-1.0595e-05 -1.87608e-05 1.68856e-05)
(2.91544e-06 -1.14897e-05 2.23785e-05)
(-2.18357e-06 9.5746e-06 4.09532e-06)
(2.23321e-05 -1.97582e-05 3.77594e-05)
(1.60152e-05 2.95582e-05 2.84626e-05)
(1.96659e-05 -1.0616e-06 -3.95639e-05)
(6.04697e-06 -9.47803e-06 1.7994e-05)
(2.89002e-06 -7.41065e-06 9.47912e-06)
(-7.53273e-06 -4.52259e-06 -4.30648e-06)
(-1.06341e-05 -3.8613e-06 -4.42563e-07)
(6.45449e-07 1.19299e-05 -6.22044e-06)
(-6.48546e-06 1.12683e-06 8.73989e-06)
(-8.18894e-06 3.07888e-06 9.32896e-07)
(-1.74537e-05 -4.90507e-07 6.04533e-07)
(-8.92129e-06 1.42342e-06 1.31131e-06)
(-1.29054e-05 5.8333e-06 1.96956e-06)
(-6.69865e-06 -1.06363e-05 6.49133e-06)
(2.16188e-06 -7.05443e-06 8.22599e-06)
(-1.52925e-06 6.49505e-06 4.03106e-06)
(1.14876e-05 -1.15559e-05 9.83802e-06)
(8.50708e-06 1.63482e-05 5.80812e-06)
(1.03937e-05 -3.74221e-07 -1.04512e-05)
(3.63869e-06 -4.9145e-06 6.12564e-06)
(-0.000228334 4.5235e-05 -0.0001899)
(0.000501264 6.55926e-05 -4.94455e-05)
(8.06423e-05 -0.000155475 0.000124644)
(0.000275658 7.79675e-05 -8.96499e-05)
(0.000350478 0.000322292 0.000408036)
(0.000259499 -0.000241606 0.000440523)
(0.000168137 -4.03091e-05 0.00038322)
(0.000189218 -0.000519408 0.0004336)
(0.000151204 -0.000447822 -3.41785e-05)
(-0.000392911 3.25432e-05 -4.93071e-05)
(-0.0004114 0.000194706 0.000406922)
(0.000181271 0.000279495 0.000453643)
(0.00013808 0.000195635 -0.000148777)
(-0.000508796 0.000180184 0.000292423)
(0.000363521 -0.000202653 0.000418284)
(0.000108772 0.00010157 0.000433407)
(0.000219338 0.000271866 0.000435399)
(0.00045404 0.000683086 0.000139744)
(0.000296768 0.000146729 -6.4677e-05)
(0.000266524 0.000229308 0.000191226)
(-4.54475e-05 -1.25278e-05 -4.78312e-06)
(7.92752e-06 6.43454e-06 4.04893e-05)
(7.01547e-06 -2.52731e-05 -6.17176e-06)
(1.67375e-05 -2.03576e-06 6.38423e-06)
(-3.74701e-06 4.59484e-05 -8.10385e-05)
(1.28038e-05 -2.4059e-06 -0.00010841)
(-1.43165e-05 2.41955e-06 -9.13049e-05)
(-1.60911e-05 -4.84046e-05 -0.000129069)
(3.60235e-06 -5.53614e-05 9.70743e-06)
(-3.68808e-05 -1.16203e-05 1.10547e-05)
(-4.34387e-05 1.53397e-05 -9.59611e-05)
(3.87978e-05 2.37117e-06 -0.000103299)
(1.78661e-05 -3.87443e-06 5.87555e-05)
(-3.77832e-05 7.95769e-06 -6.58034e-05)
(3.23058e-05 -4.77752e-05 -6.73346e-05)
(-2.61219e-05 -9.56908e-06 -8.42909e-05)
(8.83889e-06 1.61895e-05 -8.69372e-05)
(3.03233e-05 4.06755e-05 -1.7275e-05)
(7.82908e-06 -2.47665e-06 1.38216e-05)
(3.08846e-05 1.43532e-05 -6.93492e-05)
(2.17619e-05 1.02725e-05 2.51912e-07)
(-8.53461e-06 1.15465e-07 1.98952e-05)
(-8.84439e-06 1.64847e-05 -7.09148e-07)
(-1.19712e-05 2.76933e-06 -1.31919e-06)
(1.89447e-07 -2.49089e-05 -4.33693e-05)
(-1.27135e-05 1.88511e-06 -4.76394e-05)
(9.10245e-06 2.05927e-07 -4.98907e-05)
(7.19814e-06 2.59381e-05 -6.11393e-05)
(-3.04394e-06 2.71025e-05 4.87774e-06)
(1.71621e-05 4.80808e-06 8.3116e-06)
(1.57817e-05 -7.27823e-06 -5.86838e-05)
(-2.73842e-05 8.5221e-08 -4.99637e-05)
(-1.17993e-05 2.14063e-06 4.24801e-05)
(1.9693e-05 -2.90273e-06 -3.58031e-05)
(-1.73148e-05 2.69231e-05 -3.82662e-05)
(1.30131e-05 5.89581e-06 -4.70679e-05)
(-3.76952e-06 -9.53137e-06 -4.80672e-05)
(-1.47523e-05 -2.27829e-05 -9.03886e-06)
(-2.74774e-06 3.50423e-06 8.76051e-06)
(-1.63019e-05 -2.39062e-06 -4.65467e-05)
(1.20975e-05 6.6552e-06 -2.85258e-06)
(-5.1032e-06 1.6158e-06 8.26092e-06)
(-5.91523e-06 1.07705e-05 -6.29256e-06)
(-7.25526e-06 2.92417e-06 2.92666e-06)
(9.43099e-07 -1.28181e-05 -1.55246e-05)
(-7.15359e-06 1.41321e-06 -2.18355e-05)
(4.87885e-06 2.58718e-08 -1.59707e-05)
(4.3466e-06 1.41534e-05 -2.30141e-05)
(-3.13287e-06 1.41122e-05 1.31441e-06)
(9.11791e-06 2.53113e-06 -3.62136e-06)
(8.26245e-06 -4.69397e-06 -1.41124e-05)
(-1.64876e-05 -5.05197e-07 -1.71242e-05)
(-6.13188e-06 1.76659e-06 6.64191e-06)
(1.17281e-05 -2.24156e-06 -1.0337e-05)
(-9.95421e-06 1.44771e-05 -9.26732e-06)
(8.43848e-06 3.27528e-06 -1.21105e-05)
(-2.07792e-06 -4.95645e-06 -1.27463e-05)
(-8.40619e-06 -1.22797e-05 -3.75533e-06)
(-6.43644e-07 2.83124e-06 3.22241e-06)
(-9.36262e-06 -9.78491e-07 -8.508e-06)
(-1.05286e-06 -4.1352e-06 2.33287e-06)
(-2.62119e-06 -1.61819e-06 3.72844e-07)
(-8.35346e-06 -1.55561e-06 -5.1671e-07)
(-1.75415e-06 8.47931e-06 1.34626e-06)
(-7.58511e-06 4.97242e-07 3.00995e-06)
(-5.78175e-06 3.1622e-06 4.4054e-06)
(-8.72794e-06 1.01966e-06 2.79092e-07)
(-3.36914e-06 -1.07682e-07 -2.48676e-06)
(-6.25016e-06 1.20156e-06 1.72825e-06)
(-3.83094e-06 -3.79338e-06 1.69602e-06)
(1.36021e-07 -9.34771e-07 3.46002e-06)
(-1.2484e-06 1.90865e-06 -2.20012e-08)
(6.10163e-06 -4.12237e-06 3.95065e-06)
(3.40386e-06 8.67477e-06 3.84948e-06)
(6.20034e-06 -8.49838e-07 -3.29385e-06)
(1.19642e-06 -8.45885e-07 3.20122e-06)
(5.45301e-06 3.54906e-06 8.97111e-08)
(-5.06093e-06 -4.40469e-07 1.37076e-06)
(-3.14359e-06 3.83969e-06 2.07801e-07)
(-2.55558e-06 -9.04404e-07 -1.12359e-06)
(-2.23565e-06 -5.99965e-06 -4.40565e-06)
(-5.35268e-06 2.34864e-06 -4.41145e-06)
(-8.23555e-07 8.59584e-07 -5.34874e-06)
(-8.13361e-07 8.01748e-06 -5.54774e-06)
(-2.06371e-06 7.32899e-06 4.31387e-07)
(2.08569e-06 7.61347e-07 1.00095e-06)
(2.01373e-06 -3.39894e-06 -5.65901e-06)
(-7.45629e-06 -4.2306e-07 -5.08396e-06)
(-5.16584e-06 3.72788e-07 3.67837e-06)
(3.71263e-06 2.17126e-07 -4.01284e-06)
(-5.67759e-06 6.48912e-06 -4.25387e-06)
(2.58703e-06 1.60001e-06 -5.47496e-06)
(-2.78574e-06 -1.45702e-06 -5.59679e-06)
(-4.295e-06 -6.34273e-06 -1.89525e-06)
(-3.23016e-06 -2.50131e-07 -3.54709e-08)
(-6.53502e-06 -1.10549e-06 -5.44786e-06)
(0.000638364 0.000283874 -6.87226e-05)
(0.000112006 -3.51972e-05 9.46423e-06)
(0.000504988 -5.71648e-05 -2.65285e-05)
(0.000113274 -4.07911e-05 0.000182689)
(6.81596e-05 -8.8952e-05 1.49005e-05)
(0.000139756 0.000167942 1.44846e-05)
(-0.000565454 0.000119297 -0.000236517)
(-0.000620032 0.000195538 1.19761e-05)
(-0.000693588 -0.000289732 -5.10916e-05)
(-0.000667492 -5.28607e-05 -0.000223236)
(-0.000707359 -8.299e-05 -0.00013159)
(-0.000236292 -0.000211787 -8.59767e-05)
(-0.000470245 0.00012094 -0.000277611)
(-0.000147659 -6.11968e-05 5.43807e-06)
(7.9525e-05 -0.000384374 -0.000106409)
(-0.000169273 -0.000532885 -0.00015626)
(-0.00011993 -0.000623791 -5.18302e-05)
(-2.33372e-05 -0.000234761 -4.28698e-05)
(-0.00022876 -0.000464116 -1.29531e-05)
(0.00024278 -0.000512111 -9.19153e-05)
(0.000171076 -0.000345034 -0.000235886)
(0.000337511 4.46423e-05 -6.08829e-05)
(0.000416625 0.000142401 -0.000128399)
(0.000379257 1.88694e-05 -0.000132817)
(0.000164853 0.000421824 -0.000111424)
(0.000118838 0.000203862 -0.000135109)
(0.000223876 0.000389774 -0.000112135)
(0.000278586 0.000338593 -0.000468423)
(3.953e-05 3.7217e-05 1.13161e-05)
(-9.10787e-06 9.08599e-06 -1.0746e-05)
(2.86049e-05 8.83225e-07 2.75726e-05)
(2.65907e-05 -1.15976e-05 -6.36479e-05)
(-2.11552e-05 -1.86884e-05 -3.9358e-05)
(-3.65571e-05 2.62925e-05 1.8039e-05)
(-5.19158e-05 1.41215e-05 9.20438e-05)
(-6.40889e-05 4.73046e-05 2.58986e-05)
(-5.05588e-05 -9.45405e-06 -3.81927e-05)
(-7.11315e-05 -2.90186e-05 7.61202e-05)
(-8.19704e-05 8.078e-06 8.95063e-05)
(-1.468e-05 1.03666e-05 1.92408e-05)
(-1.62596e-05 2.25509e-05 2.55696e-05)
(1.94899e-05 6.64354e-06 -3.036e-05)
(1.08145e-05 -2.91019e-05 3.2775e-05)
(-3.68086e-06 -4.10526e-05 2.16609e-05)
(1.89908e-06 -6.88465e-05 5.0668e-05)
(-7.08402e-06 -4.16181e-06 1.31125e-05)
(3.54209e-07 -4.38956e-05 1.84061e-05)
(1.85487e-05 -4.22889e-05 4.99774e-05)
(1.42044e-05 -3.01429e-05 6.75139e-05)
(2.63511e-05 -3.67204e-05 7.15135e-06)
(2.52619e-05 1.08607e-05 -1.74032e-05)
(4.67788e-05 2.24886e-06 4.19698e-05)
(1.13281e-05 3.2019e-06 5.53189e-06)
(9.31279e-06 1.98142e-05 5.99179e-06)
(3.3613e-05 1.91718e-05 4.30856e-05)
(1.41386e-05 1.77398e-05 6.86671e-05)
(-2.18725e-05 -1.67705e-05 2.10104e-06)
(3.54522e-06 -3.1139e-06 -6.54492e-06)
(-1.89655e-05 1.44431e-06 8.04818e-06)
(-1.60575e-05 7.31763e-06 -3.63662e-05)
(9.99471e-06 8.65753e-06 -3.20725e-05)
(1.63302e-05 -1.46511e-05 1.63382e-05)
(2.47688e-05 -7.47607e-06 4.7713e-05)
(3.19436e-05 -2.62645e-05 1.29154e-05)
(2.34133e-05 8.24611e-06 -2.77183e-05)
(3.83075e-05 2.14595e-05 3.66085e-05)
(4.46583e-05 -5.17644e-06 5.86431e-05)
(7.20181e-06 -8.81315e-06 4.20673e-06)
(8.74404e-06 -1.21511e-05 1.11309e-05)
(-9.75131e-06 -2.93851e-06 -2.59228e-05)
(-7.9188e-06 1.55558e-05 1.36814e-05)
(-5.87907e-06 2.21398e-05 9.77085e-06)
(-6.50122e-06 3.72118e-05 3.02033e-05)
(8.07004e-07 1.25596e-06 6.05628e-06)
(-2.45375e-06 2.46058e-05 8.09801e-06)
(-9.58383e-06 2.34012e-05 3.05385e-05)
(-7.53745e-06 1.68792e-05 3.57359e-05)
(-1.40599e-05 1.97028e-05 6.53843e-06)
(-1.4761e-05 -6.21032e-06 -1.29381e-05)
(-2.61703e-05 1.78717e-06 2.71619e-05)
(-3.44599e-06 -3.83387e-08 4.33129e-06)
(-3.42769e-06 -1.10273e-05 -2.52911e-06)
(-1.79779e-05 -8.85302e-06 2.64981e-05)
(-9.89428e-06 -8.68762e-06 2.9507e-05)
(-1.17494e-05 -9.6035e-06 3.80754e-06)
(1.04476e-06 -1.06552e-06 -1.71242e-06)
(-1.06011e-05 1.4489e-06 7.25256e-06)
(-9.49799e-06 4.43264e-06 -1.20085e-05)
(6.13401e-06 5.03151e-06 -3.01087e-06)
(9.93874e-06 -8.95662e-06 -2.93719e-06)
(1.25795e-05 -3.96484e-06 1.25306e-05)
(1.75714e-05 -1.41674e-05 5.49464e-06)
(1.12295e-05 3.44484e-06 -6.91838e-06)
(1.96027e-05 1.29214e-05 1.10714e-05)
(2.41236e-05 -2.17762e-06 9.74199e-06)
(3.27344e-06 -5.8641e-06 5.35561e-06)
(4.14823e-06 -7.02657e-06 1.67924e-06)
(-6.28433e-06 -2.61477e-06 -2.82574e-06)
(-5.46623e-06 7.81757e-06 4.67469e-06)
(-3.66269e-06 1.19693e-05 2.56121e-06)
(-4.29815e-06 1.97414e-05 8.65712e-06)
(2.07253e-07 -2.1877e-07 5.45461e-06)
(-1.22204e-06 1.34025e-05 6.41934e-06)
(-5.57083e-06 1.27306e-05 7.98841e-06)
(-4.32371e-06 9.01932e-06 1.29964e-05)
(-8.03512e-06 1.17668e-05 1.73745e-06)
(-7.03358e-06 -3.68064e-06 -6.07314e-07)
(-1.49899e-05 -4.95026e-07 6.67138e-06)
(-2.57225e-06 1.05996e-06 -9.88828e-07)
(-1.65086e-06 -5.87049e-06 5.06695e-06)
(-1.1274e-05 -4.45104e-06 6.45806e-06)
(-5.12373e-06 -3.45331e-06 1.22277e-05)
(-8.31814e-06 -4.4942e-06 -3.96763e-07)
(5.31397e-07 -1.38617e-06 -4.86262e-07)
(-7.87576e-06 4.27331e-07 4.76759e-07)
(-5.31783e-06 1.42867e-06 -2.73316e-06)
(1.11139e-06 2.60162e-06 -3.49955e-06)
(5.63889e-07 -2.23835e-06 2.36517e-06)
(9.11475e-06 -1.98008e-07 5.6877e-06)
(1.11551e-05 -6.8209e-06 2.03633e-06)
(8.29353e-06 2.43172e-06 -1.62789e-06)
(1.12382e-05 4.43146e-06 2.98146e-06)
(1.18652e-05 -3.85182e-08 6.68335e-06)
(3.18225e-06 -8.9425e-07 4.32232e-07)
(3.64225e-06 -3.83313e-06 1.58725e-06)
(-1.41224e-06 1.64566e-06 -2.55368e-06)
(-2.49795e-06 6.70014e-06 1.96413e-06)
(-2.64665e-06 6.22934e-06 3.35358e-07)
(-3.63567e-06 1.13604e-05 3.26627e-06)
(-1.88859e-06 2.40878e-06 1.07345e-06)
(-1.46576e-08 8.0832e-06 1.3775e-06)
(-2.84621e-06 6.13598e-06 2.39518e-06)
(-2.6453e-06 5.25175e-06 4.01481e-06)
(-3.52954e-06 5.65027e-06 3.89557e-07)
(-3.48413e-06 -1.23068e-06 -1.83828e-06)
(-6.36013e-06 1.79293e-06 2.88272e-06)
(-2.34185e-07 -1.29419e-06 1.96978e-07)
(-1.31164e-06 -3.08595e-06 2.46407e-07)
(-3.07007e-06 -1.53905e-06 2.79296e-06)
(-1.74524e-06 -3.16938e-06 3.1764e-06)
(-0.000215092 0.000286023 -0.000114596)
(3.08978e-05 3.21185e-05 -0.000169469)
(-7.26997e-06 8.28514e-05 -1.44675e-06)
(-0.000147563 -0.000235772 -0.000237349)
(-1.45367e-05 2.54685e-05 5.04656e-05)
(8.44335e-06 1.92601e-05 -3.87948e-06)
(3.0923e-05 1.5917e-05 -1.15092e-05)
(-7.4954e-06 -4.11567e-05 -1.3859e-06)
)
;

boundaryField
{
    top_fluid_surface
    {
        type            pressureInletOutletVelocity;
        value           nonuniform List<vector> 
64
(
(0 0 -0.000158685)
(0 0 -0.000108665)
(0 0 -3.95698e-05)
(0 0 -1.7932e-06)
(0 0 -0.000209335)
(0 0 -0.00012301)
(0 0 -0.000190906)
(0 0 -0.00016748)
(0 0 -8.13005e-05)
(-0.00044751 -0.000327475 4.34864e-05)
(-0.000439402 0.000344809 0.000396773)
(0 0 -6.61261e-05)
(0 0 -0.0001899)
(0 0 -4.94455e-05)
(8.06423e-05 -0.000155475 0.000124644)
(0 0 -8.96499e-05)
(0.000350478 0.000322292 0.000408036)
(0.000259499 -0.000241606 0.000440523)
(0.000168137 -4.03091e-05 0.00038322)
(0.000189218 -0.000519408 0.0004336)
(0 0 -3.41785e-05)
(0 0 -4.93071e-05)
(-0.0004114 0.000194706 0.000406922)
(0.000181271 0.000279495 0.000453643)
(0 0 -0.000148777)
(-0.000508796 0.000180184 0.000292423)
(0.000363521 -0.000202653 0.000418284)
(0.000108772 0.00010157 0.000433407)
(0.000219338 0.000271866 0.000435399)
(0.00045404 0.000683086 0.000139744)
(0 0 -6.4677e-05)
(0.000266524 0.000229308 0.000191226)
(0 0 -6.87226e-05)
(0.000112006 -3.51972e-05 9.46423e-06)
(0 0 -2.65285e-05)
(0.000113274 -4.07911e-05 0.000182689)
(0 0 1.49005e-05)
(0.000139756 0.000167942 1.44846e-05)
(0 0 -0.000236517)
(-0.000620032 0.000195538 1.19761e-05)
(0 0 -5.10916e-05)
(0 0 -0.000223236)
(0 0 -0.00013159)
(0 0 -8.59767e-05)
(0 0 -0.000277611)
(0 0 5.43807e-06)
(0 0 -0.000106409)
(0 0 -0.00015626)
(0 0 -5.18302e-05)
(0 0 -4.28698e-05)
(0 0 -1.29531e-05)
(0 0 -9.19153e-05)
(0 0 -0.000235886)
(0 0 -6.08829e-05)
(0 0 -0.000128399)
(0 0 -0.000132817)
(0 0 -0.000111424)
(0 0 -0.000135109)
(0 0 -0.000112135)
(0 0 -0.000468423)
(0 0 -0.000114596)
(0 0 -0.000169469)
(0 0 -1.44675e-06)
(0 0 -0.000237349)
)
;
    }
    bottom_fluid_surface
    {
        type            noSlip;
    }
    lateral_surface_1
    {
        type            noSlip;
    }
    lateral_surface_2
    {
        type            noSlip;
    }
    lateral_surface_3
    {
        type            noSlip;
    }
    lateral_surface_4
    {
        type            noSlip;
    }
}


// ************************************************************************* //
