/*--------------------------------*- C++ -*----------------------------------*\
| =========                 |                                                 |
| \\      /  F ield         | OpenFOAM: The Open Source CFD Toolbox           |
|  \\    /   O peration     | Version:  v1612+                                |
|   \\  /    A nd           | Web:      www.OpenFOAM.com                      |
|    \\/     M anipulation  |                                                 |
\*---------------------------------------------------------------------------*/
FoamFile
{
    version     2.0;
    format      ascii;
    class       volScalarField;
    location    "7.8";
    object      alpha.water;
}
// * * * * * * * * * * * * * * * * * * * * * * * * * * * * * * * * * * * * * //

dimensions      [0 0 0 0 0 0 0];

internalField   nonuniform List<scalar> 
320
(
1
1
1
1
1.84693e-05
1.87284e-05
1.87791e-05
1.98019e-05
1.82288e-05
1.84499e-05
1.80925e-05
1.81357e-05
1.99148e-05
1.94608e-05
1.63173e-05
1.87854e-05
0.999979
0.999976
0.999978
0.999982
0.999976
0.999982
0.999977
0.999976
0.999976
0.999982
0.99999
0.99998
1
1
1
1
1
1
1
1
1
1
1
1
1
1
1
1
1
1
1
1
1
1
1
1
1
1
1
1
1.80063e-05
1.97245e-05
1.78837e-05
1.95599e-05
1.70061e-05
1.53667e-05
1.5052e-05
1.46444e-05
1.82648e-05
1.84695e-05
1.52468e-05
1.46297e-05
1.81612e-05
1.51426e-05
1.47911e-05
1.52424e-05
1.58048e-05
1.76315e-05
1.93536e-05
1.57778e-05
0.999979
0.999978
0.999988
0.999982
0.999992
0.999993
0.999992
0.999992
0.999982
0.999987
0.999993
0.999992
0.999978
0.999987
0.999991
0.99999
0.999989
0.999985
0.999978
0.999988
1
1
1
1
1
1
1
1
1
1
1
1
1
1
1
1
1
1
1
1
1
1
1
1
1
1
1
1
1
1
1
1
1
1
1
1
1
1
1
1
1
1
1
1
1
1
1
1
1
1
1
1
1
1
1
1
1
1
1
1
1
1
1
1
1
1
1
1
1
1
1
1
1
1
1
1
1.82234e-05
1.91397e-05
2.01802e-05
1.85078e-05
1.821e-05
1.81194e-05
2.27254e-05
1.88152e-05
1.78013e-05
1.96265e-05
1.97617e-05
1.93757e-05
2.12189e-05
1.90215e-05
2.03511e-05
2.11569e-05
1.9493e-05
1.80181e-05
1.84168e-05
1.81452e-05
1.80507e-05
1.85149e-05
2.10218e-05
1.86871e-05
1.77744e-05
1.79092e-05
1.81994e-05
1.98915e-05
0.999983
0.999978
0.999981
0.99999
0.999984
0.999984
0.999979
0.999983
0.999984
0.999978
0.999979
0.99998
0.999977
0.999984
0.999981
0.999977
0.999978
0.999979
0.999983
0.999978
0.999978
0.999978
0.999974
0.999979
0.99998
0.999976
0.99998
0.999973
1
1
1
1
1
1
1
1
1
1
1
1
1
1
1
1
1
1
1
1
1
1
1
1
1
1
1
1
1
1
1
1
1
1
1
1
1
1
1
1
1
1
1
1
1
1
1
1
1
1
1
1
1
1
1
1
1
1
1
1
1
1
1
1
1
1
1
1
1
1
1
1
1
1
1
1
1
1
1
1
1
1
1
1
1.79838e-05
1.89244e-05
1.88131e-05
1.83522e-05
0.999978
0.999974
0.999978
0.999974
)
;

boundaryField
{
    top_fluid_surface
    {
        type            inletOutlet;
        inletValue      uniform 0;
        value           nonuniform List<scalar> 
64
(
0
0
0
1.98019e-05
0
0
0
1.81357e-05
0
0
1.63173e-05
0
0
0
1.78837e-05
0
1.70061e-05
1.53667e-05
1.5052e-05
1.46444e-05
0
1.84695e-05
1.52468e-05
1.46297e-05
0
1.51426e-05
1.47911e-05
1.52424e-05
1.58048e-05
1.76315e-05
0
1.57778e-05
0
0
0
0
0
0
0
0
1.78013e-05
0
0
0
0
1.90215e-05
0
0
0
1.80181e-05
0
0
0
0
0
0
1.77744e-05
1.79092e-05
1.81994e-05
0
0
0
0
0
)
;
    }
    bottom_fluid_surface
    {
        type            zeroGradient;
    }
    lateral_surface_1
    {
        type            zeroGradient;
    }
    lateral_surface_2
    {
        type            zeroGradient;
    }
    lateral_surface_3
    {
        type            zeroGradient;
    }
    lateral_surface_4
    {
        type            zeroGradient;
    }
}


// ************************************************************************* //
