/*--------------------------------*- C++ -*----------------------------------*\
| =========                 |                                                 |
| \\      /  F ield         | OpenFOAM: The Open Source CFD Toolbox           |
|  \\    /   O peration     | Version:  v1612+                                |
|   \\  /    A nd           | Web:      www.OpenFOAM.com                      |
|    \\/     M anipulation  |                                                 |
\*---------------------------------------------------------------------------*/
FoamFile
{
    version     2.0;
    format      ascii;
    class       surfaceScalarField;
    location    "7.8";
    object      phi;
}
// * * * * * * * * * * * * * * * * * * * * * * * * * * * * * * * * * * * * * //

dimensions      [0 3 -1 0 0 0 0];

internalField   nonuniform List<scalar> 
816
(
-5.1154e-07
-1.02054e-05
4.94716e-06
-1.28421e-05
-1.55575e-05
3.41691e-05
6.04525e-06
3.57198e-06
-6.6919e-06
5.54678e-06
-8.99201e-06
-7.83822e-06
1.62346e-06
1.92203e-06
6.29048e-06
-1.22054e-05
-5.6626e-06
7.68197e-06
6.97208e-06
-1.07865e-05
7.96583e-05
-4.19138e-05
2.94256e-06
-0.000278932
0.000354418
0.000139129
-2.41395e-06
-9.68136e-05
0.000156911
0.000260561
-1.1213e-05
-0.000274456
0.000264389
0.000216667
-3.3395e-06
5.79277e-05
-4.22528e-05
0.000205169
8.17722e-06
0.000123518
-6.22774e-05
0.000179164
5.06959e-07
-0.000104847
0.000189963
0.000145459
1.14605e-06
0.000165629
-0.000122787
0.000154057
1.56783e-05
0.000151104
-0.000206753
-7.99641e-05
-1.35087e-06
0.00044725
0.000294405
-3.28059e-05
7.78018e-06
0.000181081
-5.42228e-05
-0.000290906
3.07005e-06
0.000124987
-0.000271955
9.11155e-06
-0.000192676
2.85964e-05
2.31013e-05
-4.20512e-06
-2.87644e-05
-4.36377e-07
1.35501e-05
3.0458e-05
-3.10182e-05
1.23537e-05
7.49313e-06
1.38561e-06
-1.90902e-06
-4.78653e-06
3.09914e-05
-7.21215e-06
1.6813e-05
-2.25756e-06
-1.3044e-05
6.92174e-06
-9.22881e-06
1.02375e-05
-9.3868e-06
-7.59417e-07
-2.61961e-05
8.46534e-06
2.62896e-05
5.6124e-06
-3.01588e-05
7.69909e-06
1.45039e-05
2.00589e-05
-8.49623e-07
-1.40012e-05
3.68479e-06
5.56183e-06
-4.50504e-05
1.83675e-05
3.33745e-05
2.31221e-05
-2.643e-05
1.16087e-05
5.8069e-06
-1.14315e-05
5.11716e-05
7.16462e-06
-2.16133e-05
-1.54917e-05
3.28205e-06
5.94217e-06
-1.05195e-05
1.22058e-06
-1.4228e-05
-2.97302e-07
-1.69915e-05
-1.22328e-05
-8.72487e-06
1.49193e-06
-4.30826e-07
-2.03834e-06
-1.79274e-05
4.40384e-06
6.68059e-06
5.08787e-07
-3.7463e-06
-3.18523e-06
-3.5571e-06
1.60006e-07
-1.37467e-05
-4.80035e-06
-1.15562e-05
-3.82594e-06
-1.37778e-05
-4.71232e-06
-8.8663e-06
3.35781e-07
5.45171e-06
-6.52796e-06
-2.01881e-05
-9.33898e-06
-1.78504e-05
-1.33345e-05
-1.31932e-05
-4.51836e-06
4.41264e-06
2.20179e-05
-1.44618e-06
-8.23829e-06
-3.20697e-07
-1.30464e-06
-1.0317e-06
-6.29193e-06
3.22912e-06
-6.50006e-06
-4.97135e-06
3.11209e-06
2.63654e-06
-3.90353e-06
2.689e-06
-4.27498e-06
1.19065e-06
1.66372e-06
1.40029e-06
-2.52486e-06
4.64017e-06
3.70822e-06
-6.10708e-06
2.8127e-07
-4.56528e-07
-4.70998e-06
-9.28844e-06
-4.58875e-06
-1.81526e-06
4.87474e-07
-1.07177e-06
-9.38302e-06
2.58648e-07
3.13394e-06
4.52871e-07
-3.25462e-07
-8.92152e-07
-6.4118e-07
-1.03399e-06
-1.05117e-06
-2.82418e-06
-6.42598e-06
-4.33296e-06
-2.89727e-06
-2.2277e-06
-5.05143e-06
-4.48723e-06
3.96451e-06
-8.85877e-07
-2.63203e-06
-6.14767e-06
-1.0278e-05
-5.63644e-06
-7.51974e-06
-2.90691e-06
-3.70975e-06
2.17608e-06
-9.23755e-07
6.75608e-06
-8.75602e-07
-1.88675e-06
-3.03597e-06
-0.000279438
0.000278554
9.69525e-06
-0.000192562
2.35774e-06
2.51066e-06
-0.000203806
-2.61615e-05
-2.56793e-06
-0.000134087
8.64954e-05
4.12622e-06
-9.84803e-05
0.000377741
4.36175e-06
-0.000351895
-0.000233758
0.000196831
4.93174e-06
-0.000187529
-5.13825e-05
-4.82287e-06
-0.000365787
-0.000358474
-1.6196e-06
-0.00040227
-0.000261366
2.08141e-06
-0.000195932
0.000454144
-1.08663e-05
-0.000468464
-0.000283777
0.000228676
-1.37045e-05
-0.000289532
-6.05803e-05
2.9581e-06
-0.000320585
0.0001804
1.25963e-05
-3.11316e-05
5.01519e-05
-8.25916e-06
-0.000169921
-8.97326e-05
-1.24149e-06
-0.000230064
-0.00032188
-0.000250899
-1.63446e-06
-0.000270545
-0.000421365
-6.34891e-06
-0.000192905
-0.00034813
2.48481e-06
-4.1745e-05
-6.22758e-05
9.57188e-06
-1.12712e-06
3.05436e-06
-0.000249445
-5.46973e-05
-1.47654e-05
8.41325e-06
1.19367e-05
7.80954e-06
1.17855e-05
-2.46586e-05
6.93331e-07
1.00617e-05
-3.73498e-06
1.51245e-05
6.06109e-06
-2.92712e-06
5.7412e-06
2.12491e-05
5.49873e-05
-3.50045e-05
-3.0669e-05
8.62968e-07
6.60134e-05
-1.14271e-05
-1.79414e-05
5.57967e-05
-4.43743e-05
-4.48669e-05
8.05406e-05
-4.49616e-05
-2.16563e-05
-5.36604e-06
-4.82029e-06
2.39936e-05
-1.64798e-05
-1.83308e-05
-1.82214e-05
-7.62595e-06
6.07155e-05
-8.70957e-06
-3.13363e-05
6.71025e-05
-3.18251e-05
1.15457e-05
-4.23291e-05
-2.43182e-06
4.01321e-06
4.19129e-05
-2.22397e-05
2.55573e-05
4.19423e-05
-4.1107e-05
-2.32521e-05
-1.46904e-06
5.444e-05
4.90729e-06
-2.71393e-05
5.70651e-05
-2.71735e-05
-1.90692e-05
1.13273e-05
-9.66149e-06
2.30514e-07
-2.30415e-06
-2.09913e-06
5.07789e-05
-1.61299e-05
-2.55217e-05
7.4491e-06
1.12915e-07
6.30237e-06
-2.25264e-06
-5.85886e-06
-1.16359e-05
-3.83882e-08
-6.58884e-06
-5.53152e-07
-1.11779e-05
-4.00433e-06
-1.68614e-06
-5.84147e-06
-8.77328e-06
2.50569e-05
1.7323e-05
1.73691e-05
2.24724e-06
2.9545e-05
7.53712e-06
1.04978e-05
2.50871e-05
2.2971e-05
2.50167e-05
3.59264e-05
2.65379e-05
1.5111e-05
-3.13929e-06
2.88006e-06
-1.61881e-05
-6.8677e-06
1.15075e-05
1.01759e-05
8.19175e-07
2.68695e-05
5.30398e-06
1.60657e-05
2.95549e-05
1.76137e-05
-3.7908e-06
-1.90457e-05
1.9847e-06
-1.7989e-06
2.00706e-05
1.04963e-05
-1.39451e-05
1.89863e-05
2.22703e-05
1.28397e-05
7.77765e-07
2.37022e-05
-1.86011e-06
1.36595e-05
2.61154e-05
1.35466e-05
9.10137e-06
5.22376e-06
9.21219e-06
2.19022e-06
-1.00242e-06
4.29216e-06
2.28826e-05
1.2e-05
1.81697e-05
4.78907e-06
-2.42972e-07
2.58584e-06
-1.73405e-06
-2.95515e-06
-3.7779e-06
-6.03351e-07
-3.93283e-06
2.12333e-06
-6.30275e-06
-2.02531e-06
-8.65754e-07
-3.80688e-06
-4.83704e-06
8.1389e-06
9.87208e-06
9.84135e-06
8.90593e-07
1.08823e-05
3.54323e-06
6.02218e-06
8.13067e-06
1.22743e-05
1.41505e-05
1.18616e-05
1.52849e-05
8.44226e-06
-1.1531e-06
8.8765e-07
-9.49921e-06
-3.13508e-07
6.2537e-06
5.14303e-06
3.61438e-07
7.64619e-06
2.93745e-06
8.54558e-06
9.68224e-06
9.48689e-06
-3.19785e-06
-4.23677e-06
9.18912e-07
-1.32764e-06
6.31399e-06
5.75699e-06
-7.51117e-06
5.61399e-06
1.21008e-05
7.46589e-06
4.89936e-07
7.67884e-06
-2.24258e-06
7.63134e-06
8.3735e-06
7.68906e-06
4.47433e-06
2.53167e-06
4.91549e-06
7.64017e-07
-3.09373e-07
1.10472e-06
5.88294e-06
6.80556e-06
1.06606e-05
-3.00461e-07
-3.15918e-06
1.76693e-06
-3.27394e-06
2.96659e-06
-1.95869e-07
-3.69063e-07
-3.73902e-06
2.15436e-07
1.77868e-06
-1.52765e-06
4.47629e-06
-5.28844e-06
1.84943e-06
5.03308e-07
-4.73167e-06
-2.56554e-06
8.55363e-07
-2.18321e-07
-5.11222e-06
5.1214e-07
-3.55483e-07
-5.66749e-07
-1.48197e-06
-6.74004e-07
-1.21332e-06
-3.02502e-06
-1.27721e-06
1.60932e-08
-3.06392e-06
1.13609e-06
-2.35886e-06
-1.54544e-06
-4.78441e-06
-3.73289e-06
-5.30866e-07
7.45012e-07
-9.87203e-07
-1.07203e-06
6.07029e-07
1.12276e-06
8.80451e-07
-5.24154e-07
-2.59298e-06
3.97013e-07
-9.85719e-07
-2.06753e-06
-1.09137e-06
-9.82758e-07
-1.59885e-06
3.50769e-06
5.13164e-06
1.75864e-06
2.39322e-06
3.84346e-06
5.68344e-06
7.87904e-06
6.32045e-06
4.1084e-06
1.37638e-06
-3.22915e-06
3.19058e-06
3.81589e-06
1.22971e-07
1.23523e-06
4.32632e-06
5.51317e-06
-1.14828e-07
1.36543e-06
3.89955e-07
4.27812e-06
-3.46364e-06
5.71866e-06
3.75781e-06
-1.38054e-07
-4.08217e-07
3.67385e-06
4.0206e-06
3.29774e-06
1.90283e-06
1.47176e-06
2.10273e-06
3.49208e-06
4.70096e-06
-5.2409e-05
-6.35255e-05
-6.63467e-06
-0.000114506
-1.17354e-06
9.61592e-05
-1.50203e-06
-3.37413e-05
9.58955e-06
-0.000133533
7.40316e-06
-0.000460047
6.7527e-06
0.0004825
3.44633e-06
0.00038581
-2.67575e-06
7.37139e-05
-4.27628e-06
4.24765e-05
4.25483e-06
-3.05868e-05
-4.22031e-06
4.30994e-06
5.83e-08
8.28978e-06
-1.36687e-05
3.87974e-05
-1.25114e-06
0.000139511
-1.4672e-05
0.000296201
-5.2742e-06
0.000248965
4.87898e-06
0.000209822
-2.55072e-06
9.94372e-05
3.76389e-06
-7.42466e-05
-2.84272e-06
-1.22024e-05
4.56279e-07
-0.000262517
-9.67707e-07
-2.83891e-05
-2.81182e-06
-6.84362e-05
6.12264e-06
-0.00019038
-6.88084e-06
-0.000223675
-4.51895e-06
-0.000271688
-7.46274e-06
-7.47463e-06
1.04334e-05
-2.42613e-05
-1.35923e-05
6.18548e-06
1.10672e-05
2.28208e-05
-1.71156e-05
-1.01549e-06
4.76225e-05
-2.30168e-05
3.54448e-05
-3.53641e-05
-1.56953e-05
2.90393e-05
-6.08338e-05
1.90485e-05
-2.28741e-05
-2.26772e-05
2.63035e-05
-9.85378e-06
-5.25885e-05
1.32018e-05
-7.21017e-05
2.13287e-05
-1.05333e-05
1.11938e-05
-1.73863e-05
-1.19937e-05
2.3884e-05
-8.20004e-06
-2.60059e-05
-9.10844e-06
-1.13467e-05
-3.40918e-06
-3.34476e-05
8.73673e-07
-7.02808e-06
-5.9472e-06
-1.18693e-05
-1.44777e-05
-3.50095e-05
3.56813e-05
-4.85687e-05
1.32733e-05
-1.89389e-06
-8.28044e-06
2.31625e-05
-4.74426e-07
-2.87596e-05
-1.02307e-05
-7.44191e-06
-1.54144e-05
3.90429e-07
-1.29429e-05
-3.55559e-05
-4.47675e-05
-1.04072e-05
1.59067e-05
-7.08773e-06
-7.11255e-06
5.49201e-06
-1.62958e-05
-7.99273e-06
-1.17369e-06
2.13061e-05
1.24832e-05
1.59371e-05
2.01789e-05
-6.07842e-06
-1.30439e-05
-2.76157e-05
-7.05431e-06
-1.14922e-05
1.4148e-05
1.2642e-05
7.01144e-06
-2.24863e-05
-6.51704e-06
-3.20457e-05
-8.71955e-06
-5.45797e-06
-6.84431e-06
-7.74683e-06
6.81792e-06
1.02281e-05
2.9773e-06
-1.19176e-05
2.1219e-06
-5.18096e-06
1.51253e-06
-1.52119e-05
9.21999e-08
-3.61154e-06
5.35191e-06
-6.6196e-06
7.35349e-06
-1.47352e-05
-1.89134e-05
-2.2295e-05
-6.77973e-06
-1.19559e-06
3.17896e-06
1.13345e-05
1.33178e-06
-1.33698e-05
5.9156e-06
-2.82051e-06
1.02935e-05
2.90949e-07
9.5412e-06
-1.66777e-05
-1.93601e-05
-5.40896e-06
7.73646e-06
-2.64662e-06
-3.50048e-06
1.82909e-06
-8.72712e-06
-3.38451e-06
-5.06112e-07
6.76376e-06
8.0589e-06
3.55543e-06
1.1603e-05
2.42918e-07
-7.67871e-06
-8.3494e-06
-5.02228e-06
-4.32673e-06
7.87075e-06
3.29022e-06
4.89541e-06
-7.2438e-06
-3.49501e-06
-8.38702e-06
-4.94956e-06
-3.11867e-06
-4.27473e-06
-2.15769e-06
4.2541e-06
1.69137e-06
1.69831e-06
-4.21727e-06
6.39205e-07
-1.19723e-06
5.82061e-08
-5.13035e-06
-3.09627e-07
-2.30758e-06
2.51484e-06
-3.67518e-06
4.17103e-06
-4.28425e-06
-1.06175e-05
-7.4886e-06
-3.94089e-06
-3.79931e-07
2.53763e-06
2.60732e-06
7.05139e-07
-3.86087e-06
2.54443e-06
2.35649e-07
5.7548e-06
-1.81742e-06
4.39869e-06
-4.69493e-06
-7.26761e-06
-3.78372e-06
4.59186e-06
-2.50491e-06
-5.49941e-06
-8.15599e-07
1.74692e-06
5.50227e-06
-2.84401e-06
-2.0542e-06
3.62161e-06
2.04231e-06
-5.48183e-08
-1.81187e-06
-7.69994e-07
9.22786e-07
4.97979e-07
5.40336e-07
9.40365e-07
1.61874e-08
6.31703e-07
2.06126e-06
-5.43306e-06
-2.04384e-06
1.54078e-07
3.04826e-07
2.43001e-06
2.69648e-06
2.69283e-06
-0.000153496
0.000258913
7.26136e-07
0.000102933
-9.02754e-07
7.58132e-05
-3.52974e-06
4.85243e-06
5.30789e-06
2.02994e-05
-1.16326e-05
1.26121e-05
)
;

boundaryField
{
    top_fluid_surface
    {
        type            calculated;
        value           nonuniform List<scalar> 
64
(
-0.000116023
-0.000115804
-0.00010285
3.27476e-05
-2.94683e-05
-6.79593e-05
-9.30639e-06
2.45347e-05
-0.000481322
-0.000284007
0.000401162
-0.000179059
-8.25915e-06
-0.000357606
6.68128e-05
-0.000280705
0.000288136
0.000640696
0.000705619
0.000820789
-9.52626e-06
4.8304e-05
0.00072146
0.000788016
-7.06589e-05
0.000651782
0.00069579
0.000626277
0.00054709
8.95186e-05
-0.000266334
0.000518652
-0.000122718
-0.000185896
-0.000411239
-1.39861e-05
-5.07001e-06
-3.4117e-05
-0.000945475
-0.000133182
0.000124984
-0.000344309
-0.000325785
-0.000227202
-0.000450747
-2.49693e-05
-0.000307291
-0.00043629
-0.00025658
1.67109e-05
-6.65155e-05
-4.76639e-05
-6.33181e-05
-6.90212e-05
-0.000499879
-0.000160875
8.4627e-05
3.62358e-05
-9.48382e-06
-0.000344356
-2.2755e-05
-0.000114792
-7.74922e-05
-2.76506e-05
)
;
    }
    bottom_fluid_surface
    {
        type            calculated;
        value           uniform 0;
    }
    lateral_surface_1
    {
        type            calculated;
        value           uniform 0;
    }
    lateral_surface_2
    {
        type            calculated;
        value           uniform 0;
    }
    lateral_surface_3
    {
        type            calculated;
        value           uniform 0;
    }
    lateral_surface_4
    {
        type            calculated;
        value           uniform 0;
    }
}


// ************************************************************************* //
