/*--------------------------------*- C++ -*----------------------------------*\
| =========                 |                                                 |
| \\      /  F ield         | OpenFOAM: The Open Source CFD Toolbox           |
|  \\    /   O peration     | Version:  v1612+                                |
|   \\  /    A nd           | Web:      www.OpenFOAM.com                      |
|    \\/     M anipulation  |                                                 |
\*---------------------------------------------------------------------------*/
FoamFile
{
    version     2.0;
    format      ascii;
    class       volScalarField;
    location    "5.95";
    object      alpha.water;
}
// * * * * * * * * * * * * * * * * * * * * * * * * * * * * * * * * * * * * * //

dimensions      [0 0 0 0 0 0 0];

internalField   nonuniform List<scalar> 
1116
(
0.399658
0.399658
0.399658
0.399659
0.399659
0.399659
0.790919
0.790922
0.790911
0.790911
0.790912
0.790914
0.974517
0.974517
0.974517
0.974517
0.974517
0.974517
0.974517
0.974517
0.974517
0.974517
0.974517
0.974517
0.974508
0.974508
0.974508
0.974508
0.974508
0.974508
0.97233
0.972333
0.972332
0.972331
0.972333
0.972329
0.96277
0.962789
0.962785
0.962778
0.962788
0.962771
0.951559
0.951603
0.951595
0.95157
0.951581
0.951579
0.945639
0.945708
0.945696
0.94565
0.945643
0.945696
0.944243
0.944313
0.944301
0.944255
0.94425
0.944298
0.942723
0.942768
0.942764
0.942731
0.942752
0.942735
0.93851
0.938428
0.938408
0.93853
0.938614
0.93837
0.460741
0.460855
0.460801
0.460791
0.46084
0.460778
0.944945
0.944976
0.944969
0.944956
0.944966
0.944942
0.945472
0.94555
0.94552
0.94551
0.945535
0.945481
0.802535
0.802648
0.802604
0.802585
0.802629
0.802557
0.644544
0.64461
0.644591
0.64456
0.644576
0.644566
0.477981
0.478046
0.478035
0.477982
0.477992
0.478024
0.363309
0.36341
0.363395
0.3633
0.363307
0.36339
0.293049
0.293062
0.293099
0.293012
0.293158
0.292955
0.288159
0.288487
0.288344
0.288185
0.287803
0.288663
0.347791
0.348949
0.348573
0.347907
0.346543
0.349797
0.415027
0.412246
0.412802
0.414904
0.417367
0.410545
0.307567
0.30608
0.306171
0.307554
0.309066
0.305289
0.44011
0.440014
0.440047
0.440058
0.440056
0.440075
0.311143
0.311197
0.311168
0.311175
0.311184
0.31115
0.0519298
0.0519304
0.0519296
0.0519265
0.0519294
0.0519259
0.0160442
0.0160464
0.0160456
0.0160422
0.0160415
0.0160449
1.39547e-07
1.38539e-07
1.39197e-07
1.39652e-07
1.40062e-07
1.38875e-07
1.89504e-07
1.8848e-07
1.89019e-07
1.90063e-07
1.91131e-07
1.87957e-07
8.64779e-07
9.06226e-07
8.84442e-07
8.83685e-07
8.77679e-07
8.82591e-07
1.50438e-06
1.51095e-06
1.5192e-06
1.51483e-06
1.51491e-06
1.51576e-06
1.48146e-06
1.48534e-06
1.49477e-06
1.49106e-06
1.49153e-06
1.49128e-06
0.00238029
0.00255775
0.00249605
0.00240194
0.0022362
0.00265868
0.0251784
0.0246731
0.0246416
0.025199
0.0248043
0.0246645
0.0238779
0.0238693
0.0238618
0.0238585
0.0238585
0.0238585
0.246418
0.245925
0.246113
0.246176
0.246064
0.246251
2.65395e-07
9.32095e-08
1.12099e-07
1.37375e-07
1.51247e-07
2.00287e-07
1.30693e-07
1.3048e-07
1.30882e-07
1.30944e-07
1.30912e-07
1.30787e-07
1.22847e-07
1.22203e-07
1.22671e-07
1.2295e-07
1.23136e-07
1.2255e-07
1.31314e-07
1.3048e-07
1.3104e-07
1.31412e-07
1.31725e-07
1.3081e-07
1.39544e-07
1.38535e-07
1.39193e-07
1.39648e-07
1.40058e-07
1.3887e-07
1.89063e-07
1.88113e-07
1.88649e-07
1.89638e-07
1.90687e-07
1.87611e-07
8.61181e-07
9.01708e-07
8.8039e-07
8.79931e-07
8.74212e-07
8.78277e-07
1.46547e-06
1.47015e-06
1.47821e-06
1.47466e-06
1.47468e-06
1.4755e-06
0.00973728
0.0100532
0.00990156
0.00981849
0.00972327
0.00989122
0.0415615
0.0415481
0.0415669
0.0415843
0.041597
0.041554
0.0415802
0.041591
0.0416023
0.0416072
0.0416072
0.0416072
0.077808
0.075928
0.063232
0.0797778
0.0801485
0.066429
0.0782573
0.0788673
0.0795318
0.0801485
0.0803225
0.0801485
0.0739011
0.0688759
0.0747495
0.0721735
0.0845746
0.0680872
0.0244368
0.0390909
0.022671
0.0541129
0.092862
0.0540165
0.0469222
0.078942
0.0362987
0.0741648
0.0925294
0.0530715
0.0878584
0.0871501
0.0880591
0.0892565
0.0925879
0.0896035
0.0885475
0.0828197
0.0867237
0.0872523
0.092697
0.0925512
0.0886656
0.0790229
0.0760462
0.0826264
0.0925499
0.0923881
0.0894424
0.0891794
0.0881034
0.0918431
0.0922519
0.0922645
0.0901994
0.0903464
0.0906978
0.0914546
0.0918789
0.0918179
0.0903464
0.0904957
0.090789
0.0910564
0.0912484
0.0471
0.0371099
0.040437
0.038249
0.0382205
0.0883568
0.0371941
0.0777574
0.0643999
0.0595017
0.0793984
0.0794545
0.0642082
0.0271629
0.0180614
0.0242671
0.0129062
0.00159454
0.0330695
0.00122087
0.00194013
0.00184595
0.00252413
0.00355281
0.00287879
0.00116878
0.00108307
0.00144509
0.00127506
0.000504068
0.00115906
0.000312682
1.18961e-11
0.000730948
3.63696e-12
4.66987e-12
0.000294848
2.05034e-09
5.81523e-10
1.08765e-10
6.3373e-12
0.000103422
4.74449e-09
3.9638e-09
1.30034e-08
1.20906e-08
1.75741e-10
0.00178308
2.93499e-07
4.3542e-06
1.50744e-06
4.93217e-07
4.43736e-08
0.00238413
5.34634e-05
0.00456506
9.51186e-05
8.42677e-06
0.00355937
0.0129685
0.00619431
0.0396845
0.0431581
0.0290489
0.0437604
0.0358893
0.0309669
0.0767728
0.0855276
0.0751168
0.0736871
0.0499601
0.0659175
0.0258742
0.0259773
0.0969416
0.0391947
0.0194247
0.0653834
0.0386325
0.0224361
0.0408179
0.0521755
0.0432078
0.0413909
0.000385815
2.30975e-06
5.00815e-06
7.91111e-06
7.11291e-06
0.00279068
-1.14838e-09
-1.15399e-08
-2.93091e-08
-6.75585e-09
1.65275e-08
7.61068e-10
4.82817e-11
8.82087e-12
1.7369e-12
-9.14234e-14
4.17563e-12
7.40587e-11
1.18961e-11
4.76859e-12
3.63093e-12
3.63696e-12
3.63241e-12
4.69816e-12
2.06577e-09
1.18957e-11
4.71016e-12
3.63346e-12
4.69599e-12
7.42304e-11
2.57707e-07
2.26415e-09
1.10617e-10
6.35179e-12
7.49207e-11
4.41277e-09
8.90863e-08
3.34709e-08
1.18173e-08
1.73951e-10
1.84356e-09
7.75296e-08
9.06329e-09
2.77656e-09
8.95946e-08
-1.72766e-09
7.70402e-08
3.14101e-08
3.55656e-06
1.8105e-06
4.29067e-06
4.07957e-06
7.48327e-06
5.49092e-07
0.0152277
0.0107146
0.00846592
0.0135325
0.0189405
0.0603316
0.109583
0.109583
0.109514
0.0930483
0.016006
0.0977366
0.0119787
0.0214768
0.0252774
0.00774112
0.00255345
0.0349397
8.12945e-05
8.91308e-09
1.13485e-08
1.73994e-08
4.91251e-08
0.000589806
4.86997e-09
5.85682e-09
7.9879e-09
1.38547e-08
3.72324e-08
3.04418e-08
7.1513e-08
1.43745e-07
7.73066e-08
6.67257e-07
1.13357e-06
5.05581e-12
2.99849e-12
4.87815e-12
1.87966e-12
1.8153e-12
3.69495e-12
2.12218e-12
8.46629e-10
6.28376e-12
4.8055e-10
1.00689e-10
1.50764e-11
5.2767e-12
8.98557e-09
1.96725e-11
1.02011e-09
1.90426e-10
4.42831e-11
7.08445e-11
-1.37356e-10
1.51029e-11
-2.41443e-11
8.71633e-10
1.10814e-10
-1.78783e-09
1.65259e-11
-2.73344e-11
-1.16195e-10
-3.66515e-12
-7.58229e-10
-1.26309e-11
-4.83628e-12
9.48185e-09
1.07757e-07
-1.33545e-09
2.41743e-07
4.70372e-08
0.00241014
0.00196819
0.00117675
0.00877648
0.0217755
5.14393e-07
0.0843148
0.0825517
0.0772344
0.0818338
0.0846364
0.0854713
0.0133802
0.0131944
0.0132615
0.0132896
0.0132424
0.0133161
3.71952e-07
3.71584e-07
3.73452e-07
3.73811e-07
3.70469e-07
3.72415e-07
1.40863e-05
1.4123e-05
1.40939e-05
1.40911e-05
1.41011e-05
1.40809e-05
1.36018e-07
1.36794e-07
1.36753e-07
1.36575e-07
1.36535e-07
1.36621e-07
1.24608e-07
1.24647e-07
1.24992e-07
1.24924e-07
1.2476e-07
1.24948e-07
1.66408e-05
1.66931e-05
1.66541e-05
1.66514e-05
1.66658e-05
1.66374e-05
1.24862e-07
1.25401e-07
1.25541e-07
1.25237e-07
1.24855e-07
1.25661e-07
1.20273e-07
1.20344e-07
1.20657e-07
1.20574e-07
1.20442e-07
1.20632e-07
2.01188e-07
2.00605e-07
2.01008e-07
2.00897e-07
2.00676e-07
2.00814e-07
1.18338e-07
1.1773e-07
1.18203e-07
1.18454e-07
1.18525e-07
1.18132e-07
1.09722e-07
1.09743e-07
1.09896e-07
1.09917e-07
1.09972e-07
1.0986e-07
2.15057e-86
2.2284e-86
2.18579e-86
2.08206e-86
2.02215e-86
2.17978e-86
1.99101e-07
1.69264e-07
1.80237e-07
1.9385e-07
2.05715e-07
1.73117e-07
8.59073e-08
7.79798e-08
8.02458e-08
8.40412e-08
8.59042e-08
7.91025e-08
4.21834e-126
1.21204e-125
8.71451e-126
4.77192e-126
3.49351e-126
1.06303e-125
8.45317e-07
7.07756e-07
7.59406e-07
8.19615e-07
8.70471e-07
7.22843e-07
1.67413e-06
1.58738e-06
1.61734e-06
1.66453e-06
1.66534e-06
1.60001e-06
4.63243e-143
1.09358e-142
9.42621e-143
4.85897e-143
2.4638e-142
1.02429e-142
9.86241e-07
9.0345e-07
9.35825e-07
9.73947e-07
1.00889e-06
9.08705e-07
2.65742e-07
3.83167e-07
3.3883e-07
2.89661e-07
2.62305e-07
3.7012e-07
9.00052e-18
-2.24907e-18
8.96257e-18
9.01366e-18
9.04657e-18
9.02275e-18
3.06998e-06
3.25726e-06
3.18982e-06
3.15357e-06
3.10517e-06
3.19599e-06
0.000148756
0.000172621
0.000164963
0.000154878
0.000143691
0.000173431
4.89597e-05
6.21061e-05
5.74721e-05
5.16007e-05
4.66114e-05
6.15829e-05
0.000632925
0.000688691
0.000670512
0.00065336
0.000630897
0.000678743
0.000530772
0.000557305
0.000543636
0.0005274
0.000528425
0.000551352
0.000394611
0.00042111
0.000412688
0.00039781
0.00038879
0.00042049
0.00170313
0.00170787
0.00171004
0.00170058
0.00169236
0.00171245
0.000109763
0.000105267
0.000110257
0.000112693
0.000108319
0.000107497
0.000507198
0.00050872
0.000508041
0.00050723
0.000507427
0.000508699
1.1939e-06
5.04322e-11
5.04701e-11
5.07627e-11
3.58158e-06
4.91624e-11
2.5216e-11
2.52162e-11
2.5216e-11
2.5254e-11
2.45812e-11
2.45812e-11
5.39489e-22
5.31043e-22
5.34749e-22
5.39025e-22
1.03042e-21
5.24285e-22
0.0267605
0.0263426
0.0264925
0.0266555
0.026887
0.0262488
2.72639e-23
2.73301e-23
2.75286e-23
2.75948e-23
1.23649e-22
2.68669e-23
1.72624e-08
1.70371e-08
1.70981e-08
1.73571e-08
1.77594e-08
1.66279e-08
0.102863
0.102723
0.102932
0.104581
0.104643
0.104352
-1.01445e-15
-7.71056e-16
-2.728e-18
-2.2246e-19
-3.86562e-17
-1.07863e-16
-9.46912e-26
7.65209e-29
7.33288e-26
1.95475e-24
4.92183e-17
-1.52394e-26
0.106078
0.106223
0.106256
0.105978
0.105936
0.106064
-2.34527e-15
-1.74113e-15
-8.8701e-18
-2.00361e-18
-4.67931e-16
-2.8952e-16
-1.28022e-25
-7.2695e-26
-2.19923e-25
-9.96341e-26
-9.88864e-26
-9.04189e-26
0.106388
0.10654
0.106588
0.10624
0.106209
0.106354
-6.13081e-15
-4.98444e-15
-8.97722e-15
-2.34133e-17
-5.63357e-14
-2.26783e-15
-1.60874e-25
-1.51154e-25
-1.62962e-25
-1.41598e-25
-2.65302e-25
-9.42639e-26
0.10824
0.10826
0.108266
0.108235
0.108221
0.108263
-2.69937e-15
-2.20066e-15
-4.08919e-15
-3.23135e-16
-2.52062e-14
-9.76035e-16
-1.91213e-25
-2.23423e-25
-2.44488e-25
-2.32106e-25
-2.54905e-25
-1.75842e-25
0.104644
0.104873
0.104938
0.104724
0.104693
0.10495
-1.14541e-15
-9.37106e-16
-1.94619e-15
-9.18129e-16
-1.07521e-14
-4.03445e-16
-1.08057e-25
-1.30022e-25
-1.41345e-25
-1.47685e-25
-1.6348e-25
-1.21849e-25
0.0932307
0.0933599
0.0934081
0.0933088
0.0933137
0.093369
-4.73775e-16
-3.89736e-16
-9.69035e-16
-9.98491e-16
-4.44552e-15
-1.62029e-16
-6.56369e-26
-8.09679e-26
-8.69722e-26
-1.01591e-25
-1.17037e-25
-9.05817e-26
0.029301
0.0303435
0.0300825
0.00843083
0.00519435
0.0372949
0.0303456
0.0303456
0.0303209
0.0142717
0.00884155
0.0372883
0.0229907
0.0239735
0.0207767
0.0084748
0.00596152
0.024591
0.000131454
1.25258e-07
2.20295e-07
4.76563e-08
4.25538e-07
0.000278467
4.73443e-05
2.42757e-06
6.84773e-07
5.16509e-07
8.65659e-07
2.05536e-06
1.34539e-06
1.10433e-06
9.7037e-07
9.44502e-07
9.7037e-07
1.17342e-06
7.76685e-09
1.01363e-08
1.58699e-07
2.91159e-08
9.17236e-08
1.11697e-07
1.69125e-05
1.57199e-05
2.47764e-05
2.15851e-05
2.01776e-05
3.31503e-05
2.66938e-05
2.99732e-05
2.68993e-05
6.54925e-06
7.65337e-06
6.04832e-05
1.08705e-07
4.8332e-07
3.45866e-07
1.49464e-06
2.69825e-06
2.05985e-06
7.83957e-18
3.32199e-07
3.42896e-07
6.44667e-18
1.78265e-06
5.83516e-06
9.24297e-07
1.38927e-06
1.71597e-06
2.33681e-07
3.26142e-07
6.31502e-06
5.49621e-18
4.36549e-11
4.10886e-18
4.18855e-18
1.70393e-11
1.04179e-18
4.19334e-18
1.82422e-18
1.82422e-18
3.64844e-18
5.15738e-19
5.15737e-19
2.26041e-25
1.45225e-25
9.85204e-26
1.54247e-24
1.06121e-24
8.72222e-27
5.05667e-10
4.20396e-10
4.86089e-10
3.4179e-10
6.26137e-11
2.97042e-10
5.21005e-18
3.97589e-18
3.68344e-18
4.24757e-18
4.15051e-17
1.07031e-18
8.72366e-15
8.06971e-15
6.37806e-15
9.71795e-15
6.86074e-15
2.21723e-15
2.13053e-10
1.75844e-10
3.2582e-10
2.27486e-10
8.10716e-11
1.71012e-10
1.03164e-16
1.7254e-15
8.2704e-17
1.20618e-16
1.3589e-13
2.77801e-17
3.66981e-13
3.68184e-13
3.21814e-13
4.16374e-13
3.958e-13
1.40084e-13
-1.33728e-13
-1.29324e-13
-2.27666e-14
5.00873e-14
7.24868e-13
-1.64025e-13
2.12705e-16
3.68122e-16
3.62871e-16
1.19577e-14
1.12012e-14
2.67521e-16
2.53491e-14
4.06989e-14
3.41102e-14
4.17152e-14
3.94876e-14
2.87005e-14
-9.65079e-14
-1.04877e-12
-4.92169e-11
-8.08726e-14
-8.38366e-15
-6.88339e-12
8.16457e-22
4.29737e-20
3.9057e-22
1.8184e-17
-3.62235e-18
2.83503e-20
5.36939e-230
1.01618e-238
1.3192e-240
1.17573e-236
1.37774e-249
2.18014e-257
-4.7709e-12
-3.08982e-11
-5.4901e-10
-8.6026e-12
-6.65604e-09
-2.0599e-09
9.53995e-11
-2.30546e-12
-2.63521e-12
5.13726e-12
-2.06111e-12
3.59983e-12
7.81396e-10
7.55629e-10
7.4636e-10
7.46795e-10
7.41207e-10
7.90205e-10
-5.75418e-11
-6.50399e-09
-8.20934e-09
7.49991e-12
-3.9525e-08
-2.216e-08
1.50109e-11
9.70303e-12
8.47335e-12
1.44769e-11
5.89155e-12
1.26314e-11
1.45051e-10
2.39295e-10
4.09726e-10
1.17435e-10
9.54508e-10
7.71416e-10
0.00496608
0.00515797
0.00598587
0.0112151
0.0237793
0.00872115
4.00976e-24
3.07298e-24
2.53944e-24
5.35208e-24
4.84728e-24
2.35746e-24
8.5467e-10
6.53923e-10
5.86732e-10
2.53978e-09
4.68535e-09
8.49746e-10
)
;

boundaryField
{
    seabed_topleft_surface
    {
        type            zeroGradient;
    }
    seabed_topright_surface
    {
        type            zeroGradient;
    }
    breakwater_top_surface
    {
        type            zeroGradient;
    }
    breakwater_left_surface
    {
        type            zeroGradient;
    }
    breakwater_right_surface
    {
        type            zeroGradient;
    }
    water_front_surface
    {
        type            zeroGradient;
    }
    water_back_surface
    {
        type            zeroGradient;
    }
    water_left_surface
    {
        type            zeroGradient;
    }
    water_right_surface
    {
        type            zeroGradient;
    }
    water_top_surface
    {
        type            inletOutlet;
        inletValue      uniform 0;
        value           nonuniform List<scalar> 
180
(
1.40863e-05
1.4123e-05
1.40939e-05
1.40911e-05
1.41011e-05
1.40809e-05
1.66408e-05
1.66931e-05
1.66541e-05
1.66514e-05
1.66658e-05
1.66374e-05
0
0
0
0
0
0
0
0
0
0
0
0
0
0
0
0
0
0
0
0
0
0
0
0
9.00052e-18
-2.24907e-18
8.96257e-18
9.01366e-18
9.04657e-18
9.02275e-18
4.89597e-05
6.21061e-05
5.74721e-05
5.16007e-05
4.66114e-05
6.15829e-05
0.000394611
0.00042111
0.000412688
0.00039781
0.00038879
0.00042049
0.000507198
0.00050872
0.000508041
0.00050723
0.000507427
0.000508699
0
0
0
0
0
0
0
0
0
0
0
0
0
0
0
0
0
0
0
0
0
0
0
0
0
0
0
0
0
0
0
0
0
0
0
0
0
0
0
0
0
0
0
0
0
0
0
0
0.0229907
0.0239735
0.0207767
0.0084748
0.00596152
0.024591
1.34539e-06
1.10433e-06
9.7037e-07
9.44502e-07
9.7037e-07
1.17342e-06
0
2.99732e-05
0
0
0
6.04832e-05
0
0
0
0
0
0
0
0
0
0
0
0
0
0
0
0
0
0
0
0
0
0
0
0
0
0
0
0
0
0
0
0
0
0
0
0
0
0
0
0
0
0
0
0
0
0
0
0
0
0
0
0
0
0
)
;
    }
}


// ************************************************************************* //
