/*--------------------------------*- C++ -*----------------------------------*\
| =========                 |                                                 |
| \\      /  F ield         | OpenFOAM: The Open Source CFD Toolbox           |
|  \\    /   O peration     | Version:  v1612+                                |
|   \\  /    A nd           | Web:      www.OpenFOAM.com                      |
|    \\/     M anipulation  |                                                 |
\*---------------------------------------------------------------------------*/
FoamFile
{
    version     2.0;
    format      ascii;
    class       surfaceScalarField;
    location    "5.95";
    object      phi;
}
// * * * * * * * * * * * * * * * * * * * * * * * * * * * * * * * * * * * * * //

dimensions      [0 3 -1 0 0 0 0];

internalField   nonuniform List<scalar> 
2916
(
-2.23892e-05
-0.979688
0.97971
2.66937e-05
-0.979856
0.979807
2.36583e-05
-0.979778
0.97978
-1.14179e-05
-0.97975
0.979785
1.05288e-05
-0.979789
0.979767
-0.97973
0.979741
-8.02994e-05
-1.36054
0.380934
2.0541e-05
-1.36069
0.380736
2.15048e-05
-1.36061
0.380829
-9.22461e-06
-1.36058
0.380862
2.80715e-05
-1.36062
0.380798
-1.36058
0.380878
-2.65913e-05
-1.49256
0.132046
1.08801e-05
-1.49271
0.131981
9.89288e-06
-1.49261
0.132007
-5.1166e-06
-1.4926
0.132029
-8.74873e-07
-1.49264
0.13201
-1.49261
0.132029
-1.63364e-05
-1.49915
0.00660132
1.21115e-05
-1.49934
0.00660328
1.62888e-05
-1.49922
0.00660691
-2.36378e-06
-1.49922
0.00664676
-2.10203e-05
-1.49926
0.00664239
-1.49921
0.00657878
-4.29401e-06
-1.42252
-0.0766257
9.96374e-06
-1.42276
-0.0765956
2.06281e-05
-1.42263
-0.0766095
8.98862e-06
-1.42265
-0.0765641
-2.66287e-05
-1.42268
-0.0765481
-1.42259
-0.0766472
4.79656e-06
-1.29393
-0.128591
2.83505e-05
-1.29427
-0.128517
6.66519e-05
-1.2941
-0.12856
1.66952e-05
-1.29411
-0.128483
-8.67246e-05
-1.29414
-0.128437
-1.29405
-0.128626
1.5013e-05
-1.15034
-0.143607
4.82218e-05
-1.15083
-0.143467
0.000123498
-1.15064
-0.143538
1.52672e-05
-1.15056
-0.143445
-0.00011276
-1.15067
-0.14334
-1.15051
-0.143656
0.000212278
-1.00623
-0.144324
-1.92569e-06
-1.00643
-0.144191
-4.2799e-05
-1.00637
-0.144229
-8.00922e-05
-1.00637
-0.144153
0.000290335
-1.00707
-0.143967
-1.00581
-0.144401
0.000450903
-0.822022
-0.184655
-4.46313e-05
-0.82115
-0.184784
-0.000339586
-0.821418
-0.184659
-0.000160949
-0.821969
-0.184581
0.000609738
-0.823933
-0.183913
-0.819907
-0.185298
0.000758968
-0.6076
-0.21518
-1.04383e-06
-0.604309
-0.216081
-0.000829493
-0.604907
-0.215683
0.000134534
-0.607566
-0.215366
0.001331
-0.611167
-0.213962
-0.601306
-0.21727
0.000729073
-0.233636
-0.374694
2.27931e-05
-0.229715
-0.373888
-0.000928556
-0.230299
-0.373657
2.62415e-05
-0.233585
-0.374936
0.00104096
-0.236931
-0.37525
-0.227125
-0.373141
-0.000737192
-0.232899
0.000296062
-0.230748
0.00120564
-0.231208
0.000240468
-0.23262
-0.00212988
-0.234561
-0.229254
0.000368596
-1.55114
2.53048
3.87639e-05
-1.55136
2.5315
-5.0508e-05
-1.55122
2.53109
-3.30875e-05
-1.55126
2.53102
-0.000163911
-1.55132
2.53122
-1.55119
2.53077
0.000148865
-1.84373
0.673375
1.25902e-05
-1.84389
0.6734
-1.42654e-05
-1.84379
0.673425
4.66928e-07
-1.84383
0.673422
-8.42705e-05
-1.84386
0.673419
-1.84376
0.673366
0.000110448
-1.7384
0.0266092
-1.03167e-05
-1.7386
0.0268193
-2.23931e-06
-1.7385
0.0267143
9.57088e-06
-1.73852
0.0267105
-7.45841e-05
-1.73856
0.0267949
-1.73846
0.0266468
-0.000108662
-1.36581
-0.365877
-1.98611e-05
-1.36609
-0.366001
2.37709e-05
-1.36598
-0.365962
1.39838e-05
-1.36595
-0.365917
6.60465e-05
-1.366
-0.365962
-1.36587
-0.365936
-0.000291
-0.812017
-0.63013
-1.76333e-05
-0.812495
-0.630463
9.40704e-05
-0.81232
-0.63038
4.56657e-05
-0.812233
-0.630234
0.000204661
-0.812396
-0.630315
-0.8121
-0.630217
-0.00028076
-0.243489
-0.696838
-3.72115e-05
-0.244211
-0.697044
-4.48878e-06
-0.243962
-0.69695
4.83137e-05
-0.243808
-0.696961
0.000400678
-0.244183
-0.697003
-0.243554
-0.696771
0.000167192
0.273338
-0.660601
-0.000154001
0.272487
-0.659844
-0.000453496
0.272753
-0.659953
-1.72224e-05
0.272965
-0.660654
0.000884031
0.27248
-0.660904
0.273338
-0.659665
0.000419624
0.692351
-0.563756
-0.000238284
0.692409
-0.563455
-0.000788085
0.692349
-0.563274
-9.68537e-05
0.692186
-0.564064
0.00173726
0.691298
-0.564618
0.693145
-0.56247
-0.000757858
0.675229
-0.166775
0.000143113
0.673883
-0.167158
0.000766704
0.674975
-0.167908
0.000547072
0.674353
-0.166528
-0.00138608
0.67679
-0.167471
0.673952
-0.167491
-0.00534782
0.341189
0.124208
0.00118139
0.329694
0.12158
0.00576831
0.33277
0.121935
0.000404358
0.34021
0.124141
-0.0143004
0.353403
0.124129
0.320619
0.121762
-0.00613468
-0.0894367
0.0620669
0.00155349
-0.109376
0.0574931
0.00706494
-0.105647
0.0592482
0.00169465
-0.0903801
0.0610242
-0.0144208
-0.0746389
0.0689074
-0.120371
0.0534295
0.00165872
-0.323994
-0.000251623
-0.338214
-0.00304265
-0.334065
0.0011641
-0.327207
0.00713798
-0.315174
-0.342488
0.000207185
-1.69135
4.22162
1.27796e-05
-1.69145
4.22314
-5.01436e-06
-1.69134
4.22245
5.53616e-07
-1.69138
4.22239
-0.000126937
-1.69146
4.2228
-1.69137
4.22201
-0.000389205
-1.51984
0.502252
6.75205e-05
-1.52045
0.501943
6.31136e-05
-1.52029
0.50238
-0.000171672
-1.52022
0.502506
0.000370456
-1.52033
0.501746
-1.52001
0.502375
-0.00136938
-0.571842
-0.920018
-3.77971e-05
-0.572827
-0.922132
0.000236942
-0.572383
-0.921469
-5.03795e-05
-0.572077
-0.92115
0.000751181
-0.57256
-0.921775
-0.571851
-0.920761
-0.00173492
1.24595
-2.18193
0.000179593
1.24267
-2.18341
0.000881333
1.24391
-2.18295
0.000236941
1.24543
-2.18278
0.000724109
1.24442
-2.18343
1.24505
-2.18211
-0.00497572
3.39961
-2.77881
0.000980881
3.38935
-2.7831
0.00376723
3.3924
-2.78166
0.000571004
3.3983
-2.77991
0.000179916
3.39624
-2.78174
3.39403
-2.77902
0.00245077
5.83926
-3.13894
-0.000904062
5.83011
-3.13445
-0.00252596
5.83194
-3.13486
-0.000854517
5.83888
-3.13921
0.00530654
5.83576
-3.14269
5.83363
-3.13106
0.020305
7.44367
-2.28532
-0.00463924
7.44661
-2.2514
-0.015074
7.44362
-2.2612
-0.00437384
7.44712
-2.2796
0.0150979
7.44328
-2.28789
7.44841
-2.25934
0.0145615
5.57532
1.29004
-0.00403566
5.59404
1.30772
-0.0109713
5.58899
1.29828
-0.00506358
5.57942
1.29773
0.00760667
5.57123
1.29476
5.59853
1.29501
0.0104882
1.0759
4.32215
-0.00187398
1.13693
4.30232
-0.0193453
1.12691
4.31165
0.00136135
1.07692
4.31528
0.0617097
1.02373
4.31968
1.18414
4.30861
-0.0750823
-0.434711
1.7099
0.0197513
-0.478098
1.64178
0.0640477
-0.466956
1.6715
0.00806602
-0.437385
1.69442
-0.157825
-0.418122
1.73188
-0.500748
1.64882
-0.0435191
-0.108111
-0.221015
0.0118929
-0.236526
-0.239491
0.0487111
-0.213754
-0.230772
0.0179628
-0.117902
-0.227711
-0.0969345
-0.0193471
-0.21497
-0.305123
-0.23913
0.0513118
-0.483417
-0.0111269
-0.512301
-0.0542522
-0.504694
-0.00951236
-0.489849
0.125447
-0.46948
-0.522164
-0.0028699
-0.0413658
4.26586
-0.000296112
-0.0399199
4.26048
0.000365239
-0.040542
4.26233
4.90941e-05
-0.0407779
4.26349
0.00100884
-0.0403306
4.26218
-0.0408899
4.26391
-0.00218593
0.0983959
0.364677
0.000877949
0.0937889
0.365167
4.01205e-05
0.0946523
0.368022
-0.00187515
0.0954659
0.368173
0.00155378
0.0949773
0.363008
0.0968402
0.366199
-0.000602995
-0.200754
-0.62026
0.00131969
-0.207258
-0.623002
0.000596339
-0.204358
-0.621725
-0.000797788
-0.202146
-0.622137
0.000573284
-0.205144
-0.623017
-0.20194
-0.621405
-0.00596339
-0.377504
-1.99922
0.00170809
-0.399421
-1.99892
0.00525881
-0.391812
-1.99905
0.00135114
-0.381278
-1.99974
-0.00108904
-0.385338
-2.0008
-0.38756
-1.99758
-0.0148408
-1.07868
-2.06279
0.002888
-1.13736
-2.06289
0.0122678
-1.12019
-2.06266
0.00239396
-1.08828
-2.06303
-0.00977447
-1.0875
-2.06741
-1.11895
-2.0574
-0.00157842
-1.67086
-2.54518
-0.000746452
-1.75456
-2.51808
-0.000907073
-1.72921
-2.52569
-0.000104797
-1.68834
-2.53995
-0.00155764
-1.67952
-2.54921
-1.7337
-2.51787
0.0430981
-2.09388
-1.90539
-0.00761875
-2.13481
-1.82042
-0.0335156
-2.11717
-1.84734
-0.00746004
-2.10876
-1.88523
0.0322596
-2.10475
-1.90238
-2.11949
-1.8413
0.00635211
-2.9653
2.1551
0.00213774
-2.99371
2.17083
-0.00555013
-2.97073
2.15952
0.00189426
-2.98552
2.16705
0.00464934
-2.98582
2.17307
-2.96763
2.14781
-0.0307566
-3.57506
4.96267
0.00676144
-3.58811
4.8592
0.0174222
-3.57046
4.90073
0.0115214
-3.59557
4.93122
-0.0116033
-3.61069
4.96768
-3.55254
4.88192
-0.00643027
-3.36211
1.50338
-0.00143405
-3.35871
1.40739
0.00431172
-3.35528
1.45058
-0.0011474
-3.3694
1.47371
0.00640427
-3.38159
1.49522
-3.3456
1.44828
-0.00583563
-1.53694
-2.04034
8.10054e-06
-1.53271
-2.07133
0.00799403
-1.533
-2.06104
-0.000370774
-1.53879
-2.04995
-0.00653764
-1.548
-2.04239
-1.52617
-2.06509
0.00479913
-2.02516
0.000131649
-2.04035
0.000888919
-2.03845
-6.75157e-05
-2.02768
0.00160695
-2.01915
-2.04673
-0.141633
-1.71493
1.85656
-0.212867
-2.0164
2.08763
-0.604026
-1.62088
2.01203
0.0219701
-2.04512
1.41912
1.32328
-2.63581
1.3345
-0.857613
2.18089
0.0575096
-2.8989
1.12646
0.262615
-3.32254
1.10103
0.597024
-3.05885
1.10357
0.668093
-3.2885
1.1723
0.526734
-3.99338
1.49893
-2.24656
1.91568
-0.0833483
-3.61988
0.80432
-0.0248647
-4.18176
0.800739
-0.01267
-3.80565
0.734602
-0.0507531
-4.0666
0.816189
-0.0968955
-4.65468
0.707443
-3.28012
0.936667
-0.127057
-4.13199
0.63917
-0.0158297
-4.75528
0.462293
-0.202091
-4.30348
0.684097
-0.0925156
-4.43769
0.261514
0.00280273
-4.79275
0.0427467
-3.63122
0.353896
0.0479688
-4.24951
0.0695499
0.167268
-4.7279
-0.146681
0.114776
-4.5049
0.253912
0.117664
-4.37576
-0.0648182
0.136216
-4.50713
-0.304165
-3.65652
0.161522
0.173549
-3.86627
-0.55679
0.144553
-4.28101
-0.417889
0.249875
-4.11668
-0.493547
0.284481
-3.99988
-0.410489
0.00405706
-4.15738
-0.0693248
-3.56632
-0.0861427
0.0778394
-3.51858
-0.425531
0.00968138
-3.78013
-0.43273
0.258669
-3.60032
-0.765349
0.297057
-3.58068
-0.457582
0.0090453
-3.70459
-0.164783
-3.38013
-0.177143
-0.105868
-3.16612
-0.246591
-0.0403876
-3.35601
-0.489594
0.179139
-3.2405
-0.579341
0.298966
-3.19027
-0.510245
0.112459
-3.19178
-0.326298
-3.13332
-0.134356
-0.234014
-2.52295
-0.409151
-0.0288648
-2.78358
-0.777579
0.287978
-2.80373
-0.753618
0.410287
-2.53263
-0.779941
0.0339372
-2.37621
-0.439225
-2.59246
-0.506919
-0.299626
-0.874179
-1.34915
0.0632388
-1.14516
-2.00129
0.750343
-1.36724
-2.12359
0.756359
-1.07284
-1.46581
-0.171896
-0.742402
-0.705553
-0.986426
-1.77793
-0.0988426
0.569743
-1.34508
0.0592279
0.393772
-1.697
0.889778
0.21199
-2.40978
0.858576
0.3069
-1.34854
-0.0430545
0.594854
-0.435626
0.387737
-1.41722
-0.123456
0.693199
-0.133526
0.403843
0.556699
-0.478234
0.444314
0.419286
0.084293
0.954875
0.47203
-0.136293
-2.45206
4.44491
-0.00562513
-2.7217
4.67867
0.0655159
-2.22919
4.17008
0.422072
-2.83861
3.90117
0.908332
-3.24503
4.09328
-0.9993
4.08852
-0.0746227
-4.32552
3.07455
0.164161
-4.62925
2.76979
0.664175
-4.25438
2.62874
0.548181
-4.53585
2.98555
0.504976
-5.22521
3.52231
-3.04933
4.47068
-0.123659
-3.57836
0.180826
-0.280284
-3.80323
0.131343
0.0931339
-4.15452
0.261325
0.181249
-4.08027
0.272494
-0.472572
-4.03026
0.166311
-3.27816
0.692927
0.151504
-2.16096
-0.929738
-0.494653
-1.60316
-1.09161
0.0542463
-3.35986
-0.659463
-0.193579
-2.25288
-1.31805
-0.437514
-2.38853
-1.35505
-1.97062
-1.39116
-0.0727814
-0.707803
-1.31082
-0.705948
0.0706753
-1.18735
-1.16411
-1.67164
-0.976146
-0.966653
-1.41188
-1.10327
0.120511
-2.47192
-1.30794
-0.576312
-1.11227
-0.323817
0.022673
-0.963447
-0.216733
-0.244664
-0.209633
-1.90065
0.125129
-0.606391
-1.05293
-2.08543
-0.584656
0.144195
-3.45111
-0.287259
-0.544311
0.0260521
0.403346
-1.20704
0.400834
0.221149
-1.34977
0.854572
-0.261916
-0.528569
0.371417
-0.662653
-2.10502
-0.0372549
-0.254427
-3.53033
-0.493784
-1.99674
1.02086
0.307517
-3.16144
1.4003
-0.180518
-2.61685
1.26552
-0.600472
-2.14543
1.45747
-0.446671
-2.80636
0.0372993
0.309081
-3.66257
-0.949808
-3.5262
1.70419
-0.18494
-3.39841
0.0127596
-0.296918
-3.19749
-0.0849539
-0.741342
-2.90024
0.445622
-0.300733
-3.14469
-0.882226
0.726983
-3.55863
-1.57088
-3.26012
-0.0460109
-0.0894425
-2.10205
-2.55606
-0.196964
-2.08787
-3.00339
-0.426983
-2.05336
-2.74045
-0.188275
-2.18437
-2.66484
0.185346
-2.34298
-2.29482
-2.04378
-2.80893
0.0226892
-0.722196
-2.74763
0.00244333
-0.855184
-2.90944
0.114688
-1.16267
-3.41272
0.0118941
-0.928041
-2.50207
-0.585846
-0.54855
-1.63232
-0.936065
-3.11078
0.362462
-0.391459
0.613154
-0.702033
0.736248
-1.764
0.73812
-0.510627
-0.654279
1.79872
-1.11831
-0.465015
0.00578275
4.90414
0.0128697
-0.811228
5.01201
0.311474
-0.795251
4.66673
0.445908
-1.44199
5.20873
0.566541
-1.80475
5.7774
0.2113
4.44376
-0.765891
-0.902794
4.74901
-0.0806891
-2.09938
3.37274
0.690977
-2.22209
3.28392
0.77116
-2.06606
3.52943
0.600099
-2.39004
4.27866
-1.12967
6.41175
0.593928
-1.03008
-0.285813
0.380222
-1.08601
-0.668322
0.235123
-1.23761
-0.578058
-0.00633931
-1.11132
-0.440789
-0.496423
-1.30644
-0.4272
-1.37845
0.445285
0.161398
-0.721952
-1.39926
0.227504
-0.759906
-1.48382
0.466236
-0.781167
-1.35463
0.462225
-0.818644
-1.60671
0.216081
-0.81347
-1.60188
-0.950191
-1.60333
-0.0831672
-0.571644
-1.37796
-0.0464064
-0.616578
-1.36744
0.0978532
-0.53012
-1.37145
0.0992037
-0.648892
-1.27437
0.00310917
-0.796088
-1.22922
-0.775494
-1.28386
-0.351522
-0.566878
-0.616689
-0.16773
-0.631213
-0.378787
-0.251595
-0.436462
-0.616181
-0.366434
-0.548883
-0.569823
-0.280003
-0.584789
-0.584986
-0.65845
-0.370993
0.00527991
-0.544262
0.37294
0.112104
-0.764087
0.880624
0.0182154
-0.458713
0.487559
-0.228032
-0.159675
-0.180213
-0.63553
-0.0971761
-0.573897
-1.10881
0.835692
0.254808
-0.477887
1.07912
0.0170766
-0.506749
1.24592
0.0655115
-0.487064
1.43739
-0.039413
-0.0638548
0.0464062
-0.340872
-0.108595
-0.636927
-1.14728
1.40178
-0.016284
-0.624143
0.1753
-0.336981
-0.568753
0.297751
-0.359993
-0.751769
0.73334
-0.080106
-0.850233
-0.375733
0.362313
-1.22845
-0.893441
-0.951557
0.120584
-0.02957
-1.38779
-1.76284
-0.279786
-1.47922
-1.84271
-0.891369
-1.42397
-1.45667
-0.536682
-1.78469
-2.08507
0.263147
-1.80624
-2.51687
-1.74316
-1.75418
0.180582
-1.12695
-3.18905
0.0798546
-1.15529
-3.13264
-0.651578
-0.966041
-3.13921
-0.377662
-1.17686
-3.38381
0.105604
-1.0491
-2.87272
-1.09653
-3.6518
0.232652
-1.75106
0.292011
-1.91669
-0.238168
-2.19986
-0.25809
-1.66757
0.204773
0.286766
-2.01007
-0.33494
0.254632
4.98445
-0.0144341
-0.353083
5.04459
0.145424
-0.427223
4.93409
0.151868
-0.760933
5.96322
0.392454
-1.14391
6.68072
0.220696
4.61552
0.331237
-1.17829
5.8507
0.596439
-1.95304
4.7075
0.737866
-2.0164
4.73167
0.474076
-1.75512
4.78741
0.0697346
-1.9632
5.50228
-0.540445
7.24263
0.300029
-1.37999
-0.38414
-0.108624
-1.44337
-0.769334
-0.467845
-1.47309
-0.762143
-0.66265
-1.44034
-0.56076
-1.0327
-1.44682
-0.573531
-0.985193
-0.142662
0.0614111
-1.1291
-1.71157
-0.0513128
-1.13935
-1.67511
-0.0950443
-1.15655
-1.62744
-0.0905219
-1.13983
-1.91175
-0.145477
-1.07925
-1.91449
-1.11959
-1.61441
-0.0220406
-1.12517
-1.35985
-0.0166752
-1.13343
-1.37871
-0.0852131
-1.09296
-1.3665
-0.0998791
-1.05838
-1.34114
-0.0191368
-0.99349
-1.39572
-1.05221
-1.37038
-0.0252275
-0.933364
-0.783263
0.121106
-0.924761
-0.73379
0.073699
-0.891256
-0.770474
-0.00669008
-0.782462
-0.765354
-0.130187
-0.69702
-0.757957
-0.845472
-0.707914
0.00780038
-0.345462
-0.222762
0.392986
-0.359981
-0.0693393
0.549362
-0.352969
-0.207102
0.230108
-0.29197
-0.351449
-0.462972
-0.216748
-0.361086
-0.335249
-0.137502
0.143819
0.419628
0.17021
0.450426
0.318873
0.260461
0.942502
0.31402
0.278326
0.560847
0.274686
-0.138594
-0.439668
0.317153
-0.170312
0.415516
0.211346
-0.00631488
0.529475
0.0717697
0.249933
0.344276
0.016102
0.769296
0.425088
0.10291
0.625728
0.0662053
-0.023681
0.245174
-0.0710013
-0.124731
0.772939
0.00833537
-0.108337
-0.255865
-0.869167
-0.0779338
-0.40204
-1.12679
0.0166164
-0.228224
-0.897902
0.0457089
-0.694479
-1.35347
0.122045
-1.07821
-1.58599
0.0384701
-0.897665
-0.052433
-0.512102
-2.88038
-0.286724
-0.473433
-2.82695
-0.588278
-0.371668
-2.69421
-0.370644
-0.70455
-3.59138
0.366185
-1.21006
-3.47771
-0.644395
-2.60275
-0.0559025
-2.20726
-0.239921
-2.2061
-0.582441
-2.22901
-0.569681
-2.38488
0.336068
-1.82904
-2.3184
-0.000834745
5.83617
-1.56948
-0.000585451
5.83576
-1.57553
0.000249462
5.83537
-1.57388
0.000164842
5.83586
-1.57228
0.000214713
5.83615
-1.57402
5.83571
-1.57158
-0.00101381
7.02293
-1.18574
-0.000319588
7.01815
-1.18308
0.000584874
7.01923
-1.18476
-8.50789e-06
7.02038
-1.18393
1.68226e-05
7.01941
-1.18329
7.02049
-1.18476
-0.000735289
-0.404106
-0.000529888
-0.402374
-0.000273513
-0.403461
-0.000312782
-0.403207
-0.000141238
-0.402793
-0.403761
-0.00211562
0.824432
-2.02712
-0.0023664
0.820073
-2.03017
-0.000221515
0.82097
-2.02896
0.00123718
0.821968
-2.02753
-0.00049202
0.820319
-2.0296
0.821296
-2.02717
-0.00586894
1.11349
-1.46893
-0.00178106
1.09803
-1.46512
-0.00192203
1.10366
-1.46731
-0.00135999
1.10361
-1.46613
0.00150923
1.09934
-1.46519
1.10546
-1.46742
-0.00694329
0.0476864
-0.0014861
0.0490334
-0.00201747
0.0485114
-0.0016203
0.0485737
0.00219521
0.0488265
0.048303
-0.00132457
-1.03108
-1.61497
0.000674682
-1.03512
-1.62005
0.000950213
-1.03291
-1.61806
0.000211514
-1.03365
-1.61528
-0.000937721
-1.03517
-1.61629
-1.03307
-1.61645
-0.00256198
-1.83051
-0.666932
-0.000299695
-1.83601
-0.666495
-0.000691246
-1.83311
-0.666712
-0.000369137
-1.83379
-0.666309
0.000463309
-1.83564
-0.665557
-1.8329
-0.667121
-0.000547256
-0.0768209
-6.88726e-05
-0.0770097
-9.86157e-05
-0.0768238
-1.72669e-05
-0.0768423
0.000157922
-0.0768945
-0.0769111
-0.0101953
-1.84071
-1.76329
0.00260594
-1.83886
-1.7929
0.00869799
-1.83963
-1.78357
0.00155961
-1.84054
-1.76733
-0.00750675
-1.84158
-1.76644
-1.83891
-1.78263
-0.00116831
-2.1169
-0.389573
0.000473011
-2.11641
-0.39059
0.000639679
-2.1167
-0.389811
0.000452056
-2.11685
-0.389815
-0.00157552
-2.11734
-0.387777
-2.11638
-0.391228
-0.000218649
-0.115308
0.000168471
-0.115983
0.000280891
-0.115646
0.000222639
-0.115541
-0.000352525
-0.115305
-0.115874
-0.026338
-1.54693
-2.25281
0.00505328
-1.54139
-2.3458
0.0205959
-1.54362
-2.31815
0.00472033
-1.54579
-2.2687
-0.0250143
-1.55019
-2.25391
-1.53956
-2.32548
-0.0104098
-1.32104
-0.605058
0.00249759
-1.31765
-0.627241
0.00671285
-1.31938
-0.618268
0.0018602
-1.32028
-0.610474
-0.0105633
-1.3226
-0.60295
-1.31765
-0.623704
-0.00148137
-0.0629981
0.000428428
-0.0662556
0.000869473
-0.0649636
0.000439725
-0.0641508
-0.00170909
-0.0631932
-0.0657163
-0.0282706
-1.48567
-3.28404
0.00380476
-1.45742
-3.43854
0.0163726
-1.4669
-3.3895
0.00540282
-1.47928
-3.3184
-0.0221708
-1.49022
-3.28533
-1.45761
-3.40792
-0.0536907
-0.485023
-1.55202
0.00904621
-0.475025
-1.67237
0.0350341
-0.479663
-1.63149
0.00757876
-0.482311
-1.57999
-0.0440239
-0.488316
-1.55325
-0.474847
-1.65049
-0.00672421
0.0339229
0.00108214
0.0130394
0.00304135
0.0211528
0.000874751
0.0274246
-0.00707498
0.0335165
0.016426
0.019534
-0.754119
-4.45485
-0.00457845
-0.642462
-4.59239
-0.021911
-0.680445
-4.53906
-0.00188705
-0.723354
-4.50031
0.0298006
-0.746285
-4.47312
-0.668139
-4.55128
-0.0549251
0.767985
-3.0192
0.00374864
0.840458
-3.21396
0.0254296
0.813902
-3.14752
0.00684664
0.788903
-3.07367
-0.0242468
0.771675
-3.04012
0.825577
-3.16845
-0.0467055
-0.48223
0.00463941
-0.572014
0.025338
-0.542442
0.00405979
-0.505684
-0.0354049
-0.488017
-0.556668
0.034687
2.4021
-4.73653
-0.00319526
2.43098
-4.81466
-0.0246776
2.41704
-4.77509
-0.00526577
2.42273
-4.7754
0.027145
2.44028
-4.77274
2.39702
-4.77335
0.0436572
2.83602
-3.49679
-0.0116021
2.8932
-3.62092
-0.0433759
2.87188
-3.57059
-0.00921752
2.86198
-3.54708
0.0591374
2.87476
-3.54296
2.85812
-3.57041
-0.00188448
-0.76369
-0.00629964
-0.870622
-0.0105912
-0.834331
-0.00410198
-0.794558
0.0254398
-0.784929
-0.842737
-0.00445187
4.52206
-4.29148
0.00193218
4.36085
-4.3227
0.0149364
4.41691
-4.30427
-8.15907e-05
4.48425
-4.31341
-0.0312221
4.55116
-4.32508
4.37447
-4.29713
0.0802247
3.53315
-2.5881
-0.0130644
3.43445
-2.60122
-0.0404226
3.46255
-2.58888
-0.0140188
3.52172
-2.61096
0.0486632
3.57967
-2.63416
3.42257
-2.56984
0.0840438
-0.685203
-0.0188158
-0.729961
-0.0613219
-0.711079
-0.0152937
-0.7048
0.0859492
-0.713428
-0.705581
0.00219348
0.766204
-3.5565
-0.00172191
0.637383
-3.54878
0.00156452
0.690687
-3.54767
0.000214498
0.72501
-3.56336
-0.0114829
0.756666
-3.57483
0.678403
-3.53873
0.0330487
0.0968487
-1.9518
-0.00371375
0.00707371
-1.93415
-0.00792069
0.0415508
-1.93554
-0.00396101
0.0674724
-1.95738
-0.000621478
0.091136
-1.97197
0.0306617
-1.92272
0.0334589
-0.656936
-0.00448904
-0.659723
-0.0158714
-0.656131
-0.00277932
-0.662877
0.0142122
-0.670212
-0.651021
0.0153008
-3.21906
-2.39309
-0.00119284
-3.22103
-2.38259
-0.0066748
-3.21713
-2.3861
-0.00204661
-3.22674
-2.3912
0.0155576
-3.23907
-2.39576
-3.20567
-2.38259
-0.00435734
-3.84825
-1.31825
0.00561212
-3.84718
-1.31797
0.0132231
-3.84361
-1.31667
0.00315782
-3.85468
-1.31937
-0.0218417
-3.86783
-1.3182
-3.83253
-1.31771
-0.00149138
-0.355678
0.00224073
-0.357717
0.00932242
-0.35701
0.00256021
-0.357111
-0.0178645
-0.356921
-0.357469
0.00700277
-3.02646
-1.39879
-0.000327064
-3.01266
-1.40295
-0.00388111
-3.01972
-1.40127
-0.000288877
-3.021
-1.40147
0.0116234
-3.02612
-1.4007
-3.0154
-1.4023
-0.00210392
-2.74527
-1.59733
0.000550186
-2.73586
-1.59742
0.00125778
-2.73899
-1.59811
0.000279436
-2.74357
-1.59582
-0.000238582
-2.74927
-1.59453
-2.73419
-1.59916
-0.00259565
-0.545131
0.000606822
-0.544239
0.00164757
-0.545242
0.000185222
-0.544486
-0.00359277
-0.544737
-0.545973
-0.00570951
-0.89312
-0.601097
1.49993
-0.00534583
-0.90344
-0.603311
1.50639
-0.00669413
-0.889149
-0.606375
1.49687
-0.00490995
-0.717344
-0.577155
1.29272
0.00358227
-0.706826
-0.567878
1.26621
-0.758886
-0.587716
1.35018
-0.00324544
-0.912673
-0.0533095
0.0761087
-0.00862308
-0.923388
-0.0577307
0.0830572
-0.00956568
-0.915319
-0.0652782
0.0923921
0.00459227
-0.803306
-0.0981488
0.169953
-0.00764535
-0.789837
-0.101039
0.196288
-0.824228
-0.103535
0.161232
-0.0105192
-0.406616
0.178432
-0.0413556
-0.405891
0.184666
-0.0797138
-0.398226
0.189985
-0.047825
-0.388487
0.235509
-0.00834044
-0.370253
0.220757
-0.375714
0.225368
-0.000403348
-0.389633
-0.211061
-0.000924332
-0.392429
-0.210361
-0.000376862
-0.397413
-0.20951
0.000200368
-0.365471
-0.212261
-0.00109284
-0.354874
-0.211711
-0.378719
-0.210089
0.0103127
-0.584693
0.131439
0.0177759
-0.588346
0.130724
0.0235205
-0.594544
0.126108
0.0102245
-0.574984
0.12466
0.00984012
-0.574129
0.118599
-0.589453
0.117038
-0.00567766
-0.187869
-0.0141912
-0.186894
-0.026097
-0.182776
-0.0186234
-0.170066
-0.00200711
-0.162153
-0.163543
-0.000522649
-0.219607
0.00906873
-0.000634469
-0.219581
0.00933167
-0.00023964
-0.219363
0.00945848
-0.000254082
-0.221764
0.00951667
0.00047194
-0.221939
0.00950246
-0.21953
0.00991318
0.00193839
-0.498104
0.407997
0.00373046
-0.498152
0.407502
0.00313077
-0.498603
0.405948
0.00575778
-0.501442
0.40171
0.00510501
-0.504009
0.401321
-0.49852
0.401131
-0.0040214
0.0344201
-0.00761568
0.0351726
-0.0100932
0.0372463
-0.00906375
0.0424817
-0.00434324
0.0457984
0.0456542
-9.63229e-07
-0.192779
0.201849
-0.000717994
-0.191283
0.201331
-0.00171047
-0.190488
0.200939
-2.52182e-05
-0.194257
0.202089
0.00167181
-0.194379
0.202184
-0.189367
0.200952
0.000926977
-0.568254
0.782544
0.00217074
-0.567643
0.782619
0.00202454
-0.566911
0.782516
0.00237679
-0.572412
0.779512
0.00486139
-0.574697
0.779153
-0.565471
0.782096
-0.00194015
0.296448
-0.00286983
0.29718
-0.00295798
0.298533
-0.0033145
0.299157
-0.00218232
0.299852
0.302488
-0.000700997
-0.349537
0.552087
-0.000918541
-0.351406
0.552955
-0.00111531
-0.351386
0.552522
-4.86768e-05
-0.35231
0.553332
0.00120442
-0.352688
0.553618
-0.350355
0.552512
0.000851734
-0.770312
1.20247
0.00113917
-0.771014
1.20194
0.000200764
-0.770456
1.20252
0.000632363
-0.773614
1.20038
0.00332374
-0.775743
1.19952
-0.768137
1.2032
-0.000530731
0.575965
-0.000843898
0.576168
-0.000606564
0.576975
-0.00123537
0.576281
-0.00178947
0.576048
0.579118
-2.07721e-05
-0.846683
-0.000596837
-0.84942
-0.000907342
-0.848438
2.25945e-05
-0.849071
0.00137743
-0.848441
-0.848412
0.000721306
-1.24227
0.000385017
-1.24457
-0.000159204
-1.24347
3.86781e-05
-1.24471
0.00184956
-1.24527
-1.24252
0.000126135
-0.000159619
0.000199637
-0.000530495
-0.00136528
-0.202834
5.01075
0.176538
-0.177233
5.05721
-0.0382198
-0.254624
5.15137
-0.139882
-0.0449975
6.27328
-0.519685
0.353042
7.01199
-0.72931
4.88061
0.087952
-0.234623
5.77951
-0.534138
-0.427551
5.9161
-0.665962
-0.687895
6.01312
-0.601411
-0.247022
6.6838
-0.851389
0.461688
7.29182
-0.988533
5.89735
-0.555055
-0.30728
-2.164
-0.653087
-2.18323
-0.880655
-2.12817
-0.462403
-2.06373
0.339408
-2.19044
-2.15539
0.642558
6.63884
-1.25416
0.824643
6.08517
-1.59798
0.298931
6.50648
-1.38898
-0.434309
6.23901
-1.23805
-1.20229
6.91936
-1.37841
6.7618
-0.63351
0.407512
6.56049
-0.8633
0.271614
6.60279
-1.04768
-0.178165
6.87267
-0.517824
-1.53049
6.64137
0.0985766
-2.39686
6.89471
-0.097518
4.38678
-0.576893
0.00404449
-0.494699
-0.370226
-0.516658
-0.38041
-0.389958
-1.11073
0.101327
-1.50354
-0.0089006
-0.827238
0.319601
-0.603165
-1.35473
0.141935
-0.753879
-1.43576
0.0887328
-0.749513
-1.3484
-0.351367
0.0122131
-1.37092
-0.853692
-0.0945138
-1.3551
-0.554904
-1.07496
-0.0595361
-0.268944
-1.13798
-0.706744
0.0168468
-1.17119
-0.648782
-0.417514
-0.907785
-0.129856
0.236615
-0.64475
0.239863
0.151648
-0.713398
-0.0396122
-0.852321
-0.342148
-0.244733
-0.983328
-0.250465
-1.10632
-0.217947
0.07584
-0.126877
1.00384
-0.106697
-0.202894
-0.0193081
-2.22581
-0.821182
-0.137801
-2.20028
-0.792108
-0.143943
-2.16738
-0.802328
-0.0700526
-2.49469
-0.861868
-0.107037
-2.46307
-0.769536
-2.038
-0.758408
-0.0828111
-2.67024
-0.610746
-0.269193
-2.61105
-0.574043
-0.290035
-2.53911
-0.515206
-0.0498105
-2.82446
-0.555207
0.0633903
-2.79998
-0.489686
-2.37951
-0.447417
-0.00775515
-0.195514
-0.0276819
-0.1845
-0.0313436
-0.154461
-0.0232417
-0.161574
-0.00800507
-0.152156
-0.130902
-0.0141063
-1.39249
-0.774441
-0.0012965
-1.41345
-0.770176
0.00995066
-1.42146
-0.758615
-0.0411814
-1.38881
-0.76307
-0.0343669
-1.42416
-0.747909
-1.41447
-0.748685
-0.022527
-1.47835
-0.502353
-0.0316641
-1.48679
-0.491566
-0.0178124
-1.48375
-0.466769
-0.0510402
-1.44537
-0.465418
-0.0555342
-1.46659
-0.442756
-1.46773
-0.449687
-0.0131948
-0.157578
-0.025032
-0.156017
-0.0219025
-0.149981
-0.0156292
-0.160096
-0.0169981
-0.152999
-0.143156
-0.031368
-0.922054
-0.604281
-0.0143356
-0.913453
-0.607544
-0.0162172
-0.93063
-0.596576
-0.04445
-0.92601
-0.574179
-0.0410804
-0.934051
-0.575183
-0.911111
-0.586568
-0.010155
-1.07649
-0.33776
-0.00574803
-1.07323
-0.336194
-0.00315869
-1.07599
-0.324
-0.00903701
-1.06836
-0.317186
-0.0155911
-1.06815
-0.302105
-1.06693
-0.309463
-0.00173342
-0.12571
-0.00129173
-0.125386
0.000313713
-0.121952
-0.00539322
-0.122566
-0.00770273
-0.120523
-0.118696
-0.0244582
-0.431615
-0.370968
0.0637806
-0.411647
-0.353474
0.082559
-0.447292
-0.375162
-0.00752147
-0.487487
-0.348059
-0.0732061
-0.517381
-0.353202
-0.445102
-0.352174
0.0101538
-0.658034
-0.121495
0.0390958
-0.6578
-0.118982
0.0468459
-0.665313
-0.113728
0.025005
-0.675327
-0.107505
-0.0171168
-0.679086
-0.098278
-0.66996
-0.101722
-0.000875617
-0.0903652
-0.000747219
-0.0904701
5.0603e-05
-0.0904998
-0.00295987
-0.0901502
-0.00413521
-0.0896001
-0.0899025
-0.0317914
-0.266459
0.0974934
0.0522853
-0.262641
0.0855527
0.207189
-0.282927
0.0311888
0.0375477
-0.37674
0.0597308
-0.1219
-0.432826
0.0687618
-0.324012
0.0612852
0.0317253
-0.647791
0.228112
0.0662213
-0.654784
0.238667
0.0911183
-0.660482
0.238931
0.058506
-0.685698
0.234066
-0.0117955
-0.694652
0.23385
-0.679364
0.241836
0.00254208
-0.0662873
0.00301738
-0.0666767
0.0079397
-0.0687693
0.00134557
-0.0691779
-0.00317457
-0.0691759
-0.0692367
-0.113373
-0.251233
0.53387
-0.127445
-0.258462
0.374188
0.11815
-0.241198
0.129703
-0.0221052
-0.287523
0.463828
-0.25355
-0.335238
0.510713
-0.266969
0.0830401
0.0421291
-0.568554
0.503305
0.0515605
-0.573603
0.544378
0.0555717
-0.560163
0.553886
0.0421313
-0.579567
0.539551
0.00286502
-0.588787
0.526666
-0.556927
0.53466
-0.0119989
0.0343013
-0.0181534
0.0302767
-0.00925587
0.0301591
-0.0119893
0.0275385
-0.0140343
0.0248397
0.0310672
0.0486186
-0.567543
0.183627
0.00453666
-0.681717
-0.0268056
0.22766
-0.694707
-0.296614
-0.0285866
-0.664541
0.0311458
-0.365525
-0.700127
-0.0382135
-0.672068
-0.508082
0.0973895
-0.955084
0.793456
0.100918
-0.990435
0.849567
0.0511219
-0.968721
0.877698
0.0413886
-1.00538
0.890129
0.0351503
-1.02533
0.858107
-0.995021
0.892765
-0.00201493
0.225376
-0.00874744
0.215165
0.00801404
0.218284
0.00923243
0.210919
0.000528541
0.204111
0.220916
0.115835
-1.81495
-0.997635
0.173681
-1.87216
-1.03944
0.212361
-1.85444
-1.17507
-0.0427729
-2.02263
-1.28247
-0.11911
-1.84488
-1.59471
-1.77315
-1.45679
0.0328379
-1.46504
0.410704
0.0500602
-1.48412
0.444307
0.0709003
-1.47664
0.479065
-0.0569965
-1.48847
0.483869
-0.0470739
-1.47554
0.478841
-1.44012
0.512656
-0.00833354
0.302236
-0.0196828
0.295741
-0.0277389
0.293084
-0.0192969
0.285422
-0.0212096
0.29316
0.293269
0.0291864
-1.73415
0.00203298
-1.712
-0.142027
-1.76315
-0.10049
-2.41617
0.296865
-2.55489
-2.12814
0.114241
-1.36158
0.292467
-1.36286
0.468825
-1.36805
0.245297
-1.53882
-0.00726171
-1.6272
-1.46152
0.00348002
0.012446
0.0105381
-0.019977
-0.00518154
)
;

boundaryField
{
    seabed_topleft_surface
    {
        type            calculated;
        value           uniform 0;
    }
    seabed_topright_surface
    {
        type            calculated;
        value           uniform 0;
    }
    breakwater_top_surface
    {
        type            calculated;
        value           uniform 0;
    }
    breakwater_left_surface
    {
        type            calculated;
        value           uniform 0;
    }
    breakwater_right_surface
    {
        type            calculated;
        value           uniform 0;
    }
    water_front_surface
    {
        type            calculated;