/*--------------------------------*- C++ -*----------------------------------*\
| =========                 |                                                 |
| \\      /  F ield         | OpenFOAM: The Open Source CFD Toolbox           |
|  \\    /   O peration     | Version:  v1612+                                |
|   \\  /    A nd           | Web:      www.OpenFOAM.com                      |
|    \\/     M anipulation  |                                                 |
\*---------------------------------------------------------------------------*/
FoamFile
{
    version     2.0;
    format      ascii;
    class       volVectorField;
    location    "0.3";
    object      U;
}
// * * * * * * * * * * * * * * * * * * * * * * * * * * * * * * * * * * * * * //

dimensions      [0 1 -1 0 0 0 0];

internalField   nonuniform List<vector> 
320
(
(4.45562e-07 -2.4925e-07 4.42589e-07)
(1.40007e-07 -1.41151e-07 3.88102e-07)
(-5.28216e-07 -6.16126e-07 -1.76262e-06)
(8.47919e-08 -2.07436e-07 -1.76402e-06)
(4.29301e-06 -2.64099e-05 5.66279e-05)
(3.74113e-05 -1.75949e-05 -3.78278e-05)
(1.94574e-05 -1.41422e-05 1.6856e-06)
(1.1768e-05 -5.80437e-05 1.9301e-05)
(2.48227e-05 -4.93459e-05 -3.64275e-05)
(-1.90381e-05 -1.60114e-06 1.89946e-05)
(3.16881e-05 -7.99973e-06 2.12258e-05)
(1.15344e-05 -1.65033e-05 -5.03452e-05)
(-6.92945e-05 -4.40069e-05 4.50275e-06)
(-7.96583e-05 1.59056e-06 1.16369e-05)
(-7.89792e-06 -1.17679e-05 -4.35746e-05)
(-2.7283e-05 -4.00014e-05 -0.000172884)
(-3.79831e-06 -6.33143e-07 -1.65259e-06)
(3.39878e-06 -7.38961e-07 -1.76106e-06)
(3.41013e-06 -3.26964e-07 7.02217e-07)
(4.01019e-07 -4.16682e-06 4.68109e-07)
(3.43943e-06 2.91655e-07 -1.68491e-06)
(1.24313e-06 4.23206e-06 8.21098e-07)
(3.7174e-06 3.44183e-06 -9.48981e-08)
(-1.16307e-06 5.75456e-07 -1.38508e-06)
(-3.50814e-06 -2.30097e-06 7.58945e-07)
(-3.34404e-06 4.10244e-06 5.81319e-07)
(-6.38886e-07 -5.00441e-07 -1.85084e-06)
(-3.65556e-06 -4.32636e-06 6.99839e-07)
(-6.11327e-07 -3.36686e-07 -1.93214e-06)
(4.96333e-07 -3.10539e-07 -2.09289e-06)
(5.84072e-07 -2.00536e-07 7.86671e-07)
(1.93062e-07 -6.6079e-07 6.63692e-07)
(6.76038e-07 -1.01141e-07 -2.31605e-06)
(2.64967e-07 5.11227e-07 1.01053e-06)
(6.54992e-07 5.01143e-07 -7.31292e-10)
(-1.33436e-07 3.56628e-08 -1.84037e-06)
(-7.16633e-07 -3.71123e-07 8.82755e-07)
(-7.84299e-07 3.71561e-07 7.04095e-07)
(-2.38853e-07 -2.2426e-07 -2.4173e-06)
(-6.62472e-07 -7.51392e-07 9.87753e-07)
(2.43904e-07 -1.72918e-07 9.4203e-08)
(9.71889e-08 -1.37919e-07 9.43308e-08)
(-2.98928e-07 -3.77624e-07 -3.58288e-07)
(3.2527e-08 -1.8904e-07 -3.19551e-07)
(-3.38842e-07 -2.64271e-07 -2.74854e-07)
(2.98323e-07 -2.54674e-07 -3.26728e-07)
(3.26408e-07 -1.7134e-07 1.07708e-07)
(1.49023e-07 -4.38714e-07 1.92592e-07)
(4.00825e-07 -9.01396e-08 -3.29214e-07)
(2.297e-07 2.87952e-07 1.70142e-07)
(3.84674e-07 2.43696e-07 2.57801e-09)
(-1.2816e-07 -1.07458e-09 -3.02516e-07)
(-4.29177e-07 -2.09382e-07 9.63966e-08)
(-4.52158e-07 1.83024e-07 8.80456e-08)
(-1.61798e-07 -1.77833e-07 -2.86339e-07)
(-3.9409e-07 -4.98502e-07 1.65264e-07)
(1.61842e-05 -2.27289e-05 1.88442e-05)
(1.39031e-05 -5.72213e-05 2.80129e-06)
(2.01744e-06 -2.95117e-05 8.2022e-06)
(-6.78746e-06 -2.18863e-05 2.28346e-05)
(-2.90138e-05 3.07652e-05 3.38648e-05)
(1.3162e-05 9.51827e-07 3.76974e-05)
(-2.69008e-06 -2.84203e-05 3.15331e-05)
(3.36549e-05 -5.39777e-05 1.71274e-05)
(-5.61924e-05 -7.48947e-05 1.4903e-05)
(2.53559e-05 -7.75612e-06 -8.46081e-05)
(-4.20586e-05 -5.09238e-05 2.5558e-05)
(3.72898e-05 -7.38031e-06 1.51675e-05)
(1.82705e-05 -2.02681e-05 -4.24507e-05)
(-7.53797e-05 -3.01669e-05 -4.15388e-05)
(-1.9218e-05 -1.64718e-06 2.95163e-05)
(-3.42856e-05 -2.07532e-05 2.65282e-05)
(-3.0131e-05 -5.34531e-06 2.35987e-05)
(-2.90691e-05 9.36755e-06 8.40196e-06)
(3.66357e-05 -2.34631e-06 2.38024e-05)
(9.6349e-06 3.48092e-07 3.21896e-05)
(-1.16514e-07 7.42628e-08 5.84057e-07)
(2.81805e-08 -3.51973e-06 5.57816e-07)
(4.06741e-08 -3.60171e-06 6.4994e-07)
(-3.73289e-07 1.24896e-07 5.88047e-07)
(-1.33406e-06 2.12995e-06 3.70897e-07)
(-8.27304e-07 3.53528e-08 4.77532e-07)
(-7.33354e-07 2.19936e-07 4.26561e-07)
(3.99012e-06 1.65891e-07 7.56984e-07)
(-2.52843e-06 -2.58559e-06 7.17971e-07)
(-7.1407e-07 -8.46967e-07 -6.59296e-07)
(-2.58801e-06 -1.9824e-06 8.2763e-07)
(2.9918e-06 3.12977e-09 8.99432e-07)
(2.6356e-06 7.36416e-07 -7.91429e-07)
(-2.73703e-06 -2.06612e-06 -7.1002e-07)
(-5.71785e-07 -2.29779e-07 5.48368e-07)
(2.26128e-07 -3.15729e-08 5.59607e-07)
(2.45643e-07 -2.0963e-07 4.71205e-07)
(-3.95227e-06 -4.1476e-07 6.58802e-07)
(1.41149e-06 -1.10765e-07 7.45409e-07)
(8.21984e-07 8.65265e-08 6.3349e-07)
(-2.55588e-08 -1.62493e-07 7.91913e-07)
(4.70984e-09 -7.29138e-07 7.60487e-07)
(3.85496e-09 -7.34594e-07 8.25284e-07)
(-1.09258e-07 -1.86582e-07 8.00678e-07)
(-2.60291e-07 2.75039e-07 5.32112e-07)
(8.18101e-09 -8.21972e-09 6.24639e-07)
(-9.97143e-08 -4.91839e-08 6.13534e-07)
(6.27493e-07 -1.35531e-07 9.03781e-07)
(-2.77827e-07 -3.56412e-07 8.86688e-07)
(2.0595e-08 -1.79044e-07 -1.03737e-06)
(-1.81516e-07 -3.13434e-07 1.00389e-06)
(5.60357e-07 -7.59985e-08 1.06172e-06)
(3.44048e-07 -3.7384e-08 -1.26264e-06)
(-5.91857e-07 -3.55161e-07 -1.06612e-06)
(-1.8299e-07 -1.31393e-07 7.47089e-07)
(-1.91469e-07 -1.56779e-07 7.77925e-07)
(-1.45075e-07 -1.38349e-07 6.8036e-07)
(-5.92731e-07 -1.27423e-07 8.71112e-07)
(1.13408e-07 -1.23393e-07 9.496e-07)
(1.76862e-07 -1.57696e-09 8.67549e-07)
(-7.61515e-09 -1.24752e-07 1.93415e-07)
(7.6231e-11 -4.59637e-07 2.28672e-07)
(4.25836e-09 -4.43721e-07 2.10173e-07)
(-6.93173e-08 -1.29781e-07 2.38267e-07)
(-1.68724e-07 9.73934e-08 1.23681e-07)
(-1.89749e-08 -3.6334e-08 1.25957e-07)
(-4.26942e-08 -6.35014e-08 1.84186e-07)
(3.92638e-07 -1.08363e-07 1.53552e-07)
(-1.14868e-07 -2.04334e-07 1.4333e-07)
(5.81497e-09 -1.26909e-07 -1.12474e-07)
(-4.72043e-08 -1.66995e-07 1.0673e-07)
(3.21554e-07 -3.86443e-08 1.24978e-07)
(1.5415e-07 -1.62391e-08 -2.8406e-07)
(-3.34806e-07 -1.96515e-07 -1.7847e-07)
(-1.32305e-07 -9.92512e-08 1.31072e-07)
(-1.39157e-07 -1.18426e-07 1.98177e-07)
(-9.35354e-08 -1.10245e-07 1.93803e-07)
(-3.57933e-07 -1.14851e-07 2.37169e-07)
(6.01102e-08 -1.10088e-07 2.13941e-07)
(1.42168e-07 -1.94564e-08 2.44136e-07)
(6.35195e-08 -1.64474e-07 3.14119e-08)
(6.16357e-08 -1.43402e-07 2.25337e-08)
(-1.13335e-07 -2.10167e-07 -1.43481e-07)
(4.16511e-08 -1.39047e-07 -1.38737e-07)
(-1.07057e-07 -1.95682e-07 -1.36282e-07)
(1.01127e-07 -1.77969e-07 -1.46736e-07)
(1.22615e-07 -1.42009e-07 5.35361e-08)
(8.6244e-08 -2.2395e-07 7.47986e-08)
(1.73959e-07 -1.06734e-07 -1.63476e-07)
(1.14747e-07 4.68952e-08 7.61274e-08)
(1.65069e-07 2.39302e-08 -4.2931e-08)
(-4.25321e-08 -6.09677e-08 -1.3408e-07)
(-2.08136e-07 -1.19535e-07 4.57979e-08)
(-2.18194e-07 -3.29956e-08 4.31262e-08)
(-9.42758e-08 -1.37124e-07 -1.58904e-07)
(-1.44013e-07 -2.38315e-07 7.74903e-08)
(8.6267e-09 -1.04512e-07 8.21274e-08)
(3.17286e-09 -2.22341e-07 9.34565e-08)
(7.96348e-09 -2.13444e-07 8.82378e-08)
(-2.72137e-08 -1.11716e-07 9.74553e-08)
(-8.12721e-08 -5.29131e-09 4.43149e-08)
(6.97271e-09 -6.45108e-08 5.27644e-08)
(-3.11607e-10 -9.20577e-08 7.35199e-08)
(1.55992e-07 -1.10545e-07 7.18568e-08)
(-4.38485e-09 -1.05628e-07 6.64842e-08)
(3.7479e-08 -7.17445e-08 -3.51919e-08)
(4.44008e-08 -8.69529e-08 6.27093e-08)
(1.49514e-07 -6.19243e-08 6.37893e-08)
(3.01298e-08 -5.68214e-08 -9.78878e-08)
(-1.7347e-07 -9.25378e-08 -5.47503e-08)
(-9.7802e-08 -7.12785e-08 6.22816e-08)
(-1.12923e-07 -1.05691e-07 8.37516e-08)
(-8.59201e-08 -9.63066e-08 8.10498e-08)
(-1.27762e-07 -9.02933e-08 9.44835e-08)
(2.48671e-08 -9.27791e-08 9.48732e-08)
(8.76905e-08 -3.23445e-08 9.87602e-08)
(8.24834e-05 1.397e-05 1.82382e-05)
(3.028e-05 -3.88897e-06 1.57492e-05)
(1.10811e-05 -1.25022e-07 1.28754e-05)
(2.08442e-06 -1.06689e-06 2.04434e-05)
(-4.08202e-05 -1.92077e-07 2.38946e-05)
(-4.59896e-05 3.29394e-05 -3.50693e-05)
(-1.85843e-06 1.68058e-05 9.2634e-05)
(-1.79848e-05 3.7229e-05 -0.000437064)
(4.66467e-06 1.21811e-05 3.51243e-05)
(-6.78983e-06 -3.75486e-05 4.42404e-05)
(-4.4631e-06 -0.000102875 2.80672e-05)
(-5.56128e-05 -9.85818e-06 -0.000101621)
(6.0561e-05 5.61636e-05 8.73256e-06)
(8.25597e-06 -7.58818e-06 4.96004e-05)
(5.08903e-05 4.47162e-05 2.22128e-05)
(-1.94119e-05 -3.30787e-05 -3.99584e-05)
(1.01795e-06 2.2096e-05 -1.21912e-06)
(3.43243e-05 3.14899e-06 -3.31982e-05)
(-8.78862e-05 6.02282e-06 -3.53677e-05)
(-5.0462e-05 1.5667e-05 1.33136e-05)
(8.71472e-06 3.72706e-05 2.91059e-05)
(3.02947e-05 -1.39992e-05 -3.64277e-05)
(-3.64732e-06 -5.49332e-05 3.6877e-05)
(-3.85737e-06 6.8046e-06 3.70472e-05)
(8.50188e-06 5.49918e-05 2.19774e-05)
(4.16912e-05 -1.30018e-06 -0.000252016)
(9.54127e-06 2.30854e-05 -0.000191404)
(6.44801e-05 6.89037e-05 -1.20839e-05)
(4.3815e-06 5.59644e-08 6.56505e-07)
(-4.93107e-08 -2.78192e-08 5.65158e-07)
(-1.22337e-07 -1.124e-08 5.49852e-07)
(-2.45849e-07 1.22699e-07 5.16747e-07)
(-2.32153e-06 2.75283e-07 4.02719e-07)
(-6.42481e-07 2.07095e-06 -9.17297e-07)
(1.53005e-06 -4.16302e-07 1.29337e-07)
(-9.5719e-07 -5.99236e-08 -3.6668e-07)
(-6.59829e-07 2.73742e-07 -1.18146e-07)
(-7.18795e-07 6.50607e-07 -1.45471e-07)
(-2.29156e-07 -1.50341e-06 5.37127e-07)
(-2.3881e-06 -4.72136e-07 -6.06724e-07)
(1.88431e-06 1.70619e-06 2.08837e-07)
(1.65061e-07 -5.83221e-08 1.32791e-07)
(1.16017e-06 1.66093e-06 1.5116e-07)
(3.93038e-07 -1.93256e-06 -3.58047e-07)
(9.98601e-07 -1.32013e-06 -2.37179e-08)
(9.06178e-07 6.06661e-08 -8.41789e-07)
(-2.54196e-06 4.09292e-07 -5.68329e-07)
(-1.88278e-06 -1.34405e-07 4.33695e-07)
(-3.53085e-08 1.72029e-06 4.49879e-07)
(1.81939e-06 4.27952e-08 -5.66043e-07)
(2.37267e-07 -1.48355e-06 3.51826e-07)
(3.67409e-07 -7.59563e-08 1.58769e-07)
(3.7094e-07 6.65414e-07 3.82174e-07)
(1.44759e-06 4.47888e-07 -2.02148e-07)
(9.29589e-07 3.04428e-06 -1.75665e-08)
(4.40537e-06 3.53173e-06 -1.60087e-06)
(7.0812e-07 9.13909e-08 8.31652e-07)
(6.50888e-08 -3.4291e-08 7.79732e-07)
(-3.9226e-08 7.4326e-10 7.49424e-07)
(-4.62235e-08 9.64485e-09 6.91609e-07)
(-4.2556e-07 5.08216e-08 5.71838e-07)
(-2.49866e-07 3.25947e-07 -1.15122e-06)
(1.85919e-07 4.03971e-08 8.15084e-08)
(-9.96307e-08 7.14655e-08 -1.2203e-07)
(-1.7654e-08 -3.99599e-08 4.16242e-08)
(-1.31371e-07 -4.14785e-08 -1.24279e-08)
(-9.94871e-09 -2.79254e-07 6.84426e-07)
(-2.75094e-07 -9.56699e-08 -9.62204e-07)
(2.50794e-07 1.93981e-07 3.60832e-07)
(9.79309e-08 -1.91528e-08 3.07682e-07)
(2.29589e-07 1.3371e-07 2.39817e-07)
(1.61922e-07 -2.28146e-07 -5.28878e-07)
(3.78942e-07 -2.09727e-07 1.12245e-08)
(1.45728e-07 -4.67313e-08 -1.23569e-06)
(-6.22623e-07 -1.14069e-08 -7.45644e-07)
(-4.73309e-07 -1.5965e-08 6.54023e-07)
(-5.36349e-08 2.78912e-07 6.40439e-07)
(2.41242e-07 -7.33221e-08 -7.40583e-07)
(4.43574e-09 -3.33208e-07 5.55125e-07)
(6.48133e-08 -2.97005e-08 3.67703e-07)
(1.13084e-07 3.42213e-08 5.79201e-07)
(2.26457e-07 1.82012e-08 -1.26077e-07)
(2.54678e-07 4.32219e-07 2.01756e-07)
(6.6025e-07 4.96963e-07 -2.44155e-06)
(4.44593e-07 4.16301e-08 1.68324e-07)
(4.60901e-08 -2.85937e-08 1.87595e-07)
(-1.98728e-08 -1.20753e-08 2.06839e-07)
(-3.15325e-08 -8.64483e-09 1.73245e-07)
(-2.14707e-07 2.37154e-08 1.76915e-07)
(-1.24499e-07 1.36745e-07 -1.64844e-07)
(9.2897e-08 -2.05101e-08 -7.9116e-09)
(-6.43579e-08 -2.42574e-08 5.04763e-08)
(-2.87537e-08 -4.53101e-08 1.02235e-07)
(-7.33338e-08 -2.71019e-08 6.60099e-08)
(7.64592e-09 -1.62314e-07 1.25612e-07)
(-1.27285e-07 -9.88708e-08 -1.16236e-07)
(1.13109e-07 6.07869e-08 8.68425e-08)
(6.04115e-08 -1.71173e-08 9.07631e-08)
(1.12913e-07 3.55802e-08 1.93103e-08)
(1.41435e-07 -1.24215e-07 -6.87443e-08)
(2.33918e-07 -1.5306e-07 -1.99787e-08)
(2.9711e-08 -3.65798e-08 -3.02879e-07)
(-3.46164e-07 -2.86202e-08 -1.73371e-07)
(-2.78048e-07 -2.52213e-08 1.27994e-07)
(-4.71572e-08 1.17124e-07 1.46427e-07)
(9.51877e-08 -5.76236e-08 -1.00676e-07)
(-5.52947e-09 -1.70613e-07 1.7248e-07)
(4.30008e-08 -3.57524e-08 1.26925e-07)
(6.89637e-08 -2.41874e-08 1.46897e-07)
(1.33664e-07 1.59846e-09 5.02877e-08)
(1.8065e-07 2.5973e-07 8.8017e-08)
(4.12851e-07 2.7383e-07 -3.24688e-07)
(1.93524e-07 1.90228e-08 7.45701e-08)
(4.59834e-08 -2.28085e-08 8.00969e-08)
(1.87452e-09 -1.8334e-08 8.72607e-08)
(-9.4987e-09 -2.15104e-08 7.2614e-08)
(-8.55383e-08 -8.71957e-10 6.75268e-08)
(-7.14791e-08 3.68141e-08 -5.58999e-08)
(2.21218e-08 -1.0665e-08 1.149e-08)
(-2.53572e-08 -3.3264e-08 5.2808e-09)
(-5.85077e-09 -6.1049e-08 2.29204e-08)
(-2.18953e-08 -7.49304e-08 1.7459e-08)
(1.12767e-08 -1.10807e-07 6.47644e-08)
(-2.21576e-08 -7.16181e-08 -4.1301e-08)
(4.5287e-08 -1.26056e-08 3.03299e-08)
(3.69813e-08 -1.53143e-08 3.32335e-08)
(6.99625e-08 -7.00859e-09 4.37741e-09)
(1.04926e-07 -4.77977e-08 -8.87926e-09)
(1.34937e-07 -6.75342e-08 -2.25341e-08)
(-1.19188e-08 -3.32211e-08 -1.03448e-07)
(-1.93679e-07 -2.54857e-08 -6.26069e-08)
(-1.509e-07 -1.30124e-08 5.01114e-08)
(-3.21315e-08 2.76119e-08 6.35222e-08)
(8.49291e-09 -5.45609e-08 -2.36071e-08)
(-1.54137e-08 -1.07653e-07 7.02241e-08)
(6.53146e-09 -4.78355e-08 3.93573e-08)
(3.30576e-08 -2.63374e-08 5.30258e-08)
(7.04875e-08 -2.28626e-08 2.82599e-08)
(1.02974e-07 6.41445e-08 1.99493e-08)
(1.66977e-07 8.30251e-08 -1.6823e-07)
(3.63046e-05 -4.30084e-05 -3.45045e-06)
(1.43095e-05 -3.38053e-05 7.8694e-06)
(-1.77173e-05 -6.66903e-05 -6.81001e-05)
(2.23734e-05 -2.31646e-05 -3.02347e-05)
(3.61559e-06 -1.03244e-07 3.34748e-07)
(3.4684e-07 1.90659e-07 2.48281e-07)
(-3.10722e-06 -3.07891e-06 -1.16409e-06)
(-6.64795e-07 -6.76227e-07 -1.36833e-06)
)
;

boundaryField
{
    top_fluid_surface
    {
        type            pressureInletOutletVelocity;
        value           nonuniform List<vector> 
64
(
(0 0 5.66279e-05)
(0 0 -3.78278e-05)
(0 0 1.6856e-06)
(1.1768e-05 -5.80437e-05 1.9301e-05)
(0 0 -3.64275e-05)
(-1.90381e-05 -1.60114e-06 1.89946e-05)
(3.16881e-05 -7.99973e-06 2.12258e-05)
(0 0 -5.03452e-05)
(-6.92945e-05 -4.40069e-05 4.50275e-06)
(-7.96583e-05 1.59056e-06 1.16369e-05)
(0 0 -4.35746e-05)
(0 0 -0.000172884)
(1.61842e-05 -2.27289e-05 1.88442e-05)
(1.39031e-05 -5.72213e-05 2.80129e-06)
(2.01744e-06 -2.95117e-05 8.2022e-06)
(-6.78746e-06 -2.18863e-05 2.28346e-05)
(-2.90138e-05 3.07652e-05 3.38648e-05)
(1.3162e-05 9.51827e-07 3.76974e-05)
(-2.69008e-06 -2.84203e-05 3.15331e-05)
(3.36549e-05 -5.39777e-05 1.71274e-05)
(-5.61924e-05 -7.48947e-05 1.4903e-05)
(0 0 -8.46081e-05)
(-4.20586e-05 -5.09238e-05 2.5558e-05)
(3.72898e-05 -7.38031e-06 1.51675e-05)
(0 0 -4.24507e-05)
(0 0 -4.15388e-05)
(-1.9218e-05 -1.64718e-06 2.95163e-05)
(-3.42856e-05 -2.07532e-05 2.65282e-05)
(-3.0131e-05 -5.34531e-06 2.35987e-05)
(-2.90691e-05 9.36755e-06 8.40196e-06)
(3.66357e-05 -2.34631e-06 2.38024e-05)
(9.6349e-06 3.48092e-07 3.21896e-05)
(8.24834e-05 1.397e-05 1.82382e-05)
(3.028e-05 -3.88897e-06 1.57492e-05)
(1.10811e-05 -1.25022e-07 1.28754e-05)
(2.08442e-06 -1.06689e-06 2.04434e-05)
(-4.08202e-05 -1.92077e-07 2.38946e-05)
(0 0 -3.50693e-05)
(-1.85843e-06 1.68058e-05 9.2634e-05)
(0 0 -0.000437064)
(4.66467e-06 1.21811e-05 3.51243e-05)
(-6.78983e-06 -3.75486e-05 4.42404e-05)
(-4.4631e-06 -0.000102875 2.80672e-05)
(0 0 -0.000101621)
(6.0561e-05 5.61636e-05 8.73256e-06)
(8.25597e-06 -7.58818e-06 4.96004e-05)
(5.08903e-05 4.47162e-05 2.22128e-05)
(0 0 -3.99584e-05)
(1.01795e-06 2.2096e-05 -1.21912e-06)
(0 0 -3.31982e-05)
(0 0 -3.53677e-05)
(-5.0462e-05 1.5667e-05 1.33136e-05)
(8.71472e-06 3.72706e-05 2.91059e-05)
(0 0 -3.64277e-05)
(-3.64732e-06 -5.49332e-05 3.6877e-05)
(-3.85737e-06 6.8046e-06 3.70472e-05)
(8.50188e-06 5.49918e-05 2.19774e-05)
(0 0 -0.000252016)
(0 0 -0.000191404)
(0 0 -1.20839e-05)
(0 0 -3.45045e-06)
(1.43095e-05 -3.38053e-05 7.8694e-06)
(0 0 -6.81001e-05)
(0 0 -3.02347e-05)
)
;
    }
    bottom_fluid_surface
    {
        type            noSlip;
    }
    lateral_surface_1
    {
        type            noSlip;
    }
    lateral_surface_2
    {
        type            noSlip;
    }
    lateral_surface_3
    {
        type            noSlip;
    }
    lateral_surface_4
    {
        type            noSlip;
    }
}


// ************************************************************************* //
