/*--------------------------------*- C++ -*----------------------------------*\
| =========                 |                                                 |
| \\      /  F ield         | OpenFOAM: The Open Source CFD Toolbox           |
|  \\    /   O peration     | Version:  v1612+                                |
|   \\  /    A nd           | Web:      www.OpenFOAM.com                      |
|    \\/     M anipulation  |                                                 |
\*---------------------------------------------------------------------------*/
FoamFile
{
    version     2.0;
    format      ascii;
    class       volScalarField;
    location    "1.7";
    object      alpha.water;
}
// * * * * * * * * * * * * * * * * * * * * * * * * * * * * * * * * * * * * * //

dimensions      [0 0 0 0 0 0 0];

internalField   nonuniform List<scalar> 
1116
(
0.999999
0.999999
0.999999
0.999999
0.999999
0.999999
0.999999
0.999999
0.999999
0.999999
0.999999
0.999999
0.999986
0.999986
0.999986
0.999986
0.999986
0.999986
0.999958
0.999958
0.999958
0.999958
0.999958
0.999958
0.999703
0.999703
0.999703
0.999703
0.999703
0.999703
0.997831
0.99783
0.997831
0.997831
0.997831
0.997831
0.964151
0.964147
0.964148
0.964148
0.964148
0.964148
0.893052
0.89304
0.89304
0.893041
0.893041
0.893043
0.803019
0.803001
0.803
0.803002
0.803002
0.803007
0.81066
0.81066
0.810659
0.810658
0.810657
0.810656
0.75576
0.755774
0.755776
0.755778
0.755776
0.755763
0.153054
0.153069
0.153071
0.153073
0.153071
0.153063
0.999999
0.999999
0.999999
0.999999
0.999999
0.999999
0.999991
0.999991
0.999991
0.999991
0.999991
0.999991
0.999958
0.999958
0.999958
0.999958
0.999958
0.999958
0.96024
0.960242
0.960244
0.960244
0.960244
0.960246
0.831376
0.831375
0.831377
0.831377
0.831377
0.831377
0.595143
0.595133
0.595136
0.595138
0.595138
0.595139
0.305723
0.305709
0.305711
0.305714
0.305714
0.305715
0.0628368
0.0628283
0.0628282
0.0628296
0.0628299
0.0628302
2.98187e-07
2.98189e-07
2.98203e-07
2.98223e-07
2.98228e-07
2.98235e-07
0.00137621
0.00137565
0.00137549
0.00137519
0.00137493
0.00137457
0.0394004
0.0393957
0.0393963
0.0393953
0.0393923
0.0393935
0.134337
0.134336
0.134338
0.134338
0.134333
0.134337
0.999989
0.999989
0.999989
0.999989
0.999989
0.999989
0.94114
0.941139
0.94114
0.941141
0.941141
0.941143
0.699654
0.699655
0.699657
0.699659
0.699659
0.699664
0.318666
0.318668
0.318673
0.318676
0.318676
0.318682
0.00968533
0.00968471
0.00968638
0.00968735
0.00968781
0.00968941
6.1247e-08
6.12476e-08
6.12533e-08
6.12589e-08
6.12631e-08
6.12668e-08
-1.3506e-09
-1.35103e-09
-1.35127e-09
-1.35141e-09
-1.35134e-09
-1.35165e-09
-1.10318e-08
-1.10333e-08
-1.10334e-08
-1.10351e-08
-1.10366e-08
-1.10372e-08
9.19113e-09
9.19326e-09
9.19385e-09
9.1944e-09
9.18513e-09
9.19371e-09
1.34709e-07
1.34663e-07
1.34712e-07
1.34777e-07
1.34711e-07
1.3484e-07
2.02426e-05
2.02482e-05
2.02482e-05
2.02442e-05
2.02369e-05
2.0228e-05
0.0547677
0.0547644
0.0547659
0.0547643
0.0547589
0.0547667
0.978727
0.978726
0.978727
0.978727
0.978727
0.978728
0.249402
0.249401
0.249402
0.249405
0.249406
0.24941
4.41269e-08
4.41022e-08
4.40967e-08
4.40954e-08
4.40955e-08
4.41123e-08
1.40635e-07
1.40619e-07
1.40611e-07
1.40607e-07
1.40607e-07
1.40624e-07
5.92561e-08
5.92568e-08
5.92621e-08
5.92673e-08
5.92714e-08
5.92747e-08
-4.20499e-12
-4.20485e-12
-4.20677e-12
-4.2079e-12
-4.20527e-12
-4.20784e-12
7.63339e-11
7.64108e-11
7.63666e-11
7.6322e-11
7.64653e-11
7.61819e-11
1.1062e-09
1.10631e-09
1.10664e-09
1.10693e-09
1.1068e-09
1.10746e-09
1.52238e-09
1.52265e-09
1.52286e-09
1.52301e-09
1.52365e-09
1.52312e-09
6.48947e-06
6.48908e-06
6.48919e-06
6.48917e-06
6.48763e-06
6.48696e-06
6.22211e-06
6.22282e-06
6.22343e-06
6.22333e-06
6.21948e-06
6.22172e-06
5.41314e-05
5.41244e-05
5.41328e-05
5.41279e-05
5.41014e-05
5.40995e-05
2.97693e-64
2.98276e-64
2.98266e-64
2.98335e-64
2.98538e-64
2.98097e-64
4.68426e-60
4.69369e-60
4.69377e-60
4.6951e-60
4.69861e-60
4.69243e-60
3.50652e-56
3.51355e-56
3.51375e-56
3.51484e-56
3.51763e-56
3.51334e-56
1.6442e-52
1.64748e-52
1.64762e-52
1.64816e-52
1.64954e-52
1.6477e-52
5.37746e-49
5.38807e-49
5.38867e-49
5.39057e-49
5.39531e-49
5.38984e-49
1.29659e-45
1.29911e-45
1.29928e-45
1.29977e-45
1.30096e-45
1.29979e-45
2.37532e-42
2.37982e-42
2.38014e-42
2.38109e-42
2.38335e-42
2.38151e-42
3.38236e-39
3.38851e-39
3.38897e-39
3.39035e-39
3.39365e-39
3.39145e-39
3.88692e-36
3.89347e-36
3.89391e-36
3.89552e-36
3.89941e-36
3.89738e-36
3.89145e-33
3.89691e-33
3.89708e-33
3.89868e-33
3.90277e-33
3.90145e-33
3.22983e-30
3.23621e-30
3.23661e-30
3.2376e-30
3.24029e-30
3.23849e-30
1.76327e-27
1.76723e-27
1.76734e-27
1.76742e-27
1.768e-27
1.76571e-27
7.73969e-61
7.75284e-61
7.75223e-61
7.75392e-61
7.75938e-61
7.74851e-61
1.17223e-56
1.17424e-56
1.17419e-56
1.1745e-56
1.1754e-56
1.17393e-56
8.34056e-53
8.35453e-53
8.35437e-53
8.35678e-53
8.36356e-53
8.3539e-53
3.65362e-49
3.65956e-49
3.65953e-49
3.66066e-49
3.66378e-49
3.65991e-49
1.09317e-45
1.09487e-45
1.09486e-45
1.09522e-45
1.0962e-45
1.09517e-45
2.36685e-42
2.37032e-42
2.37031e-42
2.37113e-42
2.37334e-42
2.37141e-42
3.91026e-39
3.91549e-39
3.91542e-39
3.91682e-39
3.92065e-39
3.91802e-39
5.25616e-36
5.26217e-36
5.26188e-36
5.26383e-36
5.26919e-36
5.2665e-36
6.13441e-33
6.13968e-33
6.13898e-33
6.14125e-33
6.14781e-33
6.14581e-33
6.5714e-30
6.57441e-30
6.57308e-30
6.57545e-30
6.5828e-30
6.58214e-30
5.00091e-27
5.0089e-27
5.00891e-27
5.00996e-27
5.01368e-27
5.01091e-27
1.83151e-24
1.83514e-24
1.8351e-24
1.83504e-24
1.83547e-24
1.833e-24
4.29462e-57
4.30229e-57
4.30184e-57
4.30235e-57
4.30458e-57
4.29732e-57
6.87344e-53
6.88574e-53
6.8852e-53
6.88622e-53
6.89005e-53
6.87918e-53
5.15486e-49
5.1639e-49
5.16354e-49
5.16433e-49
5.16727e-49
5.15944e-49
2.36508e-45
2.3691e-45
2.36893e-45
2.36929e-45
2.37065e-45
2.3672e-45
7.32458e-42
7.33657e-42
7.33599e-42
7.33705e-42
7.34124e-42
7.33104e-42
1.59768e-38
1.60017e-38
1.60002e-38
1.60023e-38
1.60114e-38
1.59902e-38
2.45685e-35
2.46044e-35
2.46016e-35
2.46045e-35
2.46181e-35
2.45874e-35
2.60842e-32
2.61195e-32
2.61159e-32
2.61185e-32
2.61325e-32
2.61018e-32
1.92667e-29
1.92907e-29
1.92876e-29
1.92891e-29
1.92992e-29
1.92783e-29
1.05087e-26
1.05205e-26
1.05187e-26
1.05193e-26
1.05248e-26
1.05147e-26
4.55531e-24
4.56197e-24
4.56151e-24
4.56153e-24
4.56326e-24
4.55843e-24
8.91375e-22
8.92901e-22
8.92818e-22
8.92706e-22
8.92787e-22
8.9146e-22
1.88226e-54
1.88599e-54
1.88591e-54
1.88612e-54
1.88698e-54
1.88363e-54
3.10945e-50
3.11564e-50
3.11559e-50
3.11601e-50
3.11749e-50
3.11222e-50
2.34758e-46
2.3522e-46
2.35219e-46
2.35251e-46
2.35363e-46
2.34977e-46
1.04421e-42
1.04623e-42
1.04623e-42
1.04637e-42
1.04686e-42
1.04519e-42
2.97624e-39
2.98187e-39
2.98186e-39
2.98223e-39
2.98361e-39
2.97901e-39
5.65671e-36
5.6671e-36
5.66702e-36
5.66766e-36
5.67023e-36
5.66181e-36
7.47848e-33
7.49154e-33
7.49127e-33
7.49199e-33
7.49528e-33
7.48463e-33
7.26819e-30
7.27975e-30
7.2792e-30
7.2797e-30
7.28282e-30
7.27316e-30
5.50939e-27
5.51681e-27
5.51608e-27
5.51628e-27
5.51863e-27
5.51216e-27
3.48324e-24
3.48661e-24
3.48587e-24
3.48587e-24
3.4874e-24
3.48406e-24
1.5462e-21
1.54827e-21
1.54804e-21
1.54791e-21
1.54823e-21
1.54626e-21
1.6915e-19
1.6939e-19
1.69365e-19
1.69338e-19
1.69341e-19
1.69089e-19
0.501108
0.501107
0.501109
0.501109
0.501109
0.501113
0.105403
0.105406
0.105407
0.105405
0.105405
0.105411
-1.40104e-13
-1.5347e-13
-1.57528e-13
-1.54022e-13
-1.53115e-13
-1.56764e-13
4.42223e-08
4.41977e-08
4.41922e-08
4.41909e-08
4.41909e-08
4.42077e-08
0.00111448
0.00111444
0.00111445
0.00111445
0.00111446
0.00111448
-6.1708e-13
-6.75927e-13
-6.93804e-13
-6.78362e-13
-6.74364e-13
-6.90438e-13
2.93266e-08
2.93447e-08
2.93477e-08
2.93469e-08
2.93469e-08
2.93252e-08
9.80885e-10
9.86881e-10
9.87888e-10
9.87893e-10
9.87774e-10
9.83441e-10
-2.22621e-12
-2.43851e-12
-2.503e-12
-2.44729e-12
-2.43288e-12
-2.49086e-12
4.48451e-08
4.4802e-08
4.47944e-08
4.47915e-08
4.47936e-08
4.48284e-08
8.77983e-06
8.77984e-06
8.77985e-06
8.77986e-06
8.77987e-06
8.77987e-06
-5.49721e-12
-6.0213e-12
-6.18048e-12
-6.04288e-12
-6.00736e-12
-6.15029e-12
2.54999e-07
2.54967e-07
2.5495e-07
2.54928e-07
2.54906e-07
2.54867e-07
7.3644e-06
7.36406e-06
7.36425e-06
7.36423e-06
7.36411e-06
7.36421e-06
-1.14452e-15
-1.35952e-15
-1.53643e-15
-1.46494e-15
-1.39474e-15
5.23705e-29
-1.40286e-14
-1.40519e-14
-1.40397e-14
-1.40267e-14
-1.40692e-14
-1.39873e-14
9.81579e-17
9.82251e-17
9.8234e-17
9.82536e-17
9.83024e-17
9.82581e-17
2.18469e-17
2.18509e-17
2.18513e-17
2.18521e-17
2.18549e-17
2.18505e-17
1.01675e-12
1.01802e-12
1.01737e-12
1.01673e-12
1.01858e-12
1.01468e-12
-1.73396e-14
-1.73375e-14
-1.735e-14
-1.73632e-14
-1.73105e-14
-1.73931e-14
-6.73863e-17
-6.75053e-17
-6.74985e-17
-6.75123e-17
-6.74865e-17
-6.74617e-17
7.22517e-09
7.22846e-09
7.2232e-09
7.21685e-09
7.25274e-09
7.20142e-09
1.21144e-12
1.21191e-12
1.21197e-12
1.21198e-12
1.21204e-12
1.21144e-12
-5.96653e-15
-5.97194e-15
-5.97102e-15
-5.97037e-15
-5.97953e-15
-5.96463e-15
3.67023e-07
3.6713e-07
3.67136e-07
3.67167e-07
3.66702e-07
3.67115e-07
1.25681e-10
1.25697e-10
1.25704e-10
1.25707e-10
1.25708e-10
1.25686e-10
-1.82923e-15
-1.83182e-15
-1.83227e-15
-1.83489e-15
-1.83352e-15
-1.83646e-15
2.9856e-06
2.98678e-06
2.98776e-06
2.98786e-06
2.98202e-06
2.98765e-06
1.89243e-07
1.89207e-07
1.89222e-07
1.89221e-07
1.89211e-07
1.89259e-07
6.35398e-08
6.35382e-08
6.35377e-08
6.35452e-08
6.35821e-08
6.35785e-08
2.95787e-06
2.95842e-06
2.95945e-06
2.9571e-06
2.95695e-06
2.95695e-06
1.19425e-05
1.19397e-05
1.19408e-05
1.19406e-05
1.19391e-05
1.19434e-05
3.42355e-06
3.42388e-06
3.42379e-06
3.42398e-06
3.4251e-06
3.42589e-06
7.51855e-06
7.51951e-06
7.52145e-06
7.51982e-06
7.513e-06
7.51801e-06
1.14158e-05
1.14131e-05
1.14146e-05
1.14141e-05
1.14114e-05
1.14165e-05
4.18567e-06
4.18588e-06
4.18583e-06
4.186e-06
4.18701e-06
4.18857e-06
1.11551e-15
1.1166e-15
1.11638e-15
1.11619e-15
1.11602e-15
1.11483e-15
1.47241e-15
1.47386e-15
1.47355e-15
1.47329e-15
1.47306e-15
1.47147e-15
4.90634e-15
4.9101e-15
4.90972e-15
4.90911e-15
4.90843e-15
4.90481e-15
4.56391e-13
4.56809e-13
4.56734e-13
4.5667e-13
4.56612e-13
4.56171e-13
4.59995e-13
4.60365e-13
4.60307e-13
4.60262e-13
4.60225e-13
4.59857e-13
4.85968e-14
4.86736e-14
4.86633e-14
4.86601e-14
4.86668e-14
4.85821e-14
6.36177e-11
6.36744e-11
6.36628e-11
6.3654e-11
6.36471e-11
6.35851e-11
5.03788e-11
5.04298e-11
5.04166e-11
5.04072e-11
5.03996e-11
5.03417e-11
5.9151e-12
5.92406e-12
5.92238e-12
5.92168e-12
5.92205e-12
5.91187e-12
1.06021e-08
1.06094e-08
1.06077e-08
1.06069e-08
1.06064e-08
1.05998e-08
4.27882e-09
4.28253e-09
4.28146e-09
4.28082e-09
4.28038e-09
4.27615e-09
9.77143e-09
9.78919e-09
9.78246e-09
9.77945e-09
9.78341e-09
9.73033e-09
1.2278e-09
1.2278e-09
1.22793e-09
1.22805e-09
1.228e-09
1.228e-09
9.67502e-06
9.68107e-06
9.67915e-06
9.67838e-06
9.67857e-06
9.67211e-06
9.16966e-07
9.17976e-07
9.17775e-07
9.17702e-07
9.17759e-07
9.16838e-07
0.000240494
0.000240558
0.000240528
0.000240516
0.00024052
0.000240447
0.000112896
0.000112944
0.000112929
0.000112924
0.000112926
0.000112898
1.2859e-06
1.28701e-06
1.2869e-06
1.28688e-06
1.2868e-06
1.28715e-06
3.00264e-51
3.00818e-51
3.00786e-51
3.00798e-51
3.00902e-51
3.00325e-51
4.31275e-53
4.32109e-53
4.32098e-53
4.32118e-53
4.32247e-53
4.31393e-53
1.7522e-56
1.75574e-56
1.75568e-56
1.75576e-56
1.75632e-56
1.75271e-56
6.91141e-47
6.92402e-47
6.92334e-47
6.92361e-47
6.92597e-47
6.9131e-47
1.9658e-48
1.96949e-48
1.96947e-48
1.96955e-48
1.97009e-48
1.96639e-48
9.13576e-52
9.15363e-52
9.15339e-52
9.15376e-52
9.15643e-52
9.13839e-52
7.25388e-43
7.26672e-43
7.26593e-43
7.26606e-43
7.26836e-43
7.25506e-43
4.21376e-44
4.22129e-44
4.22123e-44
4.22132e-44
4.22232e-44
4.21471e-44
2.41645e-47
2.42097e-47
2.42091e-47
2.42097e-47
2.42159e-47
2.41701e-47
4.44012e-39
4.4477e-39
4.44714e-39
4.44711e-39
4.44837e-39
4.44036e-39
5.37421e-40
5.3833e-40
5.38319e-40
5.3832e-40
5.38427e-40
5.37503e-40
4.11347e-43
4.12078e-43
4.12067e-43
4.12072e-43
4.12164e-43
4.1142e-43
1.69741e-35
1.70018e-35
1.69994e-35
1.69988e-35
1.70032e-35
1.69732e-35
4.33926e-36
4.34619e-36
4.34608e-36
4.34603e-36
4.34674e-36
4.33969e-36
4.82505e-39
4.83314e-39
4.83301e-39
4.83301e-39
4.83395e-39
4.82569e-39
4.04923e-32
4.05555e-32
4.05488e-32
4.05468e-32
4.05559e-32
4.0486e-32
2.22901e-32
2.23236e-32
2.23229e-32
2.23224e-32
2.23253e-32
2.22911e-32
3.94369e-35
3.94989e-35
3.94979e-35
3.94974e-35
3.95038e-35
3.94403e-35
5.75865e-29
5.76718e-29
5.76614e-29
5.76573e-29
5.76687e-29
5.75717e-29
7.15766e-29
7.16778e-29
7.16751e-29
7.16721e-29
7.16787e-29
7.15756e-29
2.18698e-31
2.1902e-31
2.19013e-31
2.19008e-31
2.19035e-31
2.18706e-31
4.56335e-26
4.56973e-26
4.56884e-26
4.56841e-26
4.56917e-26
4.5617e-26
1.40179e-25
1.40366e-25
1.40359e-25
1.4035e-25
1.40358e-25
1.40169e-25
7.69269e-28
7.70326e-28
7.70301e-28
7.70272e-28
7.70346e-28
7.69272e-28
1.88587e-23
1.88836e-23
1.88796e-23
1.88774e-23
1.88799e-23
1.885e-23
1.60323e-22
1.60524e-22
1.60514e-22
1.60501e-22
1.60503e-22
1.60301e-22
1.5569e-24
1.55893e-24
1.55886e-24
1.55879e-24
1.5589e-24
1.55684e-24
3.87989e-21
3.88473e-21
3.88389e-21
3.88335e-21
3.88371e-21
3.87771e-21
9.77779e-20
9.78954e-20
9.78865e-20
9.78761e-20
9.78722e-20
9.77545e-20
1.65555e-21
1.65765e-21
1.65755e-21
1.65744e-21
1.6575e-21
1.65533e-21
3.87931e-19
3.88391e-19
3.88307e-19
3.88243e-19
3.88258e-19
3.87682e-19
2.74964e-17
2.75287e-17
2.75249e-17
2.7521e-17
2.75184e-17
2.74855e-17
8.72705e-19
8.73852e-19
8.73755e-19
8.73679e-19
8.73697e-19
8.72494e-19
2.19184e-17
2.19443e-17
2.194e-17
2.19358e-17
2.19343e-17
2.19042e-17
1.47246e-15
1.4741e-15
1.47384e-15
1.47361e-15
1.47344e-15
1.47175e-15
9.21306e-17
9.22428e-17
9.2234e-17
9.22269e-17
9.22293e-17
9.21119e-17
)
;

boundaryField
{
    seabed_topleft_surface
    {
        type            zeroGradient;
    }
    seabed_topright_surface
    {
        type            zeroGradient;
    }
    breakwater_top_surface
    {
        type            zeroGradient;
    }
    breakwater_left_surface
    {
        type            zeroGradient;
    }
    breakwater_right_surface
    {
        type            zeroGradient;
    }
    water_front_surface
    {
        type            zeroGradient;
    }
    water_back_surface
    {
        type            zeroGradient;
    }
    water_left_surface
    {
        type            zeroGradient;
    }
    water_right_surface
    {
        type            zeroGradient;
    }
    water_top_surface
    {
        type            inletOutlet;
        inletValue      uniform 0;
        value           nonuniform List<scalar> 
180
(
0
0
0
0
0
0
0
0
0
0
0
0
0
0
0
0
0
0
0
0
0
0
0
0
0
0
0
0
0
0
0
0
0
0
0
0
0
0
0
0
0
0
0
0
0
0
0
0
0
0
0
0
0
0
0
0
0
0
0
0
3.42355e-06
3.42388e-06
3.42379e-06
3.42398e-06
3.4251e-06
3.42589e-06
4.18567e-06
4.18588e-06
4.18583e-06
4.186e-06
4.18701e-06
4.18857e-06
4.90634e-15
4.9101e-15
4.90972e-15
4.90911e-15
4.90843e-15
4.90481e-15
4.85968e-14
4.86736e-14
4.86633e-14
4.86601e-14
4.86668e-14
4.85821e-14
5.9151e-12
5.92406e-12
5.92238e-12
5.92168e-12
5.92205e-12
5.91187e-12
9.77143e-09
9.78919e-09
9.78246e-09
9.77945e-09
9.78341e-09
9.73033e-09
9.16966e-07
9.17976e-07
9.17775e-07
9.17702e-07
9.17759e-07
9.16838e-07
1.2859e-06
1.28701e-06
1.2869e-06
1.28688e-06
1.2868e-06
1.28715e-06
1.7522e-56
1.75574e-56
1.75568e-56
1.75576e-56
1.75632e-56
1.75271e-56
9.13576e-52
9.15363e-52
9.15339e-52
9.15376e-52
9.15643e-52
9.13839e-52
2.41645e-47
2.42097e-47
2.42091e-47
2.42097e-47
2.42159e-47
2.41701e-47
4.11347e-43
4.12078e-43
4.12067e-43
4.12072e-43
4.12164e-43
4.1142e-43
4.82505e-39
4.83314e-39
4.83301e-39
4.83301e-39
4.83395e-39
4.82569e-39
3.94369e-35
3.94989e-35
3.94979e-35
3.94974e-35
3.95038e-35
3.94403e-35
2.18698e-31
2.1902e-31
2.19013e-31
2.19008e-31
2.19035e-31
2.18706e-31
7.69269e-28
7.70326e-28
7.70301e-28
7.70272e-28
7.70346e-28
7.69272e-28
1.5569e-24
1.55893e-24
1.55886e-24
1.55879e-24
1.5589e-24
1.55684e-24
1.65555e-21
1.65765e-21
1.65755e-21
1.65744e-21
1.6575e-21
1.65533e-21
8.72705e-19
8.73852e-19
8.73755e-19
8.73679e-19
8.73697e-19
8.72494e-19
9.21306e-17
9.22428e-17
9.2234e-17
9.22269e-17
9.22293e-17
9.21119e-17
)
;
    }
}


// ************************************************************************* //
