/*--------------------------------*- C++ -*----------------------------------*\
| =========                 |                                                 |
| \\      /  F ield         | OpenFOAM: The Open Source CFD Toolbox           |
|  \\    /   O peration     | Version:  v1612+                                |
|   \\  /    A nd           | Web:      www.OpenFOAM.com                      |
|    \\/     M anipulation  |                                                 |
\*---------------------------------------------------------------------------*/
FoamFile
{
    version     2.0;
    format      ascii;
    class       surfaceScalarField;
    location    "7";
    object      alphaPhi;
}
// * * * * * * * * * * * * * * * * * * * * * * * * * * * * * * * * * * * * * //

dimensions      [0 3 -1 0 0 0 0];

internalField   nonuniform List<scalar> 
816
(
-2.04889e-06
-1.13604e-05
7.23999e-06
-9.9847e-06
-1.39873e-05
3.0167e-05
4.17551e-06
7.2435e-06
-1.74004e-06
1.13271e-05
-2.29802e-05
-7.219e-06
2.19391e-06
4.03022e-06
8.53253e-06
-1.88611e-05
-1.10806e-06
1.0213e-05
1.13639e-05
-2.34659e-05
7.61029e-09
-5.92309e-09
-6.45448e-06
3.84809e-11
-4.98543e-10
8.86919e-09
-0.000123718
4.5737e-09
-1.64241e-09
-1.14648e-09
4.15633e-06
9.61461e-10
6.86218e-09
5.62401e-10
5.53022e-07
4.13449e-09
-5.10125e-09
1.27085e-09
-4.32885e-07
4.7337e-09
-5.59315e-09
-5.77319e-09
-2.09899e-06
4.96518e-09
4.13023e-09
-3.00268e-09
-2.73169e-07
4.12816e-09
2.76184e-09
3.87699e-09
-5.75584e-07
2.05789e-09
2.85821e-10
1.95762e-09
-2.50912e-06
1.79161e-09
3.65252e-09
8.08494e-10
2.61359e-07
-1.14255e-09
3.32717e-09
-2.5041e-09
1.22809e-10
-1.31668e-09
-1.63473e-09
-8.31881e-06
-2.44675e-09
-6.28075e-09
1.66778e-05
-3.26311e-06
-2.92439e-05
1.56409e-06
6.95409e-06
2.69572e-05
-1.92967e-05
1.28943e-05
8.11266e-06
-1.58526e-06
4.56127e-06
4.88837e-06
3.26375e-05
-5.82052e-06
1.74999e-05
-1.18889e-06
-9.40765e-06
3.58835e-06
-3.80943e-06
5.08992e-06
-9.75194e-06
1.45053e-06
-2.65251e-05
6.31674e-06
1.95215e-05
6.00238e-06
-2.33783e-05
5.36004e-06
1.53445e-05
1.11235e-05
3.03715e-06
-1.04292e-05
1.85817e-06
7.18838e-06
-4.027e-05
1.23601e-05
2.38196e-05
1.99856e-05
-3.03378e-05
4.3475e-06
7.97124e-06
-7.03366e-07
3.91248e-05
5.08698e-06
-1.61803e-05
-1.8958e-05
6.81318e-06
2.86262e-06
-9.31626e-06
-8.19858e-07
-1.32757e-05
1.3735e-06
-1.09772e-05
-9.07514e-06
-8.52866e-07
-1.20209e-06
1.67568e-06
3.30374e-06
-1.01527e-05
2.56067e-06
6.80716e-06
5.1732e-06
-1.54446e-06
-1.70882e-06
8.98698e-07
-2.95416e-06
-1.2949e-05
-2.45478e-06
-9.70366e-06
-4.15578e-06
-1.1748e-05
-1.62397e-07
-7.58858e-06
1.28014e-06
7.39933e-06
-4.07497e-06
-1.76409e-05
-8.37551e-06
-1.77621e-05
-1.13072e-05
-1.33958e-05
-5.78103e-06
4.35018e-06
1.69268e-05
-3.43461e-06
-8.40395e-06
-1.28354e-06
-5.57525e-06
-1.0386e-06
-6.56997e-06
3.84776e-06
-5.85508e-06
-4.37222e-06
1.83955e-06
5.01476e-06
-9.62412e-07
4.36645e-06
-3.26972e-06
1.3366e-06
1.65189e-06
2.22409e-06
-2.06467e-07
5.28698e-06
4.86047e-06
-3.80258e-06
-1.75054e-06
4.37964e-07
-4.14908e-06
-6.03892e-06
-8.29428e-07
-1.00754e-06
-1.09215e-06
1.58745e-06
-5.4937e-06
6.27147e-07
1.62288e-06
2.91369e-06
1.88076e-07
-9.06673e-07
9.8431e-07
-3.56056e-07
-2.01264e-06
-1.48082e-06
-6.43543e-06
-3.90372e-06
-3.1388e-06
-1.21107e-06
-4.10905e-06
-4.75844e-06
4.43219e-06
-1.73564e-07
-1.55976e-06
-5.31273e-06
-1.07791e-05
-4.75607e-06
-5.94916e-06
-3.81479e-06
-3.53866e-06
2.25752e-06
-2.27304e-06
5.17429e-06
-8.60197e-07
-4.04454e-06
-2.8582e-06
4.71999e-09
-3.96169e-09
-2.05799e-05
-2.33846e-09
7.31816e-09
-0.00014297
-2.49448e-10
4.15739e-09
-9.66591e-06
2.55762e-09
4.70943e-09
3.54411e-07
1.84186e-09
-8.61167e-11
-8.1435e-07
-1.91945e-09
-3.05503e-09
-2.01426e-09
-1.40791e-06
-2.2673e-11
-2.42942e-09
-9.78258e-07
-2.46043e-09
-6.3377e-09
-1.81923e-06
-2.90365e-09
-1.91468e-09
-1.29697e-06
1.5429e-09
1.20173e-09
-3.9287e-06
-2.61302e-09
-1.58188e-09
-2.66532e-09
-3.55217e-06
-2.09896e-09
-7.56025e-09
-2.71483e-06
-3.53687e-09
-2.59696e-09
-2.85141e-06
-1.00344e-09
-1.01809e-09
-1.10782e-06
-2.43142e-09
6.97073e-10
-5.9187e-07
-5.31371e-09
-3.92078e-09
-1.38256e-09
3.56483e-10
-2.80546e-09
-5.26195e-09
3.75039e-06
-3.89011e-09
-4.6796e-09
-3.55323e-06
-3.67995e-09
-1.58715e-09
-1.17562e-06
-5.91836e-09
-8.82108e-06
-2.69865e-09
-5.77392e-09
-9.88613e-06
-3.28743e-06
9.02984e-06
7.23532e-06
5.52575e-06
-2.35662e-05
-2.63468e-06
1.03142e-05
-1.13546e-05
1.70741e-05
8.1621e-06
-3.92387e-06
1.29498e-05
1.34308e-05
3.82361e-05
-2.39117e-05
-2.68601e-05
-4.6289e-06
5.03162e-05
-5.48387e-06
-1.59302e-05
4.24969e-05
-3.47356e-05
-3.94982e-05
6.65713e-05
-4.23396e-05
-2.23208e-05
-6.63813e-06
-4.47872e-06
2.08883e-05
-1.76084e-05
-1.39584e-05
-1.40952e-05
-3.59243e-06
4.44089e-05
-4.38858e-06
-2.63519e-05
4.93713e-05
-2.57675e-05
4.81319e-06
-4.09228e-05
-2.82439e-06
1.49725e-06
3.64739e-05
-2.11543e-05
2.05508e-05
2.9836e-05
-3.12139e-05
-1.89808e-05
-9.5407e-07
4.23943e-05
5.85233e-06
-1.85753e-05
5.1027e-05
-2.19384e-05
-1.4248e-05
8.25278e-06
-1.13608e-05
-2.34475e-06
3.51898e-06
-8.61938e-08
4.20118e-05
-1.69168e-05
-2.91e-05
1.01681e-05
-3.21805e-06
4.29331e-06
-3.47576e-06
-1.87203e-06
-1.03774e-05
4.96335e-07
-2.71371e-06
-4.38583e-06
-6.98361e-06
8.39744e-07
-3.02782e-06
-1.1428e-06
-1.156e-05
1.74697e-05
1.69995e-05
1.61613e-05
-1.77958e-06
2.21127e-05
8.24876e-06
6.0391e-06
1.85948e-05
2.12407e-05
2.00917e-05
3.0022e-05
2.33922e-05
1.23482e-05
-3.74059e-06
2.38472e-06
-1.25332e-05
-7.63194e-06
5.93656e-06
8.9983e-06
2.24757e-07
2.01072e-05
1.90169e-06
1.18138e-05
2.24861e-05
1.51526e-05
-5.23043e-06
-1.82722e-05
1.8057e-06
-2.74641e-06
1.64968e-05
9.13488e-06
-1.29588e-05
1.36745e-05
1.86507e-05
7.7338e-06
-4.71206e-07
1.90863e-05
-6.93649e-06
1.17375e-05
2.27613e-05
1.01779e-05
7.20051e-06
4.95705e-06
4.45797e-06
2.19478e-06
2.2674e-06
8.74304e-07
1.92995e-05
9.53355e-06
1.23103e-05
6.15217e-06
-2.14474e-06
1.76612e-06
-2.26822e-06
4.61916e-08
-3.61193e-06
-2.04484e-07
-1.28699e-06
6.62097e-07
-4.55317e-06
6.74918e-07
-1.56196e-06
-1.83619e-06
-6.26722e-06
4.99705e-06
9.80648e-06
9.6047e-06
-1.45076e-06
7.99965e-06
3.78857e-06
2.98333e-06
5.93687e-06
1.11373e-05
1.08807e-05
9.70597e-06
1.34234e-05
6.38245e-06
-1.32713e-06
6.50918e-07
-7.40392e-06
-7.33765e-07
2.73695e-06
4.18755e-06
1.12111e-07
5.77098e-06
4.08088e-07
6.45927e-06
7.41137e-06
7.53614e-06
-4.04093e-06
-4.38845e-06
1.06346e-06
-2.66327e-06
5.16329e-06
4.64575e-06
-6.73259e-06
4.06177e-06
1.00855e-05
3.53433e-06
1.47693e-07
6.51683e-06
-5.1964e-06
6.37693e-06
7.32845e-06
5.3545e-06
3.70635e-06
2.54632e-06
2.82537e-06
1.28593e-06
6.44453e-07
-1.3872e-08
5.14818e-06
5.64254e-06
7.61381e-06
3.95005e-07
-3.58536e-06
2.4707e-06
-3.66508e-06
1.62572e-06
1.48657e-06
1.63241e-06
-2.26455e-06
2.13418e-08
8.78295e-07
1.85884e-07
4.04681e-06
-2.83073e-06
-1.96959e-07
1.34472e-06
-2.08025e-06
-2.94014e-07
-8.17677e-07
1.68974e-06
-2.33251e-06
-6.32107e-07
1.63824e-06
-9.14638e-07
1.19236e-07
-1.67047e-06
-1.07418e-07
-3.0303e-06
-1.96606e-06
2.25985e-07
-3.54775e-06
1.43852e-06
-1.65131e-06
-1.28297e-06
-5.35179e-06
-2.65972e-06
-1.6014e-06
1.04864e-06
-2.19588e-06
-6.51975e-07
-1.37526e-06
3.01986e-06
-1.18314e-06
-7.70086e-07
1.07647e-08
6.876e-07
1.35621e-06
-9.90171e-07
1.21068e-06
2.73085e-07
-3.30683e-06
4.14e-06
5.36299e-06
-5.18127e-07
2.86551e-06
1.45319e-06
5.6049e-06
5.53015e-06
5.74914e-06
2.79866e-06
1.29526e-06
-2.749e-06
1.95475e-06
2.89027e-06
-3.67751e-07
3.24462e-07
2.85011e-06
4.41164e-06
-1.26518e-06
1.19444e-06
-7.44903e-07
3.40699e-06
-3.32464e-06
4.87038e-06
1.75605e-06
-9.64253e-08
-2.03724e-06
3.20427e-06
2.4136e-06
2.95067e-06
5.87931e-07
1.58287e-06
6.17191e-07
2.76862e-06
2.73094e-06
7.22528e-09
-9.47121e-09
-6.83221e-06
1.01245e-08
-6.59734e-06
1.11032e-08
-5.59133e-06
3.54915e-09
-2.03053e-06
2.48744e-09
-5.09559e-06
-3.46921e-09
-4.30093e-06
1.83214e-09
-3.07232e-06
7.55265e-10
-8.95502e-08
-2.91666e-09
-6.20248e-06
-1.18466e-09
-4.73213e-07
-1.66528e-10
2.0931e-06
8.17432e-10
1.59352e-11
5.73197e-11
8.38436e-08
-8.77939e-10
-4.01287e-06
-4.24633e-09
-3.9583e-06
-3.96563e-09
6.0605e-07
-5.23019e-09
-4.90084e-06
-9.17449e-10
-1.95115e-06
-1.38779e-09
2.75923e-06
-1.15652e-09
4.56611e-09
2.83677e-09
-2.17311e-06
-1.63555e-09
5.68467e-06
-3.30643e-10
1.1664e-05
-4.62141e-09
3.8322e-06
-6.36781e-09
1.16045e-06
-4.04792e-09
-7.25428e-06
-5.80385e-09
-2.78042e-06
5.6114e-06
1.64824e-05
-2.66456e-05
-1.00886e-05
8.70003e-06
1.3251e-05
2.51669e-05
-1.49275e-05
5.32223e-06
3.47566e-05
-1.76239e-05
2.08595e-05
-3.12256e-05
-2.33184e-05
1.87454e-05
-5.90598e-05
1.41576e-05
-2.53876e-05
-2.71797e-05
1.8045e-05
-1.49364e-05
-4.66717e-05
1.1928e-05
-6.16513e-05
1.7047e-05
-9.02193e-06
1.26211e-05
-7.54195e-07
-1.02668e-05
1.97587e-05
-6.27075e-06
-2.60725e-05
-3.9324e-06
-1.68942e-07
-7.89491e-06
-2.9738e-05
-3.59366e-06
-8.25571e-06
-5.95019e-06
-9.52334e-06
-1.00571e-05
-2.8417e-05
2.98078e-05
-4.5883e-05
1.21356e-05
7.07114e-06
-6.88614e-06
4.10675e-05
2.18658e-06
-2.44172e-05
-4.70762e-06
-2.03178e-06
-1.87921e-05
1.8702e-06
-1.63602e-05
-2.78228e-05
-2.30578e-05
-4.20883e-06
8.38962e-06
-4.74503e-06
-5.84105e-07
6.24506e-06
-8.15372e-06
-6.8118e-06
3.59875e-06
1.59882e-05
1.38211e-05
9.44527e-06
1.80167e-05
-1.05438e-05
-1.40894e-05
-2.69774e-05
-9.50018e-06
-1.38188e-05
8.41129e-06
8.36926e-06
2.71864e-06
-1.97085e-05
-7.69907e-06
-2.78206e-05
-9.7674e-06
-4.53308e-06
-4.79194e-06
3.8951e-07
6.37932e-06
8.5419e-06
6.74427e-07
-1.13161e-05
2.28446e-06
1.52786e-07
3.19263e-07
-1.25937e-05
-8.3087e-07
-5.24224e-06
3.6142e-06
-4.78709e-06
6.05787e-06
-1.2293e-05
-1.95813e-05
-2.01874e-05
-8.67977e-06
3.95922e-06
5.38298e-06
2.00714e-05
1.97587e-06
-1.08745e-05
5.03763e-06
-6.23807e-07
7.18658e-06
6.361e-07
4.72923e-06
-1.30487e-05
-9.8965e-06
-1.96598e-06
4.25665e-06
-1.41449e-06
-1.22459e-07
2.11835e-06
-4.09456e-06
-3.03496e-06
2.55108e-06
4.77442e-06
8.90917e-06
1.2541e-06
1.03493e-05
-2.15983e-06
-7.74863e-06
-8.88875e-06
-6.43683e-06
-5.56353e-06
4.11864e-06
1.61802e-06
2.06764e-06
-6.49379e-06
-5.06022e-06
-7.22214e-06
-6.37933e-06
-2.49867e-06
-3.1157e-06
-2.36336e-08
3.74472e-06
1.67541e-06
3.80069e-07
-3.84763e-06
1.01656e-06
-8.86918e-09
3.35801e-07
-4.32496e-06
-1.37571e-06
-2.48556e-06
1.24184e-06
-2.71428e-06
2.72909e-06
-3.74984e-06
-1.11933e-05
-6.33203e-06
-4.69126e-06
1.00752e-06
4.62377e-06
5.57002e-06
1.75417e-06
-2.63812e-06
2.88112e-06
1.02599e-06
4.25769e-06
-7.92445e-07
2.12889e-06
-3.35493e-06
-3.53291e-06
-7.78729e-07
2.09632e-06
5.28313e-07
-1.82298e-06
1.94328e-06
3.45082e-06
5.43904e-06
-3.43827e-06
-3.65325e-06
8.32915e-07
-4.78165e-08
-1.55472e-06
-2.81259e-06
-8.83691e-07
8.67354e-07
-1.15254e-07
1.70315e-07
2.54306e-07
-1.01803e-06
-2.00328e-07
1.0477e-06
-5.36448e-06
-2.60119e-06
9.17194e-07
6.9354e-07
2.2933e-06
2.09433e-06
1.4519e-06
3.57485e-09
2.0333e-09
-1.93308e-06
-2.21101e-09
2.45801e-06
5.55217e-09
5.48909e-07
4.06658e-06
5.42946e-06
1.94154e-05
-9.93515e-06
1.39786e-05
)
;

boundaryField
{
    top_fluid_surface
    {
        type            calculated;
        value           nonuniform List<scalar> 
64
(
0
3.58572e-09
0
0
1.78512e-11
0
0
0
0
0
5.37664e-09
8.52378e-10
0
4.88938e-09
4.44799e-09
0
8.46078e-09
8.28176e-09
6.41002e-09
9.25074e-09
0
1.29783e-09
8.82491e-09
9.28043e-09
0
2.57445e-09
6.11401e-09
6.24039e-09
4.7782e-09
1.08694e-09
0
4.58682e-09
0
0
0
7.36091e-09
3.91006e-09
3.87312e-09
0
0
4.41636e-09
0
0
4.77279e-10
0
1.25552e-09
1.80765e-09
0
0
0
0
0
0
0
0
0
0
0
0
0
0
0
0
0
)
;
    }
    bottom_fluid_surface
    {
        type            calculated;
        value           uniform 0;
    }
    lateral_surface_1
    {
        type            calculated;
        value           uniform 0;
    }
    lateral_surface_2
    {
        type            calculated;
        value           uniform 0;
    }
    lateral_surface_3
    {
        type            calculated;
        value           uniform 0;
    }
    lateral_surface_4
    {
        type            calculated;
        value           uniform 0;
    }
}


// ************************************************************************* //
