/*--------------------------------*- C++ -*----------------------------------*\
| =========                 |                                                 |
| \\      /  F ield         | OpenFOAM: The Open Source CFD Toolbox           |
|  \\    /   O peration     | Version:  v1612+                                |
|   \\  /    A nd           | Web:      www.OpenFOAM.com                      |
|    \\/     M anipulation  |                                                 |
\*---------------------------------------------------------------------------*/
FoamFile
{
    version     2.0;
    format      ascii;
    class       volScalarField;
    location    "7";
    object      alpha.water;
}
// * * * * * * * * * * * * * * * * * * * * * * * * * * * * * * * * * * * * * //

dimensions      [0 0 0 0 0 0 0];

internalField   nonuniform List<scalar> 
320
(
1
1
1
1
1.71636e-05
1.85828e-05
1.66904e-05
1.67748e-05
1.63442e-05
1.71621e-05
1.90157e-05
1.91292e-05
1.75322e-05
1.65935e-05
1.47786e-05
1.63228e-05
0.99998
0.999985
0.999987
0.999985
0.999983
0.999981
0.999981
0.99998
0.99998
0.999984
0.999991
0.999979
1
1
1
1
1
1
1
1
1
1
1
1
1
1
1
1
1
1
1
1
1
1
1
1
1
1
1
1
1.70873e-05
1.84372e-05
1.547e-05
1.71397e-05
1.41094e-05
1.42002e-05
1.46629e-05
1.3575e-05
1.68278e-05
1.61425e-05
1.35174e-05
1.34227e-05
1.69306e-05
1.59541e-05
1.45103e-05
1.44355e-05
1.47407e-05
1.61915e-05
1.72759e-05
1.55587e-05
0.999984
0.999977
0.999988
0.999981
0.999991
0.999993
0.999993
0.999994
0.999982
0.999986
0.999992
0.999993
0.999982
0.999991
0.999991
0.999991
0.999992
0.999983
0.999981
0.99999
1
1
1
1
1
1
1
1
1
1
1
1
1
1
1
1
1
1
1
1
1
1
1
1
1
1
1
1
1
1
1
1
1
1
1
1
1
1
1
1
1
1
1
1
1
1
1
1
1
1
1
1
1
1
1
1
1
1
1
1
1
1
1
1
1
1
1
1
1
1
1
1
1
1
1
1
1.70261e-05
1.7847e-05
1.69052e-05
1.42004e-05
1.59888e-05
1.57566e-05
1.81893e-05
1.74542e-05
1.58966e-05
1.75447e-05
1.72151e-05
1.61522e-05
1.66503e-05
1.63709e-05
1.59636e-05
1.72637e-05
1.71952e-05
1.81155e-05
1.69432e-05
1.79914e-05
1.74731e-05
1.66042e-05
1.82169e-05
1.64183e-05
1.73812e-05
1.88168e-05
1.76759e-05
2.00327e-05
0.999982
0.999981
0.999979
0.999988
0.999984
0.999983
0.999976
0.999982
0.999985
0.999978
0.999981
0.999982
0.999976
0.999984
0.99998
0.999976
0.999977
0.999983
0.999983
0.999979
0.999978
0.999978
0.999977
0.999981
0.999984
0.99998
0.999981
0.999976
1
1
1
1
1
1
1
1
1
1
1
1
1
1
1
1
1
1
1
1
1
1
1
1
1
1
1
1
1
1
1
1
1
1
1
1
1
1
1
1
1
1
1
1
1
1
1
1
1
1
1
1
1
1
1
1
1
1
1
1
1
1
1
1
1
1
1
1
1
1
1
1
1
1
1
1
1
1
1
1
1
1
1
1
1.82686e-05
1.7251e-05
1.65396e-05
1.64361e-05
0.999981
0.999983
0.999984
0.999985
)
;

boundaryField
{
    top_fluid_surface
    {
        type            inletOutlet;
        inletValue      uniform 0;
        value           nonuniform List<scalar> 
64
(
0
1.85828e-05
0
0
1.63442e-05
0
0
0
0
0
1.47786e-05
1.63228e-05
0
1.84372e-05
1.547e-05
0
1.41094e-05
1.42002e-05
1.46629e-05
1.3575e-05
0
1.61425e-05
1.35174e-05
1.34227e-05
0
1.59541e-05
1.45103e-05
1.44355e-05
1.47407e-05
1.61915e-05
0
1.55587e-05
0
0
0
1.42004e-05
1.59888e-05
1.57566e-05
0
0
1.58966e-05
0
0
1.61522e-05
0
1.63709e-05
1.59636e-05
0
0
0
0
0
0
0
0
0
0
0
0
0
0
0
0
0
)
;
    }
    bottom_fluid_surface
    {
        type            zeroGradient;
    }
    lateral_surface_1
    {
        type            zeroGradient;
    }
    lateral_surface_2
    {
        type            zeroGradient;
    }
    lateral_surface_3
    {
        type            zeroGradient;
    }
    lateral_surface_4
    {
        type            zeroGradient;
    }
}


// ************************************************************************* //
