/*--------------------------------*- C++ -*----------------------------------*\
| =========                 |                                                 |
| \\      /  F ield         | OpenFOAM: The Open Source CFD Toolbox           |
|  \\    /   O peration     | Version:  v1612+                                |
|   \\  /    A nd           | Web:      www.OpenFOAM.com                      |
|    \\/     M anipulation  |                                                 |
\*---------------------------------------------------------------------------*/
FoamFile
{
    version     2.0;
    format      ascii;
    class       volScalarField;
    location    "7";
    object      p;
}
// * * * * * * * * * * * * * * * * * * * * * * * * * * * * * * * * * * * * * //

dimensions      [1 -1 -2 0 0 0 0];

internalField   nonuniform List<scalar> 
320
(
14724.8
14724.8
14724.8
14724.8
4.98657
4.98307
4.98812
4.98632
4.98583
4.98649
4.9863
4.98644
4.98671
4.986
4.98588
4.98564
4914.88
4914.84
4914.91
4914.9
4914.85
4914.89
4914.91
4914.91
4914.89
4914.89
4914.87
4914.83
14724.8
14724.8
14724.8
14724.8
14724.8
14724.8
14724.8
14724.8
14724.8
14724.8
14724.8
14724.8
24534.8
24534.8
24534.8
24534.8
24534.8
24534.8
24534.8
24534.8
24534.8
24534.8
24534.8
24534.8
24534.8
24534.8
24534.8
24534.8
4.98544
4.98358
4.98543
4.98776
4.9875
4.98726
4.98658
4.98634
4.9861
4.98558
4.98569
4.98563
4.98574
4.98607
4.98628
4.98796
4.98692
4.98552
4.98358
4.98326
4914.9
4914.8
4914.86
4914.89
4914.86
4914.87
4914.88
4914.86
4914.89
4914.86
4914.85
4914.86
4914.89
4914.88
4914.86
4914.87
4914.88
4914.85
4914.88
4914.87
14724.8
14724.8
14724.8
14724.8
14724.8
14724.8
14724.8
14724.8
14724.8
14724.8
14724.8
14724.8
14724.8
14724.8
14724.8
14724.8
14724.8
14724.8
14724.8
14724.8
24534.8
24534.8
24534.8
24534.8
24534.8
24534.8
24534.8
24534.8
24534.8
24534.8
24534.8
24534.8
24534.8
24534.8
24534.8
24534.8
24534.8
24534.8
24534.8
24534.8
34344.8
34344.8
34344.8
34344.8
34344.8
34344.8
34344.8
34344.8
34344.8
34344.8
34344.8
34344.8
34344.8
34344.8
34344.8
34344.8
34344.8
34344.8
34344.8
34344.8
34344.8
34344.8
34344.8
34344.8
34344.8
34344.8
34344.8
34344.8
34344.8
34344.8
34344.8
34344.8
34344.8
34344.8
34344.8
34344.8
4.98486
4.98474
4.985
4.98733
4.98755
4.9878
4.98803
4.98794
4.98701
4.98652
4.98607
4.98547
4.984
4.98547
4.98586
4.98603
4.98564
4.9863
4.98587
4.98631
4.98658
4.98748
4.98926
4.98761
4.98705
4.98526
4.98513
4.9862
4914.89
4914.9
4914.87
4914.84
4914.85
4914.84
4914.88
4914.9
4914.85
4914.88
4914.89
4914.84
4914.86
4914.85
4914.83
4914.86
4914.87
4914.91
4914.9
4914.89
4914.88
4914.87
4914.88
4914.88
4914.91
4914.91
4914.89
4914.91
14724.8
14724.8
14724.8
14724.8
14724.8
14724.8
14724.8
14724.8
14724.8
14724.8
14724.8
14724.8
14724.8
14724.8
14724.8
14724.8
14724.8
14724.8
14724.8
14724.8
14724.8
14724.8
14724.8
14724.8
14724.8
14724.8
14724.8
14724.8
24534.8
24534.8
24534.8
24534.8
24534.8
24534.8
24534.8
24534.8
24534.8
24534.8
24534.8
24534.8
24534.8
24534.8
24534.8
24534.8
24534.8
24534.8
24534.8
24534.8
24534.8
24534.8
24534.8
24534.8
24534.8
24534.8
24534.8
24534.8
34344.8
34344.8
34344.8
34344.8
34344.8
34344.8
34344.8
34344.8
34344.8
34344.8
34344.8
34344.8
34344.8
34344.8
34344.8
34344.8
34344.8
34344.8
34344.8
34344.8
34344.8
34344.8
34344.8
34344.8
34344.8
34344.8
34344.8
34344.8
4.98626
4.98722
4.98567
4.98665
4914.9
4914.9
4914.9
4914.9
)
;

boundaryField
{
    top_fluid_surface
    {
        type            calculated;
        value           nonuniform List<scalar> 
64
(
-9.61346e-10
-3.37491e-09
-4.9898e-10
-1.34915e-10
0
-3.41242e-09
-3.68754e-08
-2.91565e-08
-7.13338e-09
-7.445e-10
0
0
-8.99937e-14
0
0
-1.02417e-09
0
0
0
0
-5.49641e-10
0
0
0
-3.22974e-09
0
0
0
0
0
-4.66623e-09
0
-1.74264e-09
-5.03874e-09
-2.00692e-09
0
0
0
-1.41357e-08
-3.05002e-09
0
-1.21934e-08
-1.34698e-08
0
-1.27323e-09
0
0
-2.87213e-09
-2.77194e-09
-1.12601e-08
-3.57636e-09
-1.45453e-08
-8.75496e-09
-3.74968e-10
-6.23666e-09
-1.14404e-09
-3.42028e-09
-1.74115e-08
-1.31699e-08
-9.46329e-08
-2.26164e-08
-1.75153e-09
-1.05593e-12
0
)
;
    }
    bottom_fluid_surface
    {
        type            calculated;
        value           nonuniform List<scalar> 
64
(
39249.8
39249.8
39249.8
39249.8
39249.8
39249.8
39249.8
39249.8
39249.8
39249.8
39249.8
39249.8
39249.8
39249.8
39249.8
39249.8
39249.8
39249.8
39249.8
39249.8
39249.8
39249.8
39249.8
39249.8
39249.8
39249.8
39249.8
39249.8
39249.8
39249.8
39249.8
39249.8
39249.8
39249.8
39249.8
39249.8
39249.8
39249.8
39249.8
39249.8
39249.8
39249.8
39249.8
39249.8
39249.8
39249.8
39249.8
39249.8
39249.8
39249.8
39249.8
39249.8
39249.8
39249.8
39249.8
39249.8
39249.8
39249.8
39249.8
39249.8
39249.8
39249.8
39249.8
39249.8
)
;
    }
    lateral_surface_1
    {
        type            calculated;
        value           nonuniform List<scalar> 
40
(
4.98486
4.98474
4.985
4.98733
4.98755
4.9878
4.98803
4.9862
4914.89
4914.9
4914.87
4914.84
4914.85
4914.84
4914.88
4914.91
14724.8
14724.8
14724.8
14724.8
14724.8
14724.8
14724.8
14724.8
24534.8
24534.8
24534.8
24534.8
24534.8
24534.8
24534.8
24534.8
34344.8
34344.8
34344.8
34344.8
34344.8
34344.8
34344.8
34344.8
)
;
    }
    lateral_surface_2
    {
        type            calculated;
        value           nonuniform List<scalar> 
40
(
4.98547
4.98586
4.98603
4.98564
4.9863
4.98587
4.98631
4.98658
4914.85
4914.83
4914.86
4914.87
4914.91
4914.9
4914.89
4914.88
14724.8
14724.8
14724.8
14724.8
14724.8
14724.8
14724.8
14724.8
24534.8
24534.8
24534.8
24534.8
24534.8
24534.8
24534.8
24534.8
34344.8
34344.8
34344.8
34344.8
34344.8
34344.8
34344.8
34344.8
)
;
    }
    lateral_surface_3
    {
        type            calculated;
        value           nonuniform List<scalar> 
40
(
4.98803
4.98794
4.98701
4.98652
4.98607
4.98547
4.984
4.98547
4914.88
4914.9
4914.85
4914.88
4914.89
4914.84
4914.86
4914.85
14724.8
14724.8
14724.8
14724.8
14724.8
14724.8
14724.8
14724.8
24534.8
24534.8
24534.8
24534.8
24534.8
24534.8
24534.8
24534.8
34344.8
34344.8
34344.8
34344.8
34344.8
34344.8
34344.8
34344.8
)
;
    }
    lateral_surface_4
    {
        type            calculated;
        value           nonuniform List<scalar> 
40
(
4.98658
4.98748
4.98926
4.98761
4.98705
4.98526
4.98513
4.9862
4914.88
4914.87
4914.88
4914.88
4914.91
4914.91
4914.89
4914.91
14724.8
14724.8
14724.8
14724.8
14724.8
14724.8
14724.8
14724.8
24534.8
24534.8
24534.8
24534.8
24534.8
24534.8
24534.8
24534.8
34344.8
34344.8
34344.8
34344.8
34344.8
34344.8
34344.8
34344.8
)
;
    }
}


// ************************************************************************* //
