/*--------------------------------*- C++ -*----------------------------------*\
| =========                 |                                                 |
| \\      /  F ield         | OpenFOAM: The Open Source CFD Toolbox           |
|  \\    /   O peration     | Version:  v1612+                                |
|   \\  /    A nd           | Web:      www.OpenFOAM.com                      |
|    \\/     M anipulation  |                                                 |
\*---------------------------------------------------------------------------*/
FoamFile
{
    version     2.0;
    format      ascii;
    class       volScalarField;
    location    "7";
    object      p_rgh;
}
// * * * * * * * * * * * * * * * * * * * * * * * * * * * * * * * * * * * * * //

dimensions      [1 -1 -2 0 0 0 0];

internalField   nonuniform List<scalar> 
320
(
-9800.21
-9800.2
-9800.2
-9800.19
-0.00253546
-0.0129877
0.00133272
-0.000874362
0.000742177
-0.00260618
-0.0118792
-0.0122998
-0.00420033
-0.000305574
0.00846833
0.000661214
-9799.82
-9799.94
-9799.89
-9799.88
-9799.9
-9799.83
-9799.8
-9799.79
-9799.82
-9799.87
-9800
-9799.87
-9800.22
-9800.21
-9800.2
-9800.2
-9800.21
-9800.21
-9800.2
-9800.2
-9800.2
-9800.2
-9800.2
-9800.22
-9800.2
-9800.2
-9800.2
-9800.19
-9800.21
-9800.2
-9800.2
-9800.2
-9800.2
-9800.21
-9800.2
-9800.2
-9800.2
-9800.2
-9800.2
-9800.21
-0.00328764
-0.0117623
0.00462223
-0.00122337
0.0133657
0.0126743
0.00973127
0.0148203
-0.00135965
0.00148017
0.0144521
0.0148583
-0.00222555
0.00289606
0.0101812
0.0122292
0.00968602
0.001183
-0.00607847
0.00201812
-9799.86
-9799.86
-9799.97
-9799.83
-9800.01
-9800.02
-9800.02
-9800.04
-9799.85
-9799.93
-9800.03
-9800.04
-9799.84
-9799.98
-9800.01
-9800
-9800
-9799.9
-9799.83
-9799.98
-9800.2
-9800.23
-9800.21
-9800.21
-9800.19
-9800.18
-9800.19
-9800.19
-9800.21
-9800.21
-9800.2
-9800.19
-9800.2
-9800.19
-9800.2
-9800.2
-9800.19
-9800.21
-9800.21
-9800.2
-9800.2
-9800.21
-9800.2
-9800.2
-9800.2
-9800.2
-9800.2
-9800.2
-9800.21
-9800.21
-9800.2
-9800.2
-9800.2
-9800.2
-9800.2
-9800.2
-9800.19
-9800.2
-9800.2
-9800.2
-9800.2
-9800.2
-9800.2
-9800.19
-9800.2
-9800.2
-9800.2
-9800.2
-9800.2
-9800.21
-9800.2
-9800.2
-9800.2
-9800.2
-9800.2
-9800.2
-9800.2
-9800.2
-9800.2
-9800.2
-9800.2
-9800.2
-9800.2
-9800.2
-9800.21
-9800.21
-9800.2
-9800.2
-9800.2
-9800.2
-9800.2
-9800.2
-9800.2
-9800.2
-9800.2
-9800.2
-0.00357088
-0.00771496
-0.00284167
0.0127428
0.00420203
0.00559269
-0.00610043
-0.00258403
0.00412005
-0.0044496
-0.00328889
0.00132578
-0.00258583
0.000249161
0.00263629
-0.00355983
-0.00361389
-0.0074693
-0.00215369
-0.00684866
-0.00404403
0.00112234
-0.00500742
0.00215999
-0.00312077
-0.0119439
-0.00648193
-0.0169626
-9799.85
-9799.83
-9799.82
-9799.98
-9799.92
-9799.91
-9799.77
-9799.84
-9799.93
-9799.8
-9799.83
-9799.89
-9799.79
-9799.91
-9799.88
-9799.78
-9799.79
-9799.84
-9799.85
-9799.8
-9799.8
-9799.81
-9799.78
-9799.83
-9799.86
-9799.81
-9799.82
-9799.74
-9800.21
-9800.21
-9800.22
-9800.2
-9800.21
-9800.2
-9800.21
-9800.2
-9800.2
-9800.21
-9800.21
-9800.22
-9800.23
-9800.22
-9800.23
-9800.21
-9800.22
-9800.2
-9800.2
-9800.2
-9800.21
-9800.21
-9800.21
-9800.21
-9800.2
-9800.21
-9800.21
-9800.22
-9800.2
-9800.2
-9800.21
-9800.2
-9800.21
-9800.21
-9800.21
-9800.2
-9800.2
-9800.21
-9800.21
-9800.21
-9800.22
-9800.22
-9800.22
-9800.22
-9800.21
-9800.2
-9800.2
-9800.2
-9800.2
-9800.21
-9800.2
-9800.2
-9800.2
-9800.2
-9800.2
-9800.2
-9800.2
-9800.2
-9800.21
-9800.2
-9800.2
-9800.2
-9800.21
-9800.2
-9800.2
-9800.2
-9800.2
-9800.21
-9800.21
-9800.22
-9800.21
-9800.21
-9800.21
-9800.21
-9800.21
-9800.21
-9800.2
-9800.2
-9800.2
-9800.2
-9800.2
-9800.2
-9800.2
-9800.2
-0.00825452
-0.00230987
-0.000375747
0.00111108
-9799.82
-9799.84
-9799.88
-9799.88
)
;

boundaryField
{
    top_fluid_surface
    {
        type            totalPressure;
        rho             rho;
        psi             none;
        gamma           1;
        p0              uniform 0;
        value           nonuniform List<scalar> 
64
(
-9.61346e-10
-3.37491e-09
-4.9898e-10
-1.34915e-10
0
-3.41242e-09
-3.68754e-08
-2.91565e-08
-7.13338e-09
-7.445e-10
0
0
-8.99937e-14
0
0
-1.02417e-09
0
0
0
0
-5.49641e-10
0
0
0
-3.22974e-09
0
0
0
0
0
-4.66623e-09
0
-1.74264e-09
-5.03874e-09
-2.00692e-09
0
0
0
-1.41357e-08
-3.05002e-09
0
-1.21934e-08
-1.34698e-08
0
-1.27323e-09
0
0
-2.87213e-09
-2.77194e-09
-1.12601e-08
-3.57636e-09
-1.45453e-08
-8.75496e-09
-3.74968e-10
-6.23666e-09
-1.14404e-09
-3.42028e-09
-1.74115e-08
-1.31699e-08
-9.46329e-08
-2.26164e-08
-1.75153e-09
-1.05593e-12
0
)
;
    }
    bottom_fluid_surface
    {
        type            fixedFluxPressure;
        gradient        uniform 0;
        value           nonuniform List<scalar> 
64
(
-9800.2
-9800.2
-9800.2
-9800.19
-9800.2
-9800.2
-9800.2
-9800.2
-9800.2
-9800.21
-9800.2
-9800.2
-9800.2
-9800.2
-9800.2
-9800.2
-9800.2
-9800.2
-9800.2
-9800.2
-9800.2
-9800.2
-9800.2
-9800.2
-9800.21
-9800.21
-9800.2
-9800.2
-9800.2
-9800.2
-9800.2
-9800.2
-9800.2
-9800.2
-9800.2
-9800.2
-9800.2
-9800.2
-9800.21
-9800.2
-9800.2
-9800.2
-9800.21
-9800.2
-9800.2
-9800.2
-9800.2
-9800.21
-9800.21
-9800.22
-9800.21
-9800.21
-9800.21
-9800.21
-9800.21
-9800.21
-9800.2
-9800.2
-9800.2
-9800.2
-9800.2
-9800.2
-9800.2
-9800.2
)
;
    }
    lateral_surface_1
    {
        type            fixedFluxPressure;
        gradient        uniform 0;
        value           nonuniform List<scalar> 
40
(
-0.00357088
-0.00771496
-0.00284167
0.0127428
0.00420203
0.00559269
-0.00610043
-0.0169626
-9799.85
-9799.83
-9799.82
-9799.98
-9799.92
-9799.91
-9799.77
-9799.74
-9800.21
-9800.21
-9800.22
-9800.2
-9800.21
-9800.2
-9800.21
-9800.22
-9800.2
-9800.2
-9800.21
-9800.2
-9800.21
-9800.21
-9800.21
-9800.2
-9800.2
-9800.2
-9800.21
-9800.2
-9800.2
-9800.2
-9800.21
-9800.2
)
;
    }
    lateral_surface_2
    {
        type            fixedFluxPressure;
        gradient        uniform 0;
        value           nonuniform List<scalar> 
40
(
0.000249161
0.00263629
-0.00355983
-0.00361389
-0.0074693
-0.00215369
-0.00684866
-0.00404403
-9799.91
-9799.88
-9799.78
-9799.79
-9799.84
-9799.85
-9799.8
-9799.8
-9800.22
-9800.23
-9800.21
-9800.22
-9800.2
-9800.2
-9800.2
-9800.21
-9800.22
-9800.22
-9800.22
-9800.21
-9800.2
-9800.2
-9800.2
-9800.2
-9800.22
-9800.21
-9800.21
-9800.21
-9800.21
-9800.21
-9800.21
-9800.2
)
;
    }
    lateral_surface_3
    {
        type            fixedFluxPressure;
        gradient        uniform 0;
        value           nonuniform List<scalar> 
40
(
-0.00610043
-0.00258403
0.00412005
-0.0044496
-0.00328889
0.00132578
-0.00258583
0.000249161
-9799.77
-9799.84
-9799.93
-9799.8
-9799.83
-9799.89
-9799.79
-9799.91
-9800.21
-9800.2
-9800.2
-9800.21
-9800.21
-9800.22
-9800.23
-9800.22
-9800.21
-9800.2
-9800.2
-9800.21
-9800.21
-9800.21
-9800.22
-9800.22
-9800.21
-9800.2
-9800.2
-9800.2
-9800.2
-9800.21
-9800.21
-9800.22
)
;
    }
    lateral_surface_4
    {
        type            fixedFluxPressure;
        gradient        uniform 0;
        value           nonuniform List<scalar> 
40
(
-0.00404403
0.00112234
-0.00500742
0.00215999
-0.00312077
-0.0119439
-0.00648193
-0.0169626
-9799.8
-9799.81
-9799.78
-9799.83
-9799.86
-9799.81
-9799.82
-9799.74
-9800.21
-9800.21
-9800.21
-9800.21
-9800.2
-9800.21
-9800.21
-9800.22
-9800.2
-9800.21
-9800.2
-9800.2
-9800.2
-9800.2
-9800.2
-9800.2
-9800.2
-9800.2
-9800.2
-9800.2
-9800.2
-9800.2
-9800.2
-9800.2
)
;
    }
}


// ************************************************************************* //
