/*--------------------------------*- C++ -*----------------------------------*\
| =========                 |                                                 |
| \\      /  F ield         | OpenFOAM: The Open Source CFD Toolbox           |
|  \\    /   O peration     | Version:  v1612+                                |
|   \\  /    A nd           | Web:      www.OpenFOAM.com                      |
|    \\/     M anipulation  |                                                 |
\*---------------------------------------------------------------------------*/
FoamFile
{
    version     2.0;
    format      ascii;
    class       surfaceScalarField;
    location    "7";
    object      phi;
}
// * * * * * * * * * * * * * * * * * * * * * * * * * * * * * * * * * * * * * //

dimensions      [0 3 -1 0 0 0 0];

internalField   nonuniform List<scalar> 
816
(
-2.03239e-06
-1.14279e-05
7.33773e-06
-9.99416e-06
-1.40113e-05
3.01262e-05
4.15881e-06
7.43636e-06
-1.82013e-06
1.12846e-05
-2.30664e-05
-7.20882e-06
2.20081e-06
3.99846e-06
8.56587e-06
-1.89453e-05
-1.06161e-06
1.02252e-05
1.13942e-05
-2.35608e-05
0.000465964
-0.000354306
-2.86118e-05
5.19838e-05
-1.67107e-05
0.000419005
1.32843e-05
0.000217866
-0.000144529
-4.96964e-05
1.63434e-05
6.10177e-05
0.000452551
3.47947e-05
5.54895e-06
0.000252819
-0.000310041
7.66799e-05
6.57802e-06
0.000288499
-0.000348296
-0.000303071
-2.57755e-06
0.000298773
0.000243832
-0.000157555
3.46007e-06
0.000219145
0.000136217
0.000199729
-3.33349e-07
0.000108932
1.71492e-05
0.000115303
-6.52722e-06
0.000107661
0.000186746
5.11836e-05
-2.54999e-06
-9.25305e-05
0.000201824
-0.000151911
6.14811e-06
-7.96663e-05
-9.27785e-05
-1.10438e-05
-0.000142723
-0.000353213
1.71988e-05
-2.8737e-06
-2.91755e-05
2.38472e-06
6.88978e-06
2.63148e-05
-1.96569e-05
1.25397e-05
7.36172e-06
-1.55832e-06
4.83483e-06
5.09302e-06
3.28647e-05
-5.31579e-06
1.76661e-05
-1.09426e-06
-9.46592e-06
3.32889e-06
-4.08692e-06
4.81777e-06
-1.0216e-05
1.35997e-06
-2.64909e-05
6.41884e-06
1.96806e-05
6.02031e-06
-2.32885e-05
5.61716e-06
1.52772e-05
1.12845e-05
3.05896e-06
-1.03975e-05
1.85795e-06
7.15397e-06
-4.0284e-05
1.23641e-05
2.40465e-05
2.02517e-05
-3.02434e-05
4.5186e-06
7.96617e-06
-5.97272e-07
3.92407e-05
5.19102e-06
-1.63803e-05
-1.93252e-05
6.30923e-06
2.72938e-06
-9.23987e-06
-7.41042e-07
-1.33699e-05
1.54297e-06
-1.12292e-05
-9.19734e-06
-9.88033e-07
-1.24295e-06
1.74108e-06
3.33352e-06
-1.01989e-05
2.64719e-06
6.85972e-06
5.16046e-06
-1.57914e-06
-1.76032e-06
8.44288e-07
-2.97602e-06
-1.29589e-05
-2.43478e-06
-9.69192e-06
-4.1755e-06
-1.17379e-05
-1.01091e-07
-7.61274e-06
1.309e-06
7.39778e-06
-4.10339e-06
-1.76644e-05
-8.38777e-06
-1.77348e-05
-1.12241e-05
-1.33678e-05
-5.74425e-06
4.4692e-06
1.69809e-05
-3.39739e-06
-8.55369e-06
-1.32178e-06
-5.61843e-06
-1.0557e-06
-6.60039e-06
3.92123e-06
-5.85269e-06
-4.38277e-06
1.85319e-06
5.05601e-06
-9.77585e-07
4.37269e-06
-3.27074e-06
1.35334e-06
1.66101e-06
2.24521e-06
-1.86238e-07
5.31361e-06
4.87961e-06
-3.85558e-06
-1.73334e-06
4.61634e-07
-4.21725e-06
-6.0898e-06
-8.23222e-07
-1.02472e-06
-1.11253e-06
1.63157e-06
-5.48995e-06
6.40352e-07
1.66894e-06
2.92994e-06
2.06315e-07
-8.88316e-07
9.94599e-07
-3.67099e-07
-2.04314e-06
-1.46026e-06
-6.40599e-06
-3.91624e-06
-3.15339e-06
-1.17717e-06
-4.11064e-06
-4.76325e-06
4.44916e-06
-1.6692e-07
-1.56562e-06
-5.32104e-06
-1.07984e-05
-4.74463e-06
-5.92918e-06
-3.81832e-06
-3.5254e-06
2.32484e-06
-2.27813e-06
5.18243e-06
-8.82998e-07
-4.08714e-06
-2.93877e-06
0.000281614
-0.000232962
-1.85593e-05
-0.000121142
0.000373411
-1.75541e-05
-4.68433e-05
0.000245458
5.96498e-07
0.000145556
0.000277697
1.45226e-06
0.000110339
-3.07362e-06
-7.55588e-06
-0.000124701
-0.000179335
-0.000131961
-6.77639e-06
8.50927e-07
-0.000176895
-1.62997e-06
-0.000142853
-0.000373908
-3.34026e-06
-0.000170537
-0.000112519
-3.33128e-07
9.58872e-05
7.25069e-05
-4.28671e-06
-0.000145284
-0.000101854
-0.000197402
-5.03742e-06
-0.000121482
-0.000447342
-6.39507e-06
-0.000202723
-0.000159134
-2.72948e-06
-5.71541e-05
-7.31978e-05
6.85675e-07
-0.000142521
3.51533e-05
2.06212e-06
-0.000293961
-0.000246689
-9.17439e-05
3.97363e-06
-0.000150569
-0.00032307
9.52292e-06
-0.0002432
-0.00024781
-6.43965e-06
-0.000224141
-9.93178e-05
7.18223e-06
-0.000330871
-3.48851e-07
-0.000175067
-0.000344883
-9.03836e-06
-3.30779e-06
9.22438e-06
7.23605e-06
4.93913e-06
-2.42592e-05
-3.22253e-06
1.02071e-05
-1.12832e-05
1.72058e-05
8.14124e-06
-3.92734e-06
1.31849e-05
1.33137e-05
3.83515e-05
-2.37889e-05
-2.69791e-05
-4.65982e-06
5.05141e-05
-5.29055e-06
-1.59613e-05
4.27699e-05
-3.46489e-05
-3.95561e-05
6.67917e-05
-4.23818e-05
-2.2162e-05
-6.5528e-06
-4.09134e-06
2.09563e-05
-1.75719e-05
-1.38853e-05
-1.38189e-05
-3.65959e-06
4.45723e-05
-4.33697e-06
-2.64948e-05
4.95202e-05
-2.56721e-05
4.79377e-06
-4.09534e-05
-2.90153e-06
1.60109e-06
3.66988e-05
-2.11912e-05
2.0566e-05
2.99728e-05
-3.13612e-05
-1.89814e-05
-9.18685e-07
4.25259e-05
5.75161e-06
-1.83734e-05
5.11838e-05
-2.19768e-05
-1.44326e-05
8.05378e-06
-1.1706e-05
-2.39712e-06
3.50317e-06
-4.08199e-07
4.21114e-05
-1.70384e-05
-2.92727e-05
1.03559e-05
-3.22132e-06
4.2834e-06
-3.48819e-06
-2.01772e-06
-1.06357e-05
3.81738e-07
-2.81421e-06
-4.43017e-06
-6.99243e-06
7.89559e-07
-3.0393e-06
-1.13792e-06
-1.16139e-05
1.75216e-05
1.70676e-05
1.61666e-05
-1.78377e-06
2.21931e-05
8.29966e-06
6.10785e-06
1.87004e-05
2.13544e-05
2.01928e-05
3.01007e-05
2.34665e-05
1.24555e-05
-3.73016e-06
2.50676e-06
-1.26238e-05
-7.64324e-06
6.08183e-06
9.08242e-06
1.81897e-07
2.01669e-05
1.94712e-06
1.18091e-05
2.25505e-05
1.52592e-05
-5.24682e-06
-1.82753e-05
1.78662e-06
-2.70778e-06
1.65855e-05
9.18461e-06
-1.29932e-05
1.37253e-05
1.86841e-05
7.85489e-06
-4.71718e-07
1.91279e-05
-6.87419e-06
1.18594e-05
2.28554e-05
1.02469e-05
7.23088e-06
4.86819e-06
4.41957e-06
2.15261e-06
2.18038e-06
8.01227e-07
1.92978e-05
9.50958e-06
1.22993e-05
6.21231e-06
-2.18935e-06
1.73162e-06
-2.28424e-06
6.61486e-09
-3.69534e-06
-2.12926e-07
-1.31559e-06
6.36511e-07
-4.54583e-06
6.60876e-07
-1.57611e-06
-1.80585e-06
-6.29865e-06
5.00923e-06
9.86166e-06
9.60649e-06
-1.45568e-06
8.0245e-06
3.83862e-06
3.02382e-06
5.96775e-06
1.11966e-05
1.0946e-05
9.72109e-06
1.34712e-05
6.43569e-06
-1.35118e-06
7.02603e-07
-7.46357e-06
-7.54733e-07
2.84564e-06
4.20208e-06
8.63799e-08
5.76212e-06
4.90092e-07
6.45071e-06
7.42596e-06
7.60452e-06
-4.0517e-06
-4.37128e-06
1.06858e-06
-2.66719e-06
5.21298e-06
4.67375e-06
-6.76045e-06
4.10515e-06
1.01204e-05
3.5995e-06
1.53557e-07
6.55446e-06
-5.14939e-06
6.42132e-06
7.37224e-06
5.39557e-06
3.72319e-06
2.52953e-06
2.77884e-06
1.26502e-06
6.16533e-07
-4.32809e-08
5.14254e-06
5.64408e-06
7.60875e-06
3.88071e-07
-3.58893e-06
2.49521e-06
-3.65817e-06
1.64171e-06
1.50034e-06
1.63705e-06
-2.27244e-06
3.52169e-08
8.99062e-07
1.97765e-07
4.06772e-06
-2.85789e-06
-1.8114e-07
1.35315e-06
-2.08825e-06
-2.78678e-07
-8.23679e-07
1.71384e-06
-2.33179e-06
-6.15019e-07
1.64507e-06
-8.97058e-07
1.24296e-07
-1.69115e-06
-8.68809e-08
-3.02025e-06
-1.96561e-06
2.4379e-07
-3.54471e-06
1.45691e-06
-1.65699e-06
-1.27245e-06
-5.36061e-06
-2.66901e-06
-1.60687e-06
1.06514e-06
-2.19949e-06
-6.64848e-07
-1.38089e-06
3.04155e-06
-1.19233e-06
-7.6671e-07
6.73109e-09
7.01943e-07
1.35209e-06
-9.77919e-07
1.20484e-06
2.86991e-07
-3.32579e-06
4.17041e-06
5.36814e-06
-5.16093e-07
2.88697e-06
1.47449e-06
5.63232e-06
5.57419e-06
5.76153e-06
2.84295e-06
1.31066e-06
-2.80022e-06
1.99889e-06
2.90838e-06
-3.83937e-07
3.54012e-07
2.8566e-06
4.4461e-06
-1.25409e-06
1.21053e-06
-7.54341e-07
3.45132e-06
-3.34019e-06
4.92633e-06
1.77212e-06
-1.12019e-07
-2.02581e-06
3.21113e-06
2.4334e-06
2.9582e-06
5.76094e-07
1.56979e-06
6.11831e-07
2.77193e-06
2.73457e-06
0.000427904
-0.000485294
-3.50792e-06
0.000560709
-3.22012e-06
0.000632329
5.74483e-06
0.000253326
-3.10146e-06
0.000150805
-1.62505e-05
-0.000192282
-1.40439e-05
0.000101381
-8.88827e-06
6.17854e-05
-4.32008e-06
-0.000166675
-1.79157e-05
-6.17301e-05
8.0325e-07
-2.00586e-06
7.89478e-06
6.3008e-05
-1.86161e-06
-5.52113e-06
7.87793e-06
-5.90915e-05
-3.9606e-06
-0.00024507
-9.18979e-06
-0.000228531
4.7901e-06
-0.0002907
-8.94234e-06
-5.87415e-05
-1.88686e-07
-7.61487e-05
9.42641e-06
-6.97051e-05
-1.12306e-06
0.000145106
-3.63187e-06
-7.33442e-05
7.66924e-06
-4.36952e-05
1.85583e-05
-0.000257608
7.45692e-06
-0.000318675
4.12562e-07
-0.000233936
-1.2508e-05
-0.000300068
6.01154e-06
1.9751e-05
1.65646e-05
-2.6708e-05
-1.00575e-05
8.94278e-06
1.33212e-05
2.53167e-05
-1.50322e-05
5.36435e-06
3.47184e-05
-1.76549e-05
2.08148e-05
-3.13755e-05
-2.34627e-05
1.87488e-05
-5.92591e-05
1.42403e-05
-2.52989e-05
-2.7177e-05
1.80131e-05
-1.50415e-05
-4.68624e-05
1.22317e-05
-6.16596e-05
1.69846e-05
-9.27915e-06
1.25906e-05
-1.00176e-06
-1.02402e-05
1.97096e-05
-6.3675e-06
-2.631e-05
-4.13938e-06
-3.81668e-07
-8.10532e-06
-2.99096e-05
-3.60848e-06
-8.09077e-06
-5.90729e-06
-9.47466e-06
-9.95056e-06
-2.84794e-05
2.98719e-05
-4.59903e-05
1.20051e-05
6.93952e-06
-6.86384e-06
4.08977e-05
2.074e-06
-2.44973e-05
-4.73803e-06
-1.89478e-06
-1.86617e-05
1.94512e-06
-1.64348e-05
-2.78429e-05
-2.31739e-05
-4.21205e-06
8.44852e-06
-4.7769e-06
-5.32694e-07
6.21667e-06
-8.22793e-06
-6.92331e-06
3.55176e-06
1.59696e-05
1.38259e-05
9.41217e-06
1.80398e-05
-1.06076e-05
-1.41524e-05
-2.70645e-05
-9.50184e-06
-1.37888e-05
8.48501e-06
8.32512e-06
2.75423e-06
-1.97729e-05
-7.59617e-06
-2.78315e-05
-9.73281e-06
-4.61766e-06
-4.8393e-06
2.05787e-07
6.37596e-06
8.51565e-06
6.42132e-07
-1.14562e-05
2.209e-06
5.31928e-09
2.752e-07
-1.27001e-05
-8.39963e-07
-5.17674e-06
3.61997e-06
-4.74701e-06
6.14276e-06
-1.23167e-05
-1.95733e-05
-2.0281e-05
-8.68826e-06
3.8799e-06
5.31571e-06
2.00001e-05
1.96642e-06
-1.09046e-05
5.05727e-06
-5.55454e-07
7.21191e-06
6.00131e-07
4.76899e-06
-1.30973e-05
-9.94695e-06
-1.94419e-06
4.25933e-06
-1.43324e-06
-8.57479e-08
2.09765e-06
-4.1211e-06
-3.09373e-06
2.55357e-06
4.75128e-06
8.92914e-06
1.22669e-06
1.03518e-05
-2.17789e-06
-7.80129e-06
-8.91356e-06
-6.42492e-06
-5.55705e-06
4.1339e-06
1.60692e-06
2.08644e-06
-6.51999e-06
-4.99652e-06
-7.26012e-06
-6.31507e-06
-2.57141e-06
-3.1521e-06
-1.04856e-07
3.71302e-06
1.66543e-06
4.01492e-07
-3.88804e-06
9.68086e-07
-6.01028e-08
2.65903e-07
-4.37972e-06
-1.36996e-06
-2.45242e-06
1.22789e-06
-2.66698e-06
2.74271e-06
-3.69834e-06
-1.11727e-05
-6.35071e-06
-4.69812e-06
9.75901e-07
4.59474e-06
5.53588e-06
1.72388e-06
-2.64766e-06
2.90184e-06
1.05202e-06
4.26287e-06
-8.02134e-07
2.13181e-06
-3.36197e-06
-3.56519e-06
-7.744e-07
2.10986e-06
5.53661e-07
-1.83202e-06
1.94531e-06
3.46038e-06
5.44798e-06
-3.47051e-06
-3.65709e-06
8.41731e-07
-3.80375e-08
-1.52014e-06
-2.75328e-06
-8.48843e-07
8.12625e-07
-1.47617e-07
1.60591e-07
2.40415e-07
-9.84199e-07
-2.09583e-07
9.95737e-07
-5.35541e-06
-2.60133e-06
9.00352e-07
6.7515e-07
2.29645e-06
2.09675e-06
1.46072e-06
0.000183495
0.000112533
6.13148e-06
-0.000129012
1.14605e-05
0.000326684
5.48412e-06
1.43207e-05
5.32296e-06
1.93307e-05
-9.93145e-06
1.39722e-05
)
;

boundaryField
{
    top_fluid_surface
    {
        type            calculated;
        value           nonuniform List<scalar> 
64
(
-0.000110243
-4.5377e-05
-2.87912e-05
-3.75163e-05
1.33798e-05
-0.00013615
-0.000503804
-0.000484317
-0.000203896
-4.69413e-05
0.000364524
3.96852e-05
-4.21943e-05
3.46571e-05
0.000242747
-8.16162e-05
0.000591541
0.000581022
0.000439294
0.000681347
-5.9347e-05
6.57303e-05
0.000643052
0.000675188
-0.00011833
0.000161042
0.000429206
0.000457778
0.000367691
6.68165e-05
-0.000180538
0.000218673
-0.000109495
-0.00022381
-9.28678e-05
0.000536677
0.000225492
0.000228796
-0.000286476
-0.000135223
0.000242058
-0.000248516
-0.00023766
3.29156e-05
-8.37694e-05
6.00194e-05
9.73409e-05
-0.000141415
-0.000132001
-0.000288097
-0.000133141
-0.000306933
-0.000212196
-3.64995e-05
-0.000217524
-4.22584e-05
-0.000161917
-0.00039783
-0.000275617
-0.000792059
-0.000369832
-0.000123692
-6.64377e-06
1.79352e-07
)
;
    }
    bottom_fluid_surface
    {
        type            calculated;
        value           uniform 0;
    }
    lateral_surface_1
    {
        type            calculated;
        value           uniform 0;
    }
    lateral_surface_2
    {
        type            calculated;
        value           uniform 0;
    }
    lateral_surface_3
    {
        type            calculated;
        value           uniform 0;
    }
    lateral_surface_4
    {
        type            calculated;
        value           uniform 0;
    }
}


// ************************************************************************* //
