/*--------------------------------*- C++ -*----------------------------------*\
| =========                 |                                                 |
| \\      /  F ield         | OpenFOAM: The Open Source CFD Toolbox           |
|  \\    /   O peration     | Version:  v1612+                                |
|   \\  /    A nd           | Web:      www.OpenFOAM.com                      |
|    \\/     M anipulation  |                                                 |
\*---------------------------------------------------------------------------*/
FoamFile
{
    version     2.0;
    format      ascii;
    class       volVectorField;
    location    "7";
    object      U;
}
// * * * * * * * * * * * * * * * * * * * * * * * * * * * * * * * * * * * * * //

dimensions      [0 1 -1 0 0 0 0];

internalField   nonuniform List<vector> 
320
(
(1.5584e-06 -1.36111e-05 2.05599e-05)
(-4.90932e-06 -1.05439e-05 -1.53733e-05)
(-1.80329e-05 -7.9374e-06 -1.49121e-05)
(4.81054e-06 1.98956e-05 -1.43394e-05)
(0.000581157 -0.000193857 -4.38485e-05)
(0.000346315 -0.00032208 -8.14051e-05)
(0.000490508 -0.000145491 -3.15905e-05)
(0.000324401 4.36634e-05 -1.64265e-05)
(0.000423922 1.19049e-05 -2.22621e-06)
(0.000320142 0.000184516 -8.26126e-05)
(0.000269841 0.000116104 -0.000271571)
(2.43785e-05 -3.49395e-05 -0.000241481)
(-0.000406196 0.000113026 -0.000119444)
(-8.12436e-05 -0.000302522 -3.85876e-05)
(-0.000235828 0.000183381 0.00020022)
(0.000176871 0.000145289 2.02551e-05)
(1.69367e-05 -5.21429e-06 3.46318e-05)
(1.77618e-05 -1.05254e-06 2.2406e-05)
(3.94604e-05 -2.1484e-06 -4.28968e-06)
(9.59596e-06 -1.41543e-06 -1.59243e-05)
(2.28412e-05 -1.05192e-05 4.81874e-06)
(1.08332e-05 1.90714e-05 3.41812e-05)
(-1.44341e-05 7.5195e-06 3.21986e-05)
(2.32757e-06 -1.77996e-05 -8.89299e-07)
(-2.3365e-05 2.50161e-05 4.80292e-05)
(-1.65268e-05 -3.91007e-05 3.52911e-05)
(-2.73754e-05 -1.57024e-06 -4.82162e-05)
(-9.12041e-06 3.6325e-06 2.15042e-05)
(-7.8985e-06 -1.17741e-06 2.12316e-05)
(-8.85993e-06 -5.53919e-06 1.90343e-05)
(-1.54931e-05 -2.98668e-06 -3.46243e-06)
(6.27894e-07 6.1137e-08 -1.62852e-05)
(-7.63732e-06 5.64114e-06 3.46317e-06)
(-3.32643e-06 -9.28711e-06 1.9764e-05)
(8.66922e-06 -1.39459e-06 1.77132e-05)
(3.22191e-07 1.15735e-05 -3.94819e-06)
(1.54404e-05 -1.37218e-05 3.00156e-05)
(1.06522e-05 2.11305e-05 2.37325e-05)
(1.65576e-05 -4.15953e-07 -2.73692e-05)
(9.33687e-06 -6.87515e-06 1.4308e-05)
(1.08354e-06 -7.70067e-06 6.7107e-06)
(-2.75096e-06 -6.84427e-06 -7.24443e-06)
(-9.35746e-06 -4.56494e-06 -3.18155e-06)
(3.33539e-06 1.10411e-05 -8.97401e-06)
(-2.81084e-06 -5.99169e-07 6.47712e-06)
(-4.1817e-06 -3.62844e-06 -1.03229e-06)
(-8.58012e-06 -2.44614e-06 -8.61731e-07)
(4.28478e-07 -1.8376e-07 1.20723e-06)
(-3.90388e-06 3.89313e-06 1.42369e-07)
(-1.8391e-06 -6.03967e-06 6.16338e-06)
(5.70709e-06 -1.54959e-06 5.41582e-06)
(8.36021e-07 6.80179e-06 8.80481e-07)
(8.92681e-06 -8.49226e-06 6.64069e-06)
(6.41601e-06 1.12879e-05 3.85956e-06)
(9.56428e-06 -2.97688e-07 -8.18454e-06)
(6.11556e-06 -3.63769e-06 3.68773e-06)
(-9.29746e-06 0.000111606 4.24249e-07)
(0.000524949 0.000127661 -1.2606e-05)
(0.00023198 -0.000105658 0.000116048)
(0.00027169 3.41727e-05 -4.52587e-05)
(0.000288352 0.000269757 0.000330697)
(0.000454363 -0.000270961 0.000335031)
(0.000237398 -2.10876e-05 0.000249015)
(0.000222969 -0.000345025 0.000390504)
(0.000304887 -0.000383093 -3.31554e-05)
(-3.87862e-05 0.000145651 2.83338e-05)
(-7.60621e-05 0.000232617 0.00035353)
(0.000451981 0.000263658 0.000377644)
(0.000449106 0.000201762 -8.03709e-05)
(-0.000157492 7.74566e-05 0.000101798)
(0.00032396 -0.000151656 0.000229684)
(9.70013e-05 4.02197e-05 0.000250205)
(0.000293684 0.000194422 0.00020434)
(0.000425757 0.000417237 4.50404e-05)
(0.000495344 3.21037e-05 -9.66046e-05)
(0.00050287 0.000180506 0.000132494)
(-2.39866e-05 -1.86753e-05 -1.3552e-05)
(2.46728e-06 2.04244e-06 2.81453e-05)
(8.15401e-06 -2.21179e-05 9.5236e-06)
(1.49868e-05 -7.19211e-06 5.9624e-06)
(-2.05547e-06 3.20906e-05 -5.46208e-05)
(2.04171e-05 -6.44672e-06 -7.54344e-05)
(-1.26671e-05 -1.80312e-06 -5.55182e-05)
(-1.44644e-05 -3.33286e-05 -9.29286e-05)
(3.73355e-06 -3.99943e-05 7.57438e-06)
(-1.79852e-05 -7.66429e-06 1.76581e-05)
(-2.46751e-05 1.62722e-05 -5.38693e-05)
(3.29327e-05 1.03268e-06 -6.72149e-05)
(1.58264e-05 -6.02442e-06 4.78798e-05)
(-2.43744e-05 -2.10994e-06 -4.40263e-05)
(2.19038e-05 -3.27688e-05 -3.42694e-05)
(-2.33689e-05 -9.95216e-06 -5.05833e-05)
(7.895e-06 1.11327e-05 -6.00932e-05)
(1.81473e-05 2.77009e-05 -1.02719e-05)
(1.69211e-06 -1.82538e-06 -1.71872e-06)
(3.29432e-05 8.06715e-06 -4.56446e-05)
(1.82186e-05 8.62314e-06 -4.86755e-06)
(2.22307e-07 -1.52483e-06 1.62803e-05)
(-3.09944e-06 7.74026e-06 1.1786e-05)
(-3.65074e-06 -2.79948e-06 2.4942e-06)
(5.83523e-06 -2.1416e-05 -2.58649e-05)
(-3.05113e-06 -1.2551e-06 -2.89844e-05)
(1.12897e-05 -2.687e-06 -2.94739e-05)
(1.00721e-05 1.59461e-05 -4.3472e-05)
(-1.03465e-06 2.1758e-05 5.57729e-06)
(9.3452e-06 5.21612e-06 1.59806e-05)
(1.55157e-05 -8.29986e-06 -3.41545e-05)
(-1.60513e-05 1.46234e-06 -3.43778e-05)
(-5.7027e-06 4.22155e-06 3.21843e-05)
(1.48808e-05 -1.13796e-06 -2.68715e-05)
(-8.97817e-06 2.04106e-05 -2.3751e-05)
(1.79959e-05 7.34489e-06 -3.14641e-05)
(-5.40899e-07 -6.82253e-06 -3.78469e-05)
(-8.56828e-06 -1.49276e-05 -6.46081e-06)
(7.9444e-07 4.83536e-07 -4.75161e-06)
(-1.16398e-05 -5.45528e-06 -3.47135e-05)
(1.05984e-05 5.0435e-06 -3.35209e-06)
(1.07437e-06 -1.64627e-07 6.55152e-06)
(-9.03893e-07 5.48813e-06 -2.59584e-06)
(-2.26593e-06 -2.85452e-07 3.21716e-06)
(3.95636e-06 -1.16355e-05 -7.77815e-06)
(-1.89149e-06 -9.33941e-07 -1.38466e-05)
(6.16199e-06 -2.16783e-06 -8.87976e-06)
(6.34335e-06 8.77367e-06 -1.58541e-05)
(-1.14821e-06 1.16034e-05 2.01935e-06)
(5.24503e-06 2.31152e-06 -7.70261e-08)
(9.2496e-06 -5.47846e-06 -7.70126e-06)
(-9.50667e-06 -1.7955e-07 -1.14267e-05)
(-2.41436e-06 2.76434e-06 5.64075e-06)
(9.74527e-06 -1.15124e-06 -7.4591e-06)
(-4.1089e-06 1.09447e-05 -5.13572e-06)
(1.15725e-05 3.47291e-06 -8.80954e-06)
(2.98201e-07 -3.92776e-06 -1.02072e-05)
(-4.43994e-06 -8.00141e-06 -3.37691e-06)
(1.36358e-06 4.35062e-07 -6.62918e-08)
(-6.66116e-06 -3.35775e-06 -6.07725e-06)
(2.62404e-07 -4.31522e-06 1.9017e-06)
(7.68426e-07 -2.86968e-06 -1.66032e-06)
(-5.33451e-06 -2.2418e-06 -1.30114e-06)
(1.26459e-06 6.59983e-06 -1.18547e-06)
(-3.12672e-06 -1.04529e-06 2.26468e-06)
(-1.94077e-06 -4.66246e-07 2.86757e-06)
(-2.78036e-06 -8.38623e-07 -2.24182e-07)
(1.99825e-06 -1.10989e-06 -1.52709e-06)
(-1.03243e-06 1.57265e-07 6.41151e-07)
(-9.87822e-08 -2.33646e-06 1.83616e-06)
(3.16751e-06 6.67638e-07 2.4495e-06)
(1.08065e-06 2.24583e-06 -4.77083e-07)
(5.7062e-06 -2.80793e-06 2.84354e-06)
(3.47841e-06 5.78153e-06 2.94591e-06)
(6.37766e-06 -6.61884e-07 -2.3061e-06)
(3.38179e-06 -1.17976e-06 2.44869e-06)
(5.95966e-06 2.31919e-06 -4.01756e-07)
(-4.51102e-07 -1.39542e-06 1.16348e-06)
(5.61768e-07 1.16454e-06 1.2631e-06)
(1.64882e-06 -2.18598e-06 -6.66582e-08)
(1.19395e-06 -6.10744e-06 -2.58474e-06)
(-1.34968e-06 -1.16811e-07 -2.99738e-06)
(1.7866e-06 -1.12175e-06 -3.4042e-06)
(1.40714e-06 4.50278e-06 -4.30022e-06)
(-6.45038e-09 5.64187e-06 5.65547e-07)
(1.88987e-06 6.55748e-07 1.45427e-06)
(3.94186e-06 -3.00759e-06 -3.50739e-06)
(-3.31773e-06 2.81863e-08 -3.71678e-06)
(-1.85893e-06 1.04896e-06 2.91706e-06)
(4.02507e-06 6.50279e-07 -3.069e-06)
(-2.32083e-06 5.46644e-06 -2.71277e-06)
(4.86704e-06 1.69921e-06 -3.75692e-06)
(-6.04482e-07 -1.57039e-06 -4.26737e-06)
(-1.59362e-06 -4.41188e-06 -1.36291e-06)
(-8.20538e-07 -1.4633e-06 -9.74206e-07)
(-3.68908e-06 -1.94356e-06 -3.61475e-06)
(0.000692533 0.000175759 -5.90362e-05)
(0.0002292 0.000103574 -0.000100387)
(0.000799951 -6.25217e-05 -6.33549e-05)
(0.000442034 -0.0001724 0.000295655)
(0.000117643 -0.000271263 0.000142738)
(0.000151733 -1.72432e-05 0.000118466)
(-0.000514693 -0.000135327 -0.000168141)
(-0.000636953 0.000334067 -7.81027e-05)
(-0.00045138 -0.000194985 0.00015277)
(-0.000560975 -0.00018519 -0.000156162)
(-0.000616332 8.02814e-05 -0.000164133)
(-0.000140043 -7.5509e-05 1.12796e-05)
(-0.000308353 0.000166424 -5.04624e-05)
(-0.000118954 -0.000155808 4.54016e-05)
(0.000241023 -0.000346269 4.26341e-05)
(0.000202633 -0.000434031 -7.57909e-05)
(0.000299956 -0.000622658 -7.44573e-05)
(0.000208652 -0.000285784 -0.000150067)
(-5.5508e-05 -0.000384585 -8.45738e-05)
(0.000172776 -0.000386704 -0.00017056)
(-1.99789e-05 -0.00023475 -0.000132325)
(0.000131746 1.0686e-06 -2.7385e-05)
(0.000131585 8.21038e-05 -0.000111684)
(0.000174221 2.7402e-05 -4.78339e-05)
(-3.53424e-05 0.000386439 -8.27076e-05)
(0.000141738 0.000217723 -0.000186609)
(0.000152114 0.000311063 -0.000162295)
(0.000271862 0.000295434 -0.000435047)
(3.93614e-05 2.31945e-05 1.55429e-05)
(-3.09915e-06 4.85326e-06 -1.66897e-05)
(2.03795e-05 2.31001e-06 2.2403e-05)
(2.70019e-05 -1.30624e-05 -4.82652e-05)
(-1.47418e-05 -1.65354e-05 -2.73533e-05)
(-2.34942e-05 1.66657e-05 2.01966e-05)
(-3.45155e-05 4.9046e-06 6.76987e-05)
(-4.62759e-05 3.67087e-05 2.95479e-05)
(-2.98968e-05 -1.27626e-05 -2.74892e-05)
(-5.25911e-05 -3.62885e-05 6.22502e-05)
(-6.43684e-05 5.878e-06 7.47787e-05)
(-1.33988e-05 1.55496e-05 1.42171e-05)
(-8.8359e-06 2.07923e-05 1.5699e-06)
(1.50556e-05 2.83971e-06 -2.28258e-05)
(8.25051e-06 -2.10465e-05 3.06764e-05)
(2.13394e-06 -2.33974e-05 7.71492e-07)
(7.85989e-06 -4.7854e-05 3.49405e-05)
(5.47204e-06 1.6714e-06 1.22067e-05)
(3.37512e-06 -3.74973e-05 1.70503e-05)
(8.64135e-06 -2.60761e-05 3.63982e-05)
(1.18161e-05 -2.42357e-05 5.97383e-05)
(1.36567e-05 -3.41221e-05 -8.32019e-06)
(1.04646e-05 1.10071e-05 -4.70689e-05)
(3.46129e-05 2.40904e-06 3.22615e-05)
(1.74514e-06 -7.76955e-06 2.45164e-06)
(-8.52364e-07 1.84289e-05 2.18981e-07)
(2.19954e-05 1.89938e-05 3.68777e-05)
(1.00783e-05 1.12761e-05 3.83034e-05)
(-1.35065e-05 -1.22398e-05 5.86136e-06)
(5.40853e-06 -1.00458e-06 -8.80542e-06)
(-7.01556e-06 5.68807e-07 7.67736e-06)
(-7.58815e-06 6.23504e-06 -2.40872e-05)
(1.3658e-05 5.05634e-06 -1.75601e-05)
(1.59169e-05 -1.10762e-05 2.20648e-05)
(1.82518e-05 -5.0222e-06 4.48278e-05)
(2.43058e-05 -2.17609e-05 2.04508e-05)
(1.79075e-05 2.46825e-06 -1.21565e-05)
(2.80308e-05 1.31872e-05 3.04969e-05)
(3.37785e-05 -6.68509e-06 4.8452e-05)
(5.40599e-06 -1.00232e-05 4.02642e-06)
(1.99946e-06 -9.49692e-06 -2.40836e-07)
(-9.30293e-06 -1.39405e-07 -1.66128e-05)
(-2.23217e-06 1.11612e-05 1.79026e-05)
(4.25153e-07 1.14367e-05 -4.33048e-07)
(-3.85071e-06 2.6251e-05 2.05671e-05)
(2.92382e-06 -7.61656e-07 6.04838e-06)
(-7.48685e-07 1.76246e-05 3.85549e-06)
(-6.3206e-06 1.48682e-05 1.95338e-05)
(-5.44484e-06 1.49694e-05 3.05088e-05)
(-5.34409e-06 2.318e-05 -7.03405e-06)
(-2.67517e-06 -5.28166e-06 -3.4452e-05)
(-1.79716e-05 -5.43449e-06 1.7589e-05)
(-1.28903e-06 9.18173e-07 2.63673e-06)
(-2.12693e-06 -9.94667e-06 -3.12312e-06)
(-1.1719e-05 -5.67872e-06 2.14832e-05)
(-2.35238e-06 -2.87356e-06 1.21445e-05)
(-6.96374e-06 -7.19867e-06 2.91187e-06)
(2.92262e-06 -5.62235e-07 -3.54045e-06)
(-3.25571e-06 4.76953e-07 5.84272e-06)
(-4.06119e-06 3.76794e-06 -7.91507e-06)
(8.54325e-06 3.63417e-06 -2.23648e-07)
(1.02168e-05 -7.04121e-06 1.40664e-06)
(9.58671e-06 -2.6266e-06 1.24329e-05)
(1.40014e-05 -1.23934e-05 7.97552e-06)
(8.82863e-06 -2.40655e-07 -2.7093e-06)
(1.46945e-05 8.04996e-06 1.04416e-05)
(1.90457e-05 -3.41684e-06 8.54771e-06)
(2.50467e-06 -7.13739e-06 4.96498e-06)
(3.0524e-07 -5.79967e-06 1.80559e-07)
(-5.60641e-06 -6.02979e-07 -1.19906e-06)
(-1.46969e-06 5.30861e-06 6.07722e-06)
(6.51837e-07 6.11169e-06 7.29796e-07)
(-2.53546e-06 1.39059e-05 6.73081e-06)
(1.80781e-06 -8.59008e-07 3.74799e-06)
(7.46623e-07 9.68379e-06 4.61174e-06)
(-2.88143e-06 8.13934e-06 5.88229e-06)
(-2.76936e-06 8.45631e-06 1.01232e-05)
(-2.45245e-06 1.33024e-05 -5.33781e-07)
(-4.11723e-07 -4.08564e-06 -6.54903e-06)
(-1.00104e-05 -4.72381e-06 3.65669e-06)
(-1.20777e-06 7.67588e-07 -2.06092e-06)
(-1.24173e-06 -5.85883e-06 1.57595e-06)
(-7.50168e-06 -3.28416e-06 4.19807e-06)
(-1.16826e-06 -8.65271e-07 5.87087e-06)
(-4.41225e-06 -3.26997e-06 2.64182e-07)
(2.83365e-06 -6.96702e-07 -7.4963e-07)
(-1.97208e-06 -1.43988e-07 6.45882e-07)
(-1.15021e-06 8.24281e-07 -1.63509e-06)
(4.49161e-06 1.56802e-06 -2.10925e-06)
(3.09862e-06 -2.01855e-06 2.46564e-06)
(7.07716e-06 -3.36688e-07 4.86851e-06)
(8.75903e-06 -6.63424e-06 2.6919e-06)
(6.55037e-06 -2.45991e-07 -8.66105e-07)
(8.62985e-06 1.64684e-06 2.60482e-06)
(9.31889e-06 -1.63576e-06 5.386e-06)
(2.49134e-06 -1.85368e-06 5.19518e-07)
(1.82342e-06 -3.26408e-06 -2.71749e-08)
(-1.42848e-06 1.35855e-06 -1.87809e-06)
(-2.62971e-07 4.61047e-06 2.04924e-06)
(5.28724e-07 3.5114e-06 -7.20275e-07)
(-8.8901e-07 8.02354e-06 2.1489e-06)
(4.58578e-07 1.08271e-06 9.89595e-07)
(1.28873e-06 5.70606e-06 9.49282e-07)
(-7.47053e-07 3.81901e-06 1.62398e-06)
(-1.32493e-06 4.13225e-06 3.05584e-06)
(-1.01169e-06 6.26432e-06 -1.2022e-06)
(-5.27031e-07 -1.09165e-06 -3.82823e-06)
(-3.8025e-06 -6.79044e-07 1.82087e-06)
(3.64306e-07 -8.77919e-07 3.15926e-08)
(-2.68569e-07 -3.27525e-06 -3.94141e-08)
(-1.44768e-06 -1.27259e-06 2.44816e-06)
(4.02381e-07 -1.41992e-06 1.98814e-06)
(5.86362e-05 0.000159283 -0.00021268)
(0.000279527 4.59712e-05 -5.91866e-05)
(0.000445607 2.17006e-05 1.45322e-06)
(0.000229789 -0.000340109 -3.24134e-06)
(-2.21877e-06 2.02901e-05 4.31194e-05)
(1.12217e-05 1.48216e-05 -2.83545e-05)
(3.33326e-05 1.51375e-05 -2.06022e-05)
(-3.94157e-06 -3.45566e-05 -2.99699e-05)
)
;

boundaryField
{
    top_fluid_surface
    {
        type            pressureInletOutletVelocity;
        value           nonuniform List<vector> 
64
(
(0 0 -4.38485e-05)
(0 0 -8.14051e-05)
(0 0 -3.15905e-05)
(0 0 -1.64265e-05)
(0.000423922 1.19049e-05 -2.22621e-06)
(0 0 -8.26126e-05)
(0 0 -0.000271571)
(0 0 -0.000241481)
(0 0 -0.000119444)
(0 0 -3.85876e-05)
(-0.000235828 0.000183381 0.00020022)
(0.000176871 0.000145289 2.02551e-05)
(0 0 4.24249e-07)
(0.000524949 0.000127661 -1.2606e-05)
(0.00023198 -0.000105658 0.000116048)
(0 0 -4.52587e-05)
(0.000288352 0.000269757 0.000330697)
(0.000454363 -0.000270961 0.000335031)
(0.000237398 -2.10876e-05 0.000249015)
(0.000222969 -0.000345025 0.000390504)
(0 0 -3.31554e-05)
(-3.87862e-05 0.000145651 2.83338e-05)
(-7.60621e-05 0.000232617 0.00035353)
(0.000451981 0.000263658 0.000377644)
(0 0 -8.03709e-05)
(-0.000157492 7.74566e-05 0.000101798)
(0.00032396 -0.000151656 0.000229684)
(9.70013e-05 4.02197e-05 0.000250205)
(0.000293684 0.000194422 0.00020434)
(0.000425757 0.000417237 4.50404e-05)
(0 0 -9.66046e-05)
(0.00050287 0.000180506 0.000132494)
(0 0 -5.90362e-05)
(0 0 -0.000100387)
(0 0 -6.33549e-05)
(0.000442034 -0.0001724 0.000295655)
(0.000117643 -0.000271263 0.000142738)
(0.000151733 -1.72432e-05 0.000118466)
(0 0 -0.000168141)
(0 0 -7.81027e-05)
(-0.00045138 -0.000194985 0.00015277)
(0 0 -0.000156162)
(0 0 -0.000164133)
(-0.000140043 -7.5509e-05 1.12796e-05)
(0 0 -5.04624e-05)
(-0.000118954 -0.000155808 4.54016e-05)
(0.000241023 -0.000346269 4.26341e-05)
(0 0 -7.57909e-05)
(0 0 -7.44573e-05)
(0 0 -0.000150067)
(0 0 -8.45738e-05)
(0 0 -0.00017056)
(0 0 -0.000132325)
(0 0 -2.7385e-05)
(0 0 -0.000111684)
(0 0 -4.78339e-05)
(0 0 -8.27076e-05)
(0 0 -0.000186609)
(0 0 -0.000162295)
(0 0 -0.000435047)
(0 0 -0.00021268)
(0 0 -5.91866e-05)
(0 0 1.45322e-06)
(0.000229789 -0.000340109 -3.24134e-06)
)
;
    }
    bottom_fluid_surface
    {
        type            noSlip;
    }
    lateral_surface_1
    {
        type            noSlip;
    }
    lateral_surface_2
    {
        type            noSlip;
    }
    lateral_surface_3
    {
        type            noSlip;
    }
    lateral_surface_4
    {
        type            noSlip;
    }
}


// ************************************************************************* //
