/*--------------------------------*- C++ -*----------------------------------*\
| =========                 |                                                 |
| \\      /  F ield         | OpenFOAM: The Open Source CFD Toolbox           |
|  \\    /   O peration     | Version:  v1612+                                |
|   \\  /    A nd           | Web:      www.OpenFOAM.com                      |
|    \\/     M anipulation  |                                                 |
\*---------------------------------------------------------------------------*/
FoamFile
{
    version     2.0;
    format      ascii;
    class       volScalarField;
    location    "5.1";
    object      p;
}
// * * * * * * * * * * * * * * * * * * * * * * * * * * * * * * * * * * * * * //

dimensions      [1 -1 -2 0 0 0 0];

internalField   nonuniform List<scalar> 
1116
(
1837.88
1837.86
1837.86
1837.86
1837.87
1837.88
1913.89
1913.87
1913.86
1913.87
1913.88
1913.87
2663.52
2663.51
2663.51
2663.51
2663.51
2663.5
4834.67
4834.57
4834.61
4834.6
4834.58
4834.63
9208.92
9208.97
9208.96
9208.96
9208.98
9208.97
13879.5
13879.7
13879.7
13879.8
13879.8
13879.7
16053.4
16053.7
16053.6
16053.7
16053.8
16053.6
16379.9
16380.4
16380.2
16380.3
16380.3
16380.1
16302.3
16302.5
16302.5
16302.5
16302.5
16302.4
16373.4
16373.1
16373.2
16373.2
16373.1
16373.2
16252.5
16251.9
16252
16252
16251.9
16252.2
15571.6
15571.5
15571.5
15571.5
15571.4
15571.6
47.7912
47.7883
47.7885
47.7885
47.7876
47.7876
55.0644
55.0574
55.059
55.0589
55.0573
55.0602
114.879
114.815
114.842
114.846
114.827
114.858
614.463
614.162
614.306
614.319
614.218
614.38
2537.15
2536.79
2536.97
2537.06
2536.94
2537.11
5428.61
5429.3
5429.22
5429.57
5429.89
5429.33
6533.38
6533.87
6533.86
6533.89
6533.94
6533.7
7053.03
7052.76
7052.91
7052.99
7052.9
7053.07
6552.35
6551.74
6551.96
6552.08
6551.92
6552.11
5519.9
5519.61
5519.65
5519.76
5519.68
5519.59
4987.01
4986.43
4986.49
4986.57
4986.5
4986.4
5076.9
5076.46
5076.58
5076.48
5076.12
5076.83
51.4001
51.4043
51.4025
51.4028
51.403
51.4006
47.3397
47.3494
47.3429
47.3434
47.3457
47.3394
34.5557
34.5836
34.5707
34.5686
34.5758
34.5625
78.7985
78.7133
78.7567
78.7669
78.75
78.7933
274.632
274.01
274.32
274.36
274.205
274.505
2214.74
2218.75
2216.67
2217.36
2219.3
2216.09
2732.68
2733.87
2733.3
2733.29
2733.76
2732.93
2146.39
2147.17
2146.84
2146.84
2147.14
2146.54
1019.24
1019.45
1019.37
1019.39
1019.45
1019.22
345.389
345.186
345.245
345.246
345.151
345.317
514.479
514.025
514.171
514.193
514.139
514.23
429.233
429.159
429.118
429.287
429.051
429.092
22.1003
22.1042
22.1029
22.1035
22.1038
22.1025
20.0829
20.0885
20.0845
20.0857
20.0871
20.0842
-8.46634
-8.45434
-8.45686
-8.45686
-8.45191
-8.45764
-63.0424
-62.986
-62.9924
-62.9895
-62.9617
-62.9941
-151.272
-150.839
-150.984
-150.793
-150.544
-150.953
-133.36
-133.279
-133.282
-133.245
-133.208
-133.268
-83.6954
-83.7699
-83.7633
-83.7905
-83.8204
-83.7751
-39.8111
-39.8246
-39.8255
-39.8273
-39.8289
-39.8422
-19.9919
-19.9933
-19.9936
-19.9929
-19.9878
-20.0074
-10.5401
-10.5375
-10.5407
-10.5563
-10.5727
-10.5311
79.1763
79.1594
79.1727
79.2032
79.2018
79.1323
98.6022
98.5521
98.5293
98.4852
98.4726
98.5546
406.984
412.879
402.82
417.347
429.316
404.652
389.68
395.451
385.031
401.927
413.706
379.833
352.811
354.976
375.404
351.008
336.594
327.365
206.06
208.731
214.594
209.194
200.603
213.355
227.037
227.94
235.467
245.64
249.241
265.816
206.858
203.147
208.92
220.237
237.573
258.522
317.349
316.286
328.652
323.698
346.668
329.516
1119.67
1113.98
1126.6
1123.62
1178.15
1141.37
2826.39
2822.48
2746.81
2800.68
2679.8
2605.81
2561.69
2553.29
2504.74
2546.03
2267.54
2528.65
1407.93
1415.79
1430.35
1409.38
1323.41
1472.37
1393.52
1389.5
1400.11
1375.48
1370.13
1361.31
234.298
236.105
234.702
236.045
236.634
229.488
61.7967
55.0651
72.0914
46.633
11.8957
66.1644
-193.544
-193.374
-187.503
-191.097
-191.833
-176.523
-171.031
-170.84
-170.589
-170.83
-170.17
-168.467
-112.947
-113.437
-113.949
-114.017
-115.192
-113.496
-74.2891
-74.3307
-74.2501
-73.9986
-76.3811
-73.9574
-32.2574
-32.7633
-32.5509
-32.9849
-34.517
-31.1322
45.6079
44.0927
42.5882
37.5167
39.113
42.1151
300.429
296.005
303.329
278.001
264.062
319.166
602.809
602.454
680.156
572.553
444.599
723.814
654.384
656.409
659.019
562.351
470.525
656.504
1094.26
1091.52
1043.31
1003.2
950.91
1009.5
53.6651
52.3515
52.9133
48.8313
42.5046
50.7778
-91.4608
-92.7393
-90.5169
-93.4138
-95.8539
-89.5853
-176.858
-176.052
-175.358
-173.162
-169.124
-172.598
-148.392
-148.188
-148.454
-147.145
-145.471
-147.387
-101.462
-101.249
-101.547
-100.88
-99.5289
-102.194
-61.9551
-61.7464
-61.7953
-61.3532
-61.2819
-62.1902
-39.037
-38.8934
-39.0912
-38.7844
-39.4801
-39.4543
-27.1133
-27.1241
-27.5105
-27.2863
-26.9661
-27.9958
-13.2992
-13.7605
-13.2746
-13.6866
-12.6005
-12.3489
92.6531
94.8692
117.645
67.0655
29.4049
110.406
630.582
623.943
589.245
507.255
543.792
531.802
969.961
981.975
709.586
806.125
815.135
800.627
-26.1461
-26.8371
-26.7846
-27.9212
-29.9378
-27.0253
-99.0113
-99.538
-99.1487
-98.987
-98.3427
-98.068
-156.385
-156.804
-156.602
-156.695
-156.097
-155.237
-153.736
-153.538
-154.51
-153.778
-154.112
-156.314
-100.601
-100.507
-100.789
-100.7
-100.529
-101.853
-64.8511
-64.877
-64.9767
-64.8677
-64.7111
-65.2903
-45.937
-45.9261
-45.9956
-45.7718
-45.8043
-46.1878
-39.9879
-39.9706
-40.1224
-39.8052
-39.6175
-40.278
-37.642
-37.6671
-38.1124
-37.7125
-37.902
-38.0102
-28.4415
-28.7831
-30.473
-30.1297
-32.5722
-29.3841
35.0564
37.8985
43.3968
12.623
-4.41958
52.4028
-484.151
-453.498
-444.436
-221.226
343.03
-259.5
-8.76213
-8.7602
-8.76037
-8.75993
-8.75973
-8.76016
-37.8085
-37.8084
-37.8084
-37.8082
-37.8081
-37.8082
-60.8993
-60.8996
-60.8998
-60.8997
-60.8996
-60.8996
-18.976
-18.9693
-18.9716
-18.9706
-18.9695
-18.9721
-45.8328
-45.831
-45.8317
-45.8316
-45.8315
-45.8323
-63.2257
-63.2258
-63.2259
-63.226
-63.226
-63.226
-52.3762
-52.361
-52.3633
-52.3649
-52.3584
-52.3679
-64.0927
-64.0871
-64.0882
-64.0893
-64.0882
-64.0913
-66.9284
-66.9276
-66.9277
-66.9279
-66.9279
-66.9285
-133.582
-133.588
-133.581
-133.588
-133.587
-133.575
-98.1738
-98.181
-98.177
-98.1774
-98.1794
-98.1752
-74.2416
-74.242
-74.2412
-74.2414
-74.2418
-74.242
-136.329
-136.323
-136.309
-136.303
-136.3
-136.303
-105.055
-105.063
-105.056
-105.056
-105.058
-105.053
-76.328
-76.3283
-76.3266
-76.3271
-76.3279
-76.3283
-113.735
-113.747
-113.742
-113.744
-113.751
-113.744
-104.792
-104.806
-104.803
-104.801
-104.805
-104.8
-69.9405
-69.9309
-69.9318
-69.935
-69.9354
-69.9403
-81.6479
-81.6481
-81.6567
-81.6613
-81.6641
-81.664
-84.3374
-84.3335
-84.3374
-84.3394
-84.3405
-84.3414
-65.8444
-65.8422
-65.843
-65.8441
-65.8443
-65.8468
-42.2072
-42.205
-42.209
-42.21
-42.2138
-42.2049
-51.2081
-51.2075
-51.21
-51.2119
-51.2152
-51.2054
-60.919
-60.9164
-60.9177
-60.9185
-60.9179
-60.9197
-25.5251
-25.5245
-25.5261
-25.5299
-25.536
-25.519
-27.647
-27.6435
-27.6472
-27.6499
-27.6561
-27.6398
-60.0242
-60.0231
-60.0238
-60.0244
-60.025
-60.0226
-35.3714
-35.386
-35.378
-35.3729
-35.3697
-35.3978
-6.47605
-6.47008
-6.47674
-6.4807
-6.49533
-6.46332
-67.1995
-67.1993
-67.1998
-67.2009
-67.2049
-67.1957
3.73941
3.72282
3.73376
3.73145
3.72635
3.73641
-35.8693
-35.8694
-35.8703
-35.8737
-35.8782
-35.861
-59.3818
-59.382
-59.382
-59.3792
-59.3793
-59.3845
141.982
141.99
142.071
141.767
141.488
142.396
-76.2235
-76.2289
-76.2253
-76.2091
-76.1873
-76.2498
-82.9275
-82.9305
-82.9294
-82.9204
-82.9145
-82.9406
1034.59
1034.77
1035.22
1035.71
1037.31
1036.24
-51.5495
-51.561
-51.5658
-51.5371
-51.536
-51.5038
-71.2077
-71.189
-71.1467
-71.0939
-70.9814
-70.9808
1049.52
1049.7
1049.83
1049.84
1049.94
1051.09
-53.4674
-53.467
-53.4606
-53.4534
-53.4494
-53.3443
-70.1856
-70.173
-70.1588
-70.148
-70.1193
-70.0906
1008.89
1008.49
1008.64
1008.11
1007.58
1009.83
-53.167
-53.171
-53.1673
-53.1695
-53.1787
-53.165
-69.9925
-69.9872
-69.9788
-69.9673
-69.9457
-69.9589
818.437
817.926
817.913
817.856
817.429
818.791
-52.8235
-52.8219
-52.8141
-52.8209
-52.8273
-52.7576
-70.5544
-70.549
-70.5469
-70.5303
-70.5115
-70.5517
809.065
808.558
808.572
808.383
808.099
809.508
-55.7292
-55.7302
-55.7254
-55.7302
-55.7308
-55.7191
-73.0627
-73.0596
-73.0595
-73.0548
-73.0459
-73.063
713.54
713.395
713.753
712.29
711.227
715.111
-50.4018
-50.4014
-50.4029
-50.4056
-50.4024
-50.3903
-76.5723
-76.5719
-76.5735
-76.5691
-76.5626
-76.5785
-39.0582
-39.2174
-39.2793
-39.5384
-40.0379
-39.6728
-46.8838
-46.8971
-46.9718
-47.0632
-47.1767
-47.3102
-60.6526
-60.65
-60.6728
-60.6973
-60.7063
-60.7639
-65.2822
-65.6346
-65.4918
-65.7765
-65.8424
-65.403
-51.1678
-51.2774
-51.2566
-51.4467
-51.5868
-51.3644
-59.2313
-59.2453
-59.2422
-59.2898
-59.3287
-59.2717
-94.9657
-95.2794
-95.2188
-95.2297
-95.144
-94.6234
-64.605
-64.7114
-64.6481
-64.7254
-64.7296
-64.5356
-61.9012
-61.9152
-61.8974
-61.9339
-61.9328
-61.8977
-89.9203
-90.1058
-90.2222
-90.1245
-89.8791
-89.6561
-71.541
-71.6436
-71.6068
-71.7022
-71.6579
-71.4488
-64.5264
-64.5384
-64.5219
-64.546
-64.5367
-64.5148
-77.966
-77.9961
-78.0483
-78.0313
-77.9212
-78.1572
-68.7392
-68.7682
-68.7696
-68.8051
-68.8027
-68.785
-65.1622
-65.1633
-65.1614
-65.1633
-65.1537
-65.1657
-63.0644
-63.0787
-63.0685
-63.0708
-62.9926
-63.1631
-63.583
-63.5892
-63.5903
-63.6007
-63.5942
-63.619
-65.4322
-65.4317
-65.4301
-65.428
-65.4204
-65.4346
-53.2789
-53.2794
-53.2659
-53.2554
-53.2183
-53.3159
-59.6967
-59.6974
-59.6984
-59.7015
-59.696
-59.7165
-65.65
-65.6491
-65.6465
-65.6443
-65.6381
-65.6462
-49.2529
-49.2435
-49.2167
-49.1615
-49.0595
-49.218
-58.1122
-58.1088
-58.1022
-58.0911
-58.0707
-58.1064
-65.9726
-65.9685
-65.9608
-65.9522
-65.9426
-65.9468
-44.4113
-44.435
-44.4239
-44.3537
-43.976
-44.6048
-56.8206
-56.8198
-56.8151
-56.8144
-56.8109
-56.828
-65.3261
-65.326
-65.3229
-65.3147
-65.293
-65.3201
-44.08
-44.0495
-44.0894
-43.9829
-43.3605
-44.4253
-56.9423
-56.9471
-56.9597
-57.0748
-57.15
-57.1078
-66.4919
-66.4827
-66.4664
-66.4411
-66.391
-66.4374
-42.8125
-42.1744
-42.6459
-39.3211
-35.1281
-44.6038
-56.3581
-56.3025
-56.2327
-56.2185
-56.0964
-56.2485
-67.211
-67.173
-67.1041
-66.9335
-66.6094
-66.9416
464.686
464.007
463.641
502.219
530.357
494.729
-55.3953
-55.4343
-55.3901
-55.5857
-55.4183
-55.0876
-76.551
-76.5073
-76.4424
-76.4644
-76.3231
-75.9372
)
;

boundaryField
{
    seabed_topleft_surface
    {
        type            calculated;
        value           nonuniform List<scalar> 
72
(
3606.7
3606.66
3606.65
3606.66
3606.67
3606.7
3753.09
3753.06
3753.04
3753.05
3753.07
3753.07
4741.1
4741.07
4741.07
4741.07
4741.07
4741.09
7441.74
7441.62
7441.67
7441.66
7441.64
7441.71
13261
13261
13261
13261
13261
13261
18677
18677.2
18677.2
18677.3
18677.4
18677.2
20850.9
20851.2
20851.1
20851.2
20851.3
20851.1
21175.5
21176
21175.8
21175.8
21175.9
21175.7
21098
21098.2
21098.1
21098.1
21098.1
21098
21167.9
21167.5
21167.7
21167.7
21167.6
21167.7
21042.3
21041.7
21041.9
21041.9
21041.7
21042
20354.2
20354.2
20354.1
20354.1
20354
20354.2
)
;
    }
    seabed_topright_surface
    {
        type            calculated;
        value           nonuniform List<scalar> 
72
(
412.751
418.872
408.329
423.373
435.006
410.003
398.185
406.053
391.057
415.081
464.528
386.232
515.773
528.956
497.334
526.203
603.776
394.51
473.261
481.102
490.355
485.631
477.106
455.059
480.602
480.517
500.907
514.863
515.577
563.47
442.511
430.189
443.309
460.971
489.415
556.623
648.48
651.397
672.76
673.119
691.261
651.957
1499.97
1498.78
1505.59
1508.66
1557.14
1513.85
3213.97
3212.35
3132.23
3189.8
3064.84
2983.23
2951.56
2946.65
2802.42
2939
2656.66
2814.12
1602.97
1615.69
1608.72
1622.82
1593.85
1716.85
1406.38
1402.28
1420.67
1387.88
1390.71
1391.64
)
;
    }
    breakwater_top_surface
    {
        type            calculated;
        value           nonuniform List<scalar> 
36
(
2137.02
2137.25
2137.85
2138.47
2140.15
2139.06
2153.19
2153.48
2153.73
2153.79
2153.89
2155.04
2071.8
2070.99
2071.3
2070.14
2068.95
2073.85
1685.4
1684.34
1684.33
1684.12
1683.17
1686.22
1674.93
1673.89
1673.92
1673.52
1672.9
1675.9
1503.29
1503.01
1503.81
1500.69
1498.47
1506.67
)
;
    }
    breakwater_left_surface
    {
        type            calculated;
        value           nonuniform List<scalar> 
24
(
15588
15587.9
15587.9
15587.9
15587.8
15587.9
5090.07
5089.63
5089.74
5089.65
5089.28
5090
430.613
430.537
430.497
430.666
430.429
430.472
98.6423
98.5923
98.5694
98.5252
98.5126
98.5948
)
;
    }
    breakwater_right_surface
    {
        type            calculated;
        value           nonuniform List<scalar> 
24
(
1393.57
1389.54
1400.18
1375.53
1370.2
1361.42
1094.3
1091.56
1043.35
1003.24
950.948
1009.54
971.358
983.514
711.761
806.794
815.171
802.383
-481.708
-451.051
-441.987
-218.776
345.469
-257.065
)
;
    }
    water_front_surface
    {
        type            calculated;
        value           nonuniform List<scalar> 
186
(
1837.88
1913.89
2663.52
4834.67
9208.92
13879.5
16053.4
16379.9
16302.3
16373.4
16252.5
15571.6
47.7912
55.0644
114.879
614.463
2537.15
5428.61
6533.38
7053.03
6552.35
5519.9
4987.01
5076.9
51.4001
47.3397
34.5557
78.7985
274.632
2214.74
2732.68
2146.39
1019.24
345.389
514.479
429.233
22.1003
20.0829
-8.46634
-63.0424
-151.272
-133.36
-83.6954
-39.8111
-19.9919
-10.5401
79.1763
98.6022
406.984
389.68
352.811
206.06
227.037
206.858
317.349
1119.67
2826.39
2561.69
1407.93
1393.52
234.298
61.7967
-193.544
-171.031
-112.947
-74.2891
-32.2574
45.6079
300.429
602.809
654.384
1094.26
53.6651
-91.4608
-176.858
-148.392
-101.462
-61.9551
-39.037
-27.1133
-13.2992
92.6531
630.582
969.961
-26.1461
-99.0113
-156.385
-153.736
-100.601
-64.8511
-45.937
-39.9879
-37.642
-28.4415
35.0564
-484.151
-8.76213
-37.8085
-60.8993
-18.976
-45.8328
-63.2257
-52.3762
-64.0927
-66.9284
-133.582
-98.1738
-74.2416
-136.329
-105.055
-76.328
-113.735
-104.792
-69.9405
-81.6479
-84.3374
-65.8444
-42.2072
-51.2081
-60.919
-25.5251
-27.647
-60.0242
-35.3714
-6.47605
-67.1995
3.73941
-35.8693
-59.3818
141.982
-76.2235
-82.9275
1034.59
-51.5495
-71.2077
1049.52
-53.4674
-70.1856
1008.89
-53.167
-69.9925
818.437
-52.8235
-70.5544
809.065
-55.7292
-73.0627
713.54
-50.4018
-76.5723
-39.0582
-46.8838
-60.6526
-65.2822
-51.1678
-59.2313
-94.9657
-64.605
-61.9012
-89.9203
-71.541
-64.5264
-77.966
-68.7392
-65.1622
-63.0644
-63.583
-65.4322
-53.2789
-59.6967
-65.65
-49.2529
-58.1122
-65.9726
-44.4113
-56.8206
-65.3261
-44.08
-56.9423
-66.4919
-42.8125
-56.3581
-67.211
464.686
-55.3953
-76.551
)
;
    }
    water_back_surface
    {
        type            calculated;
        value           nonuniform List<scalar> 
186
(
1837.88
1913.87
2663.5
4834.63
9208.97
13879.7
16053.6
16380.1
16302.4
16373.2
16252.2
15571.6
47.7876
55.0602
114.858
614.38
2537.11
5429.33
6533.7
7053.07
6552.11
5519.59
4986.4
5076.83
51.4006
47.3394
34.5625
78.7933
274.505
2216.09
2732.93
2146.54
1019.22
345.317
514.23
429.092
22.1025
20.0842
-8.45764
-62.9941
-150.953
-133.268
-83.7751
-39.8422
-20.0074
-10.5311
79.1323
98.5546
404.652
379.833
327.365
213.355
265.816
258.522
329.516
1141.37
2605.81
2528.65
1472.37
1361.31
229.488
66.1644
-176.523
-168.467
-113.496
-73.9574
-31.1322
42.1151
319.166
723.814
656.504
1009.5
50.7778
-89.5853
-172.598
-147.387
-102.194
-62.1902
-39.4543
-27.9958
-12.3489
110.406
531.802
800.627
-27.0253
-98.068
-155.237
-156.314
-101.853
-65.2903
-46.1878
-40.278
-38.0102
-29.3841
52.4028
-259.5
-8.76016
-37.8082
-60.8996
-18.9721
-45.8323
-63.226
-52.3679
-64.0913
-66.9285
-133.575
-98.1752
-74.242
-136.303
-105.053
-76.3283
-113.744
-104.8
-69.9403
-81.664
-84.3414
-65.8468
-42.2049
-51.2054
-60.9197
-25.519
-27.6398
-60.0226
-35.3978
-6.46332
-67.1957
3.73641
-35.861
-59.3845
142.396
-76.2498
-82.9406
1036.24
-51.5038
-70.9808
1051.09
-53.3443
-70.0906
1009.83
-53.165
-69.9589
818.791
-52.7576
-70.5517
809.508
-55.7191
-73.063
715.111
-50.3903
-76.5785
-39.6728
-47.3102
-60.7639
-65.403
-51.3644
-59.2717
-94.6234
-64.5356
-61.8977
-89.6561
-71.4488
-64.5148
-78.1572
-68.785
-65.1657
-63.1631
-63.619
-65.4346
-53.3159
-59.7165
-65.6462
-49.218
-58.1064
-65.9468
-44.6048
-56.828
-65.3201
-44.4253
-57.1078
-66.4374
-44.6038
-56.2485
-66.9416
494.729
-55.0876
-75.9372
)
;
    }
    water_left_surface
    {
        type            calculated;
        value           nonuniform List<scalar> 
42
(
1843.93
1843.92
1843.91
1843.92
1843.92
1843.94
47.8077
47.8048
47.8051
47.805
47.8041
47.8041
51.4163
51.4205
51.4187
51.419
51.4191
51.4168
22.1161
22.1201
22.1188
22.1194
22.1197
22.1184
-8.76213
-8.7602
-8.76037
-8.75993
-8.75973
-8.76016
-37.8085
-37.8084
-37.8084
-37.8082
-37.8081
-37.8082
-60.8993
-60.8996
-60.8998
-60.8997
-60.8996
-60.8996
)
;
    }
    water_right_surface
    {
        type            calculated;
        value           nonuniform List<scalar> 
42
(
407.003
412.9
402.838
417.367
429.336
404.67
234.317
236.125
234.72
236.065
236.661
229.505
53.6819
52.3686
52.93
48.8487
42.5241
50.7943
-26.1302
-26.8211
-26.7686
-27.9053
-29.9219
-27.0094
-39.0582
-39.2174
-39.2793
-39.5384
-40.0379
-39.6728
-46.8838
-46.8971
-46.9718
-47.0632
-47.1767
-47.3102
-60.6526
-60.65
-60.6728
-60.6973
-60.7063
-60.7639
)
;
    }
    water_top_surface
    {
        type            calculated;
        value           nonuniform List<scalar> 
180
(
-68.67
-68.67
-68.67
-68.67
-68.67
-68.67
-68.67
-68.67
-68.67
-68.67
-68.67
-68.67
-68.6702
-68.6702
-68.6702
-68.6702
-68.6702
-68.6702
-68.6835
-68.6835
-68.6835
-68.6835
-68.6835
-68.6835
-68.7843
-68.7843
-68.7843
-68.7843
-68.7843
-68.7843
-68.8915
-68.8916
-68.8915
-68.8916
-68.8916
-68.8916
-69.5813
-69.571
-69.5756
-69.5777
-69.5737
-69.5802
-73.8728
-73.8563
-73.8642
-73.8672
-73.8617
-73.8735
-72.8396
-72.8348
-72.8365
-72.8371
-72.8372
-72.8369
-69.2101
-69.2088
-69.2091
-69.2097
-69.2107
-69.2083
-68.7175
-68.7171
-68.7173
-68.7174
-68.7175
-68.7172
-72.4076
-72.4093
-72.4072
-72.4069
-72.4081
-72.4066
-70.6186
-70.6328
-70.6184
-70.5837
-70.6143
-70.5643
-70.873
-70.9001
-70.8992
-70.8081
-70.7918
-70.9988
-70.8111
-70.8118
-70.8078
-70.8163
-70.8488
-70.7551
-71.5469
-71.5509
-71.5315
-71.5793
-71.6292
-71.4659
-72.5595
-72.5681
-72.547
-72.5903
-72.6391
-72.4988
-70.2764
-70.2817
-70.2747
-70.2853
-70.303
-70.2584
-68.6706
-68.6705
-68.6705
-68.6705
-68.6704
-68.6704
-68.6702
-68.6702
-68.6703
-68.6702
-68.6702
-68.6702
-68.67
-68.67
-68.67
-68.67
-68.67
-68.67
-68.67
-68.67
-68.67
-68.67
-68.67
-68.67
-68.67
-68.67
-68.67
-68.67
-68.67
-68.67
-69.1766
-69.1771
-69.1772
-69.1776
-69.1761
-69.1805
-69.7334
-69.7324
-69.7306
-69.7287
-69.7257
-69.7287
-70.9135
-70.9082
-70.9008
-70.8916
-70.8822
-70.8805
-70.5044
-70.5003
-70.4911
-70.4756
-70.4562
-70.473
-72.5869
-72.5744
-72.5439
-72.557
-72.5436
-72.4895
-73.1677
-73.1407
-73.0521
-73.0653
-73.0407
-72.9041
-71.1235
-71.127
-71.1188
-71.109
-71.0516
-71.0625
)
;
    }
}


// ************************************************************************* //
