/*--------------------------------*- C++ -*----------------------------------*\
| =========                 |                                                 |
| \\      /  F ield         | OpenFOAM: The Open Source CFD Toolbox           |
|  \\    /   O peration     | Version:  v1612+                                |
|   \\  /    A nd           | Web:      www.OpenFOAM.com                      |
|    \\/     M anipulation  |                                                 |
\*---------------------------------------------------------------------------*/
FoamFile
{
    version     2.0;
    format      ascii;
    class       volScalarField;
    location    "5.1";
    object      p_rgh;
}
// * * * * * * * * * * * * * * * * * * * * * * * * * * * * * * * * * * * * * //

dimensions      [1 -1 -2 0 0 0 0];

internalField   nonuniform List<scalar> 
1116
(
3606.7
3606.66
3606.65
3606.66
3606.67
3606.7
3753.09
3753.06
3753.04
3753.05
3753.07
3753.07
4741.1
4741.07
4741.07
4741.07
4741.07
4741.09
7441.74
7441.62
7441.67
7441.66
7441.64
7441.71
13261
13261
13261
13261
13261
13261
18677
18677.2
18677.2
18677.3
18677.4
18677.2
20850.9
20851.2
20851.1
20851.2
20851.3
20851.1
21175.5
21176
21175.8
21175.8
21175.9
21175.7
21098
21098.2
21098.1
21098.1
21098.1
21098
21167.9
21167.5
21167.7
21167.7
21167.6
21167.7
21042.3
21041.7
21041.9
21041.9
21041.7
21042
20354.2
20354.2
20354.1
20354.1
20354
20354.2
62.5264
62.5234
62.5237
62.5236
62.5227
62.5227
72.6493
72.6409
72.643
72.6442
72.6421
72.6413
373.564
373.499
373.523
373.531
373.507
373.519
1939.7
1939.87
1939.79
1939.72
1939.75
1939.68
9292.31
9293.46
9292.86
9292.71
9293.07
9292.54
18949.5
18951.1
18950.5
18950.8
18951.4
18950.4
20892.6
20893.1
20893.1
20893.1
20893.2
20893
21341.3
21341.3
21341.4
21341.4
21341.4
21341.4
19812.8
19814.2
19813.7
19813.6
19814
19813.1
17173.3
17174.4
17173.9
17173.7
17173.9
17173.3
16325.9
16325.2
16325.2
16325.1
16324.9
16325.1
16821.2
16818.6
16819.6
16819.3
16817.9
16821
75.9449
75.9491
75.9473
75.9476
75.9477
75.9454
71.9164
71.9263
71.9197
71.9202
71.9225
71.9162
60.2384
60.2702
60.2554
60.2532
60.2613
60.246
124.42
124.382
124.401
124.41
124.406
124.423
3790.08
3793.29
3791.67
3791.51
3792.47
3790.38
13686.6
13697.3
13692.1
13692.7
13697
13689.3
16575.1
16581.9
16578.9
16578.7
16581.2
16576.7
13008.7
13014
13011.8
13011.7
13013.4
13009.9
6258.27
6260.15
6259.44
6259.43
6259.87
6258.45
2075.18
2073.87
2074.34
2074.39
2073.88
2074.76
2739.14
2736.23
2737.13
2737.32
2737.02
2737.55
2520.46
2518.79
2519.41
2519.47
2517.76
2520.52
56.452
56.4559
56.4546
56.4553
56.4555
56.4542
54.4507
54.4563
54.4523
54.4535
54.4549
54.452
27.9729
27.964
27.9713
27.9721
27.9666
27.9756
308.483
308.26
308.297
308.543
308.485
308.472
465.82
466.884
466.272
466.889
467.519
466.363
-98.9338
-98.8519
-98.8551
-98.8189
-98.7814
-98.8412
-49.2717
-49.3461
-49.3396
-49.3669
-49.3969
-49.3514
-5.39035
-5.40383
-5.40483
-5.40668
-5.40824
-5.42145
14.3983
14.3969
14.3965
14.3972
14.4023
14.3827
23.8807
23.8833
23.8799
23.8643
23.8479
23.8896
113.622
113.606
113.619
113.649
113.648
113.578
185.232
185.409
185.341
185.172
185.161
185.367
412.751
418.872
408.329
423.373
435.006
410.003
398.185
406.053
391.057
415.081
464.528
386.232
515.773
528.956
497.334
526.203
603.776
394.51
473.261
481.102
490.355
485.631
477.106
455.059
480.602
480.517
500.907
514.863
515.577
563.47
442.511
430.189
443.309
460.971
489.415
556.623
648.48
651.397
672.76
673.119
691.261
651.957
1499.97
1498.78
1505.59
1508.66
1557.14
1513.85
3213.97
3212.35
3132.23
3189.8
3064.84
2983.23
2951.56
2946.65
2802.42
2939
2656.66
2814.12
1602.97
1615.69
1608.72
1622.82
1593.85
1716.85
1406.38
1402.28
1420.67
1387.88
1390.71
1391.64
250.956
253.79
250.634
254.271
260.412
245.144
109.45
105.408
115.256
96.9332
77.0123
100.71
-137.29
-138.943
-132.944
-135.86
-145.939
-120.073
-156.279
-156.089
-155.837
-156.05
-154.881
-150.716
-98.2134
-98.703
-99.2152
-99.2833
-100.458
-98.7618
-59.5557
-59.5973
-59.5166
-59.2651
-61.6476
-59.2239
-17.5238
-18.0297
-17.8167
-18.2516
-19.7829
-16.398
196.133
179.727
186.341
159.578
160.603
186.418
1074.67
1078.98
1146.11
1008.33
757.56
1239.11
1773.33
1811.56
1917.52
1753.6
1091.48
2036.57
1531.32
1611.92
1893.27
1365.41
593.031
1980.78
1132.53
1129.79
1082.97
1038.69
984.62
1044.99
79.1455
78.3669
78.1772
75.1744
72.0635
75.7365
-47.1047
-47.9178
-46.3962
-46.8357
-55.8029
-46.8389
-146.734
-146.658
-143.704
-144.292
-144.353
-138.186
-123.667
-123.474
-123.752
-122.563
-120.926
-122.66
-76.9176
-76.7049
-77.0027
-76.3354
-74.9844
-77.6495
-37.411
-37.2022
-37.2512
-36.809
-36.7377
-37.646
-14.4958
-14.3522
-14.55
-14.2432
-14.9389
-14.9131
-2.57244
-2.58319
-2.96964
-2.74543
-2.42538
-3.45497
11.2779
10.8193
11.2848
10.9331
12.1084
12.2545
762.615
778.1
1089.04
507.115
222.554
1111.8
3673.01
3781.95
3847.35
3619.47
3005.36
3176.24
3087
3315.66
4005.96
1820.59
870.322
3463.15
8.30257
7.65096
7.6749
6.59828
4.4697
7.37796
-64.5055
-65.0027
-64.667
-64.4427
-63.8468
-63.5776
-122.006
-122.426
-122.22
-122.316
-121.683
-120.847
-119.216
-119.032
-119.985
-119.272
-119.639
-121.791
-66.1727
-66.0813
-66.36
-66.2795
-66.128
-67.4181
-30.4945
-30.5204
-30.6197
-30.5109
-30.3546
-30.9312
-11.5861
-11.5752
-11.6447
-11.421
-11.4534
-11.8369
-5.63707
-5.61976
-5.77148
-5.45428
-5.26662
-5.92717
-3.29109
-3.31618
-3.76153
-3.36161
-3.55116
-3.65937
5.95999
5.62203
3.90388
4.33075
2.14671
5.05397
2047.94
2039.42
2182.97
1869.77
1608.01
2754.04
4802.9
4842.12
4856.94
5080.15
5621.11
5008.92
35.3829
35.3849
35.3847
35.3851
35.3853
35.3849
16.1465
16.1466
16.1466
16.1468
16.1469
16.1469
2.86571
2.86541
2.86527
2.86538
2.86547
2.86544
25.1701
25.1768
25.1745
25.1754
25.1765
25.1739
8.12224
8.1241
8.12338
8.12349
8.12353
8.12273
0.539288
0.53927
0.539086
0.539059
0.539038
0.538997
-6.30645
-6.29886
-6.29908
-6.29646
-6.29278
-6.29827
-9.98162
-9.97694
-9.97783
-9.97827
-9.97731
-9.9802
-3.1632
-3.16241
-3.16247
-3.16267
-3.16273
-3.16328
-30.7451
-30.8349
-30.8051
-30.7631
-30.7905
-30.7433
-44.1614
-44.1685
-44.1645
-44.1649
-44.1669
-44.1627
-10.464
-10.4644
-10.4637
-10.4638
-10.4642
-10.4644
-52.0143
-51.9747
-51.957
-51.9937
-51.9854
-51.9602
-51.0013
-51.0091
-51.002
-51.0017
-51.0045
-50.9995
-12.4569
-12.4571
-12.4555
-12.4559
-12.4567
-12.4571
-69.4853
-69.4982
-69.4927
-69.4952
-69.5015
-69.4944
-50.294
-50.3071
-50.3039
-50.3017
-50.3056
-50.3014
-5.96985
-5.96015
-5.96112
-5.9642
-5.96455
-5.9695
-37.4028
-37.403
-37.4116
-37.4163
-37.4191
-37.4189
-29.8307
-29.8263
-29.8304
-29.8324
-29.8333
-29.8347
-1.81741
-1.81468
-1.8158
-1.81681
-1.81672
-1.81978
2.01794
2.02019
2.01615
2.01503
2.01132
2.02026
2.8654
2.86678
2.86398
2.86199
2.85874
2.86772
2.92702
2.93015
2.92862
2.92783
2.92869
2.92639
18.6263
18.6271
18.6254
18.6216
18.6155
18.6326
26.3097
26.3132
26.3095
26.3068
26.3006
26.3169
3.74233
3.7435
3.74279
3.7421
3.7416
3.74389
8.85768
8.84318
8.85112
8.85621
8.85945
8.83129
48.2556
48.2638
48.2566
48.2486
48.2276
48.2779
-3.43446
-3.43432
-3.43475
-3.43593
-3.43995
-3.4307
54.9312
54.9175
54.9312
54.9119
54.8919
54.9526
36.5985
36.6146
36.6142
36.5707
36.5116
36.6847
4.44318
4.44314
4.44313
4.44566
4.44527
4.44089
2652.25
2652.65
2654.21
2649.27
2645.31
2658.48
-22.2685
-22.2739
-22.2703
-22.2541
-22.2323
-22.2948
-19.1581
-19.1612
-19.1601
-19.1511
-19.1454
-19.171
10956.4
10957.1
10958.9
10960.6
10962.9
10961.7
2.40546
2.394
2.38918
2.41786
2.41899
2.45117
-7.4427
-7.42396
-7.38168
-7.32894
-7.21637
-7.21576
10982.6
10983.7
10984.9
10985.4
10985.5
10986.6
0.48761
0.487993
0.494408
0.501573
0.523369
4.91341
-6.42063
-6.40804
-6.39377
-6.38302
-6.35432
-6.32556
10575.1
10571
10572.6
10566.4
10559.9
10586
0.788032
0.783976
0.787652
0.785541
0.776347
0.789994
-6.22748
-6.22224
-6.21383
-6.20226
-6.1807
-6.19386
8621.06
8615.65
8615.65
8614.28
8609.11
8625.64
1.13153
1.1331
1.14093
1.1341
1.12767
1.19745
-6.78943
-6.784
-6.78187
-6.76526
-6.74652
-6.78673
8601.9
8596.52
8596.75
8594.61
8591.27
8607.01
-1.77422
-1.77519
-1.77044
-1.77516
-1.77585
-1.76407
-9.29771
-9.29459
-9.29453
-9.28979
-9.28094
-9.29801
7821.29
7819.95
7824.3
7807.89
7796.42
7839.12
3.55318
3.55359
3.55212
3.54943
3.55259
3.56471
-12.8073
-12.8069
-12.8085
-12.8041
-12.7976
-12.8135
5.08863
4.93017
4.86727
4.60956
4.11299
4.47299
7.07174
7.05847
6.98377
6.89239
6.77899
6.64512
3.11297
3.11546
3.09268
3.06816
3.05899
3.0015
-21.1176
-21.4693
-21.3289
-21.6103
-21.6787
-21.2477
2.78869
2.67917
2.69982
2.51002
2.36981
2.59147
4.5339
4.51987
4.52306
4.47537
4.43647
4.49351
-50.8174
-51.129
-51.0712
-51.0781
-50.9792
-50.4754
-10.6498
-10.7561
-10.693
-10.77
-10.7737
-10.5804
1.86384
1.84982
1.86763
1.83115
1.83225
1.86733
-45.7586
-45.9455
-46.0592
-45.9621
-45.7132
-45.4913
-17.586
-17.6886
-17.6518
-17.7472
-17.7029
-17.4937
-0.761363
-0.773413
-0.756912
-0.780995
-0.771679
-0.749847
-33.818
-33.8486
-33.9001
-33.8828
-33.7712
-34.0094
-14.7842
-14.8132
-14.8146
-14.8501
-14.8477
-14.83
-1.39725
-1.39829
-1.39638
-1.39826
-1.38865
-1.40071
-18.9175
-18.9318
-18.9216
-18.9241
-18.846
-19.0164
-9.62802
-9.63415
-9.63529
-9.64575
-9.63924
-9.66402
-1.66721
-1.66669
-1.66511
-1.66299
-1.65535
-1.66963
-9.13379
-9.13421
-9.12074
-9.11026
-9.07321
-9.17073
-5.74171
-5.74236
-5.74337
-5.74645
-5.74101
-5.76146
-1.88498
-1.88407
-1.88151
-1.87926
-1.87308
-1.88116
-5.10787
-5.09846
-5.07174
-5.0165
-4.91451
-5.07303
-4.15722
-4.15383
-4.14717
-4.13611
-4.11568
-4.15141
-2.20759
-2.20349
-2.19583
-2.18725
-2.17762
-2.18185
-0.266315
-0.290015
-0.278872
-0.208701
0.168972
-0.459753
-2.86562
-2.86484
-2.86007
-2.85935
-2.85591
-2.87298
-1.56114
-1.56104
-1.55788
-1.54971
-1.52803
-1.55512
0.0640385
0.0944695
0.0551625
0.160356
0.781294
-0.282201
-2.98732
-2.99214
-3.00471
-3.11978
-3.19502
-3.15279
-2.72558
-2.71636
-2.70014
-2.67477
-2.62465
-2.67102
1.33238
1.96942
1.49725
4.81971
9.73981
-0.458945
-2.40312
-2.34745
-2.27768
-2.26348
-2.14139
-2.29348
-3.44603
-3.40785
-3.33873
-3.16845
-2.84296
-3.17569
5626.68
5621.4
5598.45
6041.48
6297.61
5832.54
-1.44028
-1.47929
-1.43508
-1.63072
-1.4633
-1.13262
-12.7784
-12.7365
-12.6726
-12.6793
-12.5133
-12.1684
)
;

boundaryField
{
    seabed_topleft_surface
    {
        type            fixedFluxPressure;
        gradient        uniform 0;
        value           nonuniform List<scalar> 
72
(
3606.7
3606.66
3606.65
3606.66
3606.67
3606.7
3753.09
3753.06
3753.04
3753.05
3753.07
3753.07
4741.1
4741.07
4741.07
4741.07
4741.07
4741.09
7441.74
7441.62
7441.67
7441.66
7441.64
7441.71
13261
13261
13261
13261
13261
13261
18677
18677.2
18677.2
18677.3
18677.4
18677.2
20850.9
20851.2
20851.1
20851.2
20851.3
20851.1
21175.5
21176
21175.8
21175.8
21175.9
21175.7
21098
21098.2
21098.1
21098.1
21098.1
21098
21167.9
21167.5
21167.7
21167.7
21167.6
21167.7
21042.3
21041.7
21041.9
21041.9
21041.7
21042
20354.2
20354.2
20354.1
20354.1
20354
20354.2
)
;
    }
    seabed_topright_surface
    {
        type            fixedFluxPressure;
        gradient        uniform 0;
        value           nonuniform List<scalar> 
72
(
412.751
418.872
408.329
423.373
435.006
410.003
398.185
406.053
391.057
415.081
464.528
386.232
515.773
528.956
497.334
526.203
603.776
394.51
473.261
481.102
490.355
485.631
477.106
455.059
480.602
480.517
500.907
514.863
515.577
563.47
442.511
430.189
443.309
460.971
489.415
556.623
648.48
651.397
672.76
673.119
691.261
651.957
1499.97
1498.78
1505.59
1508.66
1557.14
1513.85
3213.97
3212.35
3132.23
3189.8
3064.84
2983.23
2951.56
2946.65
2802.42
2939
2656.66
2814.12
1602.97
1615.69
1608.72
1622.82
1593.85
1716.85
1406.38
1402.28
1420.67
1387.88
1390.71
1391.64
)
;
    }
    breakwater_top_surface
    {
        type            fixedFluxPressure;
        gradient        uniform 0;
        value           nonuniform List<scalar> 
36
(
10956.4
10957.1
10958.9
10960.6
10962.9
10961.7
10982.6
10983.7
10984.9
10985.4
10985.5
10986.6
10575.1
10571
10572.6
10566.4
10559.9
10586
8621.06
8615.65
8615.65
8614.28
8609.11
8625.64
8601.9
8596.52
8596.75
8594.61
8591.27
8607.01
7821.29
7819.95
7824.3
7807.89
7796.42
7839.12
)
;
    }
    breakwater_left_surface
    {
        type            fixedFluxPressure;
        gradient        uniform 0;
        value           nonuniform List<scalar> 
24
(
20354.2
20354.2
20354.1
20354.1
20354
20354.2
16821.2
16818.6
16819.6
16819.3
16817.9
16821
2520.46
2518.79
2519.41
2519.47
2517.76
2520.52
185.232
185.409
185.341
185.172
185.161
185.367
)
;
    }
    breakwater_right_surface
    {
        type            fixedFluxPressure;
        gradient        uniform 0;
        value           nonuniform List<scalar> 
24
(
1406.38
1402.28
1420.67
1387.88
1390.71
1391.64
1132.53
1129.79
1082.97
1038.69
984.62
1044.99
3087
3315.66
4005.96
1820.59
870.322
3463.15
4802.9
4842.12
4856.94
5080.15
5621.11
5008.92
)
;
    }
    water_front_surface
    {
        type            fixedFluxPressure;
        gradient        uniform 0;
        value           nonuniform List<scalar> 
186
(
3606.7
3753.09
4741.1
7441.74
13261
18677
20850.9
21175.5
21098
21167.9
21042.3
20354.2
62.5264
72.6493
373.564
1939.7
9292.31
18949.5
20892.6
21341.3
19812.8
17173.3
16325.9
16821.2
75.9449
71.9164
60.2384
124.42
3790.08
13686.6
16575.1
13008.7
6258.27
2075.18
2739.14
2520.46
56.452
54.4507
27.9729
308.483
465.82
-98.9338
-49.2717
-5.39035
14.3983
23.8807
113.622
185.232
412.751
398.185
515.773
473.261
480.602
442.511
648.48
1499.97
3213.97
2951.56
1602.97
1406.38
250.956
109.45
-137.29
-156.279
-98.2134
-59.5557
-17.5238
196.133
1074.67
1773.33
1531.32
1132.53
79.1455
-47.1047
-146.734
-123.667
-76.9176
-37.411
-14.4958
-2.57244
11.2779
762.615
3673.01
3087
8.30257
-64.5055
-122.006
-119.216
-66.1727
-30.4945
-11.5861
-5.63707
-3.29109
5.95999
2047.94
4802.9
35.3829
16.1465
2.86571
25.1701
8.12224
0.539288
-6.30645
-9.98162
-3.1632
-30.7451
-44.1614
-10.464
-52.0143
-51.0013
-12.4569
-69.4853
-50.294
-5.96985
-37.4028
-29.8307
-1.81741
2.01794
2.8654
2.92702
18.6263
26.3097
3.74233
8.85768
48.2556
-3.43446
54.9312
36.5985
4.44318
2652.25
-22.2685
-19.1581
10956.4
2.40546
-7.4427
10982.6
0.48761
-6.42063
10575.1
0.788032
-6.22748
8621.06
1.13153
-6.78943
8601.9
-1.77422
-9.29771
7821.29
3.55318
-12.8073
5.08863
7.07174
3.11297
-21.1176
2.78869
4.5339
-50.8174
-10.6498
1.86384
-45.7586
-17.586
-0.761363
-33.818
-14.7842
-1.39725
-18.9175
-9.62802
-1.66721
-9.13379
-5.74171
-1.88498
-5.10787
-4.15722
-2.20759
-0.266315
-2.86562
-1.56114
0.0640385
-2.98732
-2.72558
1.33238
-2.40312
-3.44603
5626.68
-1.44028
-12.7784
)
;
    }
    water_back_surface
    {
        type            fixedFluxPressure;
        gradient        uniform 0;
        value           nonuniform List<scalar> 
186
(
3606.7
3753.07
4741.09
7441.71
13261
18677.2
20851.1
21175.7
21098
21167.7
21042
20354.2
62.5227
72.6413
373.519
1939.68
9292.54
18950.4
20893
21341.4
19813.1
17173.3
16325.1
16821
75.9454
71.9162
60.246
124.423
3790.38
13689.3
16576.7
13009.9
6258.45
2074.76
2737.55
2520.52
56.4542
54.452
27.9756
308.472
466.363
-98.8412
-49.3514
-5.42145
14.3827
23.8896
113.578
185.367
410.003
386.232
394.51
455.059
563.47
556.623
651.957
1513.85
2983.23
2814.12
1716.85
1391.64
245.144
100.71
-120.073
-150.716
-98.7618
-59.2239
-16.398
186.418
1239.11
2036.57
1980.78
1044.99
75.7365
-46.8389
-138.186
-122.66
-77.6495
-37.646
-14.9131
-3.45497
12.2545
1111.8
3176.24
3463.15
7.37796
-63.5776
-120.847
-121.791
-67.4181
-30.9312
-11.8369
-5.92717
-3.65937
5.05397
2754.04
5008.92
35.3849
16.1469
2.86544
25.1739
8.12273
0.538997
-6.29827
-9.9802
-3.16328
-30.7433
-44.1627
-10.4644
-51.9602
-50.9995
-12.4571
-69.4944
-50.3014
-5.9695
-37.4189
-29.8347
-1.81978
2.02026
2.86772
2.92639
18.6326
26.3169
3.74389
8.83129
48.2779
-3.4307
54.9526
36.6847
4.44089
2658.48
-22.2948
-19.171
10961.7
2.45117
-7.21576
10986.6
4.91341
-6.32556
10586
0.789994
-6.19386
8625.64
1.19745
-6.78673
8607.01
-1.76407
-9.29801
7839.12
3.56471
-12.8135
4.47299
6.64512
3.0015
-21.2477
2.59147
4.49351
-50.4754
-10.5804
1.86733
-45.4913
-17.4937
-0.749847
-34.0094
-14.83
-1.40071
-19.0164
-9.66402
-1.66963
-9.17073
-5.76146
-1.88116
-5.07303
-4.15141
-2.18185
-0.459753
-2.87298
-1.55512
-0.282201
-3.15279
-2.67102
-0.458945
-2.29348
-3.17569
5832.54
-1.13262
-12.1684
)
;
    }
    water_left_surface
    {
        type            fixedFluxPressure;
        gradient        uniform 0;
        value           nonuniform List<scalar> 
42
(
3606.7
3606.66
3606.65
3606.66
3606.67
3606.7
62.5264
62.5234
62.5237
62.5236
62.5227
62.5227
75.9449
75.9491
75.9473
75.9476
75.9477
75.9454
56.452
56.4559
56.4546
56.4553
56.4555
56.4542
35.3829
35.3849
35.3847
35.3851
35.3853
35.3849
16.1465
16.1466
16.1466
16.1468
16.1469
16.1469
2.86571
2.86541
2.86527
2.86538
2.86547
2.86544
)
;
    }
    water_right_surface
    {
        type            fixedFluxPressure;
        gradient        uniform 0;
        value           nonuniform List<scalar> 
42
(
412.751
418.872
408.329
423.373
435.006
410.003
250.956
253.79
250.634
254.271
260.412
245.144
79.1455
78.3669
78.1772
75.1744
72.0635
75.7365
8.30257
7.65096
7.6749
6.59828
4.4697
7.37796
5.08863
4.93017
4.86727
4.60956
4.11299
4.47299
7.07174
7.05847
6.98377
6.89239
6.77899
6.64512
3.11297
3.11546
3.09268
3.06816
3.05899
3.0015
)
;
    }
    water_top_surface
    {
        type            totalPressure;
        rho             rho;
        psi             none;
        gamma           1;
        p0              uniform 0;
        value           nonuniform List<scalar> 
180
(
0
0
0
0
0
0
0
0
0
0
0
0
0
0
0
0
0
0
0
0
0
0
0
0
0
0
0
0
0
0
0
0
0
0
0
0
-0.911292
-0.900961
-0.905571
-0.907743
-0.9037
-0.910201
-5.20278
-5.18632
-5.19416
-5.19716
-5.19171
-5.20346
-4.16957
-4.16484
-4.1665
-4.16715
-4.1672
-4.1669
-0.540081
-0.538778
-0.539148
-0.539665
-0.540652
-0.538325
-0.0474756
-0.0471326
-0.0472809
-0.0474094
-0.047487
-0.047175
-3.7376
-3.73926
-3.73722
-3.73694
-3.73814
-3.7366
-1.94856
-1.96283
-1.94844
-1.91369
-1.94434
-1.89435
-2.20303
-2.23009
-2.22922
-2.1381
-2.12182
-2.32875
-2.14105
-2.14178
-2.13779
-2.14633
-2.1788
-2.08508
-2.8769
-2.88088
-2.86155
-2.90927
-2.95923
-2.79587
-3.88948
-3.89813
-3.87698
-3.92028
-3.96913
-3.8288
-1.60642
-1.61167
-1.60466
-1.61532
-1.63297
-1.58839
0
0
0
0
0
0
0
0
0
0
0
0
0
0
0
0
0
0
0
0
0
0
0
0
0
0
0
0
0
0
-0.506632
-0.507128
-0.5072
-0.507649
-0.506122
-0.510503
-1.06341
-1.06235
-1.06059
-1.05873
-1.05575
-1.05866
-2.24349
-2.23823
-2.23082
-2.22155
-2.21224
-2.21045
-1.83441
-1.83025
-1.82112
-1.80561
-1.78621
-1.80305
-3.91689
-3.90437
-3.87391
-3.88697
-3.8736
-3.81954
-4.49769
-4.47068
-4.38214
-4.3953
-4.37068
-4.23407
-2.45351
-2.457
-2.44883
-2.439
-2.38157
-2.3925
)
;
    }
}


// ************************************************************************* //
