/*--------------------------------*- C++ -*----------------------------------*\
| =========                 |                                                 |
| \\      /  F ield         | OpenFOAM: The Open Source CFD Toolbox           |
|  \\    /   O peration     | Version:  v1612+                                |
|   \\  /    A nd           | Web:      www.OpenFOAM.com                      |
|    \\/     M anipulation  |                                                 |
\*---------------------------------------------------------------------------*/
FoamFile
{
    version     2.0;
    format      ascii;
    class       surfaceScalarField;
    location    "4.1";
    object      phi;
}
// * * * * * * * * * * * * * * * * * * * * * * * * * * * * * * * * * * * * * //

dimensions      [0 3 -1 0 0 0 0];

internalField   nonuniform List<scalar> 
2916
(
1.17658e-05
0.255733
-0.255745
9.37002e-06
0.255734
-0.255731
-2.03113e-07
0.255733
-0.255723
3.88527e-07
0.255734
-0.255734
1.17255e-07
0.255733
-0.255733
0.255733
-0.255733
1.30548e-05
0.473162
-0.217442
9.42691e-06
0.47317
-0.217433
1.31018e-06
0.473166
-0.217425
3.16118e-06
0.473168
-0.217436
3.07243e-06
0.47317
-0.217436
0.473162
-0.217426
1.18577e-05
0.636724
-0.163574
6.88716e-06
0.636742
-0.163567
1.65793e-06
0.636735
-0.163564
3.89964e-06
0.636737
-0.163571
2.9732e-06
0.636741
-0.16357
0.636726
-0.163561
1.0386e-05
0.764397
-0.127684
4.77281e-06
0.764426
-0.127678
2.1055e-06
0.764416
-0.127678
2.96404e-06
0.764418
-0.127681
-1.39867e-07
0.764423
-0.127679
0.764402
-0.127676
8.81323e-06
0.840146
-0.0757578
3.42961e-06
0.84018
-0.0757487
1.83463e-06
0.840169
-0.0757509
1.52919e-06
0.84017
-0.0757519
-2.10314e-06
0.840176
-0.0757494
0.840149
-0.0757493
7.04098e-06
0.772688
0.0674511
3.04871e-06
0.772723
0.0674611
9.46147e-07
0.772712
0.0674589
-1.09549e-08
0.772712
0.0674587
-3.81244e-06
0.772719
0.0674609
0.772686
0.0674591
-8.7106e-07
0.470772
0.301917
-6.88223e-07
0.470808
0.301915
-3.64752e-06
0.470802
0.301912
-5.67562e-06
0.470802
0.301912
-4.20869e-06
0.47081
0.301907
0.47077
0.301912
-7.51561e-06
-0.0215489
0.492328
-2.3115e-07
-0.0215184
0.492319
-4.79643e-06
-0.0215147
0.492322
-8.17228e-06
-0.0215163
0.492322
-9.46787e-06
-0.021509
0.49232
-0.0215603
0.492321
2.19128e-05
-0.642104
0.620534
3.99753e-06
-0.642099
0.620599
-1.79476e-06
-0.642078
0.620569
-8.84323e-06
-0.64208
0.620571
-2.96561e-05
-0.642073
0.620585
-0.642143
0.620553
4.52178e-05
-0.994687
0.352538
1.10514e-05
-0.994684
0.352619
6.01111e-06
-0.99466
0.352587
-2.10905e-06
-0.99466
0.352588
-3.51214e-05
-0.994651
0.352611
-0.994719
0.352541
7.77297e-05
-0.738005
-0.25676
1.21783e-05
-0.737986
-0.256632
2.41611e-06
-0.737979
-0.256671
-5.67581e-06
-0.737981
-0.256672
-5.10958e-05
-0.737968
-0.256637
-0.738013
-0.256758
1.15767e-05
-0.738017
-1.37981e-05
-0.737961
-1.24523e-05
-0.737981
-9.15544e-06
-0.737984
-1.09722e-05
-0.737967
-0.738024
1.10471e-06
1.90079
-2.15654
2.62409e-05
1.90084
-2.1566
2.34569e-05
1.90086
-2.15658
5.43003e-05
1.90084
-2.15661
6.3883e-05
1.90086
-2.1566
1.90085
-2.15652
-3.61326e-05
4.12609
-2.4427
3.1168e-05
4.12615
-2.44281
5.49962e-05
4.12619
-2.44278
9.07283e-05
4.12616
-2.44279
0.000131019
4.12618
-2.4428
4.1262
-2.44265
-5.95923e-05
6.65901
-2.69643
2.05698e-05
6.65905
-2.69655
4.92264e-05
6.65912
-2.69652
9.11228e-05
6.65908
-2.69653
0.000153533
6.65908
-2.69654
6.65915
-2.69636
-4.99919e-06
8.70997
-2.17864
2.35696e-05
8.71006
-2.17872
2.91765e-05
8.71014
-2.1787
5.51899e-05
8.71007
-2.17869
7.08293e-05
8.71008
-2.17869
8.71012
-2.17858
-7.5597e-05
7.70223
0.932059
-8.65752e-05
7.70223
0.932102
-8.9229e-05
7.70229
0.932104
-9.95035e-05
7.70222
0.932111
-9.16954e-05
7.70221
0.932117
7.70216
0.932129
-0.000152993
4.35668
3.41316
-0.000141145
4.35659
3.41309
-0.000115086
4.35661
3.41311
-0.000121413
4.35655
3.41313
-8.46499e-05
4.35652
3.41312
4.35646
3.41306
-3.84572e-05
1.76769
2.89095
-9.27092e-05
1.76764
2.89092
-7.35578e-05
1.76765
2.89085
-5.6528e-05
1.76762
2.89082
-4.40531e-05
1.76762
2.8908
1.76757
2.89076
-1.43992e-05
0.472538
1.78749
-5.75927e-06
0.472683
1.78727
-9.79536e-06
0.472633
1.78734
-1.38461e-05
0.472631
1.78732
-3.38354e-05
0.472667
1.78729
0.472553
1.7873
0.000179185
-0.0320493
1.12494
-1.14661e-06
-0.0319136
1.12538
-8.82318e-06
-0.0319431
1.12515
-4.32795e-06
-0.0319358
1.12513
-0.000111487
-0.0318743
1.12523
-0.0320549
1.12505
0.000103754
-0.267523
0.587908
1.3256e-05
-0.267453
0.588249
6.81263e-06
-0.267453
0.588104
3.33711e-06
-0.267447
0.588103
-3.0534e-05
-0.267417
0.588188
-0.26752
0.587976
0.000140828
-0.273916
-0.250509
4.07758e-05
-0.273747
-0.250238
2.90046e-05
-0.273776
-0.250337
4.45016e-06
-0.273777
-0.250317
-5.37668e-05
-0.273724
-0.250272
-0.273884
-0.250447
-4.53151e-05
-1.01189
-2.75918e-05
-1.01173
-1.36962e-05
-1.01177
4.87386e-06
-1.01178
5.06238e-05
-1.01174
-1.01186
-8.93296e-05
-0.50393
-1.65252
-4.80793e-05
-0.503898
-1.65275
1.38649e-05
-0.503937
-1.65271
3.04791e-05
-0.503905
-1.65272
4.83454e-05
-0.503865
-1.65276
-0.503954
-1.65251
-5.84895e-05
-0.950455
-1.99612
-1.69514e-05
-0.950396
-1.99635
6.04855e-06
-0.950425
-1.99632
2.65892e-05
-0.950405
-1.99631
8.13297e-05
-0.950365
-1.99635
-0.950422
-1.99609
-9.8698e-05
-1.0524
-2.59439
-4.83416e-05
-1.05241
-2.59459
-3.18357e-05
-1.0524
-2.59456
5.05395e-06
-1.05242
-2.59455
0.000105667
-1.05242
-2.59458
-1.05234
-2.59435
-0.000182258
-0.198261
-3.0326
-0.000108238
-0.198396
-3.0328
-0.000124367
-0.198315
-3.03277
-4.81524e-05
-0.198421
-3.03277
0.000168164
-0.19853
-3.0328
-0.198175
-3.03257
-0.000367119
1.3316
-0.597429
-0.000275605
1.33128
-0.597664
-0.0003075
1.33143
-0.597608
-0.00020345
1.33123
-0.597646
0.000125951
1.33099
-0.597733
1.33152
-0.597441
-0.000323538
2.14949
2.59559
-0.000323684
2.14918
2.59519
-0.000328504
2.14929
2.59526
-0.000268118
2.14912
2.59518
-8.21455e-05
2.14888
2.59504
2.14926
2.59524
0.000521632
1.93642
3.1035
-0.000250214
1.93789
3.10297
-0.000140854
1.93704
3.10299
-6.29416e-05
1.93699
3.10288
-0.000213706
1.93711
3.10272
1.93688
3.10292
0.000328442
0.154265
3.56931
0.000100785
0.157924
3.56746
8.48719e-05
0.15607
3.56832
6.25649e-05
0.156083
3.56824
-0.000175761
0.156642
3.56799
0.155502
3.5685
0.00122218
-0.260813
1.5388
-4.34992e-05
-0.259817
1.54438
-0.000142343
-0.260287
1.54161
2.01022e-05
-0.260285
1.54134
-0.000384895
-0.260056
1.54234
-0.260491
1.54066
0.000553152
-0.0895753
0.416117
2.44482e-05
-0.0889961
0.417957
-3.0667e-05
-0.0892392
0.417111
2.97663e-05
-0.0892476
0.417005
-0.000255778
-0.0890932
0.41751
-0.089408
0.416638
0.000630912
-0.110993
-0.229722
5.66469e-05
-0.110731
-0.227929
-3.87903e-05
-0.110802
-0.228679
1.78442e-05
-0.110807
-0.228814
-0.000246678
-0.110765
-0.228336
-0.110913
-0.229189
-0.000115326
-1.12276
-2.60941e-05
-1.12255
-3.0927e-06
-1.1226
2.82714e-05
-1.12262
0.000132093
-1.1226
-1.12264
2.50284e-05
-0.122542
-1.53001
1.52724e-05
-0.122448
-1.53029
1.69749e-06
-0.122458
-1.53024
-1.5371e-05
-0.122461
-1.53024
-2.82825e-05
-0.122444
-1.5303
-0.122544
-1.53
3.51633e-05
-0.487109
-1.63159
1.05298e-05
-0.486928
-1.63185
-5.27445e-06
-0.486956
-1.6318
-2.18188e-05
-0.486955
-1.6318
-3.97615e-05
-0.486922
-1.63185
-0.487113
-1.63157
-1.79675e-05
-1.28486
-1.79662
-3.16952e-05
-1.28467
-1.79683
-3.20396e-05
-1.28472
-1.79679
-2.71457e-05
-1.28472
-1.79679
-1.26157e-05
-1.2847
-1.79682
-1.28488
-1.7966
-0.00011473
-2.46685
-1.8505
-8.58316e-05
-2.4668
-1.85071
-8.02116e-05
-2.46682
-1.85067
-3.97184e-05
-2.46686
-1.85067
5.56323e-05
-2.46689
-1.85071
-2.46691
-1.85048
-0.000282261
-2.36988
-0.694114
-0.000145767
-2.37021
-0.694385
-0.000121231
-2.37012
-0.694339
-5.23179e-05
-2.37021
-0.694371
0.000127625
-2.37035
-0.694444
-2.37006
-0.694162
-0.000274686
-1.09358
1.31957
-0.0001005
-1.09415
1.31896
-8.27138e-05
-1.09397
1.31909
-4.1027e-05
-1.09404
1.31897
0.000100475
-1.09423
1.31878
-1.09388
1.31917
0.000743276
-0.479367
2.48855
9.62389e-05
-0.47797
2.48744
9.6556e-05
-0.478792
2.48782
0.000140328
-0.478878
2.48768
-1.65564e-05
-0.47875
2.4874
-0.478815
2.48784
1.22321e-05
-1.52015
4.61007
0.000406672
-1.522
4.61108
0.000284147
-1.521
4.61065
0.00018407
-1.52099
4.61045
8.11246e-05
-1.52119
4.61053
-1.52069
4.61046
0.0031738
-3.53
3.54548
-0.000366374
-3.53108
3.557
-0.0004733
-3.53055
3.55126
-9.78e-05
-3.53063
3.55059
-0.000796172
-3.53063
3.55248
-3.5304
3.54957
0.00155679
-0.996147
-2.11929
5.42188e-05
-0.994432
-2.11719
-0.000160468
-0.995173
-2.11805
6.14388e-05
-0.995437
-2.11841
-0.000406984
-0.994866
-2.11779
-0.995667
-2.1185
0.000167584
-0.157483
-1.06855
2.20846e-05
-0.156319
-1.0659
-4.59907e-05
-0.156797
-1.06699
3.33103e-05
-0.156948
-1.06738
7.19427e-05
-0.156695
-1.06655
-0.157058
-1.06773
-0.000450362
-1.2798
7.66191e-06
-1.27932
0.000151903
-1.27954
5.47111e-05
-1.27947
9.28417e-05
-1.27934
-1.2796
-3.10026e-06
-0.10732
0.107323
-3.82588e-06
-0.107325
0.107326
-3.5678e-06
-0.107326
0.107326
-2.9722e-06
-0.107327
0.107326
-1.87276e-06
-0.107328
0.107326
-0.107326
0.107322
-5.16914e-06
-0.220602
0.113287
-4.88119e-06
-0.220613
0.113288
-3.82635e-06
-0.220615
0.113288
-2.89517e-06
-0.220616
0.113288
-1.9011e-06
-0.220618
0.113288
-0.220612
0.113284
-8.36543e-06
-0.34642
0.125826
-7.192e-06
-0.346437
0.125826
-5.39087e-06
-0.34644
0.125826
-3.82292e-06
-0.346442
0.125826
-2.18492e-06
-0.346444
0.125826
-0.346437
0.125823
-1.52614e-05
-0.492199
0.145796
-1.35765e-05
-0.492219
0.145786
-9.71949e-06
-0.49222
0.14578
-7.80669e-06
-0.492217
0.145777
-4.20197e-06
-0.492218
0.145773
-0.492206
0.145767
-1.44862e-05
-0.665436
0.173255
-1.20487e-05
-0.665446
0.173227
3.60938e-06
-0.665446
0.173212
-6.05391e-06
-0.665415
0.173209
-4.79217e-06
-0.665424
0.173206
-0.665413
0.173205
2.33795e-05
-0.871365
0.205908
1.03574e-05
-0.87131
0.205876
7.87476e-05
-0.871381
0.205866
-4.20822e-05
-0.871182
0.205887
-8.06195e-05
-0.871288
0.205903
-0.87145
0.205958
0.000142073
-1.11022
0.238708
-9.78363e-06
-1.10989
0.238726
0.000230002
-1.11042
0.238797
-0.000367221
-1.10926
0.238673
-0.000556418
-1.10976
0.238669
-1.11115
0.239151
0.000537109
-1.28512
0.174361
-0.00019798
-1.28403
0.174869
0.00246255
-1.28676
0.173682
-0.00196247
-1.28059
0.175755
-0.00587226
-1.28163
0.175776
-1.29033
0.173296
0.00112074
-0.747512
-0.538727
-0.000961794
-0.746736
-0.535208
0.0173239
-0.751793
-0.553253
-0.00541063
-0.740613
-0.517236
-0.0364968
-0.738532
-0.512011
-0.757175
-0.569649
0.000467591
1.14137
-1.88935
0.000913829
1.14049
-1.88768
0.0261831
1.13926
-1.91633
-0.00597996
1.14259
-1.85105
-0.0590039
1.14527
-1.83079
1.13794
-1.95412
-0.000191206
1.18702
-0.0454651
0.00177213
1.18657
-0.0480339
0.00920353
1.18802
-0.0561902
-0.000954162
1.18447
-0.031717
-0.026262
1.18358
-0.0130021
1.19058
-0.0788966
0.000146094
1.18687
0.000895374
1.18582
0.00146643
1.18744
-0.000250935
1.18618
-0.00474217
1.18806
1.18584
-2.53131e-06
-0.108346
0.215671
-3.15448e-06
-0.108352
0.215677
-2.94969e-06
-0.108353
0.215677
-2.52543e-06
-0.108353
0.215677
-1.84654e-06
-0.108354
0.215677
-0.108352
0.215671
-2.4247e-06
-0.222258
0.227201
-2.10443e-06
-0.222269
0.227205
-1.70682e-06
-0.222271
0.227205
-1.40658e-06
-0.222271
0.227205
-1.12624e-06
-0.222272
0.227205
-0.222266
0.227198
-1.74965e-06
-0.347289
0.250861
-3.41181e-07
-0.347305
0.250863
3.67109e-07
-0.347305
0.250862
3.24515e-08
-0.347305
0.250861
-2.71986e-07
-0.347305
0.250861
-0.347296
0.250855
4.22209e-06
-0.490104
0.288609
7.63908e-06
-0.490117
0.288601
9.69911e-06
-0.490115
0.288592
4.1504e-06
-0.490107
0.288588
2.19696e-06
-0.490111
0.288584
-0.4901
0.288575
2.66226e-05
-0.660892
0.34402
1.78672e-05
-0.660871
0.343993
3.88887e-05
-0.66089
0.34397
-8.19188e-06
-0.66082
0.343973
-2.34422e-05
-0.660864
0.343978
-0.660898
0.34398
8.7443e-05
-0.883269
0.428198
-7.00635e-06
-0.883062
0.428161
6.93464e-05
-0.883297
0.428196
-0.000161356
-0.882802
0.428102
-0.00019808
-0.883094
0.428172
-0.883547
0.428412
0.000277587
-1.24317
0.598329
-0.000169415
-1.24213
0.598238
0.000717553
-1.24419
0.5988
-0.000881673
-1.24009
0.597559
-0.00189448
-1.2411
0.597695
-1.24613
0.599839
0.000831353
-1.86892
0.799276
-0.000613069
-1.86535
0.799526
0.00959599
-1.87901
0.798293
-0.00372686
-1.85109
0.800085
-0.0198987
-1.84938
0.800226
-1.89176
0.799032
0.00136794
-2.17818
-0.230839
0.000791581
-2.17255
-0.227433
0.022638
-2.20499
-0.249117
-0.00535672
-2.13534
-0.204993
-0.0481655
-2.11964
-0.19895
-2.24037
-0.269208
-1.60074e-05
-0.494493
-3.57301
0.00220386
-0.491416
-3.57103
0.00271862
-0.51679
-3.60505
0.00486324
-0.460642
-3.5279
-0.00279485
-0.442638
-3.50013
-0.546957
-3.65034
-0.000564765
1.15437
-1.69377
0.00328312
1.15457
-1.69786
-0.00149908
1.14619
-1.71439
0.00659475
1.16658
-1.66704
0.00588847
1.17627
-1.63121
1.13379
-1.75375
0.0013088
2.33994
0.000960424
2.34074
-1.46688e-05
2.33461
0.00116413
2.35159
-0.00631796
2.37182
2.31331
-1.3309e-06
-0.100745
0.316417
-1.36658e-06
-0.100749
0.316426
-1.00056e-06
-0.10075
0.316426
-6.03079e-07
-0.10075
0.316426
-4.05265e-07
-0.100749
0.316426
-0.100745
0.316417
-9.45138e-07
-0.208604
0.335061
-2.11225e-08
-0.208614
0.335068
7.72652e-07
-0.208614
0.335068
1.1132e-06
-0.208613
0.335068
1.00766e-06
-0.208612
0.335068
-0.208604
0.335058
-8.04913e-08
-0.332387
0.374646
2.39873e-06
-0.332403
0.374652
4.34917e-06
-0.332403
0.37465
4.18817e-06
-0.3324
0.374649
3.37657e-06
-0.332398
0.374649
-0.332384
0.374639
7.48188e-06
-0.484135
0.440352
1.10762e-05
-0.484153
0.440351
1.76981e-05
-0.484156
0.440342
1.00088e-05
-0.48414
0.440338
6.54432e-06
-0.484144
0.440336
-0.484127
0.440324
3.32546e-05
-0.682229
0.542083
1.47388e-05
-0.682207
0.542069
3.25845e-05
-0.682254
0.542052
-5.77546e-06
-0.68218
0.542053
-4.37149e-06
-0.68223
0.542063
-0.682219
0.542067
8.00123e-05
-0.95648
0.702371
-7.28381e-05
-0.956219
0.702326
-2.99486e-05
-0.956499
0.702397
-0.00017117
-0.956221
0.702284
-4.1702e-05
-0.956562
0.702375
-0.956402
0.702554
0.000206343
-1.36531
1.00695
-0.000336922
-1.36411
1.00667
0.000795136
-1.36631
1.00748
-0.000974961
-1.36296
1.00607
-0.00207486
-1.36421
1.00645
-1.36671
1.00807
0.00110888
-2.12782
1.56067
-0.000615067
-2.12312
1.56025
0.00361536
-2.13239
1.56014
-0.00239143
-2.11761
1.56074
-0.00865445
-2.11885
1.56113
-2.13589
1.55956
0.00267329
-3.30965
0.948317
-0.000186173
-3.29959
0.951894
-0.0133085
-3.30543
0.937048
0.00214609
-3.30429
0.966235
0.0260596
-3.307
0.965286
-3.3025
0.923466
0.00160861
-3.98367
-2.9006
9.22872e-06
-3.97422
-2.8948
-0.0254407
-3.9769
-2.90812
0.00768558
-3.9851
-2.88021
0.0639809
-3.98875
-2.87468
-3.96325
-2.9256
-0.00176588
-1.61948
-4.05619
0.00285259
-1.6171
-4.0596
-0.0053397
-1.61823
-4.06487
0.0056034
-1.62069
-4.0424
0.0317662
-1.62387
-4.02225
-1.60805
-4.07719
0.00052277
0.719938
0.00362522
0.720538
0.0224913
0.697509
0.00317268
0.75021
-0.0463571
0.79747
0.658914
-9.72692e-07
-0.0869796
0.403397
-3.70798e-07
-0.086983
0.403408
2.37642e-07
-0.0869826
0.403408
5.89109e-07
-0.086982
0.403408
7.16346e-07
-0.0869811
0.403408
-0.0869773
0.403396
1.15916e-06
-0.178036
0.426116
1.98721e-06
-0.178044
0.426128
2.30466e-06
-0.178043
0.426127
2.33841e-06
-0.178041
0.426127
2.07005e-06
-0.178039
0.426127
-0.178031
0.426114
3.71989e-06
-0.276196
0.472802
5.38719e-06
-0.276207
0.472813
6.24611e-06
-0.276205
0.472811
5.22751e-06
-0.276201
0.472809
3.57427e-06
-0.276199
0.472808
-0.276185
0.472794
1.04895e-05
-0.383033
0.547181
1.14231e-05
-0.383043
0.547188
1.49007e-05
-0.383048
0.547183
8.90626e-06
-0.383037
0.547179
5.7578e-06
-0.38304
0.547179
-0.38302
0.547164
1.776e-05
-0.498114
0.657148
-9.07661e-06
-0.498092
0.657147
-2.60957e-06
-0.498149
0.657149
-2.46301e-05
-0.498111
0.65715
-6.50245e-06
-0.498157
0.657161
-0.498115
0.657154
-3.48457e-06
-0.613356
0.817616
-0.000156243
-0.613205
0.817592
-0.000102278
-0.613466
0.817659
-0.000174404
-0.613386
0.817631
-4.35989e-05
-0.613618
0.817705
-0.613319
0.817716
-1.47331e-05
-0.681014
1.07462
-0.000523255
-0.680484
1.07446
-0.000398089
-0.681074
1.07496
-0.000578494
-0.681469
1.07433
3.28774e-05
-0.682719
1.07494
-0.679936
1.07472
0.000686044
-0.621151
1.50012
-0.000964756
-0.617885
1.49931
-0.00555148
-0.616585
1.50024
-0.00127387
-0.625024
1.50002
0.00799952
-0.632907
1.50205
-0.610152
1.49777
0.0030889
-1.03865
1.36273
-0.00273618
-1.02352
1.36335
-0.0310081
-1.01132
1.36005
0.000601287
-1.05796
1.36756
0.0512295
-1.08431
1.36606
-0.991176
1.35572
0.00471193
-2.95027
-0.993695
-2.28926e-05
-2.92746
-0.986122
-0.0308959
-2.90498
-0.983587
0.000696955
-2.97854
-0.991224
0.0528087
-3.01168
-0.999411
-2.87752
-0.986445
-0.00189114
-3.33359
-3.67099
-0.00390587
-3.3267
-3.65835
-0.0129414
-3.31548
-3.64534
-0.00182175
-3.35423
-3.67783
0.0277143
-3.37514
-3.68833
-3.29849
-3.62852
-0.00507525
-2.60857
-0.000120553
-2.61112
-0.00616594
-2.61192
-0.00273593
-2.60745
0.0237289
-2.60414
-2.61585
4.44477e-05
-1.48501
-0.0450396
1.76914e-05
-1.4852
-0.0450597
3.55368e-06
-1.48517
-0.0450571
-1.20802e-05
-1.48517
-0.0450587
-4.58054e-05
-1.48521
-0.0450639
-1.48501
-0.045041
4.28337e-05
-1.37119
-0.113862
1.60698e-05
-1.37132
-0.113864
1.96451e-06
-1.3713
-0.113865
-1.29897e-05
-1.3713
-0.113865
-4.40726e-05
-1.37132
-0.113865
-1.37119
-0.113865
2.73326e-05
-0.0226097
9.99906e-06
-0.0226088
1.67767e-06
-0.0226095
-8.11683e-06
-0.02261
-2.89043e-05
-0.02261
-0.022611
3.31087e-05
-1.51198
-0.164677
1.07963e-05
-1.51217
-0.164716
-3.55716e-06
-1.51214
-0.16471
-1.79951e-05
-1.51214
-0.164711
-4.05776e-05
-1.51218
-0.164722
-1.51197
-0.164679
4.0394e-05
-1.3228
-0.303088
1.21282e-05
-1.32292
-0.303092
-3.15757e-06
-1.3229
-0.303091
-1.90535e-05
-1.3229
-0.30309
-5.03571e-05
-1.32293
-0.30309
-1.3228
-0.303085
2.39543e-05
-0.0564136
6.98539e-06
-0.0564102
-7.17292e-07
-0.0564112
-9.05087e-06
-0.0564117
-2.82157e-05
-0.0564113
-0.0564139
1.43067e-05
-1.45122
-0.510095
1.42091e-06
-1.45139
-0.510135
-1.03751e-05
-1.45137
-0.510126
-2.01302e-05
-1.45137
-0.510124
-2.77191e-05
-1.4514
-0.510133
-1.45121
-0.510092
3.27931e-05
-1.13789
-0.616449
4.43175e-06
-1.138
-0.616456
-1.0024e-05
-1.13799
-0.616455
-2.27533e-05
-1.13799
-0.616453
-4.7408e-05
-1.13801
-0.616455
-1.13789
-0.616442
2.26966e-05
-0.113555
5.06356e-06
-0.113547
-2.87577e-06
-0.113548
-9.31272e-06
-0.113548
-2.50212e-05
-0.113547
-0.113554
3.01947e-05
-1.09239
-1.26823
1.33176e-05
-1.09257
-1.26825
3.58471e-06
-1.09254
-1.26825
-1.55698e-05
-1.09254
-1.26823
-4.68647e-05
-1.09258
-1.26823
-1.09239
-1.26822
3.4962e-05
-0.77331
-0.935561
8.57074e-06
-0.773417
-0.935582
-5.23509e-06
-0.773403
-0.93558
-1.65797e-05
-0.773404
-0.935579
-3.95837e-05
-0.773424
-0.935584
-0.773314
-0.935556
2.13053e-05
-0.203927
3.41682e-06
-0.203917
-4.10212e-06
-0.203919
-9.33203e-06
-0.203918
-2.24838e-05
-0.203916
-0.203927
4.66151e-05
-0.0593204
-1.90308
5.76389e-05
-0.0594598
-1.90319
5.63999e-05
-0.0594438
-1.90314
2.02019e-05
-0.0594438
-1.90312
-5.26657e-05
-0.0594697
-1.90312
-0.0593296
-1.9031
2.40512e-05
-0.0766813
-0.918222
2.7909e-06
-0.0767828
-0.918237
-6.80616e-06
-0.0767719
-0.918246
-1.77746e-05
-0.0767744
-0.918241
-3.3364e-05
-0.0767949
-0.918246
-0.0766865
-0.91824
1.03779e-05
-0.30566
8.77632e-07
-0.305651
-2.72237e-06
-0.305661
-6.9864e-06
-0.30566
-1.3411e-05
-0.305662
-0.305667
7.31107e-05
0.88706
-1.47064
0.000112627
0.886733
-1.47099
0.000127995
0.886803
-1.47086
9.47363e-05
0.886777
-1.47089
-7.12238e-06
0.88671
-1.47095
0.886902
-1.47084
5.06788e-06
0.716062
-0.747228
-2.18944e-05
0.715933
-0.747409
-6.67483e-06
0.715947
-0.747402
-2.55247e-06
0.715947
-0.747411
-2.81157e-05
0.715926
-0.747434
0.716039
-0.74741
2.56565e-05
-0.245459
1.30457e-06
-0.245469
-7.56084e-06
-0.245492
-1.56698e-05
-0.245488
-2.63044e-05
-0.245495
-0.245496
0.000401115
1.47595
-0.458449
0.000103078
1.47521
-0.45847
0.000107299
1.47558
-0.458636
0.000119431
1.47555
-0.45878
-5.46146e-05
1.47541
-0.458793
1.47563
-0.458687
-0.000111232
1.08237
-0.353532
-9.65419e-05
1.0822
-0.354409
-0.000100317
1.08232
-0.35413
-3.43886e-05
1.08233
-0.35425
-1.38288e-05
1.08232
-0.35436
1.08237
-0.354159
-7.41845e-05
0.0187312
-7.37304e-05
0.0184794
-8.31401e-05
0.0185684
-4.5128e-05
0.0185329
2.36081e-05
0.0184816
0.018584
-0.00098555
4.29853
-0.145921
0.000334848
4.29906
-0.147762
0.000243868
4.29905
-0.146937
2.12605e-05
4.29895
-0.147047
5.67271e-05
4.29896
-0.147251
4.29896
-0.147132
-0.000738998
2.8921
1.05363
8.14745e-05
2.89229
1.05153
9.53199e-05
2.89254
1.05236
-4.88888e-05
2.89246
1.05238
-0.000127495
2.8925
1.05218
2.89256
1.05212
-3.89841e-05
1.24617
-2.54647e-05
1.24615
-1.37725e-05
1.24618
-8.21795e-06
1.24619
-6.97122e-05
1.24619
1.24612
0.000121873
4.94701
-1.54757
-2.62393e-05
4.957
-1.54761
-0.000276541
4.95215
-1.54758
-0.000110662
4.95131
-1.54793
-1.1458e-06
4.95293
-1.54781
4.95074
-1.5483
-0.00150885
4.90699
1.09515
-8.01821e-05
4.91449
1.09262
0.000189447
4.9112
1.09305
-0.000167807
4.91051
1.09355
-4.85876e-06
4.91163
1.09333
4.91054
1.09231
-0.000863765
2.27584
-0.000170851
2.27592
3.84066e-05
2.27554
-0.000223529
2.27571
-0.000169777
2.27565
2.2753
-0.000669079
-0.909914
-2.75628
-0.000215573
-0.912289
-2.75296
0.000665043
-0.911785
-2.75472
0.000487208
-0.911053
-2.75511
0.000728966
-0.91137
-2.75447
-0.910811
-2.75526
0.00063731
1.20619
-1.02159
-1.9758e-05
1.20482
-1.02383
0.000181851
1.20481
-1.02375
4.72208e-05
1.20547
-1.02285
-9.34465e-05
1.20502
-1.02291
1.20545
-1.02405
-0.000815975
1.83242
-0.000356684
1.82924
-0.000583443
1.83024
4.16508e-05
1.83009
0.00316414
1.82715
1.83376
-0.00341313
-2.24483
-1.57659
0.000599399
-2.24987
-1.57301
0.000961854
-2.2474
-1.57468
0.000135652
-2.24677
-1.57489
0.00134303
-2.24824
-1.57399
-2.24612
-1.57553
0.00175979
-1.14737
-2.12081
0.000888464
-1.1529
-2.11992
0.00146948
-1.15038
-2.12135
0.0010591
-1.15001
-2.1192
-0.000703766
-1.15334
-2.11605
-1.14655
-2.12432
0.00102768
-0.08136
0.000254203
-0.085136
-0.000143935
-0.0835232
0.000515741
-0.0840821
0.0027593
-0.087819
-0.079231
-0.00129022
-2.58759
-0.267505
7.8011e-07
-2.58679
-0.266829
0.000264553
-2.58734
-0.267136
-3.31438e-05
-2.58693
-0.267128
-2.35502e-05
-2.58657
-0.26676
-2.58754
-0.267615
-0.00195512
-3.40942
-1.29703
7.65177e-05
-3.4122
-1.29655
-0.000771863
-3.41101
-1.29684
-2.94142e-05
-3.41063
-1.29624
0.00306956
-3.41109
-1.29462
-3.41026
-1.29853
0.00101848
-0.29136
8.79617e-05
-0.291514
-0.000202496
-0.291444
-4.34406e-05
-0.291501
-0.00078147
-0.292036
-0.290891
-0.00110156
-1.04187
-2.3043
3.34727
-0.000920565
-1.04841
-2.30476
3.35299
-0.000949591
-1.04737
-2.30324
3.35064
-0.000603792
-1.04223
-2.30455
3.34644
0.00272621
-1.04461
-2.3053
3.34658
-1.04266
-2.29867
3.34405
-0.00515509
-1.46374
-2.54731
2.97434
0.000602911
-1.50334
-2.53458
2.98375
0.0137776
-1.50441
-2.53025
2.97412
0.0056142
-1.44976
-2.54996
2.96565
0.00932082
-1.44923
-2.54919
2.9501
-1.51189
-2.54176
3.02031
-0.00103619
-0.567645
0.834075
0.00446688
-0.548879
0.810162
0.0134475
-0.547087
0.807219
0.00277068
-0.580521
0.861687
-0.00850779
-0.585537
0.869561
-0.546437
0.816856
-0.000417454
-0.701556
-1.60233
-0.000545936
-0.702251
-1.60238
-0.0017999
-0.699684
-1.6023
-1.56007e-05
-0.70536
-1.60097
0.00488903
-0.71098
-1.59922
-0.690203
-1.60358
-0.00306779
-1.30667
-1.93913
0.000808019
-1.30143
-1.93928
0.00838058
-1.29712
-1.94039
0.00447254
-1.31404
-1.93737
0.000832212
-1.32117
-1.93536
-1.28367
-1.94747
-0.00618902
-0.33794
0.00286068
-0.336199
0.0159791
-0.337314
0.00156549
-0.34071
-0.0180651
-0.34109
-0.340393
-0.000194994
-0.507148
-1.09499
-0.000195873
-0.507411
-1.09497
-0.000367915
-0.507053
-1.09508
8.70854e-05
-0.507252
-1.09418
0.00149734
-0.507539
-1.09309
-0.506092
-1.09599
-0.000724812
-0.526884
-1.91867
-0.00124842
-0.528185
-1.91798
-0.00332291
-0.527242
-1.91813
0.000437503
-0.528998
-1.91939
0.00906808
-0.531745
-1.91978
-0.525518
-1.91897
0.000200973
-0.341179
0.00100685
-0.339478
0.000859184
-0.34016
0.00143653
-0.342233
0.00178309
-0.341495
-0.34208
-3.32704e-05
-0.433741
-0.661212
-7.2452e-05
-0.433783
-0.661145
6.25656e-05
-0.434103
-0.661111
4.36057e-05
-0.433228
-0.660931
2.94359e-05
-0.432676
-0.660402
-0.434614
-0.661347
-0.00151993
-1.14418
-1.20672
-0.00082652
-1.14549
-1.20697
-0.00243461
-1.1441
-1.20652
-0.00023627
-1.14784
-1.20698
0.00872365
-1.15469
-1.20673
-1.13814
-1.20672
-0.000800344
-0.0827848
0.000195873
-0.0823167
0.000429811
-0.0827082
-2.10464e-05
-0.0824434
0.00154759
-0.0814675
-0.084716
7.19439e-05
-0.317745
-0.343539
9.9882e-06
-0.31737
-0.343713
0.000275121
-0.317808
-0.343569
-6.86663e-05
-0.316924
-0.343663
-0.00131058
-0.315118
-0.344042
-0.319564
-0.343094
-0.00143565
-1.89284
0.369809
-0.000782883
-1.89387
0.368883
-0.00182843
-1.89295
0.369665
0.000334332
-1.89469
0.368626
0.00738209
-1.89756
0.368672
-1.88937
0.370464
-0.000198113
0.188855
-5.62747e-05
0.189015
-0.000172077
0.188856
0.000158033
0.188792
0.00189054
0.189266
0.188242
-0.000281594
-0.610762
8.43747e-06
-0.610832
8.35995e-05
-0.610781
9.22104e-06
-0.610717
-0.000135407
-0.610658
-0.610845
-0.00217495
-1.53581
-0.000530484
-1.54014
-0.00185659
-1.53663
-0.000371661
-1.53982
0.00791296
-1.54489
-1.531
-0.000258927
-0.000126506
-0.00016264
-0.000144938
0.000795918
-6.23738e-07
0.46481
-0.0614124
7.61576e-08
0.464824
-0.0614143
5.43076e-07
0.464824
-0.0614141
9.40748e-07
0.464824
-0.061414
1.21478e-06
0.464824
-0.0614138
0.464811
-0.0614115
-2.69513e-08
0.503503
-0.0386919
9.32553e-07
0.503519
-0.0386929
1.24351e-06
0.503519
-0.0386928
1.43488e-06
0.503519
-0.0386928
1.53398e-06
0.503519
-0.0386929
0.503503
-0.0386915
8.20728e-07
-0.0142565
1.10659e-06
-0.0142571
1.16452e-06
-0.0142571
1.17374e-06
-0.0142572
1.0495e-06
-0.0142573
-0.014257
1.62265e-06
0.490561
-0.125857
1.8755e-06
0.490576
-0.125862
1.80521e-06
0.490576
-0.125862
1.81847e-06
0.490575
-0.125862
1.90848e-06
0.490575
-0.125862
0.49056
-0.125858
2.011e-06
0.530257
-0.0783877
1.88915e-06
0.530273
-0.078391
1.64776e-06
0.530273
-0.0783911
1.46487e-06
0.530273
-0.0783914
1.06498e-06
0.530272
-0.0783916
0.530256
-0.0783891
1.38417e-06
-0.0291528
1.05313e-06
-0.0291545
8.05316e-07
-0.0291547
4.75544e-07
-0.0291548
-8.7935e-08
-0.0291551
-0.0291539
3.20536e-06
0.5435
-0.196559
2.77891e-06
0.543516
-0.196569
2.2121e-06
0.543515
-0.196569
1.25603e-06
0.543514
-0.19657
2.83067e-07
0.543514
-0.196571
0.543497
-0.196563
2.01479e-06
0.584319
-0.119211
1.45452e-06
0.584337
-0.119217
6.76369e-07
0.584336
-0.119216
3.75536e-08
0.584336
-0.119217
-1.05955e-06
0.584336
-0.119217
0.584317
-0.119213
3.56325e-07
-0.0448899
3.91465e-07
-0.0448925
1.54097e-07
-0.0448922
-2.83867e-07
-0.0448918
-1.04434e-06
-0.0448915
-0.0448894
2.9101e-06
0.625899
-0.275282
1.02598e-06
0.625915
-0.275297
-1.77028e-06
0.625914
-0.275301
-3.01767e-06
0.625913
-0.275306
-3.23606e-06
0.625914
-0.275309
0.625894
-0.275299
9.80528e-07
0.666303
-0.159619
1.94708e-06
0.666324
-0.159629
-9.06373e-07
0.666323
-0.159625
-1.15589e-06
0.666324
-0.15963
-4.42249e-06
0.666324
-0.159626
0.666303
-0.159627
4.22387e-07
-0.0603499
2.05598e-06
-0.0603532
1.81369e-06
-0.0603507
9.51539e-07
-0.0603486
-1.07657e-06
-0.0603463
-0.0603454
-5.14127e-06
0.739603
-0.357731
-1.86445e-05
0.739619
-0.357753
-4.67656e-05
0.739623
-0.357747
-2.2715e-05
0.739634
-0.357814
2.08797e-05
0.739642
-0.357835
0.739616
-0.35774
-1.03812e-06
0.775316
-0.195332
4.47203e-06
0.775344
-0.195359
-1.15395e-05
0.775341
-0.195326
-4.63426e-06
0.775348
-0.195352
-1.92436e-05
0.775348
-0.195318
0.775329
-0.195358
3.77567e-06
-0.0721383
9.37259e-06
-0.072143
7.9799e-06
-0.0721321
4.65437e-06
-0.0721207
-5.89373e-06
-0.0721078
-0.0721186
-5.10923e-05
0.878869
-0.418931
-6.44705e-05
0.878889
-0.419035
-0.000167744
0.878932
-0.418914
-0.000106528
0.878973
-0.419217
3.89582e-05
0.879031
-0.419305
0.878969
-0.418953
-8.2334e-06
0.909191
-0.225644
2.92968e-05
0.909232
-0.225737
-2.71939e-05
0.909214
-0.225551
3.94015e-06
0.90924
-0.22565
-1.7629e-05
0.909226
-0.225492
0.909214
-0.225622
8.70057e-06
-0.0691306
3.15189e-05
-0.0691486
2.89246e-05
-0.0691099
1.21761e-05
-0.0690617
-4.29573e-05
-0.0690039
-0.0691075
-0.000102541
1.03324
-0.377448
-4.98231e-07
1.03337
-0.378048
-2.19464e-05
1.03352
-0.377456
-0.000401749
1.0334
-0.377906
-0.00119826
1.03376
-0.377328
1.03375
-0.379181
6.13543e-05
1.02127
-0.213734
0.000286569
1.02136
-0.213953
0.000306746
1.02132
-0.213369
6.79839e-05
1.02137
-0.21338
-0.000268106
1.02141
-0.212807
1.02124
-0.213381
9.32803e-05
-0.0877879
0.000248511
-0.0878342
0.000329904
-0.0876654
0.000189782
-0.087338
1.60713e-06
-0.0871065
-0.0875021
0.000234569
1.32814
-0.205701
-6.56697e-05
1.32828
-0.20672
-0.00173266
1.32861
-0.204162
-0.000952549
1.32888
-0.207539
-0.00348939
1.33092
-0.203658
1.32825
-0.213141
0.000289242
1.19185
-0.0777319
0.00210098
1.1924
-0.0798824
0.0030092
1.1919
-0.0775632
0.000680058
1.1913
-0.0734742
-0.00942226
1.19084
-0.0626199
1.19272
-0.0872708
7.93163e-05
0.0974199
0.000374618
0.097334
0.000537501
0.0975577
0.000151237
0.0980399
-0.000946621
0.0991525
0.0970725
0.000344595
1.3635
-0.20681
-0.00318839
1.36274
-0.202572
-0.0141531
1.36183
-0.194974
-0.00181248
1.36748
-0.2198
0.0117217
1.36927
-0.220401
1.36162
-0.207322
0.000852521
1.3887
-0.103791
0.0016972
1.38841
-0.106395
0.00222282
1.38695
-0.10321
0.0029104
1.39046
-0.0971411
-0.00126171
1.39192
-0.0810958
1.3836
-0.11051
0.000282923
0.0585501
0.00307268
0.0554841
0.00644404
0.0550424
0.00200275
0.0659134
-0.00644754
0.071993
0.0509392
-0.00015499
0.445356
-1.64571
0.000764903
0.442081
-1.6317
-0.00884367
0.440819
-1.60977
-0.00542089
0.447219
-1.66167
-0.0201415
0.459323
-1.66442
0.431604
-1.64551
-0.0104649
0.111784
0.240246
0.00949902
0.107385
0.208338
0.0450521
0.103012
0.199045
0.00154919
0.113968
0.279613
-0.0874803
0.12256
0.344697
0.0918007
0.141813
0.00565469
0.543942
-0.0024698
0.549043
-0.015319
0.550544
0.00167966
0.54387
0.03145
0.548907
0.550913
-0.00331932
-1.00672
-4.30665
-0.00213893
-0.989441
-4.30178
-0.00437968
-0.968887
-4.28398
-0.0113819
-1.02582
-4.30667
-0.00949949
-1.0471
-4.30753
-0.950584
-4.33295
-0.035774
-0.956354
0.22565
0.0114216
-0.945427
0.11713
0.0845027
-0.937321
0.0943991
-0.00526362
-0.970903
0.314459
-0.146991