/*--------------------------------*- C++ -*----------------------------------*\
| =========                 |                                                 |
| \\      /  F ield         | OpenFOAM: The Open Source CFD Toolbox           |
|  \\    /   O peration     | Version:  v1612+                                |
|   \\  /    A nd           | Web:      www.OpenFOAM.com                      |
|    \\/     M anipulation  |                                                 |
\*---------------------------------------------------------------------------*/
FoamFile
{
    version     2.0;
    format      ascii;
    class       volVectorField;
    location    "4.1";
    object      U;
}
// * * * * * * * * * * * * * * * * * * * * * * * * * * * * * * * * * * * * * //

dimensions      [0 1 -1 0 0 0 0];

internalField   nonuniform List<vector> 
1116
(
(0.23753 1.10315e-05 -0.241379)
(0.237528 1.63617e-05 -0.241388)
(0.23753 -1.32808e-06 -0.241376)
(0.23753 1.14558e-06 -0.241374)
(0.237528 6.24203e-07 -0.241387)
(0.23753 -2.20283e-06 -0.241372)
(0.742362 1.42218e-05 -0.36237)
(0.742369 1.55872e-05 -0.362387)
(0.742364 2.20184e-07 -0.362369)
(0.742367 3.05334e-06 -0.362364)
(0.742367 5.44576e-06 -0.362382)
(0.742361 -2.00315e-06 -0.362369)
(1.12165 1.43506e-05 -0.314958)
(1.12167 1.20517e-05 -0.31498)
(1.12166 8.89162e-08 -0.314962)
(1.12167 3.27012e-06 -0.314956)
(1.12167 6.4016e-06 -0.314975)
(1.12165 -2.53646e-06 -0.314965)
(1.40564 1.31413e-05 -0.211632)
(1.40569 9.58916e-06 -0.211657)
(1.40567 -2.30088e-07 -0.211641)
(1.40567 3.54585e-06 -0.211637)
(1.40568 3.55889e-06 -0.211655)
(1.40565 -4.10966e-06 -0.211643)
(1.62161 1.14104e-05 -0.111319)
(1.62167 7.96545e-06 -0.111342)
(1.62165 -6.60206e-07 -0.11133)
(1.62166 3.34363e-06 -0.111328)
(1.62167 4.41706e-07 -0.111343)
(1.62162 -4.87815e-06 -0.111329)
(1.66465 8.67873e-06 -0.0209593)
(1.66471 7.34645e-06 -0.0209767)
(1.66469 -1.30201e-06 -0.0209668)
(1.66469 2.6408e-06 -0.020966)
(1.6647 -2.55644e-06 -0.0209774)
(1.66465 -4.71384e-06 -0.0209636)
(1.3421 -1.69516e-06 0.115881)
(1.34218 1.34364e-06 0.115874)
(1.34216 -3.82331e-06 0.115882)
(1.34216 -2.50582e-06 0.115883)
(1.34217 -7.12851e-06 0.115876)
(1.3421 -2.61515e-06 0.115887)
(0.6364 -1.02031e-05 0.395773)
(0.636478 1.65182e-07 0.395769)
(0.63647 -2.54724e-06 0.395771)
(0.636469 -4.38125e-06 0.395771)
(0.636483 -1.31192e-05 0.395766)
(0.636397 -3.91699e-06 0.395779)
(-0.515236 1.352e-05 0.731008)
(-0.515184 2.06932e-05 0.73106)
(-0.515164 -8.93954e-06 0.731034)
(-0.515169 5.03887e-06 0.731036)
(-0.515154 -2.66869e-05 0.731047)
(-0.515278 -2.30881e-05 0.73103)
(-1.86809 4.3705e-05 0.278101)
(-1.86807 3.82443e-05 0.278187)
(-1.86802 -1.17729e-05 0.278168)
(-1.86803 2.19613e-05 0.278167)
(-1.868 -2.78388e-05 0.278202)
(-1.86819 -3.57982e-05 0.278074)
(-2.23263 7.79018e-05 -0.843877)
(-2.23265 5.18757e-05 -0.843841)
(-2.2326 -1.89082e-05 -0.843836)
(-2.2326 2.23256e-05 -0.843842)
(-2.23259 -3.89794e-05 -0.843822)
(-2.23269 -4.42543e-05 -0.843951)
(-1.03266 1.82162e-05 -1.23556)
(-1.03255 -1.90741e-06 -1.23556)
(-1.03257 -1.89691e-05 -1.23557)
(-1.03257 -8.37579e-06 -1.23558)
(-1.03253 -1.41104e-05 -1.23558)
(-1.03264 -1.50935e-06 -1.23559)
(1.90592 -7.56565e-06 -1.32262)
(1.90602 1.72723e-05 -1.32255)
(1.90603 2.09416e-05 -1.32252)
(1.90599 1.9969e-05 -1.32258)
(1.90602 8.02437e-05 -1.32255)
(1.90597 3.10575e-05 -1.32256)
(5.95904 -3.43693e-05 -1.10179)
(5.95917 -9.4792e-06 -1.10173)
(5.95922 5.19067e-05 -1.10171)
(5.95917 4.65754e-05 -1.10177)
(5.95922 0.000150436 -1.10175)
(5.9592 6.42379e-05 -1.1017)
(10.4846 -4.9297e-05 -0.894268)
(10.4847 -3.4463e-05 -0.894221)
(10.4848 6.10335e-05 -0.894215)
(10.4847 3.21097e-05 -0.894264)
(10.4847 0.000164494 -0.894237)
(10.4848 9.12455e-05 -0.894178)
(14.1308 -4.85617e-06 -0.718234)
(14.1309 -7.76777e-06 -0.718182)
(14.131 6.04407e-05 -0.718193)
(14.1309 -1.61332e-05 -0.718217)
(14.131 0.000106927 -0.718187)
(14.1312 6.4294e-05 -0.718163)
(20.3366 -3.93912e-05 0.176148)
(20.3369 -0.000122104 0.176208)
(20.337 -1.70182e-05 0.176191)
(20.3368 -0.000180966 0.17618)
(20.3368 -6.97434e-05 0.176197)
(20.3368 -3.89085e-05 0.176201)
(11.5424 -9.23633e-05 0.679306)
(11.5422 -0.000179295 0.679213)
(11.5423 -8.26859e-05 0.679231)
(11.5422 -0.000159671 0.679229)
(11.5422 -9.44087e-05 0.679202)
(11.542 -3.61484e-05 0.679229)
(5.55105 -3.90611e-06 0.85495)
(5.55072 -8.89774e-05 0.85493)
(5.55079 -6.70787e-05 0.854923)
(5.5507 -8.06412e-05 0.85492)
(5.55059 -3.76968e-05 0.854906)
(5.55062 -3.50391e-05 0.854917)
(2.04249 1.01725e-05 1.25327)
(2.04276 -1.92177e-05 1.25324)
(2.04265 -5.81482e-06 1.25325)
(2.04262 -8.00358e-06 1.25325)
(2.04268 -1.66826e-05 1.25325)
(2.04248 -4.51204e-05 1.25324)
(0.613798 0.000156904 1.51196)
(0.614045 8.70675e-05 1.5121)
(0.613969 -5.75324e-05 1.51203)
(0.613975 2.9568e-05 1.51204)
(0.614062 -6.12674e-05 1.51207)
(0.61382 -9.74286e-05 1.51199)
(-0.260862 0.000118042 1.02552)
(-0.260735 6.70447e-05 1.02575)
(-0.260749 -3.75173e-05 1.02566)
(-0.260737 4.39905e-05 1.02566)
(-0.260676 -2.36268e-05 1.02572)
(-0.260884 -5.29903e-05 1.02555)
(-0.65835 0.000154264 -0.281787)
(-0.658083 0.000105159 -0.281257)
(-0.658122 -1.46655e-05 -0.281431)
(-0.658121 5.75346e-05 -0.281435)
(-0.658023 -4.34669e-05 -0.2813)
(-0.6583 -6.26098e-05 -0.28169)
(-0.820126 -4.50286e-05 -1.79589)
(-0.819581 -4.61693e-05 -1.79566)
(-0.819708 -2.16052e-06 -1.79573)
(-0.819712 -2.69907e-05 -1.79574)
(-0.819561 3.72891e-05 -1.79566)
(-0.820037 6.35719e-05 -1.79588)
(-0.467894 -8.43885e-05 -5.15516)
(-0.467879 -8.03198e-05 -5.15545)
(-0.467942 3.70916e-07 -5.15541)
(-0.467893 2.21436e-05 -5.15543)
(-0.467838 2.99084e-05 -5.15545)
(-0.467975 6.66299e-05 -5.15513)
(-1.56646 -5.69122e-05 -6.17765)
(-1.56636 -3.4097e-05 -6.17805)
(-1.56644 -2.15428e-06 -6.178)
(-1.56637 1.06384e-05 -6.17798)
(-1.56627 4.67239e-05 -6.17802)
(-1.56647 8.26362e-05 -6.17756)
(-2.48216 -8.92129e-05 -7.27496)
(-2.48207 -7.5324e-05 -7.27537)
(-2.4821 -2.30435e-05 -7.27529)
(-2.48209 -4.57093e-05 -7.27529)
(-2.48204 5.83302e-05 -7.27534)
(-2.48202 0.000117796 -7.27484)
(-3.34721 -0.000153585 -6.21693)
(-3.34737 -0.00016891 -6.21723)
(-3.34734 -6.47462e-05 -6.21718)
(-3.34742 -0.000164272 -6.21713)
(-3.34748 8.97786e-05 -6.21715)
(-3.34709 0.000188935 -6.21681)
(1.70186 -0.000227636 1.74405)
(1.70133 -0.00039225 1.74413)
(1.70172 -0.000194362 1.74415)
(1.70127 -0.000363148 1.74419)
(1.70078 3.65944e-05 1.74421)
(1.70222 0.000150569 1.74421)
(5.77338 -0.000180823 9.16823)
(5.77266 -0.000407311 9.16824)
(5.77288 -0.000239977 9.16826)
(5.77249 -0.000359907 9.16833)
(5.77194 -0.000124166 9.16836)
(5.77279 -4.20716e-05 9.16807)
(5.52034 0.000397226 8.43479)
(5.5192 8.67466e-05 8.43483)
(5.51952 -0.000252133 8.43455)
(5.51928 -9.47768e-05 8.43447)
(5.51879 -0.000100097 8.43443)
(5.51962 -0.000171647 8.43426)
(2.78387 0.000487996 5.81822)
(2.79702 0.000158306 5.81413)
(2.79023 -0.000114176 5.816)
(2.79023 0.00022402 5.81594)
(2.7921 -5.56108e-05 5.81537)
(2.78834 -0.000232157 5.81636)
(-0.0905147 0.00115581 2.53592)
(-0.0881214 0.000575926 2.53719)
(-0.0893026 -0.00052882 2.53655)
(-0.0892649 0.000179149 2.53649)
(-0.0887465 -0.000182321 2.53677)
(-0.089746 -0.000359887 2.53625)
(0.0223653 0.000588612 1.32264)
(0.0237829 0.000310314 1.32351)
(0.0231587 -0.000231679 1.32312)
(0.0231308 0.000161776 1.32315)
(0.0234823 -0.000128815 1.32334)
(0.0228058 -0.00027945 1.32288)
(-0.155719 0.00064047 -0.610648)
(-0.154999 0.000390076 -0.610503)
(-0.155258 -0.000229133 -0.610569)
(-0.155227 0.000149416 -0.61046)
(-0.155044 -0.000131117 -0.61052)
(-0.155535 -0.000276104 -0.610609)
(-0.956854 -0.000133174 -2.04975)
(-0.956317 -8.50897e-05 -2.04945)
(-0.956421 3.69095e-05 -2.04952)
(-0.956458 -4.36306e-05 -2.04954)
(-0.95644 0.000103405 -2.04946)
(-0.95666 0.00013032 -2.04966)
(-0.0906547 2.86402e-05 -2.08641)
(-0.0905697 2.65705e-05 -2.08701)
(-0.0905768 -2.07206e-06 -2.0869)
(-0.0905803 5.72586e-06 -2.08691)
(-0.0905645 -3.01876e-05 -2.08704)
(-0.0906556 -3.04664e-05 -2.08639)
(-0.454768 4.43577e-05 -2.40816)
(-0.454499 3.10708e-05 -2.40868)
(-0.454526 -1.32512e-05 -2.40859)
(-0.454534 2.7167e-06 -2.40859)
(-0.45449 -3.90894e-05 -2.40869)
(-0.454776 -4.73242e-05 -2.40813)
(-1.70333 -7.33191e-07 -3.47115)
(-1.7029 -2.48763e-05 -3.4715)
(-1.70299 -4.13791e-05 -3.47146)
(-1.70299 -2.06539e-05 -3.47145)
(-1.70292 -2.07588e-05 -3.47149)
(-1.70336 -1.35474e-05 -3.4711)
(-4.56121 -8.35816e-05 -4.79008)
(-4.56094 -0.00011046 -4.79052)
(-4.56103 -7.34473e-05 -4.79044)
(-4.56105 -6.5177e-05 -4.79047)
(-4.56102 1.42373e-05 -4.79056)
(-4.56127 5.40942e-05 -4.79003)
(-5.90563 -0.000204152 -2.88376)
(-5.90582 -0.000242173 -2.88451)
(-5.90579 -8.9105e-05 -2.88437)
(-5.9059 -0.000113702 -2.88451)
(-5.90603 5.42504e-05 -2.88477)
(-5.90573 0.000118256 -2.88394)
(-2.75027 -0.000121947 3.34214)
(-2.75144 -0.000216192 3.34052)
(-2.75112 -6.63398e-05 3.34075)
(-2.75141 -8.36998e-05 3.34038)
(-2.75192 4.6318e-05 3.33979)
(-2.75091 7.32672e-05 3.34092)
(-1.0033 0.000681375 5.42846)
(-1.00554 0.00038473 5.42628)
(-1.00476 -0.000100096 5.42666)
(-1.00491 0.000220415 5.42628)
(-1.0054 4.89862e-05 5.42565)
(-1.00455 -7.13646e-05 5.42665)
(1.55645 7.25799e-05 7.69676)
(1.56368 8.83046e-05 7.69729)
(1.55982 0.000333001 7.69695)
(1.55963 0.000344282 7.69665)
(1.56051 0.00010334 7.69674)
(1.55948 -3.44711e-05 7.69676)
(-7.74227 0.00313746 4.00599)
(-7.75033 0.0014382 4.03063)
(-7.74588 -0.00158956 4.01834)
(-7.74591 0.000376032 4.01736)
(-7.74663 -0.000551023 4.02135)
(-7.74494 -0.00077643 4.01496)
(-3.04227 0.00153855 0.367343)
(-3.03911 0.000844503 0.373578)
(-3.04054 -0.000661394 0.370714)
(-3.04109 0.000283421 0.370257)
(-3.03991 -0.000196354 0.372071)
(-3.04148 -0.000475238 0.369048)
(-0.321561 0.000319716 -0.101848)
(-0.315741 0.000141613 -0.0960381)
(-0.318252 -0.000143626 -0.0985724)
(-0.318858 4.57923e-05 -0.0991294)
(-0.317183 5.79526e-05 -0.0974328)
(-0.319807 2.82879e-05 -0.100183)
(-0.862687 -0.000499037 -1.8639)
(-0.862065 -0.000245911 -1.86337)
(-0.862198 0.000248587 -1.86349)
(-0.862398 2.75457e-05 -1.86359)
(-0.862609 9.45902e-05 -1.86361)
(-0.862149 4.88114e-05 -1.86353)
(0.10591 -1.7394e-06 0.107269)
(0.105915 -3.69356e-06 0.107271)
(0.105916 -3.82393e-06 0.107271)
(0.105917 -3.34023e-06 0.107271)
(0.105918 -2.58976e-06 0.107271)
(0.105916 -1.03378e-06 0.107268)
(0.323325 -3.44776e-06 0.113288)
(0.32334 -5.23164e-06 0.113289)
(0.323344 -4.56364e-06 0.113289)
(0.323346 -3.36775e-06 0.113289)
(0.323348 -2.87941e-06 0.113289)
(0.323341 -6.60874e-07 0.113285)
(0.558503 -5.45447e-06 0.126613)
(0.558529 -8.52149e-06 0.126613)
(0.558534 -6.75322e-06 0.126612)
(0.558538 -4.46207e-06 0.126612)
(0.558542 -3.34378e-06 0.126612)
(0.55853 -7.43753e-07 0.126609)
(0.824809 -1.01829e-05 0.150825)
(0.824846 -1.62584e-05 0.150815)
(0.824851 -1.21063e-05 0.150809)
(0.82485 -8.06432e-06 0.150805)
(0.824855 -5.18259e-06 0.150801)
(0.824836 -9.07389e-07 0.150793)
(1.13616 -1.2029e-05 0.19133)
(1.1362 -1.56873e-05 0.191297)
(1.1362 -1.76981e-06 0.191281)
(1.13617 -3.43778e-07 0.191276)
(1.13618 -5.63138e-06 0.191271)
(1.13616 -3.70514e-07 0.191268)
(1.50369 1.09666e-05 0.25323)
(1.50367 8.18472e-06 0.253188)
(1.50371 4.93936e-05 0.253174)
(1.50356 2.25295e-05 0.253191)
(1.50365 -7.43417e-05 0.253206)
(1.5037 -4.02164e-05 0.253256)
(1.94174 0.000122525 0.333186)
(1.94138 9.05507e-06 0.333216)
(1.94191 0.000143985 0.333171)
(1.94073 1.16661e-05 0.333297)
(1.94122 -0.000544528 0.333298)
(1.94264 -0.000291718 0.333399)
(2.42921 0.000838906 0.285943)
(2.42759 -0.000497713 0.286643)
(2.43088 0.00123787 0.285346)
(2.42359 0.00142862 0.287793)
(2.42518 -0.00493313 0.287593)
(2.43548 -0.0037915 0.284682)
(2.34518 0.00354012 -0.308989)
(2.34271 -0.00382734 -0.306315)
(2.34976 0.00803012 -0.31352)
(2.33486 0.0128333 -0.300355)
(2.33626 -0.0269046 -0.299511)
(2.35705 -0.0244019 -0.318892)
(0.0737387 0.00555903 -1.01346)
(0.0727349 -0.0067137 -1.01111)
(0.0903185 0.0129508 -1.03324)
(0.0511376 0.0250084 -0.98516)
(0.0408452 -0.0438283 -0.97417)
(0.109893 -0.0431164 -1.06035)
(-3.21986 0.00176766 0.386645)
(-3.21719 -0.00194429 0.385871)
(-3.22393 0.00543781 0.385833)
(-3.21057 0.0134576 0.38723)
(-3.21296 -0.018035 0.390036)
(-3.2304 -0.0222339 0.382081)
(-2.23233 0.000304754 2.44325)
(-2.23169 0.000116798 2.44347)
(-2.23394 0.00124653 2.4447)
(-2.22878 0.00215784 2.44271)
(-2.22806 -0.0032629 2.44726)
(-2.23709 -0.00397634 2.44029)
(0.104755 -1.34734e-06 0.314171)
(0.104761 -3.43633e-06 0.314179)
(0.104762 -2.88879e-06 0.31418)
(0.104762 -2.77871e-06 0.31418)
(0.104763 -1.89175e-06 0.31418)
(0.10476 -1.24008e-06 0.314171)
(0.319258 -1.63325e-06 0.331086)
(0.319274 -2.61128e-06 0.331091)
(0.319277 -1.90018e-06 0.331091)
(0.319278 -1.57995e-06 0.331091)
(0.31928 -1.25474e-06 0.331091)
(0.319272 -5.24722e-07 0.331081)
(0.548944 -1.30733e-06 0.365278)
(0.548971 -1.32995e-06 0.365279)
(0.548973 8.23606e-08 0.365278)
(0.548974 3.0579e-07 0.365277)
(0.548975 7.42834e-08 0.365278)
(0.548961 -1.80739e-07 0.365268)
(0.804976 1.92025e-06 0.4169)
(0.805005 6.01623e-06 0.416879)
(0.805006 8.71834e-06 0.416864)
(0.804996 6.96123e-06 0.416855)
(0.805 3.99098e-06 0.416848)
(0.804985 1.39468e-06 0.416833)
(1.10211 1.5223e-05 0.484027)
(1.10212 2.30187e-05 0.483963)
(1.10213 3.0501e-05 0.483925)
(1.10207 1.45445e-05 0.483918)
(1.10211 -2.09878e-05 0.483919)
(1.10212 -1.32954e-05 0.483928)
(1.46453 6.25012e-05 0.563693)
(1.46437 2.38619e-05 0.563608)
(1.46456 4.38378e-05 0.563607)
(1.46415 -2.5303e-05 0.563585)
(1.46436 -0.00019471 0.56366)
(1.4647 -8.73254e-05 0.563914)
(2.03192 0.000385198 0.667815)
(2.03077 -0.000190274 0.66775)
(2.03241 0.000330304 0.66825)
(2.02922 0.000316197 0.667214)
(2.03022 -0.00170181 0.667299)
(2.03412 -0.00112984 0.669629)
(2.96561 0.00270961 0.606875)
(2.96203 -0.00255897 0.607876)
(2.9695 0.004354 0.605112)
(2.955 0.00770197 0.609535)
(2.9572 -0.0156704 0.609731)
(2.97617 -0.0137995 0.605168)
(3.64442 0.00701155 -1.15781)
(3.63516 -0.00639822 -1.14898)
(3.68957 0.0108969 -1.20615)
(3.57497 0.0226342 -1.08982)
(3.56102 -0.0379563 -1.07226)
(3.74426 -0.0347639 -1.26092)
(5.94346 0.00112078 -5.7794)
(5.92378 6.51026e-05 -5.77229)
(6.03444 0.00241125 -5.86454)
(5.80003 0.00348309 -5.65819)
(5.74024 0.000910091 -5.59542)
(6.15478 0.00330878 -5.98212)
(-1.85799 -0.0028726 -0.598803)
(-1.85296 0.00335003 -0.604952)
(-1.81617 -0.000427178 -0.641495)
(-1.91518 -4.03273e-06 -0.540403)
(-1.97096 0.00796501 -0.468118)
(-1.74933 0.00206012 -0.73229)
(-3.70238 -0.000178091 1.59185)
(-3.70258 0.00310385 1.58804)
(-3.70234 -0.00143583 1.59132)
(-3.70357 0.00144631 1.59253)
(-3.70583 -0.000863634 1.59689)
(-3.70059 -0.00706025 1.58999)
(0.0948408 -7.39859e-07 0.507066)
(0.0948449 -1.831e-06 0.50708)
(0.0948452 -9.16672e-07 0.50708)
(0.0948451 -8.75154e-07 0.50708)
(0.0948447 -4.45784e-08 0.507081)
(0.0948411 -2.43465e-07 0.507066)
(0.290362 -7.45793e-07 0.535986)
(0.290376 -5.35504e-07 0.535998)
(0.290377 4.69059e-07 0.535997)
(0.290376 8.70724e-07 0.535997)
(0.290375 1.33693e-06 0.535997)
(0.290364 8.51044e-07 0.535982)
(0.505292 -5.35476e-07 0.596569)
(0.505316 1.07569e-06 0.596577)
(0.505317 3.43628e-06 0.596574)
(0.505315 4.12922e-06 0.596573)
(0.505312 4.22076e-06 0.596573)
(0.505292 2.189e-06 0.596556)
(0.757778 3.21692e-06 0.696504)
(0.75781 9.32683e-06 0.696492)
(0.757815 1.44736e-05 0.696475)
(0.7578 1.36573e-05 0.696467)
(0.757801 8.88459e-06 0.696462)
(0.757771 4.21056e-06 0.696441)
(1.07111 1.94206e-05 0.851924)
(1.07112 2.23218e-05 0.851882)
(1.07117 2.34493e-05 0.851838)
(1.07109 1.04027e-05 0.851849)
(1.07113 -9.36578e-06 0.851866)
(1.0711 2.2469e-06 0.851858)
(1.47649 7.99135e-05 1.10562)
(1.47631 -5.224e-06 1.10553)
(1.47659 -3.88517e-05 1.10568)
(1.47622 -8.47013e-05 1.10536)
(1.47643 -0.000127288 1.10554)
(1.47652 3.77945e-06 1.10608)
(2.10395 0.000654981 1.64696)
(2.10284 -0.000502948 1.64661)
(2.10385 0.000261083 1.64828)
(2.10319 0.000767538 1.64472)
(2.10416 -0.00222149 1.64506)
(2.10331 -0.00159531 1.6504)
(2.84052 0.00346156 2.41599)
(2.83694 -0.002025 2.41656)
(2.84341 0.00121459 2.41294)
(2.83487 0.00480597 2.419)
(2.83854 -0.00885945 2.41853)
(2.84287 -0.00683739 2.41272)
(4.30522 0.0047679 -0.173255)
(4.28925 0.0017865 -0.165843)
(4.32385 -0.00680243 -0.208975)
(4.26424 -0.00820705 -0.119679)
(4.26518 0.0143753 -0.109377)
(4.34517 0.019668 -0.246771)
(10.6026 -0.00209455 -8.41191)
(10.5769 0.00639316 -8.41528)
(10.5956 -0.00872386 -8.4478)
(10.5831 -0.0282048 -8.36257)
(10.5781 0.0458988 -8.31766)
(10.592 0.0565146 -8.50172)
(9.64889 -0.00363384 -6.84827)
(9.63958 0.00110643 -6.86009)
(9.63444 0.00240066 -6.88063)
(9.66661 -0.00994157 -6.81093)
(9.6689 0.022603 -6.75039)
(9.59278 0.0289216 -6.93108)
(-4.1737 -0.00124346 7.00927)
(-4.17432 0.00152559 7.02252)
(-4.14778 0.00912519 6.96931)
(-4.21198 0.025539 7.07857)
(-4.25068 -0.0234559 7.19173)
(-4.09973 -0.0423802 6.85436)
(0.0794977 -6.22519e-07 0.67247)
(0.0795007 -1.0482e-06 0.672489)
(0.0795004 2.46412e-07 0.672489)
(0.0794998 3.47152e-07 0.672489)
(0.0794989 1.10298e-06 0.672489)
(0.0794954 3.34202e-07 0.672469)
(0.241432 3.88943e-07 0.711321)
(0.241441 1.46005e-06 0.711339)
(0.24144 2.12723e-06 0.711338)
(0.241438 2.19754e-06 0.711337)
(0.241436 2.49187e-06 0.711337)
(0.241425 1.33495e-06 0.711316)
(0.410803 2.12831e-06 0.792357)
(0.41082 4.75144e-06 0.792373)
(0.410818 5.60852e-06 0.792369)
(0.410813 5.49764e-06 0.792366)
(0.410809 4.73812e-06 0.792365)
(0.410789 2.02618e-06 0.792341)
(0.588683 6.74074e-06 0.923221)
(0.588704 1.13784e-05 0.923227)
(0.588707 1.24268e-05 0.923213)
(0.588696 1.10721e-05 0.923204)
(0.588695 6.8789e-06 0.923202)
(0.58866 3.02473e-06 0.923178)
(0.771663 1.84813e-05 1.11964)
(0.771667 3.45664e-06 1.11963)
(0.771712 -7.52188e-06 1.11961)
(0.771673 -9.23835e-06 1.11961)
(0.771703 -2.02162e-05 1.11963)
(0.771643 -4.43139e-06 1.11964)
(0.933236 4.89877e-05 1.41422)
(0.933117 -7.96314e-05 1.41416)
(0.933342 -0.000135964 1.41425)
(0.933245 -0.000108649 1.41419)
(0.933445 -0.000126456 1.41434)
(0.933193 -2.59671e-05 1.41444)
(1.0132 0.000323691 1.9127)
(1.01266 -0.000403207 1.91214)
(1.0131 -0.000439827 1.91333)
(1.01409 -0.000364315 1.91182)
(1.01502 -0.000392724 1.91291)
(1.01205 0.000237389 1.9134)
(0.866032 0.00185276 2.89765)
(0.865147 -0.000230622 2.89561)
(0.864869 -0.00297359 2.89852)
(0.870062 -0.00459764 2.89544)
(0.874145 0.00346573 2.89835)
(0.860513 0.00705604 2.89647)
(0.305296 0.00270612 2.96101)
(0.292179 0.00567389 2.9656)
(0.288041 -0.0154193 2.95933)
(0.311402 -0.027992 2.96649)
(0.337412 0.0312594 2.95478)
(0.268297 0.041484 2.9548)
(4.08999 -0.000197875 -3.14677)
(4.02981 0.0102827 -3.1245)
(3.98574 -0.0128357 -3.13306)
(4.14767 -0.0336426 -3.13011)
(4.23026 0.0346959 -3.15386)
(3.92029 0.0505222 -3.13765)
(9.91287 -0.00181445 -7.62815)
(9.8912 -0.00250587 -7.63315)
(9.8549 -0.00409404 -7.63606)
(9.97277 -0.0195004 -7.6114)
(10.029 0.0151676 -7.59251)
(9.82013 0.0361748 -7.63845)
(7.11869 -0.00406003 -4.63644)
(7.11563 -0.00351258 -4.64918)
(7.1091 0.00199513 -4.66324)
(7.13261 -0.0108479 -4.61349)
(7.14683 0.00941727 -4.57877)
(7.07739 0.0211667 -4.67112)
(-0.00388895 4.67386e-05 -3.00697)
(-0.00390736 3.77781e-05 -3.0074)
(-0.00390438 -3.48407e-06 -3.00732)
(-0.00390576 1.01019e-05 -3.00732)
(-0.00391068 -3.4948e-05 -3.0074)
(-0.0038898 -4.94272e-05 -3.00697)
(-0.0973397 3.85478e-05 -2.60208)
(-0.0973425 3.60853e-05 -2.60235)
(-0.0973427 -3.53787e-06 -2.60231)
(-0.0973439 7.13677e-06 -2.60231)
(-0.0973445 -3.45712e-05 -2.60236)
(-0.097344 -4.09004e-05 -2.60207)
(-0.0224722 2.13324e-05 -2.49054)
(-0.0224714 2.10213e-05 -2.49069)
(-0.0224722 8.18929e-07 -2.49067)
(-0.0224728 1.99032e-06 -2.49067)
(-0.0224728 -2.09322e-05 -2.49069)
(-0.022474 -2.30579e-05 -2.49054)
(-0.168831 3.81489e-05 -3.08629)
(-0.168893 2.78404e-05 -3.08672)
(-0.168884 -8.98992e-06 -3.08664)
(-0.16889 3.37996e-06 -3.08664)
(-0.168908 -3.53583e-05 -3.08673)
(-0.16884 -4.77459e-05 -3.08626)
(-0.377255 3.60934e-05 -2.56973)
(-0.377261 3.36882e-05 -2.57)
(-0.377264 -8.55521e-06 -2.56995)
(-0.377264 3.57259e-06 -2.56995)
(-0.377264 -4.2967e-05 -2.57001)
(-0.377264 -4.58022e-05 -2.56972)
(-0.0735243 1.9734e-05 -2.38059)
(-0.0735207 1.76157e-05 -2.38074)
(-0.0735222 -1.71051e-06 -2.38072)
(-0.0735232 8.72466e-08 -2.38072)
(-0.0735227 -2.04943e-05 -2.38074)
(-0.0735251 -2.26062e-05 -2.38059)
(-0.564639 1.99695e-05 -2.91143)
(-0.56474 1.16995e-05 -2.91183)
(-0.564725 -1.1247e-05 -2.91176)
(-0.56473 -5.93171e-06 -2.91176)
(-0.564756 -2.65559e-05 -2.91184)
(-0.564648 -3.56682e-05 -2.9114)
(-0.905487 3.16056e-05 -2.3796)
(-0.905498 2.44849e-05 -2.37985)
(-0.905498 -1.62106e-05 -2.37981)
(-0.905494 -7.48858e-07 -2.37981)
(-0.905493 -4.31978e-05 -2.37986)
(-0.905473 -4.36991e-05 -2.37959)
(-0.158033 1.95807e-05 -1.99532)
(-0.158023 1.56717e-05 -1.99546)
(-0.158025 -3.59791e-06 -1.99545)
(-0.158025 -1.48981e-06 -1.99545)
(-0.158024 -1.84692e-05 -1.99548)
(-0.158033 -2.06014e-05 -1.99534)
(-1.72603 2.77792e-05 -2.14765)
(-1.7261 2.31749e-05 -2.14802)
(-1.72607 2.10229e-06 -2.14796)
(-1.72606 5.12141e-06 -2.14795)
(-1.72607 -3.47029e-05 -2.14802)
(-1.72601 -5.21859e-05 -2.14764)
(-1.63329 4.00842e-05 -1.86948)
(-1.63331 2.98961e-05 -1.86974)
(-1.6333 -1.70177e-05 -1.8697)
(-1.6333 7.86498e-06 -1.8697)
(-1.63331 -3.66923e-05 -1.86975)
(-1.63327 -4.19383e-05 -1.86948)
(-0.281195 1.92725e-05 -1.25953)
(-0.281178 1.33157e-05 -1.25968)
(-0.281182 -4.99511e-06 -1.25967)
(-0.281181 -2.27846e-06 -1.25967)
(-0.281177 -1.71934e-05 -1.2597)
(-0.281194 -1.92071e-05 -1.25955)
(-3.24671 2.22988e-05 0.114161)
(-3.24673 5.32619e-05 0.113813)
(-3.2467 5.91803e-05 0.113858)
(-3.24666 5.11227e-05 0.113864)
(-3.24664 -1.85204e-05 0.113811)
(-3.24665 -6.06987e-05 0.114138)
(-1.91472 3.56638e-05 -0.44945)
(-1.91476 2.29129e-05 -0.449748)
(-1.91476 -2.13363e-05 -0.44972)
(-1.91476 9.56312e-06 -0.449727)
(-1.91478 -3.47608e-05 -0.449793)
(-1.91472 -4.16357e-05 -0.449472)
(-0.561022 1.48769e-05 0.0548799)
(-0.560988 6.29407e-06 0.0547323)
(-0.560995 -5.05261e-06 0.0547543)
(-0.560991 -1.62003e-07 0.054752)
(-0.560986 -1.19561e-05 0.0547304)
(-0.561018 -1.51539e-05 0.0548852)
(-3.63989 5.69182e-05 1.45746)
(-3.64026 9.33495e-05 1.45667)
(-3.64012 0.000101194 1.45691)
(-3.64013 0.00012788 1.45685)
(-3.64018 3.23983e-05 1.45669)
(-3.64007 -2.88382e-05 1.45707)
(-1.571 7.73062e-06 1.37538)
(-1.57114 -9.71256e-06 1.37503)
(-1.57116 -1.80131e-05 1.37505)
(-1.57116 5.76884e-06 1.37504)
(-1.57118 -1.75041e-05 1.37498)
(-1.57117 -1.69299e-05 1.37525)
(-0.517768 2.62245e-05 1.21505)
(-0.517777 1.44949e-05 1.21494)
(-0.517806 -8.53176e-06 1.21496)
(-0.517808 -6.809e-06 1.21496)
(-0.51783 -2.65001e-05 1.21493)
(-0.517816 -1.82472e-05 1.21507)
(-3.07215 0.00034361 3.22271)
(-3.07355 0.000241839 3.22077)
(-3.073 1.49409e-05 3.22172)
(-3.0731 0.000185211 3.22161)
(-3.07332 9.57057e-06 3.22117)
(-3.07287 -6.84788e-05 3.22183)
(-1.92609 -2.7696e-05 2.33252)
(-1.92684 -0.000127028 2.33178)
(-1.92674 -0.000100695 2.33223)
(-1.92678 -3.6076e-05 2.33224)
(-1.92686 -2.49739e-05 2.33218)
(-1.92674 1.20726e-05 2.33232)
(-0.660469 -2.78122e-05 1.53044)
(-0.66054 -8.73946e-05 1.53043)
(-0.6606 -7.05998e-05 1.53046)
(-0.660574 -7.22108e-05 1.53047)
(-0.660582 -8.17094e-06 1.53047)
(-0.660593 5.06615e-05 1.53055)
(2.05018 -0.000799302 8.84802)
(2.05175 -0.000369296 8.84943)
(2.05055 0.000595421 8.84902)
(2.05026 0.000110892 8.84876)
(2.05048 -1.05461e-05 8.84876)
(2.05023 -1.23189e-05 8.8488)
(1.24878 -0.000458019 7.22503)
(1.24708 -0.000349421 7.2257)
(1.24773 0.000214567 7.22611)
(1.24744 0.000118325 7.22595)
(1.24723 -0.000172845 7.22598)
(1.24766 -0.000201399 7.22601)
(0.882614 0.000106167 3.10248)
(0.8818 -5.64929e-05 3.10229)
(0.88218 -8.72082e-05 3.10284)
(0.882002 8.48169e-05 3.10263)
(0.881825 -8.43511e-05 3.10273)
(0.882241 -8.69116e-05 3.10293)
(-2.89755 0.000206081 7.63497)
(-2.90713 6.18284e-05 7.65095)
(-2.90224 -0.000151848 7.64285)
(-2.90266 -0.000208089 7.6414)
(-2.90368 -9.84539e-05 7.64417)
(-2.90314 0.000125351 7.63992)
(1.87977 -0.00209912 11.1212)
(1.87369 -0.00098654 11.1377)
(1.87607 0.000931468 11.13)
(1.87639 -0.000444849 11.1283)
(1.8758 -6.86399e-05 11.131)
(1.87519 0.00018048 11.1281)
(3.29196 -0.00147772 7.27582)
(3.29236 -0.000659834 7.28673)
(3.2921 0.000520994 7.28229)
(3.29237 -0.000379073 7.28153)
(3.2924 -0.000181443 7.28314)
(3.2918 -0.000137995 7.28144)
(-4.85142 -0.00231235 -6.28071)
(-4.84481 -0.000975416 -6.27906)
(-4.84858 0.00189735 -6.27966)
(-4.84929 -0.000485469 -6.28032)
(-4.84812 0.000624653 -6.27973)
(-4.84995 0.00161707 -6.27967)
(1.87681 0.000329864 1.44503)
(1.8729 0.000162892 1.43396)
(1.87242 0.000262157 1.4367)
(1.87384 -2.92485e-05 1.44012)
(1.87364 -0.000141218 1.43806)
(1.8706 0.000265132 1.44054)
(6.21058 -0.00126525 3.1154)
(6.21074 -0.000761674 3.11656)
(6.20963 0.000338095 3.11526)
(6.21003 -0.00145397 3.1155)
(6.21004 0.00172621 3.1153)
(6.20883 0.00296999 3.11502)
(-4.73282 -0.00312828 -4.06882)
(-4.72307 -0.00160498 -4.06306)
(-4.7275 0.0020684 -4.06526)
(-4.72864 -0.000201882 -4.06639)
(-4.72686 0.000647829 -4.06472)
(-4.72895 0.00134746 -4.06668)
(-5.13505 0.00141945 -4.91071)
(-5.13922 0.00120402 -4.92905)
(-5.13855 0.000858684 -4.92068)
(-5.1366 0.00167054 -4.91809)
(-5.13659 -0.000140485 -4.92312)
(-5.1378 -0.000918081 -4.91622)
(0.745647 0.00072496 1.40014)
(0.733014 0.000636137 1.39442)
(0.738092 7.11691e-05 1.39715)
(0.737029 -0.000438136 1.39663)
(0.725605 0.00180002 1.38894)
(0.752216 0.00233925 1.40713)
(-1.63315 -0.00138757 -2.66398)
(-1.63049 -0.000678328 -2.66273)
(-1.63187 0.000603899 -2.66339)
(-1.63137 1.95495e-05 -2.663)
(-1.63019 -6.17249e-06 -2.66254)
(-1.63303 -0.000174587 -2.66352)
(-4.12445 -0.00139987 -6.52953)
(-4.11627 -0.000845073 -6.529)
(-4.12305 0.000108323 -6.52978)
(-4.11562 -0.000941395 -6.52823)
(-4.10309 0.00153017 -6.52618)
(-4.13614 0.00192277 -6.53165)
(-0.911564 0.000747321 -6.01937)
(-0.911296 0.000615186 -6.0277)
(-0.911157 -0.000264236 -6.02379)
(-0.911831 -0.000141382 -6.02476)
(-0.912777 -0.000352578 -6.02991)
(-0.910993 -0.000333979 -6.01748)
(5.65921 -0.000977835 -2.62812)
(5.66039 -0.00253849 -2.62878)
(5.65667 0.000117884 -2.62677)
(5.66002 -0.00331571 -2.62845)
(5.6623 0.00172376 -2.62456)
(5.64203 0.00641922 -2.62862)
(7.04702 -0.00741262 -3.63617)
(6.98335 -0.0165725 -3.7)
(6.96631 0.0183325 -3.696)
(7.07754 0.0258632 -3.62186)
(7.08208 0.00367593 -3.63025)
(6.97153 0.00456772 -3.67145)
(1.63768 -0.0031356 -5.12123)
(1.54833 -0.00265351 -5.24925)
(1.53629 0.0182397 -5.25972)
(1.69848 0.0200494 -5.09293)
(1.73002 -0.0121488 -5.09788)
(1.51423 -0.0131331 -5.31507)
(3.72312 -0.000512428 -1.73659)
(3.72377 -0.00048269 -1.73728)
(3.72277 -0.0012889 -1.73654)
(3.72066 -0.00465735 -1.73642)
(3.71819 0.00489469 -1.73342)
(3.7226 0.00762308 -1.73794)
(4.07677 -0.00452084 -2.71322)
(4.08576 -0.00592107 -2.71011)
(4.0889 0.00972981 -2.69662)
(4.06378 0.0116806 -2.73359)
(4.05652 0.000658888 -2.76233)
(4.11807 0.000321892 -2.65026)
(0.461433 -0.00774644 -4.61678)
(0.471591 -0.00801983 -4.59524)
(0.475883 0.0186056 -4.5852)
(0.463223 0.0223649 -4.64467)
(0.465387 -0.0196528 -4.66464)
(0.49344 -0.0236261 -4.5474)
(2.63374 -0.000233723 -1.1478)
(2.63371 -0.000382901 -1.1485)
(2.63391 -9.62657e-05 -1.14843)
(2.63159 -0.00118172 -1.14663)
(2.62861 0.00152834 -1.14417)
(2.63672 0.00252553 -1.14893)
(4.00572 -0.0016263 -2.02024)
(4.00185 -0.00169031 -2.02159)
(4.00233 -0.00140871 -2.02078)
(4.00768 -0.00771476 -2.02156)
(4.0073 0.00928668 -2.02602)
(4.00504 0.0158041 -2.01687)
(1.13451 -0.000529367 -1.43012)
(1.12434 0.000821495 -1.43582)
(1.12549 0.0019306 -1.43102)
(1.14104 0.00124195 -1.4424)
(1.13976 0.00264891 -1.45334)
(1.12589 0.00190013 -1.42412)
(1.69625 1.46153e-05 -0.449814)
(1.6962 -0.000152697 -0.450778)
(1.69636 7.40785e-06 -0.450826)
(1.69524 0.000119265 -0.448605)
(1.69371 -1.69701e-06 -0.445518)
(1.69702 0.000130445 -0.453233)
(3.08395 -0.00229192 -2.23936)
(3.08398 -0.00206915 -2.238)
(3.08366 -0.000590845 -2.24037)
(3.0843 -0.00734515 -2.23608)
(3.0839 0.00754608 -2.23337)
(3.08562 0.01419 -2.24342)
(0.295398 -0.00115466 -4.26669)
(0.29478 -0.000772179 -4.27303)
(0.295736 0.00135658 -4.26636)
(0.294966 -0.000554925 -4.28478)
(0.292511 0.000951901 -4.31532)
(0.301988 0.00244925 -4.23967)
(0.943022 9.1721e-05 0.262347)
(0.942897 0.000131396 0.261066)
(0.942739 -8.47494e-05 0.261381)
(0.942905 0.000945116 0.262467)
(0.943034 -0.00126033 0.264457)
(0.942676 -0.00225362 0.260118)
(1.51004 -0.00241216 -2.11999)
(1.51089 -0.00152315 -2.1161)
(1.50987 -0.000289978 -2.11914)
(1.51042 -0.00586134 -2.11453)
(1.50919 0.00691858 -2.10386)
(1.51014 0.0117527 -2.1303)
(-0.113632 -0.000631451 -7.13455)
(-0.114044 -0.000331488 -7.14099)
(-0.113695 0.000642661 -7.1357)
(-0.113711 -0.00156326 -7.14533)
(-0.114219 0.00208733 -7.16324)
(-0.113043 0.00401167 -7.11538)
(0.295515 -0.000497731 0.292638)
(0.296049 -9.2677e-05 0.291827)
(0.295845 5.98656e-05 0.2922)
(0.295751 0.0002229 0.292434)
(0.296474 -7.42991e-05 0.29195)
(0.294743 -0.000674718 0.292701)
(-2.2989 -0.00357283 -4.18252)
(-2.29906 -0.00212709 -4.18637)
(-2.29857 0.000123968 -4.1828)
(-2.29811 -0.00646655 -4.18578)
(-2.29805 0.00709586 -4.18906)
(-2.29971 0.012523 -4.17874)
(-0.485541 -0.000652807 -4.90979)
(-0.486059 -0.000427002 -4.92439)
(-0.48584 0.000408866 -4.91333)
(-0.485752 -0.00115246 -4.92367)
(-0.486929 0.000615905 -4.94228)
(-0.484109 0.00194387 -4.89357)
(0.0607691 -4.59305e-07 0.803809)
(0.0607708 -5.96735e-07 0.803833)
(0.0607706 5.47559e-07 0.803833)
(0.0607704 5.9329e-07 0.803833)
(0.0607702 1.38237e-06 0.803833)
(0.0607679 6.43258e-07 0.803809)
(0.038293 -9.98996e-08 0.89528)
(0.0382939 1.91664e-07 0.895307)
(0.0382938 1.18813e-06 0.895307)
(0.0382938 1.165e-06 0.895307)
(0.0382938 1.73424e-06 0.895308)
(0.0382924 7.84006e-07 0.89528)
(0.0139545 4.58789e-07 0.955272)
(0.0139549 8.50868e-07 0.955302)
(0.013955 1.07457e-06 0.955302)
(0.0139551 1.0554e-06 0.955302)
(0.0139552 1.23772e-06 0.955301)
(0.0139549 5.70571e-07 0.955271)
(0.184956 7.06877e-07 0.848859)
(0.184963 1.66842e-06 0.848883)