/*--------------------------------*- C++ -*----------------------------------*\
| =========                 |                                                 |
| \\      /  F ield         | OpenFOAM: The Open Source CFD Toolbox           |
|  \\    /   O peration     | Version:  v1612+                                |
|   \\  /    A nd           | Web:      www.OpenFOAM.com                      |
|    \\/     M anipulation  |                                                 |
\*---------------------------------------------------------------------------*/
FoamFile
{
    version     2.0;
    format      ascii;
    class       surfaceScalarField;
    location    "7.3";
    object      phi;
}
// * * * * * * * * * * * * * * * * * * * * * * * * * * * * * * * * * * * * * //

dimensions      [0 3 -1 0 0 0 0];

internalField   nonuniform List<scalar> 
2916
(
-8.27678e-05
0.160046
-0.159963
2.30026e-05
0.159773
-0.159879
1.07048e-06
0.159921
-0.159899
-8.40596e-06
0.159974
-0.159965
7.55147e-05
0.159885
-0.159969
0.159989
-0.159914
-6.05379e-05
0.281506
-0.1214
2.87567e-05
0.281258
-0.121574
-9.73733e-06
0.281422
-0.121462
-8.88132e-06
0.281415
-0.121441
8.11275e-05
0.281349
-0.121554
0.281443
-0.121373
-2.52045e-05
0.157279
0.124252
-1.11995e-05
0.156952
0.124292
-3.27217e-05
0.157198
0.124246
2.47216e-06
0.157091
0.124288
1.15387e-05
0.157051
0.124289
0.157246
0.124209
-0.000313506
-0.16769
0.325283
1.55562e-05
-0.168911
0.325534
0.000200448
-0.168398
0.325411
7.45757e-05
-0.168223
0.32544
-0.000186894
-0.168229
0.325541
-0.168227
0.325286
-0.00130683
-0.466227
0.299844
1.80649e-05
-0.470207
0.299971
0.000993686
-0.469101
0.299728
0.000209493
-0.467612
0.300174
-0.00151553
-0.466661
0.300157
-0.469394
0.299651
-0.00129632
-0.645971
0.18104
-0.000149513
-0.651943
0.180589
0.000672844
-0.650705
0.180781
7.59229e-05
-0.647545
0.180529
-0.00178697
-0.646174
0.181377
-0.651185
0.180003
0.00209382
-0.725339
0.077275
-0.000418077
-0.729973
0.0805415
-0.00277378
-0.728898
0.0805487
-0.000575699
-0.72661
0.0768668
0.00475802
-0.725116
0.0736082
-0.729902
0.0834754
0.00446132
-0.667546
-0.0622545
-0.000550672
-0.66617
-0.0587904
-0.00423962
-0.666151
-0.0590582
-0.000590302
-0.667818
-0.062441
0.00865195
-0.669697
-0.0646616
-0.664394
-0.0568559
0.00142126
-0.522994
-0.145974
-0.000361598
-0.520357
-0.14403
-0.00164938
-0.520455
-0.144408
-0.000412655
-0.523021
-0.146033
0.00170573
-0.526102
-0.145713
-0.518117
-0.144572
-0.00292465
-0.372177
-0.147892
0.000349841
-0.375106
-0.148526
0.00327632
-0.375062
-0.148319
-0.000341102
-0.371357
-0.148047
-0.00946081
-0.370717
-0.146266
-0.376398
-0.15118
-0.00557638
-0.227305
-0.139296
0.00119379
-0.232308
-0.149568
0.00709988
-0.23247
-0.148498
0.00202524
-0.226956
-0.139326
-0.01164
-0.224221
-0.13283
-0.234958
-0.15308
0.00424801
-0.231553
-0.000652872
-0.227407
-0.00456103
-0.228562
0.000100157
-0.231618
0.0102738
-0.234395
-0.224684
2.32247e-05
0.291904
-0.45189
-2.04063e-05
0.291562
-0.451397
-0.000114266
0.291757
-0.451563
-3.00356e-05
0.291731
-0.45178
0.000160504
0.29161
-0.451769
0.291905
-0.451657
-5.45454e-05
0.469317
-0.298758
1.69224e-05
0.468755
-0.298838
-0.000179657
0.468995
-0.298503
-2.53238e-05
0.469044
-0.298909
0.000621408
0.46892
-0.299511
0.469111
-0.297957
-0.00022333
0.509547
0.0842462
-2.1822e-05
0.509099
0.0837467
-0.000125684
0.50929
0.0840552
-1.93522e-05
0.509278
0.0839485
0.00057385
0.509148
0.083467
0.509405
0.0844888
-0.000305244
0.465879
0.369256
-3.16071e-05
0.465491
0.368868
-6.07689e-05
0.465835
0.368895
3.03242e-05
0.46542
0.369206
0.000237674
0.464694
0.369788
0.466083
0.368845
-0.000885233
0.624063
0.142545
-0.000483743
0.627786
0.137274
0.0015262
0.624177
0.139375
-4.14231e-05
0.62659
0.140572
-0.00298711
0.624223
0.143574
0.621553
0.141195
0.0270034
0.938519
-0.160419
-0.00156131
0.946274
-0.109334
-0.0288854
0.939517
-0.107235
-0.008369
0.94434
-0.157738
0.0255841
0.94032
-0.168674
0.94529
-0.11815
0.0179125
1.13976
-0.141878
-0.000945092
1.1664
-0.120727
-0.0218079
1.15864
-0.117712
-0.00575166
1.14652
-0.141372
0.0228404
1.12502
-0.139683
1.17428
-0.122671
-0.00216207
1.0126
0.0670712
-0.00337727
1.03841
0.0704108
-0.00550403
1.035
0.066705
-0.00427745
1.01677
0.0660828
-0.00187642
0.989787
0.0681694
1.05797
0.0575787
-0.00828869
0.607846
0.267065
-0.00087228
0.617042
0.269926
0.00089593
0.619168
0.26966
-0.00231608
0.607413
0.266539
-0.0139612
0.590409
0.265311
0.634271
0.265162
-0.0207824
0.262782
0.217954
0.00209157
0.244799
0.200843
0.0145842
0.250678
0.207679
-0.00120957
0.262469
0.21269
-0.047413
0.266652
0.223694
0.246039
0.189639
-0.0274556
0.220589
-0.0696468
0.0101502
0.164221
-0.106596
0.0379192
0.171829
-0.0974183
0.0148977
0.221984
-0.0758192
-0.0559518
0.262073
-0.057401
0.146708
-0.1097
0.00567346
-0.0166379
0.0080115
-0.0655238
0.0104251
-0.0591464
0.0151517
-0.0143602
0.0103864
0.0324429
-0.0675899
0.00142009
0.673648
-1.12696
-0.000271477
0.673925
-1.12363
-0.000470519
0.673575
-1.12494
-0.0003168
0.673924
-1.12586
-0.000848782
0.674416
-1.12565
0.67336
-1.12587
0.000482838
1.63275
-1.25834
-4.13272e-06
1.63278
-1.25721
-0.000243267
1.6321
-1.25679
0.000206317
1.6329
-1.25834
9.4006e-05
1.63481
-1.25979
1.63038
-1.25488
-0.00119209
2.27908
-0.560891
-0.00023841
2.27909
-0.56352
0.00255774
2.27962
-0.566264
0.000484997
2.27892
-0.559999
-0.00607476
2.27973
-0.554894
2.27896
-0.570168
-0.000483141
3.05607
-0.40725
-0.000117116
3.05527
-0.407668
0.000684874
3.05597
-0.408258
0.000606284
3.05602
-0.407812
-0.00543093
3.07794
-0.422384
3.03617
-0.393802
-0.0751776
3.57221
-0.298417
-0.00314498
3.72548
-0.604978
0.0891677
3.70528
-0.60224
0.0182767
3.61787
-0.35039
-0.135732
3.53739
-0.161872
3.82797
-0.786337
0.254583
1.71868
1.43852
-0.0265014
2.23123
1.666
-0.225301
2.14041
1.65643
-0.0144424
1.82902
1.42026
0.461928
1.54018
1.35217
2.58638
1.58537
0.126578
0.0986546
1.35157
-0.0144308
0.716022
1.53549
-0.123171
0.635091
1.49635
0.10318
0.152805
1.30849
0.422629
-0.217858
1.29891
1.2867
1.59965
-0.324763
-0.763188
1.25368
-0.0313108
-0.717965
1.21095
0.17846
-0.699293
1.19132
-0.0484862
-0.781375
1.22721
-0.524007
-0.928884
1.25472
-0.443524
1.26379
-0.0280462
-1.60031
1.13223
-0.000191004
-1.62198
1.14608
0.0170161
-1.61354
1.1667
-0.0240241
-1.60596
1.13216
-0.134493
-1.66164
1.10853
-1.54193
1.22907
-0.00269101
-1.62285
0.243183
0.003247
-1.64614
0.219071
0.00138313
-1.64206
0.238066
0.00406842
-1.62568
0.22973
-0.0219786
-1.64551
0.233615
-1.61504
0.240775
0.000842132
-0.581554
-1.11178
0.0131706
-0.641661
-1.12341
0.0105405
-0.626452
-1.1104
0.0172411
-0.587461
-1.12074
0.00135223
-0.556384
-1.13064
-0.630151
-1.09324
0.015353
-0.613545
0.00208124
-0.693914
-0.0089297
-0.674588
-0.00655964
-0.604192
0.0144684
-0.54497
-0.683273
0.000588255
0.479
-1.60655
9.07757e-05
0.483939
-1.60707
0.00145311
0.480509
-1.60681
0.000140217
0.481765
-1.60631
-0.003322
0.484415
-1.6066
0.47729
-1.60648
0.000939864
1.55701
-2.33729
0.000287448
1.57551
-2.34813
0.00206133
1.57302
-2.35108
-0.00180616
1.56599
-2.33869
-0.00828168
1.55877
-2.32768
1.56626
-2.35213
0.0412329
1.33053
-0.375651
-0.000233649
1.48634
-0.43288
-0.0136215
1.48861
-0.468474
-0.0218462
1.39563
-0.381422
0.0130489
1.25228
-0.283294
1.52449
-0.515356
0.331835
-0.643094
1.23453
0.0466231
0.0943199
1.26956
-0.260931
0.159381
1.22853
-0.0164472
-0.51189
1.25522
0.360195
-0.789745
1.24299
0.31757
1.17331
0.0244967
-2.71636
1.75035
0.0595018
-2.22427
1.67861
0.096241
-2.13591
1.65631
0.122769
-2.63692
1.74811
0.438014
-2.93373
1.66687
-1.45734
1.42658
-0.204208
-2.97305
1.89941
-0.0622429
-3.15902
2.45879
0.175149
-3.13798
2.42111
0.0178703
-2.99342
1.93404
-0.103903
-3.17202
1.71224
-2.52659
2.55073
0.00318762
-2.50193
0.87727
-0.0448235
-2.57452
0.999006
-0.067971
-2.5737
0.955223
-0.0915631
-2.50404
0.842709
-0.197429
-2.592
0.824755
-2.33467
1.2103
-0.0635073
-1.95609
0.771346
-0.0224331
-2.02543
0.620785
0.0271615
-2.02416
0.592191
-0.0369728
-1.95024
0.737546
-0.210538
-1.96859
0.804875
-1.96926
0.687839
-0.00199544
-2.054
1.23214
-0.0210793
-2.07799
1.21772
-0.0302989
-2.08321
1.23497
-0.0344501
-2.06267
1.24875
-0.0649708
-2.07735
1.24782
-2.06313
1.25797
0.00881292
-2.06975
0.250129
-0.0234414
-2.10436
0.277699
-0.0421812
-2.105
0.278591
-0.0239483
-2.09479
0.243612
0.0161644
-2.10022
0.216373
-2.11102
0.304829
0.0295445
-1.21492
-1.99616
-0.00634841
-1.23449
-1.95738
-0.0313609
-1.23314
-1.95725
-0.0157488
-1.23814
-1.993
0.0296701
-1.24421
-2.03207
-1.23878
-1.9358
0.0416094
-1.87008
-0.00393101
-1.88287
-0.0354931
-1.87616
-0.0161878
-1.86164
0.0439727
-1.84934
-1.87808
-0.30043
0.0254163
0.275014
-0.269758
-0.473233
0.44256
-0.203753
-0.397743
0.331738
-0.143837
-0.374086
0.31417
0.40834
-0.95702
0.404842
0.0686233
0.339716
0.0677373
-0.632918
0.590597
-0.269786
-1.24114
1.10543
0.0711853
-1.42683
0.688119
-0.167072
-1.12723
0.991401
-0.292653
-1.65865
0.827214
-0.662057
0.438028
-0.104763
-1.62943
1.10128
-0.19724
-2.42018
1.27152
-0.072467
-2.48628
0.93467
-0.251399
-2.13207
1.18377
-0.589293
-2.16931
0.848547
-1.75562
0.504266
-0.228765
-2.48335
1.08268
-0.0155139
-2.9765
0.343066
0.135655
-2.84389
0.206448
0.174571
-2.63995
0.468965
-0.199465
-2.45516
0.659894
-2.25026
0.295182
0.143719
-2.60205
-0.0250157
0.217553
-3.02322
-0.0271122
0.259818
-2.84047
-0.0456898
0.307476
-2.56973
-0.117878
0.160016
-2.5431
0.235396
-2.32776
0.237509
0.296716
-2.43418
-0.464582
0.47985
-2.87788
-0.328472
0.559894
-2.7729
-0.147614
0.253024
-2.64336
0.380502
0.236224
-2.59411
0.0678138
-2.89015
0.79862
0.303795
-2.36349
-0.374486
0.57633
-2.70768
-0.442736
0.536899
-2.8339
0.100435
0.0122481
-2.91884
0.800132
-0.0342754
-2.61842
0.0708263
-3.03706
0.112634
0.066431
-2.22226
-0.207668
0.255324
-2.43755
-0.459024
0.131363
-2.76558
0.0556412
0.0198577
-2.71703
-0.090309
-0.02796
-2.49315
-0.0774492
-2.67735
-0.387674
-0.0842371
-1.82739
-0.310633
-0.142594
-2.03495
-0.344241
-0.19253
-2.31554
-0.400111
-0.0114632
-2.15438
-0.743714
0.114584
-2.0685
-0.550698
-2.08778
-0.474984
0.023514
-1.33397
-0.516928
-0.325761
-1.72001
0.0343364
-0.54702
-1.79508
-0.299192
-0.242297
-1.54894
-0.91016
0.179586
-1.47979
-1.01059
-1.47845
-0.429747
0.156765
-0.614198
-0.876539
-0.27441
-1.12168
-0.167162
-0.912999
-1.10433
-0.0521677
-0.432741
-0.676969
-1.35223
0.222329
-0.48472
-1.65014
-0.749019
-0.507099
0.0465706
-0.660769
-0.293019
-0.782086
-0.727207
-0.67014
-0.36762
-1.03656
0.158653
-1.01099
-0.590365
-0.346781
0.171146
0.450648
-0.065268
-0.852918
1.01397
-0.240567
-0.196019
0.703056
-0.0984737
-0.928787
1.10086
0.446006
-1.30554
1.1659
0.369589
0.416133
0.8242
-0.965073
0.902616
0.0630832
-1.75606
2.76969
-0.102998
-1.23201
1.8902
-0.469847
-1.72235
2.15182
-0.744414
-2.13881
1.93505
-0.387437
0.45064
0.677053
-2.21727
1.67642
-0.00114347
-2.632
2.82565
-0.707501
-2.38989
2.7989
-1.0231
-2.67404
2.45106
-1.07948
-2.86278
1.62889
-1.6993
0.736658
0.108767
-1.60101
0.357651
-0.553196
-1.0391
-0.587873
-1.25999
-0.941661
-0.534981
-1.2421
-1.5612
-0.661768
-0.696808
-2.36969
-0.378486
-2.1198
0.0188709
-0.643009
0.50471
-1.48772
-1.61352
1.41754
-1.51323
-2.46735
1.25172
-1.38524
-2.37012
-0.226659
-1.54965
-1.22544
-1.95691
-1.32207
-2.4376
-0.670124
-1.17294
2.85522
-1.64215
-2.33944
3.50176
-1.24618
-2.71097
2.34394
-0.868311
-1.65163
-0.410232
-0.495271
-1.19326
-1.76618
-0.581289
-2.93815
0.105907
-0.737457
4.41712
-1.19893
-1.73257
4.96831
-0.914183
-1.01501
2.23606
-0.509243
-0.644916
0.169248
-0.149437
-0.39303
-1.27957
-0.667668
-2.90521
-0.313335
0.132403
4.19962
-0.122571
-0.0609099
4.77271
-0.0701049
-0.117654
2.11949
0.228961
-0.528132
1.22934
-0.739927
-0.121427
-0.203359
-1.56036
-2.18929
-1.22502
1.03146
2.15492
0.702618
2.28378
2.33362
0.842536
1.547
1.38515
1.07101
0.863578
0.805563
0.363489
1.06119
-0.417971
-0.533698
-1.0935
-0.509581
1.05415
-0.796631
1.38047
1.80943
-0.844821
2.45749
0.549354
-0.176307
2.52234
0.222666
-0.756796
0.978885
0.897597
-1.55208
-0.551408
-1.01355
0.387898
0.571032
-1.40222
-0.841984
-0.409509
-1.58935
1.55791
-1.02982
-1.15272
1.54457
-0.120877
-1.25283
-1.76514
0.397844
-1.20706
-2.51389
-0.995848
-0.12696
0.258931
-2.32192
-0.227393
-1.88512
-0.222213
-1.82805
-0.33626
-2.17534
-0.174675
-2.37964
-1.76089
-0.258777
0.704378
0.00504687
0.117505
0.140196
0.497488
0.0061296
0.446879
0.367551
0.0197169
-0.156726
1.244
0.17851
-0.19417
1.20128
0.657455
-0.0628121
0.457143
0.576773
0.573079
0.182507
0.704693
2.47983
0.244388
0.542821
1.73237
-0.014673
0.0742986
2.17985
-0.661508
0.604424
1.78329
0.905839
-0.459252
0.617434
0.450136
1.18562
0.0464726
0.659983
3.44132
-0.809435
0.655377
3.54225
-1.09717
0.305157
2.50794
-0.975583
1.0023
1.10942
1.12107
-0.454159
0.141567
0.887357
-0.221139
-0.257398
1.13076
-0.659686
-0.635175
1.09788
-0.599709
-0.890215
0.946261
-1.04783
-0.442637
1.24502
-1.06878
1.13564
-0.438338
-0.368979
1.13856
-1.36995
-0.278219
1.12991
-1.60315
-0.217631
1.08905
-1.437
-0.295036
0.758531
-1.28451
-0.168426
0.863119
-1.06678
0.898192
-0.601097
-0.200142
0.819497
-1.12295
-0.797895
1.32688
-0.845399
-1.03399
1.23829
-0.781455
-0.780543
0.742621
-0.732806
-0.51608
0.572088
-0.55472
0.411317
0.0767036
-0.758887
0.804646
-0.425197
-1.68739
1.65954
-0.318344
-2.02217
1.56706
-0.503234
-1.6198
0.695864
-0.505046
-0.958631
-0.210617
-0.546131
-0.715302
-0.145347
-1.09957
1.17383
0.607814
-1.47477
1.17562
0.789016
-0.728821
1.01656
0.0335133
-0.458908
0.198996
-0.512972
-0.434612
-0.632127
-1.16315
-1.54716
-0.827777
0.0806901
0.50986
1.2859
0.515727
0.0534628
1.52966
1.18673
0.172265
1.24431
1.33023
-0.190321
0.609298
0.567667
-0.293003
-0.110256
-1.02368
-0.465393
0.142035
0.453786
1.29451
0.0178205
0.344719
2.29045
0.214038
0.170268
2.32813
0.629293
-0.0297514
0.403064
1.0877
-0.767468
-0.535345
0.600729
-0.148811
-0.766704
0.134948
0.243559
-0.89065
-0.0741835
2.10075
-0.137608
-0.468095
1.42988
0.6113
-0.471148
-2.07266
0.898416
-0.978115
-2.59036
1.09031
0.281876
0.145837
-2.3328
0.674353
-2.48781
0.956599
-2.57839
0.375197
-2.06509
-1.17106
-1.81149
-1.84164
-0.072031
0.685464
-0.608386
0.0396708
0.554869
-0.169083
-0.0179788
0.570034
-0.144834
-0.0687325
0.680562
0.614193
-0.0160198
0.328766
0.819802
0.665412
-0.744244
0.0170028
1.17235
0.0691938
0.112185
1.24652
1.69299
0.325157
1.00997
1.07946
0.274591
0.987276
1.9237
-0.0390404
0.711664
1.71403
1.17184
-1.00472
-0.180068
1.49422
1.04382
-0.200004
1.70244
3.00534
-0.242355
1.54043
3.05414
0.271766
1.09576
1.88533
0.582814
0.707024
0.803016
1.2595
0.0409985
0.167494
1.08101
0.0245762
0.168608
1.15459
-0.112944
0.116232
1.02279
-0.0296856
-0.010989
0.763831
-0.588676
-0.114285
0.654745
-0.913205
1.10519
-0.398312
0.181482
0.171548
-0.641965
0.156547
0.302172
-0.725799
-0.102274
0.401733
-0.557121
-0.284319
0.166585
-0.505223
-0.316414
-0.0259539
-0.353991
0.29487
-0.107193
0.146319
-0.550091
-0.547632
-0.133901
-0.406349
0.143343
-0.506169
-0.119535
0.11208
-0.412646
-0.178541
-0.481203
-0.16372
-0.303361
-0.526236
-0.126029
0.333884
-0.178757
-0.962327
0.165796
-0.455367
-1.32703
0.878947
-0.642405
-1.26491
0.829184
-0.635786
-0.930832
0.240629
-0.211115
-0.626537
-0.647624
-0.756258
0.273766
-0.49811
-0.62152
0.765119
-0.00518878
-2.08998
1.05905
0.664414
-2.47368
0.572682
0.552722
-1.778
0.445889
0.126901
-0.922343
-0.441525
-1.14213
-0.315007
0.0445821
-0.515285
1.13508
0.242838
-1.61397
0.85539
0.544817
-1.82738
0.296026
0.901813
-1.60252
0.0768179
0.493022
-0.739192
0.115382
-0.995059
-0.119441
0.0992996
0.418768
0.261157
-0.212116
0.476226
0.511672
-0.593421
0.645053
0.236992
0.483475
-1.60462
-0.671728
0.996845
-1.38307
-0.40484
0.455484
-0.602508
-0.131069
0.466947
0.326453
0.910983
0.684252
0.850678
1.36801
0.957475
0.660432
0.572025
-1.15296
-1.72833
-0.286213
-1.41682
-1.69838
0.864063
-0.412915
0.030898
-1.89676
0.414377
-2.18704
1.11245
-2.31899
0.189075
-2.29468
-1.04291
-1.99633
-2.02048
-0.01178
-1.81353
0.218761
0.00289475
-1.83782
0.21607
0.00344734
-1.83234
0.224981
0.00505415
-1.82235
0.214438
0.0169773
-1.82142
0.202893
-1.8221
0.232597
-0.0856848
-1.12321
-0.604633
0.0237617
-1.28028
-0.666974
-0.0134352
-1.22682
-0.568325
0.00668633
-1.18595
-0.656522
0.132833
-1.18651
-0.761054
-1.21355
-0.47571
-0.13123
-1.97546
0.0184475
-2.25058
-0.036167
-2.0489
0.0219581
-2.15231
0.308127
-2.37053
-1.75714
0.00271513
-1.5735
-0.547737
0.00293061
-1.66019
-0.472086
-0.00974598
-1.66635
-0.447071
-0.0147042
-1.59423
-0.525065
0.00851876
-1.5423
-0.605708
-1.68125
-0.429765
0.0604049
0.741422
-2.97996
0.0243709
0.606459
-2.89759
-0.0789899
0.623161
-2.75447
-0.0372532
0.716377
-3.00887
0.0991049
0.758864
-3.19858
0.584376
-2.64223
0.0556107
-4.10119
0.0427096
-4.25163
-0.00391486
-4.06519
0.0115093
-4.22984
0.0797043
-4.48284
-3.73821
0.0664344
1.38222
-2.37205
-0.00111183
1.33885
-2.17627
-0.0553461
1.23315
-2.09446
-0.0586625
1.42047
-2.32364
0.129124
1.51964
-2.59643
1.15991
-1.9759
0.168392
2.88415
-4.65028
0.0337039
3.03102
-4.45507
-0.0269617
2.87674
-4.33739
0.00883573
3.01847
-4.64267
0.116161
3.05169
-4.83795
2.80012
-4.16628
0.138135
-4.30295
0.0716456
-4.34416
0.120283
-4.27139
0.0643137
-4.36448
-0.1613
-4.52232
-4.05504
0.250658
2.56999
-3.95816
0.0562142
2.9233
-3.63556
-0.182957
2.89646
-3.52322
0.00120299
2.66376
-3.91632
0.422119
2.49706
-4.27141
2.82736
-3.20783
-0.0260946
2.92174
-4.97594
-0.0482019
3.46529
-4.97496
-0.001013
3.49057
-4.97869
0.030573
2.98537
-4.99586
0.118252
2.65038
-5.07896
3.55204
-4.77271
-0.139594
-4.03673
-0.0473399
-4.17694
0.185126
-4.18742
0.070829
-4.04621
-0.237259
-4.04536
-4.11944
0.157907
2.01742
-4.38313
0.0521684
2.49758
-4.3488
-0.0359122
2.52769
-4.30652
0.117651
2.05536
-4.37713
0.361735
1.71388
-4.56251
2.56551
-3.98502
-0.0359328
1.25906
-4.18166
-0.0423725
1.80252
-4.27344
-0.0138037
1.86987
-4.34944
0.000366798
1.17874
-4.13342
0.0271811
0.725246
-4.11714
2.06216
-4.24217
-0.153688
-2.88894
-0.135462
-3.05317
-0.0538861
-3.06052
-0.123616
-2.8077
-0.0687509
-2.66425
-3.11031
-0.149207
0.560422
-2.89493
-0.00080472
0.975628
-3.01404
0.12498
1.01115
-3.02234
0.0164341
0.549288
-2.88383
-0.142232
0.244852
-2.93646
1.28024
-2.85677
-0.0825891
-1.52923
-2.00942
-0.00977384
-1.3343
-2.03633
0.0234509
-1.29184
-2.07966
-0.0371061
-1.55329
-1.97028
-0.186123
-1.76315
-1.96012
-1.05895
-2.08911
-0.00708433
-1.09853
-0.0360997
-1.13043
-0.0455691
-1.12349
-0.0368716
-1.08192
-0.0468897
-1.03744
-1.17965
-0.0640218
-0.435724
-1.51791
-0.0162744
-0.495479
-1.5673
0.0125391
-0.532592
-1.56333
-0.0782658
-0.45092
-1.4994
-0.226066
-0.459469
-1.50443
-0.308274
-1.56426
0.00485439
-1.38084
-1.06916
-0.0076634
-1.48206
-1.03723
-0.089096
-1.49688
-1.03395
-0.0715022
-1.38037
-1.05842
-0.0521522
-1.36706
-1.07188
-1.43158
-1.01796
0.0419287
-0.721249
-0.00554697
-0.709607
-0.0697017
-0.705992
-0.0224408
-0.718507
0.056452
-0.722487
-0.691327
0.0516507
0.0520522
-0.85027
-0.0203209
-0.0767803
-0.797764
-0.105244
-0.0894049
-0.796813
-0.0584285
0.0328237
-0.841489
0.0192441
0.0739296
-0.851157
-0.0541574
-0.803018
0.0290738
-0.455222
-0.590957
-0.00283099
-0.500816
-0.581286
-0.051592
-0.495531
-0.579059
-0.0225111
-0.462376
-0.592303
0.0251777
-0.450367
-0.595273
-0.497619
-0.549317
0.0077324
-0.475412
-0.00329913
-0.47938
-0.0102212
-0.478776
-0.00296439
-0.474541
0.00492555
-0.471446
-0.476639
-0.0323338
1.03405
-0.619842
-0.0260634
1.02454
-0.610843
0.00196065
1.02908
-0.618947
-0.0112328
1.0545
-0.634042
-0.0375528
1.06047
-0.637488
1.02458
-0.607179
-0.0137327
0.215136
0.241688
-0.0132433
0.205364
0.237398
-0.00776975
0.207253
0.237294
-0.0113136
0.225097
0.240642
-0.0204466
0.229083
0.245246
0.211267
0.24355
0.00293312
-0.117909
-0.00472292
-0.120497
-0.0124838
-0.120064
-0.00465835
-0.118086
0.00760472
-0.116774
-0.122492
-0.00744142
0.375753
-0.738023
-0.0129646
0.409082
-0.736702
-0.00655928
0.404767
-0.751529
-0.0166442
0.377512
-0.757858
-0.0250931
0.351891
-0.764558
0.432029
-0.759474
-0.0147941
-0.177832
0.810067
0.00425669
-0.174276
0.801703
0.0174123
-0.174271
0.803176
0.000791289
-0.175477
0.810252
-0.0359458
-0.186567
0.820442
-0.159741
0.799374
-0.000562759
0.265158
-0.00244728
0.265295
-0.0023452
0.265441
-0.00183066
0.265686
-0.00451823
0.265193
0.266704
-0.00372139
-1.18342
-1.54704
-0.00207561
-1.1658
-1.52993
0.00196659
-1.16639
-1.54643
-0.00204279
-1.17618
-1.57067
-0.0123324
-1.18564
-1.6007
-1.15695
-1.55067
-0.0101031
-0.973637
0.610385
0.00222158
-0.976261
0.599836
0.00960699
-0.974209
0.603607
0.00338378
-0.972611
0.612903
-0.0124449
-0.973782
0.624413
-0.97022
0.600204
0.000858581
0.483492
-0.00202881
0.483188
-0.00274754
0.484325
-0.00203306
0.484669
-0.0009965
0.485235
0.486164
0.0183945
-1.96219
-1.47332
-0.00725097
-1.8999
-1.48725
-0.0218158
-1.9256
-1.48243
-0.00902191
-1.96083
-1.48427
0.0294786
-2.00583
-1.48272
-1.91166
-1.48761
-0.0147823
-1.28686
-0.0501603
0.00833463
-1.2702
-0.0529755
0.0207522
-1.28076
-0.0536468
0.0115711
-1.29152
-0.0472247
-0.0171613
-1.30829
-0.044389
-1.27276
-0.0558575
-0.010417
0.0931161
0.00383166
0.0983739
0.0112932
0.0971704
0.00499957
0.0964292
-0.0153224
0.0935817
0.100279
-0.00671961
-0.791319
-0.596716
1.39475
-0.000156883
-0.735351
-0.605707
1.3345
0.0147187
-0.737214
-0.61735
1.33969
0.0159598
-0.796475
-0.625379
1.42061
-0.00219836
-0.884365
-0.63137
1.53389
-0.817294
-0.611833
1.42693
-0.0441958
-0.628989
-0.307056
0.188921
-0.0288754
-0.599659
-0.295461
0.144449
-0.012964
-0.601693
-0.278854
0.127421
-0.019953
-0.642024
-0.257893
0.110432
-0.0160474
-0.710559
-0.208673
0.0309612
-0.643877
-0.235914
0.0464495
0.00877199
-0.309311
-0.0487178
0.0327148
-0.326248
-0.0224853
0.0628328
-0.325722
-0.0329768
0.0571067
-0.320016
-0.0437488
0.00964507
-0.298549
-0.0840494
-0.330548
-0.0369123
-0.00326963
-0.412694
-0.180753
-0.0135852
-0.415621
-0.179771
-0.0208341
-0.435805
-0.174296
-0.0142408
-0.465879
-0.166094
0.00866048
-0.490154
-0.164117
-0.433149
-0.170024
-0.000832393
-0.520138
-0.198778
-0.0101869
-0.523609
-0.178116
-0.0259747
-0.533916
-0.164954
-0.0357267
-0.549299
-0.16472
-0.0120542
-0.563041
-0.159458
-0.521645
-0.159472
0.0116532
-0.194629
0.0157118
-0.196941
0.0128288
-0.200518
0.00328564
-0.211405
-0.0031425
-0.216767
-0.212405
-0.00525851
-0.171278
-0.00421596
-0.00518136
-0.175533
-0.00431454
-0.000843527
-0.175357
-0.00327644
0.000496028
-0.167453
1.97554e-05
-0.000506072
-0.167212
0.00409716
-0.169201
-0.00132873
-0.0200611
-0.304108
-0.045886
-0.0222018
-0.306528
-0.0449795
-0.0144341
-0.304131
-0.0439461
-0.00804832
-0.298793
-0.0397639
-0.00257026
-0.297881
-0.0342656
-0.297565
-0.0336763
0.0057884
0.000856945
0.00836509
-0.00142719
0.00924424
-0.00383349
0.00769219
-0.00580815
0.00254228
-0.00604025
-0.00558859
-0.00203751
-0.187132
0.184954
-0.00372402
-0.188858
0.18623
-0.00491402
-0.18938
0.187294
-0.00304677
-0.189926
0.188078
0.000145344
-0.187452
0.188357
-0.188108
0.186925
-0.00182801
-0.343425
0.112236
-0.00425587
-0.345884
0.114477
-0.007513
-0.345885
0.115818
-0.00697602
-0.34593
0.115706
-0.00126803
-0.344256
0.116834
-0.342656
0.119605
0.00342598
0.215285
0.00506701
0.2146
0.00442896
0.213919
0.00169481
0.213961
0.000155239
0.214392
0.213461
-0.00190338
-0.431222
0.61808
-0.00385721
-0.434787
0.62297
-0.00501871
-0.434748
0.623203
-0.00284207
-0.439909
0.62581
2.65889e-05
-0.440638
0.626127
-0.43887
0.625821
-0.00157136
-0.491099
0.173685
-0.000975128
-0.494264
0.173361
-0.000536856
-0.493836
0.17447
-0.000623015
-0.497281
0.173167
-7.72597e-05
-0.498339
0.173992
-0.495263
0.175922
0.00225254
0.312213
0.00427204
0.309636
0.00536722
0.309463
0.00287935
0.308907
-0.000628553
0.310225
0.307402
0.00092335
-0.856167
-0.00065872
-0.862694
-0.000430229
-0.859452
-0.000670048
-0.858221
-0.000748955
-0.856514
-0.862542
0.00208807
-0.734728
-0.00155517
-0.738663
-0.00434101
-0.735841
-0.0015248
-0.735092
0.00625095
-0.734685
-0.736226
0.00233925
0.00309276
0.00428933
0.00284495
-0.000734815
-0.0305432
-0.807959
0.230116
-0.136717
-0.320201
0.257292
-0.223752
-0.293387
0.235587
-0.0951713
0.22097
0.264643
0.0163769
0.506566
0.201688
-0.890334
0.162467
-0.959338
1.32977
-1.1784
0.517397
-2.15006
0.353124
0.0137991
1.2623
-1.05208
-0.611301
1.24135
-0.395284
0.592211
-0.812556
0.11561
1.52027
-1.81839
-1.11953
-2.27311
0.745608
0.106168
-0.0523866
-2.05404
-0.956421
-1.55655
1.19539
-0.315969
-2.41065
-0.0169699
-0.622413
0.938693
0.00919063
1.21671
0.707417
0.224681
0.677562
0.422
0.151091
1.83315
0.428787
-0.110528
1.78005
0.397286
-0.950365
-0.00241821
0.238007
-0.761607
-1.27721
-0.00750709
2.08037
-0.265028
0.127474
1.01597
-1.52548
0.218896
2.14833
-0.801889
-0.384459
2.09375
0.405264
-1.07006
-2.08315
0.639814
-2.30435
-0.280392
-1.19494
0.00323438
-2.16203
-0.0268916
-1.77809
-0.519654
-0.850999
-2.09046
-0.801737
1.96043
0.823818
-0.0548122
2.0663
0.899531
0.98737
1.82091
0.61304
1.80382
1.29341
0.204256
1.61111
1.51671
-0.12369
1.62476
0.0249211
-0.863744
1.67428
-0.127317
0.317859
0.840208
-0.220537
0.872279
0.271173
-0.530155
1.34563
0.61287
-0.594705
1.54062
1.93635
-0.209363
1.4578
-0.375573
-0.73177
-0.795019
0.141224
-1.081
-0.0172857
-0.875838
0.16041
-1.11294
0.712715
-0.887632
-0.765936
0.268156
0.217697
0.36254
0.733428
-0.0650885
0.386404
1.11406
-0.153507
0.356228
0.809357
-0.289776
0.210061
0.150656
-0.379621
0.00142499
-0.315847
0.0931112
0.380056
-0.355788
0.066113
0.447708
-0.509293
0.156015
0.166794
-0.522731
0.119983
-0.153331
-0.631497
0.0671384
-0.0429452
-0.713284
0.013913
-0.652482
-0.0818842
0.210191
-0.543923
0.074155
-0.496868
0.085491
-0.527038
-0.113105
-0.552778
-0.112954
-0.556026
-0.603594
-0.0588809
0.0331735
-0.253716
0.00944421
0.000670316
-0.40839
0.12427
-0.0215371
-0.294183
0.0250663
0.0397212
-0.235683
-0.11752
0.032593
-0.242573
0.138741
-0.270343
-0.0540333
0.450444
-0.297125
0.0817201
0.443491
-0.42256
0.191544
0.437541
-0.448922
0.201234
0.442837
-0.345669
0.0888216
0.419448
-0.260531
0.424692
-0.279015
-0.0340112
-0.376938
-0.00957376
-0.414372
0.0196139
-0.434523
0.0405705
-0.43637
0.0393607
-0.40128
-0.401171
-0.154589
-0.131439
-0.515319
0.150667
0.296234
-0.866538
0.374495
0.317649
-0.723583
0.140197
-0.101817
-0.380771
-0.28706
-0.234629
-0.106924
0.0399706
-0.26349
-0.187747
0.0895136
-0.330332
0.127915
0.218744
-0.660736
0.462592
0.242653
-0.708606
0.338861
0.0791312
-0.402887
0.021138
0.0265755
-0.204013
0.0516503
-0.269557
-0.0316447
-0.185258
0.00882041
-0.232102
0.0795004
-0.267279
0.0410524
-0.214128
0.0138708
-0.195033
-0.190328
0.0244218
0.368942
-0.742887
0.11114
1.45331
-1.52762
0.237134
1.62568
-1.64607
0.414174
0.746796
-1.06398
0.0691795
-0.0426237
-0.366929
0.476799
-0.397344
-0.298829
0.509997
-0.172561
0.162729
0.963322
-0.632311
0.717309
1.16059
-0.798099
0.797039
0.663947
-0.399768
0.171343
0.432745
-0.0536854
0.415007
-0.0364234
-0.118943
-0.194147
-0.00421804
-0.219433
0.17568
-0.256155
0.164123
-0.213415
0.0648726
-0.212555
-0.217618
0.110403
0.834607
-0.922777
0.513712
1.43213
-2.304
0.698663
1.34976
-2.6081
0.770936
1.04781
-1.73817
0.10793
0.30726
-0.452709
0.136671
-0.74109
0.184034
0.334923
0.143087
0.481012
0.732826
-0.229986
0.520878
0.9078
-0.396002
0.632075
0.575936
-0.0390902
0.375419
0.224166
0.286065
0.149825
0.325842
-0.0563935
-0.109646
0.0351014
-0.0566208
0.0941151
-0.065969
0.157107
-0.0784002
0.0978086
-0.126912
-0.125239
0.669826
1.17717
-1.63469
1.15916
1.03005
-2.968
1.0886
0.72806
-2.96958
0.782616
0.658334
-2.01371
-0.0774941
0.734251
-0.211467
0.683705
-1.62173
0.558639
0.467974
0.293647
0.635937
0.501894
0.220877
0.196993
0.419861
0.351143
-0.0271575
0.334799
0.508596
-0.0198681
0.286954
0.726075
0.314652
0.675026
0.0061842
0.0573629
0.0833318
0.0991007
0.135119
0.0954011
0.134118
0.0834132
0.0601084
0.0438241
0.0588977
0.689348
0.535942
-2.59882
0.917484
0.358952
-3.04341
0.776826
0.112198
-2.70413
-0.0283222
0.114595
-1.99488
-0.0844143
0.427822
-0.988038
0.119437
-2.42809
0.296307
0.0733214
0.45996
0.211002
0.0510218
0.614111
-0.0983142
-0.0444922
0.817148
-0.25811
-0.134773
0.917759
0.0528634
-0.148808
0.99173
-0.115663
0.962989
0.015146
0.486083
0.0782788
0.490331
0.127328
0.456184
0.0927506
0.441142
0.0332295
0.404774
0.440254
0.221504
0.0851627
-2.57904
0.479873
-0.0555708
-2.39554
0.753334
-0.204655
-2.1125
-0.257303
-0.689932
-2.02265
-0.219781
-0.565047
-2.15889
-0.564282
-2.49651
0.0626739
-0.323492
0.80594
-0.00501336
-0.334874
0.961102
-0.0256285
-0.405534
1.03864
-0.108896
-0.728096
1.03919
0.0431708
-0.751437
1.02605
-0.63064
1.07252
0.0603696
0.957054
0.189688
0.935787
0.285447
0.895406
0.165642
0.832415
0.0255928
0.78419
0.823442
0.0267287
-3.10777
-0.0403475
-3.18101
-0.134097
-2.99805
-0.0850742
-2.94574
-0.0345159
-2.67188
-3.12458
-0.0764767
-2.03644
-0.198254
-1.95368
-0.225768
-1.80447
-0.179964
-1.84192
0.0621595
-1.85699
-1.94345
-0.0309437
-0.0566252
-0.0224223
0.0102311
0.0996817
)
;

boundaryField
{
    seabed_topleft_surface
    {
        type            calculated;
        value           uniform 0;
    }
    seabed_topright_surface
    {
        type            calculated;
        value           uniform 0;
    }
    breakwater_top_surface
    {
        type            calculated;
        value           uniform 0;
    }
    breakwater_left_surface
    {
        type            calculated;
        value           uniform 0;
    }
    breakwater_right_surface
    {
        type            calculated;
        value           uniform 0;
    }
    water_front_surface
    {
        type            calculated;
        value           uniform 0;
    }
    water_back_surface
    {
        type            calculated;
        value           uniform 0;
    }
    water_left_surface
    {
        type            calculated;
        value           uniform 0;
    }
    water_right_surface
    {
        type            calculated;
        value           uniform 0;
    }
    water_top_surface
    {
        type            calculated;
        value           nonuniform List<scalar> 
180
(
0.983477
0.82061
0.876694
0.908226
0.897843
0.851714
2.81154
2.62042
2.68608
2.77849
2.80299
2.64515
2.94777
3.19004
3.0343