/*--------------------------------*- C++ -*----------------------------------*\
| =========                 |                                                 |
| \\      /  F ield         | OpenFOAM: The Open Source CFD Toolbox           |
|  \\    /   O peration     | Version:  v1612+                                |
|   \\  /    A nd           | Web:      www.OpenFOAM.com                      |
|    \\/     M anipulation  |                                                 |
\*---------------------------------------------------------------------------*/
FoamFile
{
    version     2.0;
    format      ascii;
    class       volScalarField;
    location    "0.55";
    object      p;
}
// * * * * * * * * * * * * * * * * * * * * * * * * * * * * * * * * * * * * * //

dimensions      [1 -1 -2 0 0 0 0];

internalField   nonuniform List<scalar> 
1116
(
11663.7
11663.7
11663.7
11663.7
11663.7
11663.7
10742
10742
10742
10742
10741.9
10741.9
9219.7
9219.7
9219.69
9219.68
9219.68
9219.68
907.648
907.651
907.65
907.648
907.647
907.648
71.4545
71.4614
71.4584
71.4585
71.459
71.4598
2.48625
2.48677
2.48631
2.48709
2.48748
2.48762
-3.33417
-3.33508
-3.33497
-3.33534
-3.33601
-3.33646
-9.28979
-9.28761
-9.28868
-9.29057
-9.29212
-9.29258
-10.7637
-10.7636
-10.7634
-10.7624
-10.7615
-10.7611
-11.2778
-11.279
-11.2791
-11.2791
-11.279
-11.2789
-11.3058
-11.3058
-11.3053
-11.3051
-11.305
-11.3049
-11.1595
-11.1591
-11.1589
-11.1589
-11.1589
-11.1589
2893.25
2893.25
2893.24
2893.24
2893.24
2893.24
2720.74
2720.73
2720.72
2720.71
2720.71
2720.71
2480.54
2480.54
2480.53
2480.52
2480.52
2480.52
-369.586
-369.582
-369.587
-369.587
-369.586
-369.586
-52.2043
-52.2018
-52.2028
-52.2019
-52.2015
-52.2023
-23.8639
-23.8638
-23.8633
-23.8634
-23.864
-23.8642
-24.3736
-24.3733
-24.3728
-24.3733
-24.3742
-24.3746
-23.2685
-23.2677
-23.2681
-23.2687
-23.2691
-23.2694
-22.4466
-22.4476
-22.448
-22.4482
-22.4483
-22.4482
-21.8092
-21.8098
-21.8097
-21.8097
-21.8097
-21.8096
-21.2232
-21.223
-21.223
-21.2232
-21.2234
-21.2235
-20.827
-20.8266
-20.8266
-20.8267
-20.827
-20.8271
-5668.89
-5668.89
-5668.89
-5668.89
-5668.89
-5668.9
-4827.63
-4827.63
-4827.63
-4827.62
-4827.62
-4827.62
-3211.35
-3211.35
-3211.35
-3211.34
-3211.34
-3211.34
-498.757
-498.756
-498.756
-498.755
-498.754
-498.754
-66.1811
-66.1801
-66.1799
-66.1802
-66.1805
-66.1804
-44.6344
-44.6345
-44.6335
-44.6335
-44.634
-44.634
-39.0925
-39.0921
-39.0925
-39.093
-39.0935
-39.0936
-35.4946
-35.4945
-35.4952
-35.4956
-35.4958
-35.4959
-33.2618
-33.2626
-33.2628
-33.263
-33.263
-33.2629
-31.7795
-31.7794
-31.7792
-31.779
-31.7789
-31.7787
-30.7608
-30.7603
-30.7601
-30.7601
-30.7602
-30.7601
-30.1422
-30.1421
-30.1423
-30.1425
-30.1427
-30.1428
-14890.8
-14890.8
-14890.8
-14890.8
-14890.8
-14890.8
-13015.6
-13015.6
-13015.6
-13015.6
-13015.6
-13015.6
-9134.92
-9134.91
-9134.91
-9134.9
-9134.9
-9134.9
-533.651
-533.649
-533.648
-533.649
-533.648
-533.647
-60.9695
-60.9692
-60.9689
-60.9694
-60.9701
-60.9703
-56.8071
-56.8072
-56.8075
-56.8079
-56.8082
-56.8081
-50.3459
-50.3452
-50.3456
-50.3459
-50.3459
-50.346
-46.0639
-46.0643
-46.0646
-46.0647
-46.0645
-46.0645
-43.0905
-43.0908
-43.0907
-43.0904
-43.0901
-43.0899
-41.1013
-41.1009
-41.1006
-41.1003
-41.1
-41.0998
-39.8003
-39.8001
-39.8001
-39.8001
-39.8001
-39.8001
-39.0125
-39.0127
-39.013
-39.0132
-39.0133
-39.0134
-4.93958
-4.93958
-4.93958
-4.93958
-4.93957
-4.93958
-4.94045
-4.94045
-4.94045
-4.94045
-4.94045
-4.94045
-4.94223
-4.94223
-4.94223
-4.94223
-4.94223
-4.94223
-4.94499
-4.94499
-4.94499
-4.94499
-4.94499
-4.94499
-4.94882
-4.94881
-4.94881
-4.94881
-4.94881
-4.94881
-4.95381
-4.95381
-4.95381
-4.95381
-4.95381
-4.95381
-4.96006
-4.96006
-4.96006
-4.96006
-4.96006
-4.96006
-4.96757
-4.96757
-4.96757
-4.96757
-4.96758
-4.96758
-4.97619
-4.9762
-4.9762
-4.97621
-4.97621
-4.97621
-4.98551
-4.98552
-4.98552
-4.98553
-4.98553
-4.98553
-4.99458
-4.99459
-4.9946
-4.9946
-4.9946
-4.9946
-5.00205
-5.00206
-5.00206
-5.00207
-5.00207
-5.00206
-14.7484
-14.7484
-14.7484
-14.7484
-14.7484
-14.7484
-14.7493
-14.7493
-14.7493
-14.7493
-14.7493
-14.7493
-14.7511
-14.7511
-14.7511
-14.7511
-14.7511
-14.7511
-14.7539
-14.7538
-14.7538
-14.7538
-14.7539
-14.7539
-14.7578
-14.7578
-14.7578
-14.7578
-14.7578
-14.7578
-14.7629
-14.7629
-14.7629
-14.7629
-14.7629
-14.7629
-14.7695
-14.7695
-14.7695
-14.7695
-14.7695
-14.7695
-14.7775
-14.7775
-14.7775
-14.7775
-14.7775
-14.7775
-14.787
-14.787
-14.787
-14.787
-14.787
-14.787
-14.7976
-14.7976
-14.7976
-14.7976
-14.7977
-14.7977
-14.8087
-14.8087
-14.8087
-14.8087
-14.8087
-14.8087
-14.8189
-14.8189
-14.8189
-14.8189
-14.8189
-14.8189
-24.5564
-24.5564
-24.5564
-24.5564
-24.5564
-24.5564
-24.5572
-24.5572
-24.5572
-24.5572
-24.5572
-24.5572
-24.559
-24.559
-24.559
-24.559
-24.559
-24.559
-24.5617
-24.5617
-24.5617
-24.5617
-24.5617
-24.5617
-24.5656
-24.5656
-24.5656
-24.5656
-24.5656
-24.5656
-24.5708
-24.5708
-24.5708
-24.5708
-24.5708
-24.5708
-24.5776
-24.5776
-24.5776
-24.5776
-24.5776
-24.5776
-24.5864
-24.5864
-24.5864
-24.5864
-24.5864
-24.5864
-24.5974
-24.5974
-24.5974
-24.5974
-24.5974
-24.5974
-24.611
-24.611
-24.6111
-24.6111
-24.6111
-24.6111
-24.6262
-24.6262
-24.6263
-24.6262
-24.6262
-24.6262
-24.6433
-24.6433
-24.6433
-24.6433
-24.6433
-24.6433
-34.3636
-34.3636
-34.3636
-34.3636
-34.3636
-34.3636
-34.3644
-34.3644
-34.3644
-34.3644
-34.3644
-34.3644
-34.366
-34.366
-34.366
-34.366
-34.366
-34.366
-34.3685
-34.3685
-34.3685
-34.3685
-34.3685
-34.3685
-34.3721
-34.3721
-34.3721
-34.3721
-34.3721
-34.3721
-34.3772
-34.3772
-34.3772
-34.3772
-34.3772
-34.3772
-34.3842
-34.3842
-34.3842
-34.3842
-34.3842
-34.3842
-34.3935
-34.3935
-34.3935
-34.3936
-34.3936
-34.3936
-34.4059
-34.4059
-34.4059
-34.4059
-34.4059
-34.4059
-34.4214
-34.4214
-34.4214
-34.4214
-34.4214
-34.4214
-34.4417
-34.4417
-34.4417
-34.4417
-34.4417
-34.4416
-34.4683
-34.4683
-34.4683
-34.4683
-34.4683
-34.4683
-25767
-25767
-25767
-25767
-25767
-25767
-39524.5
-39524.5
-39524.5
-39524.5
-39524.5
-39524.5
-56094.9
-56094.9
-56094.9
-56094.9
-56094.9
-56094.9
-22685
-22685
-22684.9
-22684.9
-22684.9
-22684.9
-35963.3
-35963.3
-35963.3
-35963.3
-35963.3
-35963.3
-51553.5
-51553.5
-51553.5
-51553.5
-51553.5
-51553.5
-16687.6
-16687.6
-16687.6
-16687.6
-16687.6
-16687.6
-29652.9
-29652.9
-29652.9
-29652.9
-29652.9
-29652.9
-43354.8
-43354.8
-43354.8
-43354.8
-43354.8
-43354.8
-99.579
-99.5797
-99.5797
-99.5798
-99.5801
-99.5805
-233.852
-233.852
-233.853
-233.853
-233.853
-233.853
-343.793
-343.791
-343.791
-343.791
-343.791
-343.792
-72.7833
-72.7839
-72.7838
-72.7837
-72.7837
-72.7838
-87.4981
-87.4983
-87.4985
-87.4984
-87.4983
-87.4982
-105.086
-105.085
-105.085
-105.085
-105.085
-105.085
-71.1007
-71.1009
-71.1013
-71.1015
-71.1014
-71.1013
-86.1843
-86.184
-86.184
-86.1838
-86.1838
-86.1837
-102.429
-102.429
-102.429
-102.429
-102.428
-102.428
-61.1785
-61.1786
-61.1787
-61.1785
-61.1784
-61.1783
-69.9123
-69.9125
-69.9122
-69.9118
-69.9116
-69.9115
-77.1232
-77.1231
-77.123
-77.1228
-77.1227
-77.1226
-55.6494
-55.6499
-55.6498
-55.6495
-55.6493
-55.6492
-63.8163
-63.8162
-63.8158
-63.8155
-63.8153
-63.8153
-70.4586
-70.4584
-70.4582
-70.458
-70.458
-70.458
-52.0788
-52.0787
-52.0784
-52.078
-52.0778
-52.0777
-60.1811
-60.1806
-60.1803
-60.18
-60.1799
-60.18
-67.0408
-67.0406
-67.0405
-67.0404
-67.0404
-67.0405
-49.8333
-49.833
-49.8328
-49.8326
-49.8325
-49.8326
-58.0809
-58.0806
-58.0805
-58.0805
-58.0806
-58.0807
-65.6008
-65.6007
-65.6007
-65.6007
-65.6008
-65.601
-48.3654
-48.3654
-48.3655
-48.3655
-48.3656
-48.3657
-56.8125
-56.8125
-56.8125
-56.8126
-56.8127
-56.8129
-64.9001
-64.9001
-64.9002
-64.9002
-64.9003
-64.9004
-47.2958
-47.296
-47.2961
-47.2962
-47.2962
-47.2962
-55.9553
-55.9553
-55.9554
-55.9554
-55.9555
-55.9555
-64.5018
-64.5018
-64.5018
-64.5018
-64.5018
-64.5018
-44.4901
-44.49
-44.4899
-44.4899
-44.4899
-44.4899
-54.208
-54.2079
-54.2079
-54.2078
-54.2078
-54.2078
-63.8654
-63.8653
-63.8653
-63.8653
-63.8653
-63.8653
-44.6369
-44.6368
-44.6367
-44.6367
-44.6367
-44.6368
-54.3133
-54.3132
-54.3132
-54.3132
-54.3132
-54.3132
-63.9056
-63.9056
-63.9056
-63.9056
-63.9056
-63.9056
-44.841
-44.841
-44.8409
-44.8409
-44.841
-44.841
-54.4576
-54.4575
-54.4575
-54.4575
-54.4576
-54.4576
-63.9606
-63.9605
-63.9605
-63.9606
-63.9606
-63.9606
-45.127
-45.1271
-45.1271
-45.1271
-45.1271
-45.1271
-54.6554
-54.6554
-54.6554
-54.6554
-54.6555
-54.6555
-64.0352
-64.0352
-64.0352
-64.0352
-64.0352
-64.0353
-45.5304
-45.5305
-45.5305
-45.5305
-45.5305
-45.5305
-54.9255
-54.9255
-54.9255
-54.9255
-54.9255
-54.9255
-64.1358
-64.1358
-64.1358
-64.1358
-64.1358
-64.1358
-46.0921
-46.0921
-46.0921
-46.0921
-46.0921
-46.092
-55.2908
-55.2908
-55.2908
-55.2907
-55.2907
-55.2907
-64.27
-64.27
-64.27
-64.27
-64.27
-64.27
-44.1547
-44.1547
-44.1547
-44.1547
-44.1547
-44.1547
-53.961
-53.961
-53.961
-53.961
-53.961
-53.961
-63.7671
-63.7671
-63.7671
-63.7671
-63.7671
-63.7671
-44.1553
-44.1553
-44.1553
-44.1553
-44.1553
-44.1553
-53.9614
-53.9614
-53.9614
-53.9614
-53.9614
-53.9614
-63.7672
-63.7672
-63.7672
-63.7672
-63.7672
-63.7672
-44.1565
-44.1565
-44.1565
-44.1565
-44.1565
-44.1565
-53.9622
-53.9622
-53.9622
-53.9622
-53.9622
-53.9622
-63.7675
-63.7675
-63.7675
-63.7675
-63.7675
-63.7675
-44.1586
-44.1586
-44.1586
-44.1586
-44.1586
-44.1586
-53.9636
-53.9636
-53.9636
-53.9636
-53.9636
-53.9636
-63.768
-63.768
-63.768
-63.768
-63.768
-63.768
-44.1616
-44.1616
-44.1616
-44.1616
-44.1616
-44.1616
-53.9656
-53.9656
-53.9656
-53.9656
-53.9656
-53.9656
-63.7688
-63.7688
-63.7688
-63.7688
-63.7688
-63.7688
-44.166
-44.166
-44.166
-44.166
-44.166
-44.166
-53.9686
-53.9686
-53.9686
-53.9686
-53.9686
-53.9686
-63.7699
-63.7699
-63.7699
-63.7699
-63.7699
-63.7699
-44.1724
-44.1724
-44.1724
-44.1724
-44.1724
-44.1724
-53.9732
-53.9732
-53.9732
-53.9732
-53.9732
-53.9732
-63.7717
-63.7717
-63.7717
-63.7717
-63.7717
-63.7717
-44.182
-44.182
-44.182
-44.182
-44.182
-44.182
-53.9803
-53.9803
-53.9803
-53.9803
-53.9803
-53.9803
-63.7746
-63.7746
-63.7746
-63.7746
-63.7746
-63.7746
-44.1971
-44.1971
-44.1971
-44.1971
-44.1971
-44.1971
-53.9918
-53.9918
-53.9918
-53.9918
-53.9918
-53.9918
-63.7793
-63.7793
-63.7793
-63.7793
-63.7793
-63.7793
-44.2226
-44.2226
-44.2226
-44.2226
-44.2226
-44.2226
-54.0112
-54.0112
-54.0112
-54.0112
-54.0112
-54.0112
-63.7874
-63.7874
-63.7874
-63.7874
-63.7874
-63.7874
-44.2679
-44.2679
-44.2679
-44.2679
-44.2678
-44.2678
-54.0452
-54.0451
-54.0451
-54.0451
-54.0451
-54.0451
-63.8017
-63.8017
-63.8017
-63.8017
-63.8017
-63.8017
-44.3487
-44.3486
-44.3486
-44.3486
-44.3486
-44.3486
-54.1056
-54.1056
-54.1056
-54.1056
-54.1056
-54.1056
-63.827
-63.827
-63.827
-63.827
-63.827
-63.827
)
;

boundaryField
{
    seabed_topleft_surface
    {
        type            calculated;
        value           nonuniform List<scalar> 
72
(
16585.5
16585.5
16585.5
16585.5
16585.5
16585.5
15663.8
15663.8
15663.8
15663.8
15663.8
15663.8
14141.6
14141.6
14141.6
14141.5
14141.5
14141.5
5829.5
5829.51
5829.51
5829.5
5829.5
5829.5
159.948
159.955
159.952
159.952
159.952
159.953
7.40834
7.40886
7.40841
7.40918
7.40957
7.40971
1.58768
1.58678
1.58689
1.58651
1.58585
1.5854
-4.36794
-4.36575
-4.36682
-4.36872
-4.37026
-4.37073
-5.84185
-5.8417
-5.84155
-5.84054
-5.83962
-5.8392
-6.35596
-6.35714
-6.35728
-6.35722
-6.35718
-6.35703
-6.38394
-6.3839
-6.38347
-6.38325
-6.38319
-6.38306
-6.23769
-6.23723
-6.237
-6.237
-6.23709
-6.23708
)
;
    }
    seabed_topright_surface
    {
        type            calculated;
        value           nonuniform List<scalar> 
72
(
-0.0177205
-0.0177197
-0.0177198
-0.0177197
-0.0177193
-0.0177193
-0.0185935
-0.0185924
-0.0185925
-0.0185923
-0.018592
-0.0185922
-0.0203758
-0.0203741
-0.0203736
-0.0203734
-0.0203733
-0.0203736
-0.023134
-0.0231315
-0.0231306
-0.0231305
-0.0231306
-0.0231312
-0.0269602
-0.0269575
-0.0269564
-0.0269563
-0.0269569
-0.026958
-0.0319567
-0.0319546
-0.0319535
-0.0319537
-0.0319549
-0.0319564
-0.0382049
-0.0382044
-0.0382032
-0.0382043
-0.0382063
-0.0382083
-0.0457136
-0.0457161
-0.0457154
-0.0457178
-0.0457207
-0.045723
-0.0543387
-0.054345
-0.0543459
-0.0543495
-0.0543531
-0.0543553
-0.0636536
-0.0636643
-0.0636669
-0.0636711
-0.0636745
-0.0636759
-0.0727225
-0.0727359
-0.0727401
-0.0727435
-0.0727455
-0.0727452
-0.0801947
-0.080205
-0.0802089
-0.0802109
-0.080211
-0.0802083
)
;
    }
    breakwater_top_surface
    {
        type            calculated;
        value           nonuniform List<scalar> 
36
(
-39.5851
-39.585
-39.5849
-39.5849
-39.5849
-39.5849
-39.7319
-39.7318
-39.7317
-39.7317
-39.7317
-39.7318
-39.936
-39.936
-39.9359
-39.9359
-39.936
-39.936
-40.222
-40.2221
-40.2221
-40.2221
-40.2221
-40.2221
-40.6254
-40.6255
-40.6255
-40.6255
-40.6255
-40.6255
-41.1871
-41.1871
-41.1871
-41.1871
-41.1871
-41.187
)
;
    }
    breakwater_left_surface
    {
        type            calculated;
        value           nonuniform List<scalar> 
24
(
-11.1427
-11.1422
-11.142
-11.142
-11.1421
-11.1421
-20.8104
-20.8101
-20.8101
-20.8102
-20.8105
-20.8106
-30.126
-30.1259
-30.1261
-30.1263
-30.1265
-30.1266
-38.9966
-38.9968
-38.9971
-38.9973
-38.9975
-38.9975
)
;
    }
    breakwater_right_surface
    {
        type            calculated;
        value           nonuniform List<scalar> 
24
(
-4.98519
-4.98521
-4.98521
-4.98521
-4.98521
-4.98521
-14.8024
-14.8024
-14.8024
-14.8024
-14.8024
-14.8024
-24.6271
-24.6271
-24.6271
-24.6271
-24.6271
-24.6271
-34.4525
-34.4525
-34.4525
-34.4524
-34.4524
-34.4524
)
;
    }
    water_front_surface
    {
        type            calculated;
        value           nonuniform List<scalar> 
186
(
11663.7
10742
9219.7
907.648
71.4545
2.48625
-3.33417
-9.28979
-10.7637
-11.2778
-11.3058
-11.1595
2893.25
2720.74
2480.54
-369.586
-52.2043
-23.8639
-24.3736
-23.2685
-22.4466
-21.8092
-21.2232
-20.827
-5668.89
-4827.63
-3211.35
-498.757
-66.1811
-44.6344
-39.0925
-35.4946
-33.2618
-31.7795
-30.7608
-30.1422
-14890.8
-13015.6
-9134.92
-533.651
-60.9695
-56.8071
-50.3459
-46.0639
-43.0905
-41.1013
-39.8003
-39.0125
-4.93958
-4.94045
-4.94223
-4.94499
-4.94882
-4.95381
-4.96006
-4.96757
-4.97619
-4.98551
-4.99458
-5.00205
-14.7484
-14.7493
-14.7511
-14.7539
-14.7578
-14.7629
-14.7695
-14.7775
-14.787
-14.7976
-14.8087
-14.8189
-24.5564
-24.5572
-24.559
-24.5617
-24.5656
-24.5708
-24.5776
-24.5864
-24.5974
-24.611
-24.6262
-24.6433
-34.3636
-34.3644
-34.366
-34.3685
-34.3721
-34.3772
-34.3842
-34.3935
-34.4059
-34.4214
-34.4417
-34.4683
-25767
-39524.5
-56094.9
-22685
-35963.3
-51553.5
-16687.6
-29652.9
-43354.8
-99.579
-233.852
-343.793
-72.7833
-87.4981
-105.086
-71.1007
-86.1843
-102.429
-61.1785
-69.9123
-77.1232
-55.6494
-63.8163
-70.4586
-52.0788
-60.1811
-67.0408
-49.8333
-58.0809
-65.6008
-48.3654
-56.8125
-64.9001
-47.2958
-55.9553
-64.5018
-44.4901
-54.208
-63.8654
-44.6369
-54.3133
-63.9056
-44.841
-54.4576
-63.9606
-45.127
-54.6554
-64.0352
-45.5304
-54.9255
-64.1358
-46.0921
-55.2908
-64.27
-44.1547
-53.961
-63.7671
-44.1553
-53.9614
-63.7672
-44.1565
-53.9622
-63.7675
-44.1586
-53.9636
-63.768
-44.1616
-53.9656
-63.7688
-44.166
-53.9686
-63.7699
-44.1724
-53.9732
-63.7717
-44.182
-53.9803
-63.7746
-44.1971
-53.9918
-63.7793
-44.2226
-54.0112
-63.7874
-44.2679
-54.0452
-63.8017
-44.3487
-54.1056
-63.827
)
;
    }
    water_back_surface
    {
        type            calculated;
        value           nonuniform List<scalar> 
186
(
11663.7
10741.9
9219.68
907.648
71.4598
2.48762
-3.33646
-9.29258
-10.7611
-11.2789
-11.3049
-11.1589
2893.24
2720.71
2480.52
-369.586
-52.2023
-23.8642
-24.3746
-23.2694
-22.4482
-21.8096
-21.2235
-20.8271
-5668.9
-4827.62
-3211.34
-498.754
-66.1804
-44.634
-39.0936
-35.4959
-33.2629
-31.7787
-30.7601
-30.1428
-14890.8
-13015.6
-9134.9
-533.647
-60.9703
-56.8081
-50.346
-46.0645
-43.0899
-41.0998
-39.8001
-39.0134
-4.93958
-4.94045
-4.94223
-4.94499
-4.94881
-4.95381
-4.96006
-4.96758
-4.97621
-4.98553
-4.9946
-5.00206
-14.7484
-14.7493
-14.7511
-14.7539
-14.7578
-14.7629
-14.7695
-14.7775
-14.787
-14.7977
-14.8087
-14.8189
-24.5564
-24.5572
-24.559
-24.5617
-24.5656
-24.5708
-24.5776
-24.5864
-24.5974
-24.6111
-24.6262
-24.6433
-34.3636
-34.3644
-34.366
-34.3685
-34.3721
-34.3772
-34.3842
-34.3936
-34.4059
-34.4214
-34.4416
-34.4683
-25767
-39524.5
-56094.9
-22684.9
-35963.3
-51553.5
-16687.6
-29652.9
-43354.8
-99.5805
-233.853
-343.792
-72.7838
-87.4982
-105.085
-71.1013
-86.1837
-102.428
-61.1783
-69.9115
-77.1226
-55.6492
-63.8153
-70.458
-52.0777
-60.18
-67.0405
-49.8326
-58.0807
-65.601
-48.3657
-56.8129
-64.9004
-47.2962
-55.9555
-64.5018
-44.4899
-54.2078
-63.8653
-44.6368
-54.3132
-63.9056
-44.841
-54.4576
-63.9606
-45.1271
-54.6555
-64.0353
-45.5305
-54.9255
-64.1358
-46.092
-55.2907
-64.27
-44.1547
-53.961
-63.7671
-44.1553
-53.9614
-63.7672
-44.1565
-53.9622
-63.7675
-44.1586
-53.9636
-63.768
-44.1616
-53.9656
-63.7688
-44.166
-53.9686
-63.7699
-44.1724
-53.9732
-63.7717
-44.182
-53.9803
-63.7746
-44.1971
-53.9918
-63.7793
-44.2226
-54.0112
-63.7874
-44.2678
-54.0451
-63.8017
-44.3486
-54.1056
-63.827
)
;
    }
    water_left_surface
    {
        type            calculated;
        value           nonuniform List<scalar> 
42
(
11680.5
11680.5
11680.5
11680.5
11680.5
11680.5
2909.77
2909.76
2909.76
2909.76
2909.76
2909.75
-5652.7
-5652.71
-5652.71
-5652.7
-5652.7
-5652.71
-14874.9
-14874.9
-14874.9
-14874.9
-14874.9
-14874.9
-25767
-25767
-25767
-25767
-25767
-25767
-39524.5
-39524.5
-39524.5
-39524.5
-39524.5
-39524.5
-56094.9
-56094.9
-56094.9
-56094.9
-56094.9
-56094.9
)
;
    }
    water_right_surface
    {
        type            calculated;
        value           nonuniform List<scalar> 
42
(
-4.92272
-4.92272
-4.92272
-4.92272
-4.92272
-4.92272
-14.7319
-14.7319
-14.7319
-14.7319
-14.7319
-14.7319
-24.5402
-24.5402
-24.5402
-24.5402
-24.5402
-24.5402
-34.3478
-34.3478
-34.3478
-34.3478
-34.3478
-34.3478
-44.1547
-44.1547
-44.1547
-44.1547
-44.1547
-44.1547
-53.961
-53.961
-53.961
-53.961
-53.961
-53.961
-63.7671
-63.7671
-63.7671
-63.7671
-63.7671
-63.7671
)
;
    }
    water_top_surface
    {
        type            calculated;
        value           nonuniform List<scalar> 
180
(
-68670
-68670
-68670
-68670
-68670
-68670
-68670
-68670
-68670
-68670
-68670
-68670
-68669.9
-68669.9
-68669.9
-68669.9
-68669.9
-68669.9
-62145.4
-62145.4
-62145.4
-62145.4
-62145.4
-62145.4
-70.7707
-70.7708
-70.7707
-70.7707
-70.7707
-70.7707
-69.8189
-69.8189
-69.8189
-69.8189
-69.8188
-69.8188
-68.914
-68.914
-68.914
-68.914
-68.914
-68.914
-68.7461
-68.7461
-68.7461
-68.7461
-68.7461
-68.7461
-68.6975
-68.6975
-68.6975
-68.6975
-68.6975
-68.6975
-68.6819
-68.6819
-68.6819
-68.6819
-68.6819
-68.6819
-68.6759
-68.6759
-68.6759
-68.6759
-68.6759
-68.6759
-68.6729
-68.6729
-68.6729
-68.6729
-68.6729
-68.6729
-68.6701
-68.6701
-68.6701
-68.6701
-68.6701
-68.6701
-68.6701
-68.6701
-68.6701
-68.6701
-68.6701
-68.6701
-68.6702
-68.6702
-68.6702
-68.6702
-68.6702
-68.6702
-68.6704
-68.6704
-68.6704
-68.6704
-68.6704
-68.6704
-68.6707
-68.6707
-68.6707
-68.6707
-68.6707
-68.6707
-68.6714
-68.6714
-68.6714
-68.6714
-68.6714
-68.6714
-68.67
-68.67
-68.67
-68.67
-68.67
-68.67
-68.67
-68.67
-68.67
-68.67
-68.67
-68.67
-68.67
-68.67
-68.67
-68.67
-68.67
-68.67
-68.67
-68.67
-68.67
-68.67
-68.67
-68.67
-68.67
-68.67
-68.67
-68.67
-68.67
-68.67
-68.67
-68.67
-68.67
-68.67
-68.67
-68.67
-68.67
-68.67
-68.67
-68.67
-68.67
-68.67
-68.67
-68.67
-68.67
-68.67
-68.67
-68.67
-68.67
-68.67
-68.67
-68.67
-68.67
-68.67
-68.67
-68.67
-68.67
-68.67
-68.67
-68.67
-68.67
-68.67
-68.67
-68.67
-68.67
-68.67
-68.67
-68.67
-68.67
-68.67
-68.67
-68.67
)
;
    }
}


// ************************************************************************* //
