/*--------------------------------*- C++ -*----------------------------------*\
| =========                 |                                                 |
| \\      /  F ield         | OpenFOAM: The Open Source CFD Toolbox           |
|  \\    /   O peration     | Version:  v1612+                                |
|   \\  /    A nd           | Web:      www.OpenFOAM.com                      |
|    \\/     M anipulation  |                                                 |
\*---------------------------------------------------------------------------*/
FoamFile
{
    version     2.0;
    format      ascii;
    class       volScalarField;
    location    "1.2";
    object      alpha.water;
}
// * * * * * * * * * * * * * * * * * * * * * * * * * * * * * * * * * * * * * //

dimensions      [0 0 0 0 0 0 0];

internalField   nonuniform List<scalar> 
1116
(
1
1
1
1
1
1
1
1
1
1
1
1
1
1
1
1
1
1
0.999999
0.999999
0.999999
0.999999
0.999999
0.999999
0.99995
0.99995
0.99995
0.99995
0.99995
0.99995
0.959949
0.959949
0.95995
0.95995
0.959949
0.959949
0.752719
0.752731
0.752731
0.752731
0.752729
0.75272
0.188856
0.188875
0.188874
0.188873
0.188873
0.188856
0.000955741
0.000955848
0.000955845
0.000955848
0.000955861
0.00095572
5.02691e-05
5.02779e-05
5.0277e-05
5.02775e-05
5.02788e-05
5.0268e-05
1.70872e-06
1.70946e-06
1.70937e-06
1.70938e-06
1.70951e-06
1.70888e-06
4.79655e-07
4.79959e-07
4.79921e-07
4.7993e-07
4.80034e-07
4.79766e-07
1
1
1
1
1
1
1
1
1
1
1
1
0.999999
0.999999
0.999999
0.999999
0.999999
0.999999
0.99995
0.99995
0.99995
0.99995
0.99995
0.99995
0.798145
0.798149
0.79815
0.79815
0.798151
0.798152
0.214033
0.214042
0.214043
0.214043
0.214041
0.214041
0.000171757
0.00017179
0.000171788
0.000171788
0.000171796
0.000171793
0.00218713
0.00218709
0.00218712
0.00218709
0.00218673
0.00218728
0.00446359
0.00446402
0.00446389
0.00446382
0.00446376
0.00446334
0.000730575
0.0007307
0.000730651
0.000730646
0.000730713
0.000730464
3.68568e-07
3.68794e-07
3.68764e-07
3.68769e-07
3.6884e-07
3.68642e-07
2.36409e-08
2.36586e-08
2.36575e-08
2.36589e-08
2.36653e-08
2.36529e-08
1
1
1
1
1
1
1
1
1
1
1
1
0.999939
0.999939
0.999939
0.999939
0.999939
0.999939
0.77575
0.775754
0.775756
0.775757
0.775759
0.775764
0.143923
0.143926
0.143929
0.143929
0.143931
0.143934
3.41776e-05
3.41894e-05
3.41886e-05
3.4189e-05
3.4191e-05
3.41907e-05
8.77515e-08
8.79211e-08
8.78569e-08
8.78573e-08
8.7939e-08
8.7935e-08
8.68374e-07
8.68653e-07
8.68497e-07
8.68429e-07
8.6845e-07
8.68305e-07
0.000409092
0.000409133
0.000409106
0.000409089
0.000409086
0.000409026
9.7155e-05
9.71706e-05
9.71596e-05
9.71588e-05
9.71761e-05
9.71349e-05
7.91089e-07
7.91449e-07
7.91327e-07
7.91365e-07
7.91628e-07
7.91122e-07
5.76861e-09
5.77163e-09
5.77084e-09
5.77111e-09
5.77273e-09
5.77044e-09
1
1
1
1
1
1
0.999973
0.999973
0.999973
0.999973
0.999973
0.999973
0.658944
0.658947
0.658948
0.658948
0.65895
0.658956
0.0461103
0.0461124
0.0461132
0.0461136
0.0461147
0.0461179
7.44571e-06
7.44809e-06
7.44792e-06
7.44804e-06
7.44841e-06
7.44931e-06
-6.21286e-07
-6.21476e-07
-6.21466e-07
-6.21475e-07
-6.21548e-07
-6.21551e-07
1.06039e-09
1.06074e-09
1.05979e-09
1.05983e-09
1.06035e-09
1.05963e-09
9.04752e-07
9.04985e-07
9.04871e-07
9.0477e-07
9.0482e-07
9.04713e-07
5.91334e-07
5.91419e-07
5.91361e-07
5.91321e-07
5.91314e-07
5.91158e-07
5.83808e-08
5.84032e-08
5.83995e-08
5.84054e-08
5.84243e-08
5.83981e-08
3.4162e-08
3.41813e-08
3.41762e-08
3.41827e-08
3.42045e-08
3.41775e-08
1.55677e-10
1.5579e-10
1.5578e-10
1.55799e-10
1.5586e-10
1.55786e-10
3.09603e-78
3.0985e-78
3.09854e-78
3.09864e-78
3.09901e-78
3.09658e-78
1.32154e-73
1.32252e-73
1.3225e-73
1.32253e-73
1.32267e-73
1.32157e-73
2.71568e-69
2.7177e-69
2.7177e-69
2.71776e-69
2.71806e-69
2.71586e-69
3.54082e-65
3.54347e-65
3.54352e-65
3.54362e-65
3.54405e-65
3.54125e-65
3.26551e-61
3.26799e-61
3.26808e-61
3.26819e-61
3.26861e-61
3.2661e-61
2.2609e-57
2.26265e-57
2.26272e-57
2.2628e-57
2.26312e-57
2.26142e-57
1.2253e-53
1.22625e-53
1.22629e-53
1.22634e-53
1.22652e-53
1.22562e-53
5.39444e-50
5.39869e-50
5.39886e-50
5.3991e-50
5.39993e-50
5.39604e-50
2.00701e-46
2.00859e-46
2.00865e-46
2.00876e-46
2.0091e-46
2.00769e-46
6.75878e-43
6.76404e-43
6.7643e-43
6.76475e-43
6.76606e-43
6.76148e-43
2.06618e-39
2.0678e-39
2.06794e-39
2.06814e-39
2.06863e-39
2.06734e-39
4.95228e-36
4.95644e-36
4.95709e-36
4.95783e-36
4.9593e-36
4.95653e-36
2.62693e-74
2.62902e-74
2.62897e-74
2.62898e-74
2.62919e-74
2.62703e-74
1.11632e-69
1.11714e-69
1.11712e-69
1.1171e-69
1.11718e-69
1.11622e-69
2.27335e-65
2.27502e-65
2.27499e-65
2.27496e-65
2.27514e-65
2.27324e-65
2.91693e-61
2.91908e-61
2.91907e-61
2.91906e-61
2.91931e-61
2.91694e-61
2.62297e-57
2.62493e-57
2.62495e-57
2.62494e-57
2.6252e-57
2.62312e-57
1.75075e-53
1.75207e-53
1.75209e-53
1.7521e-53
1.75229e-53
1.75093e-53
9.03524e-50
9.04217e-50
9.04229e-50
9.0424e-50
9.0435e-50
9.03667e-50
3.75696e-46
3.75985e-46
3.75992e-46
3.76e-46
3.76054e-46
3.7578e-46
1.33073e-42
1.33176e-42
1.3318e-42
1.33185e-42
1.33208e-42
1.33115e-42
4.26439e-39
4.26769e-39
4.26788e-39
4.26816e-39
4.26904e-39
4.26625e-39
1.20096e-35
1.20191e-35
1.20201e-35
1.20215e-35
1.20246e-35
1.20176e-35
2.25933e-32
2.26129e-32
2.26162e-32
2.26199e-32
2.26272e-32
2.2615e-32
2.24321e-70
2.24481e-70
2.24483e-70
2.24495e-70
2.24532e-70
2.24382e-70
1.00049e-65
1.00116e-65
1.00117e-65
1.00121e-65
1.00136e-65
1.00066e-65
2.12354e-61
2.12496e-61
2.125e-61
2.12508e-61
2.12542e-61
2.12396e-61
2.80609e-57
2.80798e-57
2.80805e-57
2.80816e-57
2.80863e-57
2.80674e-57
2.55278e-53
2.55452e-53
2.5546e-53
2.55471e-53
2.55515e-53
2.55346e-53
1.68087e-49
1.68203e-49
1.68208e-49
1.68216e-49
1.68246e-49
1.68136e-49
8.2429e-46
8.24868e-46
8.24897e-46
8.24939e-46
8.25095e-46
8.24562e-46
3.05491e-42
3.05709e-42
3.05722e-42
3.05741e-42
3.05804e-42
3.05611e-42
8.56752e-39
8.5738e-39
8.57432e-39
8.575e-39
8.57697e-39
8.57176e-39
1.88323e-35
1.88466e-35
1.88482e-35
1.88502e-35
1.88552e-35
1.88443e-35
3.76797e-32
3.771e-32
3.77142e-32
3.77194e-32
3.77308e-32
3.77103e-32
4.73567e-29
4.73987e-29
4.74059e-29
4.74141e-29
4.74303e-29
4.74053e-29
4.00535e-67
4.00798e-67
4.00797e-67
4.00819e-67
4.00892e-67
4.00632e-67
1.94795e-62
1.94917e-62
1.94917e-62
1.94925e-62
1.94959e-62
1.94828e-62
4.45974e-58
4.46253e-58
4.46256e-58
4.46277e-58
4.46358e-58
4.46065e-58
6.24422e-54
6.24815e-54
6.24824e-54
6.24856e-54
6.24974e-54
6.24571e-54
5.86302e-50
5.86675e-50
5.86685e-50
5.86718e-50
5.86833e-50
5.86461e-50
3.84692e-46
3.8494e-46
3.84948e-46
3.84971e-46
3.85051e-46
3.84811e-46
1.80852e-42
1.8097e-42
1.80975e-42
1.80988e-42
1.81028e-42
1.80918e-42
6.26226e-39
6.26643e-39
6.2667e-39
6.26723e-39
6.26876e-39
6.26504e-39
1.67351e-35
1.67466e-35
1.67477e-35
1.67495e-35
1.67541e-35
1.67445e-35
3.63324e-32
3.63589e-32
3.63623e-32
3.63671e-32
3.63783e-32
3.63586e-32
6.48818e-29
6.49321e-29
6.49397e-29
6.49503e-29
6.49727e-29
6.4939e-29
5.07698e-26
5.08132e-26
5.08204e-26
5.08299e-26
5.08486e-26
5.08223e-26
0.999973
0.999973
0.999973
0.999973
0.999973
0.999973
0.835796
0.8358
0.835799
0.835798
0.835797
0.835803
0.32102
0.321023
0.321023
0.321022
0.321022
0.321027
0.706351
0.706356
0.706355
0.706355
0.706355
0.706361
1.55323e-10
1.55655e-10
1.55706e-10
1.55626e-10
1.55598e-10
1.55576e-10
2.88786e-25
2.68333e-25
1.18777e-25
3.30872e-25
3.30872e-25
2.97785e-25
0.0104739
0.0104748
0.0104744
0.0104745
0.0104746
0.0104771
7.13992e-10
7.13992e-10
7.14481e-10
7.14774e-10
7.15083e-10
7.15083e-10
6.57524e-18
6.57495e-18
6.57398e-18
6.57365e-18
6.57357e-18
6.57402e-18
1.11889e-06
1.11884e-06
1.11886e-06
1.11886e-06
1.11883e-06
1.11873e-06
3.15776e-09
3.10909e-09
3.13118e-09
3.12497e-09
3.12291e-09
3.17387e-09
2.09881e-07
2.10413e-07
2.10498e-07
2.10368e-07
2.10327e-07
2.10303e-07
7.01744e-08
7.00686e-08
7.0123e-08
7.01139e-08
7.00562e-08
7.00261e-08
0.000101192
0.000101192
0.000101192
0.000101193
0.000101193
0.000101193
2.44047e-06
2.44299e-06
2.44347e-06
2.44277e-06
2.44259e-06
2.44261e-06
1.04569e-09
1.04643e-09
1.04604e-09
1.046e-09
1.04623e-09
1.04579e-09
6.93315e-12
6.93367e-12
6.93592e-12
6.93689e-12
6.93466e-12
1.38943e-11
1.66522e-19
1.66181e-19
1.66172e-19
1.66286e-19
1.66255e-19
1.66722e-19
1.0239e-10
1.02536e-10
1.02423e-10
1.02373e-10
1.02527e-10
1.02552e-10
1.79764e-13
1.79841e-13
1.79825e-13
1.79811e-13
1.79802e-13
1.79699e-13
7.13179e-18
7.13218e-18
7.13147e-18
7.13105e-18
7.13143e-18
7.12613e-18
2.40074e-08
2.40149e-08
2.40107e-08
2.40076e-08
2.40108e-08
2.4005e-08
2.09679e-11
2.09703e-11
2.09679e-11
2.09659e-11
2.09791e-11
2.09623e-11
1.18945e-13
1.19011e-13
1.1899e-13
1.18979e-13
1.18986e-13
1.18815e-13
1.7006e-08
1.70097e-08
1.70079e-08
1.70064e-08
1.70059e-08
1.69998e-08
3.83771e-10
3.83885e-10
3.83841e-10
3.83802e-10
3.83784e-10
3.83616e-10
2.44118e-11
2.44196e-11
2.44181e-11
2.44163e-11
2.44143e-11
2.44043e-11
2.26832e-09
2.2693e-09
2.26923e-09
2.26956e-09
2.27048e-09
2.26943e-09
7.21572e-11
7.21901e-11
7.21888e-11
7.22015e-11
7.22343e-11
7.21993e-11
2.458e-12
2.45922e-12
2.45921e-12
2.4597e-12
2.46091e-12
2.45965e-12
5.11795e-11
5.12178e-11
5.12182e-11
5.12254e-11
5.12449e-11
5.12185e-11
2.44196e-12
2.44314e-12
2.44315e-12
2.44361e-12
2.44477e-12
2.44355e-12
7.11013e-14
7.11499e-14
7.11524e-14
7.11662e-14
7.1199e-14
7.11613e-14
1.46939e-12
1.47056e-12
1.47059e-12
1.47082e-12
1.47141e-12
1.4706e-12
2.86879e-13
2.87059e-13
2.87082e-13
2.87147e-13
2.87276e-13
2.87168e-13
5.621e-15
5.62475e-15
5.62523e-15
5.62666e-15
5.62968e-15
5.62704e-15
5.69774e-21
5.70237e-21
5.70301e-21
5.70418e-21
5.70659e-21
5.70365e-21
2.20076e-22
2.2025e-22
2.20276e-22
2.20322e-22
2.20414e-22
2.20301e-22
2.30316e-24
2.3049e-24
2.30517e-24
2.30563e-24
2.30656e-24
2.3054e-24
4.10041e-19
4.10384e-19
4.10424e-19
4.10508e-19
4.10686e-19
4.10466e-19
2.07666e-20
2.07837e-20
2.0786e-20
2.07904e-20
2.07996e-20
2.07887e-20
3.0048e-22
3.00716e-22
3.00751e-22
3.00813e-22
3.0094e-22
3.00789e-22
2.14282e-17
2.14465e-17
2.1448e-17
2.14521e-17
2.14614e-17
2.14492e-17
1.39706e-18
1.39825e-18
1.39838e-18
1.39868e-18
1.39933e-18
1.39856e-18
2.69378e-20
2.69598e-20
2.69626e-20
2.69684e-20
2.69805e-20
2.69665e-20
6.49727e-17
6.50182e-17
6.50258e-17
6.50393e-17
6.50667e-17
6.50409e-17
4.08036e-17
4.08385e-17
4.0842e-17
4.08511e-17
4.08707e-17
4.08484e-17
1.68553e-18
1.68694e-18
1.68709e-18
1.68746e-18
1.68824e-18
1.68733e-18
3.17618e-15
3.17885e-15
3.17903e-15
3.17964e-15
3.18102e-15
3.17921e-15
5.20685e-16
5.21139e-16
5.21171e-16
5.21268e-16
5.21492e-16
5.21199e-16
4.50481e-17
4.5084e-17
4.50876e-17
4.50971e-17
4.51179e-17
4.50948e-17
3.0881e-14
3.09061e-14
3.09069e-14
3.09118e-14
3.09241e-14
3.09062e-14
2.25194e-14
2.25404e-14
2.25419e-14
2.2546e-14
2.25552e-14
2.25429e-14
2.56336e-16
2.56584e-16
2.5661e-16
2.56658e-16
2.56757e-16
2.56634e-16
9.45008e-64
9.45655e-64
9.45721e-64
9.45854e-64
9.46121e-64
9.45593e-64
7.12916e-67
7.13399e-67
7.13445e-67
7.13542e-67
7.13742e-67
7.13336e-67
1.1767e-70
1.17748e-70
1.17755e-70
1.1777e-70
1.17803e-70
1.17734e-70
6.30332e-59
6.30746e-59
6.30788e-59
6.30868e-59
6.31039e-59
6.30666e-59
6.5317e-62
6.53595e-62
6.53636e-62
6.53717e-62
6.53892e-62
6.53499e-62
1.24027e-65
1.24106e-65
1.24114e-65
1.24129e-65
1.24161e-65
1.24087e-65
1.96639e-54
1.96768e-54
1.96783e-54
1.96807e-54
1.96861e-54
1.96746e-54
2.87845e-57
2.88032e-57
2.88051e-57
2.88087e-57
2.88164e-57
2.87993e-57
6.65464e-61
6.6589e-61
6.65932e-61
6.66013e-61
6.66189e-61
6.65793e-61
3.70281e-50
3.70525e-50
3.70552e-50
3.70599e-50
3.70701e-50
3.70487e-50
7.75348e-53
7.75851e-53
7.75902e-53
7.75998e-53
7.7621e-53
7.75755e-53
2.29497e-56
2.29645e-56
2.29659e-56
2.29688e-56
2.29749e-56
2.29614e-56
4.56461e-46
4.56762e-46
4.56795e-46
4.56855e-46
4.56985e-46
4.56725e-46
1.36558e-48
1.36647e-48
1.36656e-48
1.36673e-48
1.36712e-48
1.36633e-48
5.41026e-52
5.41373e-52
5.41407e-52
5.41475e-52
5.41624e-52
5.41309e-52
3.7631e-42
3.76559e-42
3.76588e-42
3.76641e-42
3.76754e-42
3.76545e-42
1.58745e-44
1.58848e-44
1.58859e-44
1.58881e-44
1.58928e-44
1.5884e-44
8.76049e-48
8.76612e-48
8.76669e-48
8.76786e-48
8.77038e-48
8.76541e-48
2.04488e-38
2.04626e-38
2.04644e-38
2.04675e-38
2.04741e-38
2.04631e-38
1.19332e-40
1.19411e-40
1.19421e-40
1.19439e-40
1.19477e-40
1.19413e-40
9.51212e-44
9.51828e-44
9.519e-44
9.52038e-44
9.52329e-44
9.5181e-44
7.02606e-35
7.03091e-35
7.03162e-35
7.0328e-35
7.0352e-35
7.03155e-35
5.59637e-37
5.60016e-37
5.60071e-37
5.60165e-37
5.60355e-37
5.60064e-37
6.6495e-40
6.65389e-40
6.65449e-40
6.65555e-40
6.6577e-40
6.65419e-40
1.44118e-31
1.44221e-31
1.44237e-31
1.44264e-31
1.44315e-31
1.44242e-31
1.57112e-33
1.57221e-33
1.57239e-33
1.57267e-33
1.57323e-33
1.57242e-33
2.84399e-36
2.84592e-36
2.84621e-36
2.8467e-36
2.84766e-36
2.84619e-36
1.6737e-28
1.67493e-28
1.67513e-28
1.67545e-28
1.67607e-28
1.67523e-28
2.52032e-30
2.52213e-30
2.52242e-30
2.52289e-30
2.52382e-30
2.52254e-30
7.02905e-33
7.03392e-33
7.03469e-33
7.03595e-33
7.03842e-33
7.0348e-33
1.06447e-25
1.06528e-25
1.06541e-25
1.06562e-25
1.06603e-25
1.0655e-25
2.19539e-27
2.19701e-27
2.19727e-27
2.19769e-27
2.19853e-27
2.19741e-27
9.48474e-30
9.49147e-30
9.49255e-30
9.49431e-30
9.49777e-30
9.49293e-30
3.47839e-23
3.48113e-23
3.48154e-23
3.48224e-23
3.48365e-23
3.4819e-23
9.7849e-25
9.79235e-25
9.7935e-25
9.79546e-25
9.79938e-25
9.79445e-25
6.65745e-27
6.66232e-27
6.66309e-27
6.66438e-27
6.66693e-27
6.66359e-27
)
;

boundaryField
{
    seabed_topleft_surface
    {
        type            zeroGradient;
    }
    seabed_topright_surface
    {
        type            zeroGradient;
    }
    breakwater_top_surface
    {
        type            zeroGradient;
    }
    breakwater_left_surface
    {
        type            zeroGradient;
    }
    breakwater_right_surface
    {
        type            zeroGradient;
    }
    water_front_surface
    {
        type            zeroGradient;
    }
    water_back_surface
    {
        type            zeroGradient;
    }
    water_left_surface
    {
        type            zeroGradient;
    }
    water_right_surface
    {
        type            zeroGradient;
    }
    water_top_surface
    {
        type            inletOutlet;
        inletValue      uniform 0;
        value           nonuniform List<scalar> 
180
(
0.32102
0.321023
0.321023
0.321022
0.321022
0.321027
0
0
0
0
0
0
0
0
0
0
0
0
0
0
0
0
0
0
0
0
0
0
0
0
0
0
0
0
0
0
0
0
0
0
0
0
1.18945e-13
1.19011e-13
1.1899e-13
1.18979e-13
1.18986e-13
1.18815e-13
2.44118e-11
2.44196e-11
2.44181e-11
2.44163e-11
2.44143e-11
2.44043e-11
2.458e-12
2.45922e-12
2.45921e-12
2.4597e-12
2.46091e-12
2.45965e-12
7.11013e-14
7.11499e-14
7.11524e-14
7.11662e-14
7.1199e-14
7.11613e-14
5.621e-15
5.62475e-15
5.62523e-15
5.62666e-15
5.62968e-15
5.62704e-15
2.30316e-24
2.3049e-24
2.30517e-24
2.30563e-24
2.30656e-24
2.3054e-24
3.0048e-22
3.00716e-22
3.00751e-22
3.00813e-22
3.0094e-22
3.00789e-22
2.69378e-20
2.69598e-20
2.69626e-20
2.69684e-20
2.69805e-20
2.69665e-20
1.68553e-18
1.68694e-18
1.68709e-18
1.68746e-18
1.68824e-18
1.68733e-18
4.50481e-17
4.5084e-17
4.50876e-17
4.50971e-17
4.51179e-17
4.50948e-17
2.56336e-16
2.56584e-16
2.5661e-16
2.56658e-16
2.56757e-16
2.56634e-16
1.1767e-70
1.17748e-70
1.17755e-70
1.1777e-70
1.17803e-70
1.17734e-70
1.24027e-65
1.24106e-65
1.24114e-65
1.24129e-65
1.24161e-65
1.24087e-65
6.65464e-61
6.6589e-61
6.65932e-61
6.66013e-61
6.66189e-61
6.65793e-61
2.29497e-56
2.29645e-56
2.29659e-56
2.29688e-56
2.29749e-56
2.29614e-56
5.41026e-52
5.41373e-52
5.41407e-52
5.41475e-52
5.41624e-52
5.41309e-52
8.76049e-48
8.76612e-48
8.76669e-48
8.76786e-48
8.77038e-48
8.76541e-48
9.51212e-44
9.51828e-44
9.519e-44
9.52038e-44
9.52329e-44
9.5181e-44
6.6495e-40
6.65389e-40
6.65449e-40
6.65555e-40
6.6577e-40
6.65419e-40
2.84399e-36
2.84592e-36
2.84621e-36
2.8467e-36
2.84766e-36
2.84619e-36
7.02905e-33
7.03392e-33
7.03469e-33
7.03595e-33
7.03842e-33
7.0348e-33
9.48474e-30
9.49147e-30
9.49255e-30
9.49431e-30
9.49777e-30
9.49293e-30
6.65745e-27
6.66232e-27
6.66309e-27
6.66438e-27
6.66693e-27
6.66359e-27
)
;
    }
}


// ************************************************************************* //
