/*--------------------------------*- C++ -*----------------------------------*\
| =========                 |                                                 |
| \\      /  F ield         | OpenFOAM: The Open Source CFD Toolbox           |
|  \\    /   O peration     | Version:  v1612+                                |
|   \\  /    A nd           | Web:      www.OpenFOAM.com                      |
|    \\/     M anipulation  |                                                 |
\*---------------------------------------------------------------------------*/
FoamFile
{
    version     2.0;
    format      ascii;
    class       surfaceScalarField;
    location    "1.2";
    object      alphaPhi;
}
// * * * * * * * * * * * * * * * * * * * * * * * * * * * * * * * * * * * * * //

dimensions      [0 3 -1 0 0 0 0];

internalField   nonuniform List<scalar> 
2916
(
6.91208e-08
0.333109
-0.333109
1.50507e-07
0.33311
-0.33311
4.16962e-07
0.33311
-0.33311
9.09453e-07
0.333109
-0.33311
1.12317e-06
0.333109
-0.333109
0.333109
-0.333108
8.7292e-07
0.771128
-0.43802
1.13945e-06
0.77113
-0.43802
1.73842e-06
0.771129
-0.43802
1.78276e-06
0.771128
-0.438019
1.2131e-06
0.771128
-0.438018
0.771126
-0.438016
3.2136e-06
1.35895
-0.587823
5.47538e-06
1.35895
-0.587822
6.017e-06
1.35895
-0.587819
4.83077e-06
1.35895
-0.587817
2.59869e-06
1.35895
-0.587816
1.35894
-0.587814
-8.92447e-07
2.11747
-0.758517
4.88861e-06
2.11747
-0.758522
6.04418e-06
2.11747
-0.758517
4.82108e-06
2.11747
-0.758515
3.30513e-06
2.11747
-0.758514
2.11746
-0.758514
-1.01984e-05
2.95624
-0.838645
2.8737e-06
2.95625
-0.838675
8.78147e-06
2.95625
-0.83867
1.04346e-05
2.95625
-0.838668
1.07618e-05
2.95625
-0.838668
2.95625
-0.83866
-1.5346e-05
3.27912
-0.51112
-4.08021e-06
3.27917
-0.511166
3.42401e-06
3.27917
-0.511163
4.40522e-06
3.27917
-0.51116
2.55694e-06
3.27917
-0.51116
3.27915
-0.511153
-9.09233e-08
1.92066
-0.230781
1.28318e-06
1.92079
-0.230793
-8.54242e-07
1.92079
-0.230791
-5.02655e-06
1.92078
-0.230791
-3.8794e-06
1.92078
-0.230794
1.92069
-0.230789
4.7506e-06
0.025315
-0.0258263
4.35567e-06
0.0253203
-0.0258325
-2.06191e-06
0.0253199
-0.0258317
-8.12687e-06
0.0253193
-0.0258314
-4.67628e-06
0.0253197
-0.025833
0.0253162
-0.0258249
-1.84451e-06
0.00251284
0.0133251
-5.83238e-07
0.00251306
0.0133257
1.85751e-07
0.00251307
0.0133259
4.07609e-07
0.0025131
0.0133258
1.27974e-06
0.00251315
0.0133255
0.00251264
0.0133258
7.38428e-08
0.000175599
0.00175776
4.62368e-08
0.000175636
0.00175792
9.27703e-08
0.000175631
0.00175788
1.56723e-07
0.000175635
0.00175788
1.79847e-07
0.000175647
0.00175796
0.000175593
0.00175782
1.26267e-08
1.09074e-05
0.000139755
2.15938e-08
1.09138e-05
0.000139778
2.77957e-08
1.09128e-05
0.000139777
3.03164e-08
1.09127e-05
0.000139786
2.50402e-08
1.09143e-05
0.000139802
1.09086e-05
0.000139783
7.13505e-11
2.14679e-06
3.22531e-10
2.1476e-06
4.42766e-10
2.14761e-06
4.6247e-10
2.14766e-06
3.67944e-10
2.14772e-06
2.14736e-06
1.27216e-07
0.293734
-0.626843
-1.05012e-07
0.293735
-0.626844
-6.88716e-08
0.293734
-0.626843
2.11922e-07
0.293733
-0.626843
2.1502e-07
0.293734
-0.626843
0.293734
-0.626841
3.14448e-06
0.683084
-0.827373
2.55183e-06
0.683088
-0.827373
1.98546e-06
0.683086
-0.827372
5.96754e-07
0.683086
-0.82737
-6.41624e-07
0.683086
-0.827369
0.683085
-0.827368
8.59455e-06
1.15265
-1.05739
8.48278e-06
1.15266
-1.05739
5.72253e-06
1.15266
-1.05738
3.03633e-06
1.15266
-1.05738
2.36384e-06
1.15266
-1.05738
1.15265
-1.05738
5.12614e-06
1.80058
-1.40634
9.15649e-06
1.8006
-1.40635
6.35732e-06
1.8006
-1.40634
4.2008e-06
1.8006
-1.40634
4.72646e-06
1.8006
-1.40634
1.8006
-1.40634
-8.84665e-06
1.47574
-0.899314
5.60369e-06
1.47577
-0.89936
9.90191e-06
1.47578
-0.899361
9.11188e-06
1.47578
-0.89936
6.62574e-06
1.47578
-0.899365
1.47579
-0.899366
-1.72136e-06
0.232358
-0.127606
1.99527e-06
0.23237
-0.127621
3.06176e-06
0.232369
-0.127621
2.92013e-06
0.232368
-0.127621
1.09433e-06
0.23237
-0.127621
0.232366
-0.12762
-7.48684e-07
0.0092453
-0.00758607
-1.07004e-06
0.00924637
-0.00758724
-9.52083e-07
0.00924628
-0.00758719
-8.1626e-07
0.00924622
-0.00758719
-1.20264e-06
0.00924592
-0.00758748
0.00924611
-0.00758723
-5.08078e-07
0.0213607
-0.0011545
-7.24466e-07
0.0213625
-0.00115446
-7.69924e-07
0.0213623
-0.00115469
-8.2212e-07
0.021362
-0.00115468
-7.91662e-07
0.0213605
-0.00115416
0.0213611
-0.00115394
-3.59339e-07
0.0118342
0.0012941
-1.03054e-06
0.0118362
0.00129415
-1.03365e-06
0.0118355
0.00129409
-8.79881e-07
0.0118354
0.00129404
-1.11067e-06
0.0118359
0.00129393
0.0118329
0.00129401
4.51675e-08
-0.000113846
0.00192927
4.95845e-08
-0.000113856
0.00192955
6.33218e-08
-0.000113865
0.00192936
6.80726e-08
-0.000113874
0.00192933
7.16512e-08
-0.00011388
0.00192955
-0.000113888
0.00192892
6.22541e-09
-1.38762e-06
2.0602e-05
1.18158e-08
-1.38778e-06
2.06112e-05
1.13885e-08
-1.38787e-06
2.06084e-05
9.52345e-09
-1.38792e-06
2.06093e-05
9.82035e-09
-1.38778e-06
2.06163e-05
-1.3879e-06
2.06036e-05
-3.7033e-11
2.6873e-07
1.52024e-11
2.68957e-07
4.57798e-11
2.68941e-07
5.07879e-11
2.68959e-07
4.88559e-11
2.69053e-07
2.68882e-07
2.96439e-06
0.166714
-0.79356
3.26894e-06
0.166717
-0.793561
3.47145e-06
0.166716
-0.79356
3.2038e-06
0.166716
-0.793559
1.55771e-06
0.166717
-0.793558
0.166717
-0.793556
9.25187e-06
0.365313
-1.02598
8.46805e-06
0.365326
-1.02598
6.24668e-06
0.365327
-1.02598
4.10734e-06
0.365328
-1.02598
2.88437e-06
0.365329
-1.02598
0.365328
-1.02598
9.35446e-06
0.763344
-1.4551
7.63004e-06
0.763371
-1.4551
3.41908e-06
0.763374
-1.4551
1.14275e-06
0.763374
-1.45509
3.3031e-06
0.763373
-1.4551
0.763366
-1.45508
1.21295e-05
0.794288
-0.705727
1.23394e-05
0.794323
-0.705745
1.27349e-05
0.794329
-0.705746
1.32203e-05
0.794331
-0.705747
1.32089e-05
0.794335
-0.705753
0.794338
-0.705759
6.47774e-06
0.133262
-0.0773248
6.71664e-06
0.133276
-0.0773317
4.79992e-06
0.133276
-0.0773324
3.90663e-06
0.133276
-0.0773329
2.21105e-06
0.133277
-0.077334
0.133276
-0.077336
7.08659e-07
0.00778703
-0.00197016
3.39123e-07
0.00778837
-0.00197081
2.10403e-07
0.00778827
-0.00197076
1.60422e-07
0.00778827
-0.00197077
-5.09233e-08
0.00778877
-0.00197089
0.00778864
-0.00197088
-1.81054e-08
0.000208062
-8.19784e-06
-5.69766e-08
0.000208271
-8.21312e-06
-4.92338e-08
0.000208167
-8.20734e-06
-3.41296e-08
0.00020816
-8.2074e-06
-4.20209e-08
0.000208403
-8.21494e-06
0.000208476
-8.21474e-06
-2.35733e-09
1.44684e-05
-1.76102e-06
-3.98043e-09
1.44826e-05
-1.76009e-06
-4.72611e-09
1.44746e-05
-1.7595e-06
-5.24256e-09
1.4474e-05
-1.75958e-06
-7.34258e-09
1.4482e-05
-1.75822e-06
1.44692e-05
-1.75717e-06
1.64749e-08
-1.4631e-05
1.75457e-05
-1.15759e-08
-1.45876e-05
1.75439e-05
-4.77149e-10
-1.46151e-05
1.75413e-05
-8.85019e-09
-1.46097e-05
1.7539e-05
-1.16681e-07
-1.45511e-05
1.75356e-05
-1.4611e-05
1.75383e-05
5.55519e-09
-5.87574e-07
1.20292e-05
2.08971e-08
-5.84294e-07
1.20306e-05
1.47583e-08
-5.84439e-07
1.20288e-05
4.34023e-09
-5.83411e-07
1.20286e-05
1.08608e-08
-5.79864e-07
1.20311e-05
-5.82795e-07
1.20262e-05
5.04754e-11
-1.14167e-07
1.45667e-06
3.81063e-11
-1.14313e-07
1.45747e-06
-8.12638e-11
-1.14317e-07
1.45727e-06
-1.72826e-10
-1.14328e-07
1.4575e-06
-6.75448e-11
-1.14378e-07
1.45839e-06
-1.14281e-07
1.45732e-06
-4.51044e-12
8.59859e-09
-4.73835e-12
8.60196e-09
-3.77358e-12
8.60116e-09
-2.58348e-12
8.60209e-09
-1.05515e-12
8.60529e-09
8.60207e-09
1.26941e-05
-0.14442
-0.64915
9.84617e-06
-0.144411
-0.649144
7.7869e-06
-0.14441
-0.649144
5.75124e-06
-0.14441
-0.649144
3.93303e-06
-0.14441
-0.649144
-0.144408
-0.649142
7.37081e-06
0.011244
-1.18149
5.60025e-06
0.011257
-1.18149
3.10212e-06
0.0112586
-1.18149
1.19075e-06
0.0112587
-1.18148
2.92644e-06
0.0112575
-1.18149
0.01126
-1.18148
1.14083e-05
0.304625
-0.532828
4.22878e-06
0.304643
-0.532835
2.8057e-06
0.304642
-0.532833
3.00144e-06
0.304641
-0.532833
3.52732e-06
0.304642
-0.532833
0.304649
-0.532842
1.95828e-06
0.0786217
-0.0262401
1.70785e-06
0.0786289
-0.0262417
1.21994e-06
0.0786295
-0.0262413
1.91688e-07
0.07863
-0.0262414
-8.97784e-07
0.0786311
-0.0262417
0.0786331
-0.0262443
2.25279e-07
0.00197952
-0.000664628
1.94204e-07
0.00198018
-0.000664812
1.85747e-07
0.00198013
-0.0006648
1.65744e-07
0.00198015
-0.000664809
5.35574e-08
0.00198026
-0.000664834
0.00198026
-0.000664899
-2.75962e-10
6.41774e-06
1.2637e-06
-3.65695e-09
6.43281e-06
1.26334e-06
-3.57791e-10
6.42712e-06
1.26339e-06
2.76206e-09
6.42739e-06
1.26334e-06
6.20669e-10
6.43533e-06
1.26306e-06
6.43552e-06
1.26293e-06
-2.60038e-12
-1.78705e-06
1.97549e-09
1.82832e-11
-1.78727e-06
1.97677e-09
2.96168e-11
-1.78718e-06
1.97658e-09
2.92651e-11
-1.78696e-06
1.97699e-09
1.24463e-11
-1.78653e-06
1.97678e-09
-1.78614e-06
1.97479e-09
2.64373e-10
-2.65788e-05
-4.46057e-09
3.20168e-10
-2.65824e-05
-4.38733e-09
2.30796e-10
-2.65802e-05
-4.41656e-09
1.36875e-10
-2.65781e-05
-4.43235e-09
-4.16372e-11
-2.65754e-05
-4.30849e-09
-2.65709e-05
-4.26233e-09
3.27693e-09
-1.06779e-05
6.87096e-07
3.51742e-09
-1.06799e-05
6.87182e-07
2.05441e-09
-1.06783e-05
6.87083e-07
5.55354e-11
-1.06778e-05
6.87012e-07
-1.0924e-09
-1.06792e-05
6.86964e-07
-1.06744e-05
6.86773e-07
3.8672e-10
-2.83985e-07
2.38425e-07
-7.51637e-11
-2.84003e-07
2.38469e-07
-7.56769e-10
-2.8396e-07
2.38445e-07
-1.22731e-09
-2.83933e-07
2.38451e-07
-8.16299e-10
-2.83912e-07
2.38517e-07
-2.83881e-07
2.38402e-07
-1.07866e-11
-4.1093e-09
2.28797e-09
-2.01115e-11
-4.1095e-09
2.28876e-09
-2.47311e-11
-4.10904e-09
2.28846e-09
-2.37839e-11
-4.10945e-09
2.28861e-09
-1.56257e-11
-4.1109e-09
2.28912e-09
-4.11003e-09
2.28861e-09
-1.44789e-13
3.90202e-10
-1.75454e-13
3.90368e-10
-1.70707e-13
3.90353e-10
-1.33979e-13
3.90423e-10
-7.0393e-14
3.9062e-10
3.90397e-10
2.40246e-84
-1.01015e-76
2.36413e-81
7.60333e-85
-1.01098e-76
2.36588e-81
1.12413e-85
-1.01101e-76
2.36579e-81
-1.91331e-85
-1.01106e-76
2.3658e-81
-2.76808e-85
-1.01119e-76
2.366e-81
-1.01041e-76
2.36392e-81
8.28702e-80
-4.23348e-72
1.04802e-76
1.65311e-80
-4.23676e-72
1.04874e-76
-1.04928e-80
-4.23677e-72
1.04869e-76
-2.65059e-80
-4.2369e-72
1.04868e-76
-3.95306e-80
-4.23739e-72
1.04875e-76
-4.23389e-72
1.0478e-76
1.75385e-75
-8.53245e-68
2.30668e-72
3.18902e-76
-8.53911e-68
2.30827e-72
-2.626e-76
-8.53921e-68
2.30819e-72
-6.1463e-76
-8.5395e-68
2.30817e-72
-8.87927e-76
-8.54054e-68
2.30836e-72
-8.53362e-68
2.30633e-72
2.28731e-71
-1.08988e-63
3.27988e-68
3.44862e-72
-1.09074e-63
3.28218e-68
-4.18239e-72
-1.09077e-63
3.28213e-68
-8.91165e-72
-1.09081e-63
3.28216e-68
-1.25738e-71
-1.09096e-63
3.28248e-68
-1.09009e-63
3.2797e-68
1.81929e-67
-9.83491e-60
3.3013e-64
1.46846e-68
-9.84282e-60
3.30371e-64
-5.287e-68
-9.84318e-60
3.30373e-64
-9.52048e-68
-9.84358e-60
3.30381e-64
-1.26509e-67
-9.84495e-60
3.3042e-64
-9.8373e-60
3.3015e-64
7.9758e-64
-6.65359e-56
2.43937e-60
-1.61016e-64
-6.659e-56
2.44128e-60
-5.17132e-64
-6.65926e-56
2.44133e-60
-7.80316e-64
-6.65954e-56
2.44143e-60
-9.41762e-64
-6.66051e-56
2.44175e-60
-6.65543e-56
2.43981e-60
5.371e-62
-3.51813e-52
1.33656e-56
-3.1879e-60
-3.521e-52
1.33766e-56
-4.55591e-60
-3.52113e-52
1.33771e-56
-5.22949e-60
-3.52128e-52
1.33776e-56
-5.28988e-60
-3.52182e-52
1.33794e-56
-3.51918e-52
1.33689e-56
-1.86768e-56
-1.50847e-48
5.36266e-53
-2.07404e-56
-1.50969e-48
5.36712e-53
-2.15762e-56
-1.50974e-48
5.36732e-53
-1.97901e-56
-1.50981e-48
5.36743e-53
-1.58819e-56
-1.51006e-48
5.36812e-53
-1.50895e-48
5.36395e-53
-9.08445e-53
-5.45422e-45
1.11244e-49
-5.44949e-53
-5.45859e-45
1.11331e-49
-3.60531e-53
-5.45877e-45
1.1134e-49
-1.52949e-53
-5.45908e-45
1.11343e-49
2.5966e-54
-5.46007e-45
1.11363e-49
-5.45619e-45
1.11287e-49
-1.32978e-49
-1.56003e-41
-2.21296e-42
8.69518e-50
-1.56129e-41
-2.21445e-42
1.95757e-49
-1.56139e-41
-2.21415e-42
2.60705e-49
-1.56153e-41
-2.21408e-42
2.75637e-49
-1.56188e-41
-2.21427e-42
-1.56085e-41
-2.21242e-42
5.12425e-46
-2.66626e-38
-2.60142e-38
1.23091e-45
-2.66856e-38
-2.60335e-38
1.47932e-45
-2.66889e-38
-2.60343e-38
1.52107e-45
-2.66929e-38
-2.60363e-38
1.31162e-45
-2.67007e-38
-2.60422e-38
-2.6685e-38
-2.6025e-38
2.24509e-42
-1.2164e-34
2.69532e-42
-1.21747e-34
2.84605e-42
-1.21764e-34
2.72092e-42
-1.21785e-34
2.22069e-42
-1.21824e-34
-1.21756e-34
1.38249e-80
-8.55562e-73
4.01549e-77
2.21478e-81
-8.56259e-73
4.01867e-77
-2.60024e-81
-8.56254e-73
4.01855e-77
-5.53199e-81
-8.56266e-73
4.01853e-77
-8.08392e-81
-8.56351e-73
4.01884e-77
-8.55657e-73
4.01543e-77
4.64643e-76
-3.56497e-68
1.77809e-72
-4.75697e-78
-3.5677e-68
1.7794e-72
-1.95484e-76
-3.56765e-68
1.77935e-72
-3.62074e-76
-3.56764e-68
1.77931e-72
-5.46143e-76
-3.56795e-68
1.77942e-72
-3.56492e-68
1.77786e-72
9.72134e-72
-7.11046e-64
3.90312e-68
-5.50072e-73
-7.11592e-64
3.90598e-68
-4.84726e-72
-7.11589e-64
3.9059e-68
-8.45015e-72
-7.11589e-64
3.90583e-68
-1.23259e-71
-7.11655e-64
3.90613e-68
-7.11061e-64
3.90281e-68
1.19334e-67
-8.92446e-60
5.51011e-64
-1.8723e-68
-8.93138e-60
5.51418e-64
-7.63824e-68
-8.93145e-60
5.51413e-64
-1.2288e-67
-8.93148e-60
5.51409e-64
-1.75396e-67
-8.93238e-60
5.5146e-64
-8.92508e-60
5.51005e-64
8.26649e-64
-7.83961e-56
5.4674e-60
-3.77871e-64
-7.84578e-56
5.47154e-60
-8.49041e-64
-7.8459e-56
5.47157e-60
-1.25315e-63
-7.84596e-56
5.47161e-60
-1.6946e-63
-7.84681e-56
5.4722e-60
-7.84052e-56
5.46782e-60
1.75037e-60
-5.10447e-52
3.93743e-56
-4.67393e-60
-5.10854e-52
3.94052e-56
-7.44808e-60
-5.10863e-52
3.94058e-56
-9.39021e-60
-5.10869e-52
3.94065e-56
-1.14094e-59
-5.10929e-52
3.94112e-56
-5.10528e-52
3.93802e-56
-1.70541e-56
-2.566e-48
2.05142e-52
-3.64232e-56
-2.56806e-48
2.05305e-52
-4.21987e-56
-2.56811e-48
2.05309e-52
-4.47559e-56
-2.56815e-48
2.05313e-52
-4.55703e-56
-2.5685e-48
2.05338e-52
-2.56653e-48
2.05177e-52
-1.0113e-52
-1.03786e-44
7.37583e-49
-1.16676e-52
-1.03869e-44
7.38159e-49
-1.17907e-52
-1.03871e-44
7.38172e-49
-1.01017e-52
-1.03875e-44
7.38183e-49
-7.73045e-53
-1.03891e-44
7.38283e-49
-1.03815e-44
7.37717e-49
1.51e-50
-3.57082e-41
1.50255e-45
1.88304e-49
-3.57369e-41
1.50374e-45
3.32602e-49
-3.57382e-41
1.50383e-45
4.23955e-49
-3.57401e-41
1.50389e-45
4.6834e-49
-3.5747e-41
1.50416e-45
-3.57221e-41
1.50308e-45
2.43062e-45
-9.95469e-38
-1.13629e-38
3.19571e-45
-9.96284e-38
-1.13706e-38
3.73529e-45
-9.96366e-38
-1.13688e-38
3.79403e-45
-9.96464e-38
-1.13682e-38
3.33259e-45
-9.96715e-38
-1.13694e-38
-9.96088e-38
-1.13604e-38
1.26108e-41
-1.38266e-34
-1.63367e-34
1.28017e-41
-1.38391e-34
-1.63495e-34
1.27798e-41
-1.3841e-34
-1.63508e-34
1.11999e-41
-1.38432e-34
-1.63526e-34
7.96734e-42
-1.38476e-34
-1.63573e-34
-1.38396e-34
-1.63477e-34
1.5534e-38
-5.44801e-31
9.21858e-39
-5.45305e-31
6.35713e-39
-5.45393e-31
3.84617e-39
-5.45493e-31
5.43066e-40
-5.45684e-31
-5.45389e-31
9.41576e-77
-7.37004e-69
5.07872e-73
7.55601e-78
-7.37549e-69
5.08238e-73
-2.94842e-77
-7.37563e-69
5.08242e-73
-5.26184e-77
-7.37608e-69
5.08267e-73
-7.09917e-77
-7.37743e-69
5.08352e-73
-7.37249e-69
5.08e-73
3.2233e-72
-3.22095e-64
2.37247e-68
-5.24107e-73
-3.22322e-64
2.37409e-68
-2.07877e-72
-3.22327e-64
2.3741e-68
-3.39124e-72
-3.22341e-64
2.37418e-68
-4.81926e-72
-3.22396e-64
2.37456e-68
-3.22168e-64
2.37285e-68
6.84193e-68
-6.69073e-60
5.48468e-64
-1.80219e-68
-6.69544e-60
5.4884e-64
-5.437e-68
-6.69561e-60
5.48848e-64
-8.38563e-68
-6.69592e-60
5.48869e-64
-1.14474e-67
-6.69707e-60
5.4896e-64
-6.69242e-60
5.48575e-64
8.13686e-64
-8.64129e-56
8.10389e-60
-3.75827e-64
-8.64744e-56
8.10946e-60
-8.79109e-64
-8.64773e-56
8.10965e-60
-1.29011e-63
-8.64814e-56
8.11001e-60
-1.69764e-63
-8.64967e-56
8.11144e-60
-8.64374e-56
8.10589e-60
4.45774e-60
-7.67212e-52
8.32752e-56
-5.77595e-60
-7.67765e-52
8.33337e-56
-1.02379e-59
-7.67793e-52
8.33365e-56
-1.36322e-59
-7.67831e-52
8.33409e-56
-1.6717e-59
-7.6797e-52
8.33563e-56
-7.67448e-52
8.33002e-56
-3.01732e-57
-4.92191e-48
6.14271e-52
-5.70513e-56
-4.9255e-48
6.14713e-52
-8.10703e-56
-4.92568e-48
6.14736e-52
-9.63745e-56
-4.92593e-48
6.14771e-52
-1.06589e-55
-4.92686e-48
6.14888e-52
-4.92355e-48
6.14475e-52
-1.25227e-52
-2.34695e-44
3.28173e-48
-2.82823e-52
-2.34868e-44
3.28411e-48
-3.41877e-52
-2.34878e-44
3.28423e-48
-3.58019e-52
-2.34891e-44
3.28441e-48
-3.46047e-52
-2.34938e-44
3.28503e-48
-2.34783e-44
3.28282e-48
3.86034e-50
-8.43504e-41
1.2604e-44
-1.71299e-49
-8.4414e-41
1.26132e-44
-1.32471e-49
-8.44185e-41
1.26136e-44
-4.94093e-50
-8.44245e-41
1.26143e-44
3.30079e-51
-8.44431e-41
1.26168e-44
-8.43889e-41
1.26085e-44
5.27696e-45
-2.28682e-37
2.9356e-41
4.92603e-45
-2.28861e-37
2.93777e-41
5.32294e-45
-2.28878e-37
2.93795e-41
5.21293e-45
-2.289e-37
2.93817e-41
4.19928e-45
-2.28958e-37
2.93884e-41
-2.28817e-37
2.93703e-41
2.60011e-41
-4.84589e-34
2.12688e-39
2.11368e-41
-4.84986e-34
2.13016e-39
1.96969e-41
-4.85037e-34
2.1324e-39
1.62823e-41
-4.85098e-34
2.13423e-39
1.00861e-41
-4.8524e-34
2.13594e-39
-4.84958e-34
2.13642e-39
4.65035e-38
-4.98293e-31
-4.33159e-31
2.49549e-38
-4.98757e-31
-4.33502e-31
1.6942e-38
-4.98831e-31
-4.3355e-31
7.32831e-39
-4.98913e-31
-4.33618e-31
-5.88053e-39
-4.99077e-31
-4.33766e-31
-4.988e-31
-4.3353e-31
-7.70625e-36
-1.11833e-27
-3.68477e-35
-1.11939e-27
-3.9152e-35
-1.11957e-27
-3.89974e-35
-1.11978e-27
-4.24834e-35
-1.12019e-27
-1.11958e-27
1.22915e-73
-1.30306e-65
1.17436e-69
-3.86509e-75
-1.30396e-65
1.17514e-69
-5.765e-74
-1.30397e-65
1.17514e-69
-9.15717e-74
-1.30405e-65
1.17521e-69
-1.19195e-73
-1.30431e-65
1.17542e-69
-1.30347e-65
1.17464e-69
4.32076e-69
-6.1984e-61
6.02084e-65
-1.68235e-69
-6.20247e-61
6.02469e-65
-4.19054e-69
-6.20252e-61
6.02468e-65
-6.32562e-69
-6.20285e-61
6.02495e-65
-8.55054e-69
-6.20403e-61
6.02603e-65
-6.19983e-61
6.02188e-65
9.58243e-65
-1.38611e-56
1.5214e-60
-5.40788e-65
-1.38703e-56
1.52237e-60
-1.18243e-64
-1.38705e-56
1.52238e-60
-1.69366e-64
-1.38713e-56
1.52246e-60
-2.2085e-64
-1.3874e-56
1.52274e-60
-1.38647e-56
1.52171e-60
1.01828e-60
-1.89286e-52
2.43226e-56
-1.14922e-60
-1.89412e-52
2.43383e-56
-2.0781e-60
-1.89416e-52
2.43387e-56
-2.81374e-60
-1.89427e-52
2.43401e-56
-3.48386e-60
-1.89465e-52
2.43448e-56
-1.8934e-52
2.43288e-56
2.51356e-57
-1.73071e-48
2.65676e-52
-1.57973e-56
-1.73188e-48
2.6585e-52
-2.39144e-56
-1.73192e-48
2.65856e-52
-2.97561e-56
-1.73202e-48
2.65873e-52
-3.43678e-56
-1.73238e-48
2.65928e-52
-1.73126e-48
2.65755e-52
-3.30017e-53
-1.10397e-44
2.02306e-48
-1.20237e-52
-1.10472e-44
2.02441e-48
-1.58966e-52
-1.10475e-44
2.02447e-48
-1.80557e-52
-1.10482e-44
2.0246e-48
-1.91325e-52
-1.10506e-44
2.02504e-48
-1.10436e-44
2.02374e-48
-8.614e-50
-5.03723e-41
1.0707e-44
-2.95494e-49
-5.04069e-41
1.07142e-44
-3.60904e-49
-5.04087e-41
1.07145e-44
-3.82071e-49
-5.04127e-41
1.07153e-44
-4.00499e-49
-5.04246e-41
1.07177e-44
-5.03932e-41
1.07109e-44
2.28955e-45
-1.69019e-37
3.8708e-41
1.70684e-45
-1.69138e-37
3.87345e-41
1.56127e-45
-1.69148e-37
3.87359e-41
1.332e-45
-1.69164e-37
3.8739e-41
8.62588e-46
-1.69209e-37
3.87482e-41
-1.69107e-37
3.87242e-41
1.91872e-41
-4.36839e-34
8.95118e-38
1.40658e-41
-4.37163e-34
8.95751e-38
1.20461e-41
-4.37198e-34
8.95799e-38
9.07485e-42
-4.37253e-34
8.95885e-38
4.45551e-42
-4.37384e-34
8.96121e-38
-4.37132e-34
8.95586e-38
5.82877e-38
-9.13929e-31
7.89497e-35
3.162e-38
-9.14653e-31
7.90098e-35
2.06712e-38
-9.14755e-31
7.9017e-35
8.45332e-39
-9.14897e-31
7.90275e-35
-8.02423e-39
-9.15203e-31
7.9051e-35
-9.147e-31
7.90054e-35
6.05282e-35
-5.86814e-28
-9.80068e-28
-5.7631e-36
-5.87353e-28
-9.80846e-28
-2.57693e-35
-5.87442e-28
-9.80964e-28
-4.55527e-35
-5.87547e-28
-9.81148e-28
-7.08907e-35
-5.87754e-28
-9.81522e-28
-5.8743e-28
-9.81006e-28
-7.32036e-32
-1.1683e-24
-1.10228e-31
-1.16936e-24
-1.09796e-31
-1.16953e-24
-1.03201e-31
-1.16976e-24
-1.01847e-31
-1.17022e-24
-1.16958e-24
9.08347e-06
-0.256298
-0.392697
8.96592e-06
-0.256293
-0.392687
6.80857e-06
-0.256292
-0.392687
5.09758e-06
-0.256292
-0.392687
6.83191e-06
-0.256292
-0.39269
-0.256293
-0.39268
1.21969e-05
1.01739
-0.21641
9.79657e-06
1.01741
-0.216452
8.53924e-06
1.01741
-0.216439
1.16035e-05
1.0174
-0.216434
2.09287e-05
1.0174
-0.21644
1.01742
-0.216483
6.41227e-06
-1.77965e-08
7.00367e-06
-1.78344e-08
5.98336e-06
-1.78403e-08
7.83433e-06
-1.78311e-08
1.02262e-05
-1.7828e-08
-1.78254e-08
1.3896e-06
-0.222544
0.302773
-4.94873e-07
-0.222588
0.302779
-1.75057e-06
-0.222574
0.302779
-2.2492e-06
-0.222568
0.302778
-8.74598e-06
-0.222573
0.302775
-0.22262
0.302776
3.75702e-08
-1.75564e-09
-3.14067e-10
1.15583e-08
-1.75944e-09
-3.15016e-10
8.51669e-08
-1.76e-09
-3.14887e-10
2.56304e-08
-1.75908e-09
-3.15067e-10
-2.75955e-07
-1.75877e-09
-3.14581e-10
-1.7586e-09
-3.14507e-10
-1.02069e-15
-1.95522e-08
-6.1267e-16
-1.95938e-08
-1.83071e-15
-1.96003e-08
-5.94291e-15
-1.95902e-08
-8.36986e-15
-1.95868e-08
-1.9584e-08
2.52383e-07
-5.53896e-08
0.0266768
-5.75126e-08
-5.54656e-08
0.0266785
-2.87065e-08
-5.5476e-08
0.0266781
7.3529e-10
-5.55018e-08
0.0266782
-3.79602e-07
-5.54784e-08
0.0266786
-5.54756e-08
0.0266813
2.47467e-14
-3.71551e-08
-1.42263e-09
2.38737e-14
-3.72312e-08
-1.4235e-09
5.4858e-14
-3.72436e-08
-1.42289e-09
8.10617e-14
-3.72263e-08
-1.42294e-09
1.24449e-13
-3.72203e-08
-1.42381e-09
-3.72154e-08
-1.42567e-09
-2.36048e-13
-5.6707e-08
-3.26773e-13
-5.6825e-08
-3.40623e-13
-5.68438e-08
-3.39304e-13
-5.68165e-08
-1.97721e-13
-5.68072e-08
-5.67996e-08
8.76388e-08
-0.000130693
0.000567063
6.40354e-08
-0.00013069
0.000567229
3.94166e-08
-0.000130692
0.000567221
2.67716e-08
-0.00013069
0.000567229
1.96216e-08
-0.000130687
0.000567251
-0.000130676
0.000567313
2.88763e-10
-3.72707e-06
-0.00012695
3.29593e-10
-3.73007e-06
-0.000126944
2.53833e-10
-3.73056e-06
-0.000126945
1.77586e-10
-3.72986e-06
-0.000126944
1.51336e-10
-3.7297e-06
-0.000126941
-3.72925e-06
-0.00012693
1.05643e-11
-4.55059e-06
4.99548e-12
-4.55543e-06
9.89269e-13
-4.55631e-06
-8.12337e-13
-4.55504e-06
-1.44775e-12
-4.5547e-06
-4.55458e-06
1.7183e-09
-9.41631e-05
-1.11188e-06
1.24778e-09
-9.41783e-05
-1.1115e-06
7.96106e-10
-9.41743e-05
-1.11149e-06
1.31489e-11
-9.41745e-05
-1.11144e-06
-1.01959e-09
-9.41789e-05
-1.11125e-06
-9.41841e-05
-1.11126e-06
1.84498e-09
-4.34646e-06
-1.6658e-07
-2.21759e-09
-4.34918e-06
-1.66561e-07
-3.54413e-09
-4.34806e-06
-1.66607e-07
-3.44483e-09
-4.34832e-06
-1.66612e-07
-4.12695e-09
-4.34892e-06
-1.66544e-07
-4.34681e-06
-1.66645e-07
3.25754e-11
-7.60544e-10
3.44286e-11
-7.60631e-10
2.01787e-11
-7.60878e-10
1.8372e-11
-7.60975e-10
6.51543e-11
-7.60733e-10
-7.62828e-10
-2.72858e-11
1.66267e-07
-1.91772e-08
-1.85232e-11
1.66248e-07
-1.91769e-08
3.97565e-12
1.66294e-07
-1.91786e-08
2.19405e-11
1.663e-07
-1.91778e-08
2.13292e-11
1.66231e-07
-1.91716e-08
1.66103e-07
-1.91615e-08
-1.70057e-13
7.55757e-10
-8.48635e-10
-1.31018e-13
7.55843e-10
-8.48767e-10
-7.11304e-14
7.56089e-10
-8.48839e-10
-1.34576e-14
7.56186e-10
-8.48822e-10
5.37698e-14
7.55946e-10
-8.48617e-10
7.58032e-10
-8.49663e-10
-1.74384e-16
-4.88204e-12
-2.03185e-16
-4.88316e-12
-2.78563e-16
-4.88421e-12
-2.52073e-16
-4.88459e-12
-3.02956e-17
-4.88347e-12
-4.89218e-12
1.15452e-14
2.02106e-10
-3.08807e-08
1.24553e-13
2.02165e-10
-3.08874e-08
1.73507e-13
2.02178e-10
-3.08832e-08
1.98984e-13
2.0221e-10
-3.08787e-08
1.66213e-13
2.0216e-10
-3.08791e-08
2.0238e-10
-3.08701e-08
1.84935e-16
2.09419e-13
-7.47942e-10
1.23069e-16
2.09593e-13
-7.48051e-10
1.89512e-17
2.09674e-13
-7.48101e-10
5.75625e-16
2.09799e-13
-7.48057e-10
1.18079e-15
2.09822e-13
-7.47891e-10
2.09881e-13
-7.48624e-10
1.22483e-18
-5.02867e-12
1.88601e-18
-5.02992e-12
2.2771e-18
-5.03093e-12
3.88041e-18
-5.03133e-12
5.62526e-18
-5.03025e-12
-5.03815e-12
4.22501e-12
-1.82689e-08
-8.20197e-07
6.89677e-12
-1.82746e-08
-8.20368e-07
7.10151e-12
-1.82722e-08
-8.20271e-07
6.26594e-12
-1.82701e-08
-8.20191e-07
4.25283e-12
-1.82696e-08
-8.20155e-07
-1.82624e-08
-8.19902e-07
6.19314e-15
-1.95167e-10
-1.93249e-08
1.92516e-14
-1.95236e-10
-1.93307e-08
3.74438e-14
-1.95211e-10
-1.93282e-08
6.44288e-14
-1.95191e-10
-1.93261e-08
6.96348e-14
-1.95193e-10
-1.93262e-08
-1.95104e-10
-1.93191e-08
-3.88251e-17
-2.12367e-10
-1.48867e-16
-2.12442e-10
-7.24963e-17
-2.12417e-10
1.35431e-16
-2.12396e-10
2.03876e-16
-2.12397e-10
-2.12309e-10
4.13307e-11
1.73359e-08
-1.79243e-07
3.88832e-11
1.73413e-08
-1.79283e-07
1.49123e-11
1.73388e-08
-1.79257e-07
-1.55202e-12
1.73365e-08
-1.79251e-07
1.11487e-11
1.73356e-08
-1.79283e-07
1.73284e-08
-1.79193e-07
6.53762e-14
5.65644e-10
-3.17712e-09
3.83032e-13
5.65859e-10
-3.1779e-09
6.05529e-13
5.65768e-10
-3.17756e-09
7.97797e-13
5.65686e-10
-3.17758e-09
1.0459e-12
5.65651e-10
-3.17847e-09
5.65308e-10
-3.17675e-09
-1.11154e-14
-3.71033e-11
-6.50581e-15
-3.71136e-11
-6.52349e-16
-3.711e-11
3.96983e-15
-3.71105e-11
5.94424e-15
-3.71201e-11
-3.70992e-11
-1.66471e-12
5.25509e-09
-1.35793e-09
-1.52973e-11
5.25659e-09
-1.35797e-09
-2.62143e-11
5.25624e-09
-1.35751e-09
-2.91999e-11
5.25657e-09
-1.35738e-09
-1.42439e-11
5.25827e-09
-1.35734e-09
5.25548e-09
-1.35711e-09
-1.32182e-13
2.52791e-10
-4.75662e-12
-2.05986e-13
2.5287e-10
-4.75907e-12
-2.39576e-13
2.5285e-10
-4.75969e-12
-2.14984e-13
2.52862e-10
-4.76306e-12
-2.28385e-14
2.5294e-10
-4.76655e-12
2.52795e-10
-4.76854e-12
-2.05049e-15
-1.72924e-13
-1.68383e-15
-1.73009e-13
-6.49763e-16
-1.73008e-13
1.56704e-16
-1.73043e-13
1.06104e-15
-1.73131e-13
-1.73036e-13
-4.42375e-13
6.28824e-11
-3.56734e-10
-8.00031e-13
6.29068e-11
-3.56873e-10
-9.92017e-13
6.29086e-11
-3.56861e-10
-9.55861e-13
6.29215e-11
-3.56928e-10
-5.56171e-13
6.29465e-11
-3.57114e-10
6.29247e-11
-3.56912e-10
-3.45395e-15
4.22304e-12
-6.11365e-13
-6.07887e-15
4.22567e-12
-6.11718e-13
-7.22785e-15
4.2257e-12
-6.11522e-13
-6.86447e-15
4.22653e-12
-6.11592e-13
-3.19982e-15
4.22854e-12
-6.12219e-13
4.22615e-12
-6.11151e-13
-1.09408e-17
5.96749e-15
-2.01638e-17
5.97207e-15
-2.59009e-17
5.97251e-15
-2.4331e-17
5.97413e-15
-5.79366e-18
5.9773e-15
5.97405e-15
-5.68043e-15
6.65138e-12
1.07991e-12
-8.21307e-15
6.65495e-12
1.08075e-12
-8.97422e-15
6.6552e-12
1.08077e-12
-8.30316e-15
6.65646e-12
1.08093e-12
-4.99895e-15
6.65924e-12
1.08133e-12
6.65629e-12
1.08071e-12
-6.33819e-17
1.87345e-13
-2.06185e-13
-1.1259e-16
1.87471e-13
-2.06319e-13
-1.40053e-16
1.87483e-13
-2.06322e-13
-1.37711e-16
1.87525e-13
-2.06361e-13
-7.63166e-17
1.87614e-13
-2.06455e-13
1.87521e-13
-2.06341e-13
-1.90456e-19
-1.69177e-15
-5.25168e-19
-1.69297e-15
-8.0747e-19
-1.69302e-15
-8.31083e-19
-1.69336e-15
-3.67159e-19
-1.69417e-15
-1.69319e-15
-3.37102e-27
2.76034e-22
-7.56279e-20
7.7486e-22
-6.98899e-27
2.76266e-22
-7.56937e-20
7.75512e-22
-7.57759e-27
2.76297e-22
-7.57013e-20
7.75602e-22
-5.70424e-27
2.76354e-22
-7.57169e-20
7.75762e-22
-2.9381e-27
2.76471e-22
-7.57496e-20
7.76088e-22
2.76322e-22
-7.57067e-20
7.75667e-22
-1.53632e-28
1.90806e-23
-2.97517e-21
2.31109e-23
-2.39443e-28
1.90962e-23
-2.97771e-21
2.31299e-23
-2.65574e-28
1.90985e-23
-2.97803e-21
2.31326e-23
-2.2619e-28
1.91024e-23
-2.97867e-21
2.31374e-23
-7.24185e-29
1.91105e-23
-2.97998e-21
2.31471e-23
1.91002e-23
-2.97832e-21
2.31347e-23
-6.45506e-31
-1.61408e-23
8.9851e-26
-1.28815e-30
-1.61539e-23
8.99213e-26
-1.56593e-30
-1.61557e-23
8.99319e-26
-1.1539e-30
-1.6159e-23
8.995e-26
6.73195e-33
-1.61658e-23
8.99863e-26
-1.61572e-23
8.99389e-26
-4.35128e-25
2.76566e-20
-5.39749e-18
-6.17208e-25
2.76805e-20
-5.40228e-18
-6.26054e-25
2.76832e-20
-5.40268e-18
-2.88988e-25
2.7689e-20
-5.40373e-18
5.62683e-26
2.7701e-20
-5.40604e-18
2.76854e-20
-5.4028e-18
-1.84146e-26
2.55008e-21
-2.77476e-19
-2.75217e-26
2.55225e-21
-2.77721e-19
-2.41201e-26
2.55253e-21
-2.77748e-19
-1.44669e-26
2.55307e-21
-2.77808e-19
3.82475e-27
2.5542e-21
-2.77936e-19
2.55279e-21
-2.77775e-19
6.48311e-30
-1.98261e-21
-1.12499e-28
-1.98429e-21
-1.75972e-28
-1.9845e-21
-1.12111e-28
-1.98493e-21
5.60587e-29
-1.98581e-21
-1.98473e-21
-2.11352e-23
1.99439e-18
-2.94988e-16
-3.57055e-23
1.99614e-18
-2.95244e-16
-4.32834e-23
1.99629e-18
-2.95255e-16
-1.88919e-23
1.99667e-18
-2.95304e-16
3.40253e-24
1.99753e-18
-2.95421e-16
1.99634e-18
-2.95236e-16
-1.56517e-24
2.4035e-19
-1.89434e-17
-2.61433e-24
2.40561e-19
-1.89604e-17
-2.27115e-24
2.40584e-19
-1.89619e-17
-1.31076e-24
2.40636e-19
-1.8966e-17
-1.20851e-25
2.40747e-19
-1.89748e-17
2.40608e-19
-1.89633e-17
-1.92934e-28
-1.68751e-19
-1.16755e-26
-1.68898e-19
-1.85869e-26
-1.68914e-19
-1.41728e-26
-1.68951e-19
-6.85054e-27
-1.69029e-19
-1.68933e-19
-2.38043e-21
1.07256e-16
-5.53927e-16
-2.7309e-21
1.07348e-16
-5.54411e-16
-2.42716e-21
1.07352e-16
-5.54436e-16
-1.54016e-21
1.07369e-16
-5.54534e-16
-7.49705e-23
1.07412e-16
-5.54759e-16
1.07345e-16
-5.54411e-16
-2.11618e-22
1.63301e-17
-4.56373e-17
-2.7072e-22
1.63446e-17
-4.56786e-17
-2.47821e-22
1.63458e-17
-4.5682e-17
-1.82864e-22
1.63493e-17
-4.56916e-17
-7.0324e-23
1.63569e-17
-4.57126e-17
1.63471e-17
-4.56842e-17
-1.24008e-24
-9.94503e-18
-1.82076e-24
-9.95358e-18
-2.51051e-24
-9.95431e-18
-2.38754e-24
-9.9564e-18
-1.70177e-24
-9.96093e-18
-9.95514e-18
-3.80412e-20
5.25667e-15
-5.389e-14
-7.62317e-20
5.2611e-15
-5.39346e-14
-5.54262e-20
5.26124e-15
-5.39363e-14
-3.70219e-20
5.26208e-15
-5.39451e-14
1.409e-23
5.26416e-15
-5.39663e-14
5.26095e-15
-5.39339e-14
-1.3251e-20
5.66586e-17
-3.00849e-15
-1.69763e-20
5.67079e-17
-3.01154e-15
-1.8454e-20
5.6712e-17
-3.0117e-15
-1.64284e-20
5.67243e-17
-3.01225e-15
-7.39184e-21
5.6751e-17
-3.01355e-15
5.67171e-17
-3.01153e-15
-1.75372e-22
-2.17443e-16
-2.1738e-22
-2.17629e-16
-2.70003e-22
-2.17641e-16
-2.63242e-22
-2.17685e-16
-1.54779e-22
-2.17783e-16
-2.17651e-16
-2.57695e-19
5.53393e-13
-4.10139e-18
5.53848e-13
-4.96837e-18
5.53863e-13
-5.27955e-18
5.53955e-13
-4.30483e-18
5.5418e-13
5.53862e-13
-3.12134e-19
6.07227e-15
-7.00116e-19
6.07838e-15
-9.63061e-19
6.07888e-15
-9.44371e-19
6.08009e-15
-4.48362e-19
6.08272e-15
6.07922e-15
-3.83479e-21
-6.43041e-21
-8.17298e-21
-8.3559e-21
-4.60209e-21
1.72783e-70
3.23052e-66
-3.07158e-62
-4.27836e-71
3.23277e-66
-3.07377e-62
-1.34212e-70
3.233e-66
-3.074e-62
-1.95003e-70
3.23346e-66
-3.07447e-62
-2.43164e-70
3.23439e-66
-3.07538e-62
3.23252e-66
-3.07365e-62
4.56205e-74
2.6605e-69
-2.04993e-65
-4.3259e-74
2.66234e-69
-2.05137e-65
-8.20403e-74
2.66252e-69
-2.05152e-65
-1.1069e-73
2.6629e-69
-2.05182e-65
-1.36018e-73
2.66366e-69
-2.05243e-65
2.66209e-69
-2.05125e-65
-1.24197e-78
-1.39011e-69
-5.13837e-78
-1.39107e-69