/*--------------------------------*- C++ -*----------------------------------*\
| =========                 |                                                 |
| \\      /  F ield         | OpenFOAM: The Open Source CFD Toolbox           |
|  \\    /   O peration     | Version:  v1612+                                |
|   \\  /    A nd           | Web:      www.OpenFOAM.com                      |
|    \\/     M anipulation  |                                                 |
\*---------------------------------------------------------------------------*/
FoamFile
{
    version     2.0;
    format      ascii;
    class       surfaceScalarField;
    location    "1.2";
    object      phi;
}
// * * * * * * * * * * * * * * * * * * * * * * * * * * * * * * * * * * * * * //

dimensions      [0 3 -1 0 0 0 0];

internalField   nonuniform List<scalar> 
2916
(
1.58451e-07
0.335778
-0.335779
2.64303e-07
0.33578
-0.335779
4.94413e-07
0.335779
-0.33578
9.21224e-07
0.335779
-0.335779
1.09249e-06
0.335779
-0.335779
0.335778
-0.335777
8.27395e-07
0.776602
-0.440825
1.19861e-06
0.776605
-0.440826
1.79991e-06
0.776604
-0.440825
1.81021e-06
0.776603
-0.440824
1.19769e-06
0.776603
-0.440823
0.776601
-0.440821
3.00212e-06
1.36234
-0.585744
5.23424e-06
1.36235
-0.585744
5.73922e-06
1.36234
-0.585741
4.55793e-06
1.36234
-0.585739
2.48501e-06
1.36234
-0.585738
1.36234
-0.585736
-1.28572e-06
2.11682
-0.754472
4.42511e-06
2.11682
-0.754477
5.46574e-06
2.11682
-0.754472
4.24421e-06
2.11681
-0.75447
2.97531e-06
2.11681
-0.75447
2.11681
-0.75447
-1.12783e-05
2.97131
-0.854479
1.9115e-06
2.97131
-0.85451
7.93098e-06
2.97131
-0.854504
9.71746e-06
2.97131
-0.854502
1.0436e-05
2.97132
-0.854503
2.97132
-0.854495
-1.79992e-05
3.82606
-0.854732
-4.87409e-06
3.82609
-0.854791
3.65145e-06
3.82609
-0.854782
5.23838e-06
3.82609
-0.854777
3.75328e-06
3.8261
-0.854781
3.82609
-0.85477
-4.42378e-06
5.02191
-1.19585
-2.34477e-06
5.02197
-1.19588
-1.52477e-06
5.02195
-1.19587
-5.42305e-06
5.02195
-1.19586
-4.25669e-06
5.02198
-1.19588
5.02196
-1.19587
1.51908e-05
5.93432
-0.912428
1.5927e-05
5.93449
-0.912519
-1.05707e-05
5.93448
-0.9125
-3.78527e-05
5.93448
-0.912496
-1.82409e-05
5.93452
-0.912562
5.93433
-0.912393
-0.000100639
4.75948
1.17494
-3.0266e-05
4.75955
1.17486
6.78163e-06
4.75955
1.17489
1.44853e-05
4.75958
1.17489
7.55353e-05
4.75961
1.17485
4.7594
1.17501
4.6807e-05
2.97174
1.7877
3.43006e-05
2.97195
1.78762
8.18234e-05
2.9719
1.7876
0.000131059
2.97193
1.78761
0.000159677
2.97195
1.78763
2.97174
1.78781
0.000156157
1.34835
1.62323
0.00026956
1.3486
1.62323
0.000340827
1.34859
1.62326
0.000370776
1.34857
1.62333
0.000308127
1.34856
1.62346
1.34846
1.62359
3.61852e-05
1.34831
0.000193894
1.34845
0.000271241
1.34851
0.000284604
1.34855
0.000225764
1.34862
1.34868
9.13668e-08
0.299118
-0.634896
-4.72409e-08
0.299119
-0.634898
3.32128e-08
0.299118
-0.634897
2.91626e-07
0.299117
-0.634897
2.33591e-07
0.299117
-0.634896
0.299117
-0.634894
3.14037e-06
0.69038
-0.83209
2.57713e-06
0.690385
-0.832091
1.99106e-06
0.690382
-0.832089
5.58074e-07
0.690382
-0.832087
-6.21292e-07
0.690382
-0.832087
0.690381
-0.832085
8.1159e-06
1.16078
-1.05615
8.09468e-06
1.16079
-1.05615
5.32253e-06
1.16079
-1.05615
2.60668e-06
1.16079
-1.05614
2.08682e-06
1.16079
-1.05614
1.16079
-1.05614
4.72246e-06
1.90697
-1.50066
8.90968e-06
1.90698
-1.50067
6.13677e-06
1.90698
-1.50066
4.13343e-06
1.90698
-1.50066
4.90911e-06
1.90698
-1.50066
1.90698
-1.50066
-1.13735e-05
3.03104
-1.97854
6.74069e-06
3.03107
-1.97862
1.1888e-05
3.03107
-1.9786
1.10275e-05
3.03107
-1.97859
8.19011e-06
3.03108
-1.9786
3.03107
-1.97858
-9.26518e-06
4.11514
-1.93883
9.48052e-06
4.11527
-1.939
1.4449e-05
4.11525
-1.93897
1.4128e-05
4.11526
-1.93896
5.98902e-06
4.11528
-1.93898
4.11526
-1.93895
-5.46213e-05
4.77564
-1.85629
-6.64019e-05
4.77583
-1.85643
-5.34678e-05
4.7758
-1.85643
-3.82524e-05
4.77581
-1.85642
-6.32198e-05
4.77591
-1.85649
4.77578
-1.85645
-0.000139876
5.21443
-1.35107
-0.00021987
5.21467
-1.35127
-0.000242016
5.21462
-1.35129
-0.000260692
5.21462
-1.35128
-0.000253057
5.21475
-1.35141
5.21438
-1.35124
-6.8609e-05
4.11657
2.27287
-0.000224936
4.11688
2.2728
-0.000232315
4.11675
2.27276
-0.000197114
4.11675
2.27272
-0.000249418
4.11697
2.27269
4.11635
2.27279
5.65893e-05
2.35836
3.54586
3.24838e-05
2.35875
3.54577
2.97137e-05
2.35863
3.54572
3.94773e-05
2.35863
3.54572
5.29405e-05
2.35881
3.54578
2.35836
3.54585
0.000172382
1.01254
2.96887
0.000371741
1.01284
2.96895
0.000382543
1.01284
2.96903
0.000330638
1.01283
2.96917
0.000319508
1.01287
2.9694
1.01277
2.96951
-8.63886e-05
2.36094
4.26551e-05
2.36116
0.00011981
2.36127
0.000134337
2.36137
0.000130474
2.36149
2.36158
3.02559e-06
0.174671
-0.80957
3.37843e-06
0.174673
-0.809572
3.47361e-06
0.174673
-0.80957
3.10978e-06
0.174673
-0.809569
1.50642e-06
0.174674
-0.809569
0.174674
-0.809567
9.64072e-06
0.372363
-1.02979
8.79556e-06
0.372375
-1.02979
6.28716e-06
0.372376
-1.02979
3.88796e-06
0.372377
-1.02979
2.80175e-06
0.372378
-1.02979
0.372377
-1.02978
8.89869e-06
0.835341
-1.51914
7.28028e-06
0.835369
-1.51914
3.25055e-06
0.835371
-1.51914
9.14635e-07
0.835371
-1.51914
3.02564e-06
0.835369
-1.51914
0.835361
-1.51912
1.5473e-05
1.793
-2.45833
1.59524e-05
1.79305
-2.45836
1.6329e-05
1.79305
-2.45834
1.62083e-05
1.79305
-2.45834
1.53951e-05
1.79305
-2.45834
1.79303
-2.45831
4.30659e-05
2.95158
-3.13716
4.48477e-05
2.95167
-3.13724
3.40265e-05
2.95167
-3.1372
2.75172e-05
2.95167
-3.1372
1.51334e-05
2.95167
-3.13721
2.95162
-3.13716
6.76559e-05
2.3545
-1.34182
3.52958e-05
2.35482
-1.34212
2.23982e-05
2.35475
-1.34204
1.71334e-05
2.35474
-1.34203
-8.27842e-06
2.35484
-1.34212
2.35478
-1.34212
-6.50355e-06
1.62213
-1.12392
-0.000149723
1.62252
-1.12398
-0.000131036
1.62233
-1.12404
-8.05885e-05
1.62232
-1.12406
-0.000112031
1.62254
-1.12416
1.62249
-1.12427
-7.78993e-05
0.394914
-0.123787
-0.000161975
0.395224
-0.123882
-0.000207959
0.39502
-0.123938
-0.00022379
0.395001
-0.123946
-0.000297387
0.395249
-0.124048
0.395073
-0.124125
-2.72417e-05
-0.0687802
2.73659
-3.29257e-05
-0.0685627
2.73659
-4.99306e-05
-0.0687081
2.73652
-0.000120418
-0.0686849
2.73648
-0.000248733
-0.0684114
2.73648
-0.0687473
2.73637
0.00010758
-0.0618889
3.53886
0.000221081
-0.0617427
3.53884
0.000193381
-0.0617736
3.53882
0.000124241
-0.0617448
3.53884
6.51477e-05
-0.0615884
3.53901
-0.0617537
3.53892
4.37227e-05
0.143804
2.76313
4.82465e-05
0.143937
2.76327
-1.39755e-05
0.143948
2.76338
-6.34591e-05
0.143945
2.76353
-1.066e-05
0.143968
2.76379
0.143913
2.76383
-0.000164922
2.50491
-0.000168694
2.50509
-0.000132358
2.50517
-9.2387e-05
2.50527
-3.52815e-05
2.5054
2.50545
1.33552e-05
-0.131922
-0.677661
1.03895e-05
-0.131912
-0.677656
7.983e-06
-0.131911
-0.677657
5.59805e-06
-0.13191
-0.677657
3.77863e-06
-0.13191
-0.677657
-0.131908
-0.677655
1.05664e-05
0.05042
-1.21214
7.254e-06
0.0504439
-1.21214
3.60022e-06
0.0504463
-1.21214
7.05055e-07
0.0504464
-1.21214
2.29138e-06
0.0504439
-1.21215
0.0504479
-1.21214
1.50785e-05
1.08835
-2.55708
5.44481e-06
1.08839
-2.55708
3.08765e-06
1.08839
-2.55707
3.31692e-06
1.08838
-2.55707
2.03835e-06
1.08838
-2.55707
1.08838
-2.55705
3.99036e-05
2.28473
-3.65475
3.55251e-05
2.28491
-3.65487
2.86347e-05
2.28491
-3.65486
9.65282e-06
2.28491
-3.65485
-1.28436e-05
2.28492
-3.65487
2.28492
-3.65487
9.39005e-05
1.61909
-2.47162
8.54269e-05
1.6195
-2.47181
7.41218e-05
1.61947
-2.47174
5.48117e-05
1.61947
-2.47174
5.78243e-06
1.61953
-2.47176
1.61946
-2.47169
-2.83038e-05
0.146567
0.130735
-7.36948e-05
0.146796
0.130624
-2.0267e-05
0.146704
0.130677
2.65419e-05
0.146712
0.130681
-3.99512e-06
0.146839
0.130603
0.146839
0.130495
-3.70345e-05
-1.14784
0.170522
8.72174e-05
-1.14789
0.170569
0.000165446
-1.14795
0.170526
0.000172333
-1.1479
0.170544
7.10762e-05
-1.14771
0.170498
-1.14765
0.170289
0.000162189
-2.07803
0.806244
0.000200893
-2.07811
0.806303
0.000144474
-2.07811
0.806289
7.31423e-05
-2.07805
0.806282
-5.23455e-05
-2.07787
0.806232
-2.07787
0.80604
0.000128691
-1.61154
2.26997
0.00012573
-1.61159
2.27007
6.25589e-05
-1.61155
2.27002
-1.83541e-05
-1.61148
2.26998
-6.30742e-05
-1.61133
2.26998
-1.61132
2.26976
8.45078e-05
-0.635429
2.56266
1.2401e-05
-0.635379
2.56271
-9.52038e-05
-0.635332
2.56271
-0.000173154
-0.635291
2.56273
-0.000124907
-0.635231
2.56287
-0.635238
2.56271
-0.000147461
-0.193782
2.32163
-0.00029399
-0.193708
2.32174
-0.000372528
-0.193693
2.32181
-0.000364518
-0.19369
2.32192
-0.000237698
-0.193691
2.32212
-0.193727
2.32208
-0.000166691
2.31129
-0.000197793
2.31141
-0.00019079
2.31147
-0.000151851
2.31154
-8.1948e-05
2.31164
2.31164
6.00955e-07
-0.000785297
0.000784696
1.90866e-07
-0.000785349
0.000784665
3.12657e-08
-0.000785373
0.000784634
-4.52745e-08
-0.000785387
0.000784618
-7.08964e-08
-0.000785406
0.000784599
-0.000785437
0.000784535
4.90013e-07
-0.0016014
0.000814943
9.92199e-08
-0.00160145
0.00081491
-6.1823e-08
-0.00160145
0.000814888
-1.56257e-07
-0.00160146
0.000814866
-2.32855e-07
-0.00160147
0.000814849
-0.00160145
0.000814791
5.01101e-07
-0.00247536
0.000872831
8.8119e-08
-0.00247544
0.000872797
-7.64312e-08
-0.00247544
0.000872771
-1.76593e-07
-0.00247545
0.000872751
-2.56953e-07
-0.00247546
0.000872736
-0.0024754
0.00087268
4.79898e-07
-0.00342835
0.000951827
6.73112e-08
-0.00342847
0.000951794
-9.53901e-08
-0.00342848
0.00095177
-1.97787e-07
-0.00342849
0.000951758
-2.80412e-07
-0.00342849
0.000951746
-0.00342841
0.000951697
3.61909e-07
-0.00446824
0.00103881
1.30169e-08
-0.00446841
0.00103879
-1.33728e-07
-0.00446842
0.00103878
-2.28076e-07
-0.00446843
0.00103877
-3.01514e-07
-0.00446844
0.00103877
-0.00446831
0.00103873
1.26145e-07
-0.00557788
0.00110883
-9.82183e-08
-0.00557807
0.00110885
-1.87399e-07
-0.0055781
0.00110885
-2.62281e-07
-0.0055781
0.00110887
-3.08476e-07
-0.0055781
0.00110887
-0.00557793
0.00110884
-2.6135e-07
-0.00670021
0.0011221
-3.02312e-07
-0.00670042
0.00112216
-3.18558e-07
-0.00670045
0.00112217
-3.20419e-07
-0.00670044
0.00112218
-2.96433e-07
-0.00670043
0.00112219
-0.00670023
0.00112215
-6.39252e-07
-0.00772345
0.00102376
-4.15861e-07
-0.00772369
0.00102382
-3.28086e-07
-0.00772369
0.00102384
-2.38107e-07
-0.00772364
0.00102383
-1.34808e-07
-0.00772359
0.00102382
-0.00772333
0.00102379
-7.88417e-07
-0.00829165
0.000569349
-3.10876e-07
-0.00829188
0.000569382
-1.08864e-07
-0.00829182
0.000569422
5.50609e-08
-0.00829175
0.000569423
1.75725e-07
-0.00829165
0.000569448
-0.00829136
0.000569478
-5.71848e-07
-0.00775711
-0.000533171
4.2287e-08
-0.00775727
-0.00053308
3.28661e-07
-0.00775722
-0.000532993
4.97187e-07
-0.00775715
-0.000532935
5.69316e-07
-0.00775706
-0.000532862
-0.00775677
-0.000532754
-1.73644e-07
-0.00552866
-0.00222722
5.20653e-07
-0.00552873
-0.00222709
7.6894e-07
-0.00552868
-0.00222695
8.67189e-07
-0.00552866
-0.00222687
8.24248e-07
-0.00552864
-0.00222678
-0.00552845
-0.00222658
1.89404e-07
-0.00552782
5.18433e-07
-0.00552784
6.68081e-07
-0.00552781
7.26773e-07
-0.00552782
6.89569e-07
-0.0055278
-0.00552761
4.05249e-07
-0.000787364
0.00157095
6.47709e-08
-0.000787413
0.00157096
-7.68564e-08
-0.000787425
0.00157095
-1.62738e-07
-0.000787443
0.00157094
-2.38542e-07
-0.000787459
0.00157093
-0.000787484
0.00157089
3.26735e-07
-0.00161088
0.00163693
1.18997e-11
-0.00161093
0.00163694
-1.3465e-07
-0.00161093
0.00163693
-2.52432e-07
-0.00161094
0.00163692
-3.79279e-07
-0.00161096
0.00163691
-0.00161093
0.00163687
3.34166e-07
-0.00250397
0.00176436
-1.62589e-08
-0.00250405
0.00176436
-1.66387e-07
-0.00250405
0.00176436
-2.92409e-07
-0.00250406
0.00176435
-4.26366e-07
-0.00250407
0.00176435
-0.00250402
0.00176431
3.04083e-07
-0.00349479
0.00194105
-5.08161e-08
-0.00349491
0.00194106
-2.09333e-07
-0.00349491
0.00194105
-3.34509e-07
-0.00349492
0.00194105
-4.75222e-07
-0.00349493
0.00194106
-0.00349484
0.00194104
1.87483e-07
-0.00459899
0.00214156
-1.37484e-07
-0.00459914
0.00214159
-2.65829e-07
-0.00459916
0.00214159
-3.78076e-07
-0.00459916
0.00214161
-5.00814e-07
-0.00459916
0.00214163
-0.00459902
0.00214162
-5.77927e-08
-0.00580112
0.00231002
-2.67612e-07
-0.00580131
0.00231008
-3.55248e-07
-0.00580133
0.0023101
-4.14115e-07
-0.00580132
0.00231013
-4.76757e-07
-0.0058013
0.00231016
-0.00580111
0.00231013
-3.50814e-07
-0.00701002
0.00233091
-3.83486e-07
-0.00701026
0.00233098
-3.74368e-07
-0.00701027
0.002331
-3.47355e-07
-0.00701023
0.00233102
-3.00894e-07
-0.00701016
0.00233103
-0.0070099
0.00233096
-4.6557e-07
-0.00799996
0.00201453
-2.90045e-07
-0.00800019
0.00201456
-2.11242e-07
-0.00800014
0.00201457
-1.04729e-07
-0.00800008
0.00201456
2.31616e-08
-0.00799999
0.00201455
-0.0079997
0.00201449
-2.3299e-07
-0.00858817
0.00115896
1.40865e-07
-0.0085884
0.001159
3.40241e-07
-0.00858831
0.00115903
4.80353e-07
-0.00858821
0.00115904
5.89994e-07
-0.00858808
0.00115905
-0.00858772
0.00115904
2.57493e-07
-0.00849745
-0.000622484
7.35022e-07
-0.00849768
-0.000622396
9.68201e-07
-0.00849762
-0.000622245
1.06808e-06
-0.00849752
-0.000622145
1.05664e-06
-0.00849741
-0.000622047
-0.00849702
-0.000621922
7.16844e-07
-0.00626783
-0.00445589
1.05644e-06
-0.00626796
-0.00445579
1.18599e-06
-0.00626793
-0.00445565
1.16329e-06
-0.00626787
-0.00445553
1.01097e-06
-0.00626781
-0.00445544
-0.00626755
-0.00445526
5.6607e-07
-0.011795
5.04624e-07
-0.0117953
5.00115e-07
-0.0117954
5.09101e-07
-0.0117955
5.15534e-07
-0.0117956
-0.0117954
3.224e-07
-0.00075677
0.00232681
3.02424e-08
-0.000756813
0.00232683
-9.74509e-08
-0.000756818
0.00232683
-1.77289e-07
-0.000756834
0.00232683
-2.42731e-07
-0.000756849
0.00232683
-0.000756865
0.00232677
2.52285e-07
-0.00155811
0.00243699
-3.61748e-08
-0.00155816
0.00243702
-1.57334e-07
-0.00155816
0.00243702
-2.6004e-07
-0.00155817
0.00243701
-3.71143e-07
-0.00155818
0.00243702
-0.00155815
0.00243697
2.4941e-07
-0.00244926
0.0026542
-6.4537e-08
-0.00244933
0.00265423
-1.99527e-07
-0.00244933
0.00265423
-3.08716e-07
-0.00244935
0.00265423
-4.22667e-07
-0.00244936
0.00265424
-0.0024493
0.00265419
2.04401e-07
-0.00347713
0.0029676
-1.16967e-07
-0.00347724
0.00296763
-2.53474e-07
-0.00347725
0.00296764
-3.66241e-07
-0.00347726
0.00296765
-4.78284e-07
-0.00347727
0.00296767
-0.00347718
0.00296763
7.38689e-08
-0.00468867
0.00335194
-2.09317e-07
-0.00468882
0.00335202
-3.32698e-07
-0.00468884
0.00335203
-4.26316e-07
-0.00468885
0.00335206
-5.09949e-07
-0.00468885
0.0033521
-0.00468872
0.00335206
-1.31411e-07
-0.00613471
0.00375536
-3.1284e-07
-0.00613489
0.00375546
-3.97421e-07
-0.00613491
0.00375549
-4.44112e-07
-0.0061349
0.00375553
-4.62575e-07
-0.00613489
0.00375556
-0.00613471
0.0037555
-2.82837e-07
-0.00789723
0.0040934
-3.09419e-07
-0.00789744
0.00409351
-3.16575e-07
-0.00789741
0.00409352
-2.88611e-07
-0.00789738
0.00409353
-2.28362e-07
-0.00789733
0.00409353
-0.00789708
0.00409342
-1.6342e-07
-0.0101248
0.00424257
-3.4767e-08
-0.010125
0.00424263
5.0782e-08
-0.0101249
0.00424261
1.32016e-07
-0.0101248
0.00424259
2.0244e-07
-0.0101247
0.00424256
-0.0101244
0.00424244
3.57554e-07
-0.0124812
0.00351596
5.5892e-07
-0.0124814
0.00351601
6.98904e-07
-0.0124813
0.00351601
7.5808e-07
-0.0124812
0.003516
7.16748e-07
-0.0124811
0.00351601
-0.0124806
0.00351597
1.03671e-06
-0.0132196
0.000115746
1.07737e-06
-0.0132198
0.000115852
1.13299e-06
-0.0132197
0.000115961
1.05679e-06
-0.0132195
0.000116053
8.32014e-07
-0.0132194
0.000116126
-0.0132189
0.000116206
9.51798e-07
-0.0108058
-0.00687022
7.01168e-07
-0.0108062
-0.00687033
6.5112e-07
-0.0108062
-0.00687029
5.21484e-07
-0.0108061
-0.00687021
2.94902e-07
-0.0108059
-0.00687016
-0.0108056
-0.00686998
-2.55337e-07
-0.0226008
-5.95138e-07
-0.0226028
-4.77924e-07
-0.0226032
-3.3323e-07
-0.0226033
-2.76515e-07
-0.0226032
-0.0226026
2.33815e-07
-0.000687229
0.00301327
-2.61827e-09
-0.000687265
0.00301331
-1.05653e-07
-0.000687268
0.00301332
-1.70941e-07
-0.00068728
0.00301332
-2.26553e-07
-0.000687291
0.00301332
-0.000687302
0.00301326
1.71754e-07
-0.00142775
0.00317646
-6.55101e-08
-0.00142779
0.00317651
-1.6356e-07
-0.00142779
0.00317651
-2.48414e-07
-0.0014278
0.00317651
-3.36395e-07
-0.00142781
0.00317652
-0.00142778
0.00317646
1.60392e-07
-0.00228027
0.00350566
-9.76339e-08
-0.00228034
0.00350571
-2.08389e-07
-0.00228034
0.00350571
-2.96898e-07
-0.00228035
0.00350572
-3.86882e-07
-0.00228036
0.00350573
-0.00228031
0.00350567
1.01282e-07
-0.00331619
0.00400247
-1.59162e-07
-0.00331629
0.00400254
-2.71085e-07
-0.0033163
0.00400255
-3.59971e-07
-0.00331631
0.00400256
-4.39832e-07
-0.00331632
0.00400259
-0.00331623
0.00400252
-3.21887e-08
-0.00462059
0.0046555
-2.42494e-07
-0.00462074
0.0046556
-3.37668e-07
-0.00462075
0.00465562
-4.04554e-07
-0.00462075
0.00465565
-4.52687e-07
-0.00462074
0.00465569
-0.00462061
0.00465562
-1.59999e-07
-0.00626735
0.00540166
-2.76417e-07
-0.00626752
0.00540181
-3.31775e-07
-0.0062675
0.00540183
-3.5342e-07
-0.00626748
0.00540187
-3.48578e-07
-0.00626745
0.0054019
-0.00626726
0.00540179
-1.5189e-07
-0.00825396
0.00608002
-1.34044e-07
-0.00825414
0.00608017
-1.18358e-07
-0.00825408
0.00608018
-9.06967e-08
-0.00825403
0.00608019
-6.09519e-08
-0.00825398
0.00608019
-0.00825371
0.00608003
1.99042e-07
-0.0103591
0.00634784
2.73373e-07
-0.0103593
0.00634797
3.15884e-07
-0.0103592
0.00634794
3.30716e-07
-0.0103591
0.0063479
3.08917e-07
-0.010359
0.00634787
-0.0103587
0.00634768
8.94812e-07
-0.0123376
0.00549393
8.11941e-07
-0.0123377
0.00549405
7.86426e-07
-0.0123376
0.005494
6.88074e-07
-0.0123375
0.00549395
4.90484e-07
-0.0123374
0.00549392
-0.012337
0.00549375
1.3334e-06
-0.0144537
0.00223038
8.72341e-07
-0.014454
0.00223049
7.13249e-07
-0.0144539
0.00223049
4.83982e-07
-0.0144538
0.00223052
1.46387e-07
-0.0144536
0.00223052
-0.0144532
0.00223044
8.5661e-07
-0.0118534
-0.00947266
1.46206e-07
-0.0118542
-0.00947292
-8.49568e-08
-0.0118543
-0.00947289
-2.91869e-07
-0.0118541
-0.00947283
-5.84733e-07
-0.011854
-0.00947276
-0.0118535
-0.00947256
-1.19074e-06
-0.034455
-1.83234e-06
-0.0344592
-1.72974e-06
-0.0344601
-1.52911e-06
-0.03446
-1.44985e-06
-0.0344594
-0.0344581
7.73516e-06
-0.290531
-0.387138
8.58928e-06
-0.290527
-0.38713
6.6208e-06
-0.290526
-0.387129
4.44451e-06
-0.290525
-0.387129
5.5435e-06
-0.290526
-0.387132
-0.290528
-0.387122
1.3792e-05
1.9301
-2.22064
1.15229e-05
1.93011
-2.22064
9.95003e-06
1.93011
-2.22063
1.37723e-05
1.93011
-2.22064
2.37166e-05
1.93011
-2.22065
1.93011
-2.22061
1.79412e-05
-4.22571
2.06224e-05
-4.22572
1.83861e-05
-4.22571
2.43006e-05
-4.22571
3.14388e-05
-4.22572
-4.22568
-2.47927e-06
-2.64572
1.04644
-2.33899e-07
-2.64572
1.04645
-1.98362e-06
-2.64572
1.04645
-5.01924e-06
-2.64572
1.04645
-1.87376e-05
-2.64571
1.04644
-2.6457
1.04643
4.07536e-06
-4.71257
-0.153797
4.24031e-06
-4.71257
-0.153786
1.63362e-05
-4.71258
-0.153789
8.09675e-06
-4.71256
-0.153789
-3.89153e-05
-4.71253
-0.153777
-4.71259
-0.153763
-2.14104e-06
-2.62246
-1.13389e-05
-2.62248
-1.65847e-05
-2.62248
-2.44407e-05
-2.62248
-2.06352e-05
-2.62248
-2.62245
1.45344e-06
-3.13248
1.62184
-6.41513e-06
-3.1325
1.62187
2.46988e-06
-3.13248
1.62185
5.15706e-06
-3.13248
1.62185
-1.93345e-05
-3.13248
1.62187
-3.13257
1.62193
1.40362e-05
-3.31528
0.0289838
8.91384e-06
-3.3153
0.0290117
3.2269e-05
-3.3153
0.0289934
5.50966e-05
-3.31529
0.0289986
9.5693e-05
-3.31532
0.0290292
-3.31533
0.0290978
-2.20198e-05
-1.7913
-3.49333e-05
-1.79135
-3.33875e-05
-1.79134
-2.89527e-05
-1.79133
-1.04067e-05
-1.79131
-1.79129
0.000128585
-3.19407
1.16102
8.94648e-05
-3.19428
1.16131
4.83354e-05
-3.1943
1.16132
2.59775e-05
-3.19431
1.16134
1.68281e-05
-3.19435
1.16137
-3.19429
1.16137
0.000131173
-1.85509
-1.31012
0.000153031
-1.85519
-1.31009
0.000120127
-1.85519
-1.31008
8.786e-05
-1.85521
-1.31007
7.52536e-05
-1.85526
-1.31005
-1.85522
-1.3099
4.19436e-05
-1.839
1.81394e-05
-1.83909
3.60748e-06
-1.8391
-1.54789e-06
-1.83911
-4.03744e-06
-1.83909
-1.83905
0.000114677
-0.577803
-0.732911
8.60739e-05
-0.577909
-0.732569
5.67867e-05
-0.577873
-0.732522
6.19574e-06
-0.57787
-0.73248
-6.19588e-05
-0.577893
-0.732427
-0.577908
-0.73247
2.49574e-05
-0.233928
-1.65402
-1.75177e-05
-0.233892
-1.65407
-3.19277e-05
-0.233885
-1.65406
-3.19668e-05
-0.233882
-1.65406
-3.81574e-05
-0.233889
-1.65405
-0.233911
-1.65393
9.0362e-06
-1.31639
9.91983e-06
-1.31647
5.1841e-06
-1.31648
6.37709e-06
-1.3165
2.69663e-05
-1.31651
-1.31648
-0.000130571
0.71643
-1.31847
-9.60408e-05
0.716519
-1.3185
6.73986e-06
0.716533
-1.31848
9.15688e-05
0.716569
-1.31845
9.38788e-05
0.716585
-1.31841
0.716485
-1.31836
-5.59462e-05
0.214289
-1.15182
-4.76343e-05
0.214339
-1.15189
-2.81386e-05
0.214352
-1.1519
-7.66891e-06
0.214379
-1.15189
1.67095e-05
0.214403
-1.15189
0.214386
-1.15182
-1.26108e-05
-0.840653
-1.39745e-05
-0.840697
-1.87935e-05
-0.840712
-1.67609e-05
-0.840728
-7.85236e-07
-0.840744
-0.840713
9.80755e-06
0.2003
-1.34826
0.000115304
0.200334
-1.34835
0.000163696
0.200338
-1.34834
0.00018951
0.200375
-1.34831
0.000158111
0.200386
-1.34827
0.200268
-1.34818
5.81128e-06
-0.0153332
-0.936196
4.11059e-06
-0.0153147
-0.936244
1.71563e-06
-0.0153088
-0.936246
1.76799e-05
-0.0152951
-0.936236
3.23501e-05
-0.0152869
-0.93623
-0.0153368
-0.936181
1.77172e-06
-0.645298
4.69381e-06
-0.645333
6.13445e-06
-0.645339
1.19986e-05
-0.645341
1.90546e-05
-0.645346
-0.645322
8.79214e-05
0.946071
-1.48817
0.000144619
0.946158
-1.48827
0.000149274
0.946182
-1.48824
0.000131752
0.946187
-1.48819
8.71848e-05
0.946158
-1.48815
0.946028
-1.48808
3.25824e-06
0.805059
-0.795182
1.77333e-05
0.80512
-0.795222
3.33588e-05
0.805135
-0.795217
5.45028e-05
0.805136
-0.795207
5.80279e-05
0.805127
-0.795203
0.80507
-0.795164
-3.53931e-06
-0.396767
-8.06132e-06
-0.396782
-3.89115e-06
-0.396786
6.37675e-06
-0.396789
1.01072e-05
-0.396792
-0.396779
7.41016e-05
1.59599
-0.814275
6.99485e-05
1.59613
-0.814317
3.00589e-05
1.59611
-0.814288
7.05328e-07
1.59608
-0.81426
1.55139e-05
1.59605
-0.814227
1.59589
-0.81419
3.32577e-06
1.20485
-0.404039
1.93857e-05
1.20494
-0.404047
2.90771e-05
1.20493
-0.404048
3.71219e-05
1.20492
-0.404052
4.9737e-05
1.2049
-0.404062
1.20482
-0.404051
-2.86424e-05
-0.216508
-1.63053e-05
-0.216512
-1.17297e-06
-0.216513
1.07259e-05
-0.216517
1.60452e-05
-0.216523
-0.216519
-3.69644e-06
1.85184
-0.103453
-8.75636e-05
1.85192
-0.103443
-0.000157234
1.85192
-0.103428
-0.000179999
1.85192
-0.103422
-8.96183e-05
1.85197
-0.10341
1.85186
-0.103425
-2.71738e-05
1.47836
-0.0305291
-4.32003e-05
1.47841
-0.0305315
-5.14295e-05
1.47841
-0.0305338
-4.78031e-05
1.47841
-0.0305409
-6.64615e-06
1.47842
-0.0305463
1.47836
-0.0305557
-1.83385e-05
-0.0436917
-1.57457e-05
-0.0436924
-7.68015e-06
-0.0436939
-1.05511e-06
-0.0436968
7.77082e-06
-0.0437002
-0.0437022
-0.00012935
1.79883
0.419479
-0.000231548
1.79889
0.419501
-0.000286707
1.79893
0.419506
-0.000277354
1.79898
0.419507
-0.000160862
1.79908
0.419515
1.79902
0.419477
-5.28551e-05
1.45452
0.313831
-9.16824e-05
1.45456
0.31384
-0.000109796
1.45457
0.313843
-0.000104505
1.4546
0.313846
-4.89699e-05
1.45463
0.313853
1.45459
0.313835
-7.37481e-06
0.0800896
-1.38135e-05
0.0800932
-1.78369e-05
0.0800943
-1.6882e-05
0.0800957
-4.86859e-06
0.0800975
0.0800925
-8.9911e-05
1.69683
1.03402
-0.000126636
1.69689
1.03406
-0.000137331
1.69692
1.03407
-0.000126442
1.69697
1.03408
-7.60101e-05
1.69702
1.03408
1.69699
1.03405
-3.34721e-05
1.3288
0.681897
-5.87106e-05
1.32884
0.681922
-7.2762e-05
1.32885
0.68193
-7.10367e-05
1.32887
0.68194
-3.89381e-05
1.3289
0.68195
1.32886
0.681927
-4.62608e-06
0.203461
-1.22137e-05
0.20347
-1.83621e-05
0.203473
-1.87086e-05
0.203475
-8.45149e-06
0.203478
0.203471
-3.62002e-07
0.0495253
-0.18898
0.139455
-1.06266e-06
0.0495265
-0.188986
0.139459
-1.16446e-06
0.0495266
-0.188987
0.13946
-8.69466e-07
0.0495266
-0.188987
0.13946
-4.11015e-07
0.0495266
-0.188987
0.13946
0.0495254
-0.188981
0.139456
-5.49439e-07
0.0889972
-0.147512
0.10804
-1.02032e-06
0.0889996
-0.147516
0.108043
-1.13107e-06
0.0889997
-0.147517
0.108043
-9.53663e-07
0.0889998
-0.147517
0.108043
-3.11948e-07
0.0889999
-0.147517
0.108043
0.0889977
-0.147512
0.10804
-2.68301e-07
-0.055453
0.0402173
-5.67463e-07
-0.0554545
0.0402183
-6.63302e-07
-0.0554545
0.0402184
-4.89215e-07
-0.0554544
0.0402184
-5.59633e-08
-0.0554544
0.0402185
-0.0554527
0.0402175
-9.26353e-07
0.0688144
-0.257794
-1.42676e-06
0.0688162
-0.257803
-1.43767e-06
0.0688164
-0.257804
-7.34185e-07
0.0688165
-0.257804
-1.22744e-08
0.0688164
-0.257804
0.0688147
-0.257796
-8.97747e-07
0.126002
-0.204699
-1.35346e-06
0.126006
-0.204706
-1.22715e-06
0.126006
-0.204707
-8.10319e-07
0.126006
-0.204707
-4.98951e-08
0.126006
-0.204707
0.126003
-0.204701
-9.22595e-08
-0.0761237
-4.43607e-07
-0.0761262
-6.24812e-07
-0.0761265
-4.13518e-07
-0.0761264
7.79757e-08
-0.0761263
-0.0761243
-9.6168e-07
0.0946516
-0.352445
-1.67221e-06
0.0946539
-0.352457
-1.9966e-06
0.094654
-0.352458
-1.01256e-06
0.094654
-0.352459
-9.40976e-09
0.0946539
-0.352458
0.0946513
-0.352447
-1.22644e-06
0.176473
-0.28652
-1.98319e-06
0.176478
-0.286531
-1.84229e-06
0.176478
-0.286532
-1.18636e-06
0.176478
-0.286532
-2.76785e-07
0.176478
-0.286532
0.176473
-0.286523
-1.01211e-07
-0.103809
-5.30953e-07
-0.103813
-7.97266e-07
-0.103814
-6.11985e-07
-0.103814
-2.52299e-07
-0.103814
-0.103811
-2.60522e-06
0.126865
-0.479308
-3.12807e-06
0.126868
-0.479325
-2.78292e-06
0.126868
-0.479327
-1.7223e-06
0.126867
-0.479329
-1.51047e-09
0.126867
-0.479329
0.126863
-0.479312
-3.20867e-06
0.245333
-0.404987
-4.20721e-06
0.24534
-0.405003
-4.00441e-06
0.245341
-0.405005
-2.91374e-06
0.245341
-0.405008
-9.41647e-07
0.245341
-0.405009
0.245334
-0.404996
-7.76369e-07
-0.140395
-1.26157e-06
-0.140401
-1.69859e-06
-0.140402
-1.53653e-06
-0.140402
-9.42013e-07
-0.140403
-0.140398
-7.82424e-07
0.172818
-0.652125
-2.02711e-06
0.172823
-0.652146
-1.66068e-06
0.172823
-0.652149
-1.12672e-06
0.172823
-0.652152
4.30814e-08
0.172823
-0.652153
0.172817
-0.65213
-5.58507e-06
0.335942
-0.568106
-7.38439e-06
0.335952
-0.56813
-8.12904e-06
0.335953
-0.568135
-7.13015e-06
0.335954
-0.568141
-3.01061e-06
0.335955
-0.568147
0.335945
-0.568128
-2.48788e-06
-0.187113
-3.27749e-06
-0.187121
-3.99069e-06
-0.187123
-3.74335e-06
-0.187125
-2.00695e-06
-0.187126
-0.187119
-5.91205e-07
0.381897
-3.9851e-06
0.381914
-4.59498e-06
0.381918
-4.51436e-06
0.381923
-3.59686e-06
0.38193
0.381919
-4.96897e-06
0.495697
-1.08455e-05
0.495714
-1.46938e-05
0.495717
-1.42052e-05
0.495721
-6.72482e-06
0.495725
0.495711
-3.49079e-06
-5.81113e-06
-7.35618e-06
-7.40876e-06
-3.97266e-06
1.38477e-07
0.00351334
-0.00050065
-3.21301e-08
0.00351339
-0.000500674
-1.05406e-07
0.0035134
-0.000500676
-1.54775e-07
0.00351341
-0.000500686
-1.95004e-07
0.00351341
-0.000500696
0.00351334
-0.000500705
4.8084e-08
0.00383542
-0.000322452
-4.63052e-08
0.00383548
-0.000322467
-8.69867e-08
0.0038355
-0.000322468
-1.17256e-07
0.00383551
-0.000322474
-1.44425e-07
0.00383552
-0.000322481
0.00383545
-0.000322486
-1.02613e-08
-0.000115155
-3.65667e-08
-0.00011516
-4.76045e-08
-0.000115161
-6.05841e-08
-0.000115163
-7.71659e-08
-0.000115165
-0.000115166
9.2653e-08
0.00372117
-0.00104613
-8.00953e-08
0.00372123
-0.00104616
-1.52188e-07
0.00372124
-0.00104617
-2.15359e-07
0.00372125
-0.00104618
-2.8107e-07
0.00372126
-0.00104619
0.00372119
-0.00104617
2.02935e-08
0.00407663
-0.000678403
-7.44108e-08
0.00407671
-0.000678424
-1.15554e-07
0.00407672
-0.000678426
-1.55791e-07
0.00407674
-0.000678431
-2.00055e-07
0.00407676
-0.000678438
0.00407669
-0.000678425
-1.62948e-08
-0.000243919
-4.31867e-08
-0.000243927
-5.61593e-08
-0.000243928
-7.25821e-08
-0.00024393
-9.54916e-08
-0.000243932
-0.000243927
7.33217e-08
0.00415002
-0.00169128
-1.1098e-07
0.0041501
-0.00169133
-1.90227e-07
0.00415011
-0.00169134
-2.55434e-07
0.00415012
-0.00169135
-3.19953e-07
0.00415014
-0.00169136
0.00415006
-0.00169133
3.77415e-09
0.00458167
-0.00111053
-9.50017e-08
0.00458176
-0.00111057
-1.3824e-07
0.00458178
-0.00111057
-1.78001e-07
0.0045818
-0.00111058
-2.22246e-07
0.00458182
-0.00111058
0.00458174
-0.00111056
-2.10879e-08
-0.000404061
-4.99009e-08
-0.000404072
-6.39964e-08
-0.000404075
-8.12465e-08
-0.000404076
-1.03713e-07
-0.000404077
-0.000404067
1.55916e-08
0.00482732
-0.00251687
-1.58134e-07
0.00482741
-0.00251696
-2.35662e-07
0.00482743
-0.00251697
-2.95679e-07
0.00482745
-0.00251698
-3.50353e-07
0.00482747
-0.00251698
0.00482739
-0.00251691
-2.48332e-08
0.00540122
-0.00168489
-1.16939e-07
0.00540135
-0.00168494
-1.59674e-07
0.00540137
-0.00168495
-1.96612e-07
0.00540139
-0.00168495
-2.32938e-07
0.00540142
-0.00168494
0.00540132
-0.00168489
-3.33378e-08
-0.000623698
-5.67621e-08
-0.000623715
-6.93189e-08
-0.000623716
-8.4161e-08
-0.000623714
-1.03507e-07
-0.000623711
-0.00062369
-6.42151e-08
0.00579755
-0.00365949
-1.94231e-07
0.00579768
-0.0036596
-2.54078e-07
0.0057977
-0.0036596
-2.94812e-07
0.00579772
-0.00365958
-3.25181e-07
0.00579776
-0.00365956
0.00579765
-0.00365944
-6.78275e-08
0.00662798
-0.00251564
-1.24196e-07
0.00662815
-0.0025157
-1.54814e-07
0.00662817
-0.0025157
-1.7854e-07
0.00662819
-0.00251568
-1.97619e-07
0.00662822
-0.00251567
0.00662809
-0.00251558
-4.0582e-08
-0.00095193
-5.4269e-08
-0.000951951
-6.16276e-08
-0.000951947
-6.99025e-08
-0.000951939
-7.86056e-08
-0.000951929
-0.000951892
-1.22713e-07
0.00712844
-0.00538652
-1.65612e-07
0.00712862
-0.00538664
-1.87301e-07
0.00712865
-0.0053866
-1.92816e-07
0.00712867
-0.00538656
-1.90079e-07
0.0071287
-0.00538651
0.00712855
-0.00538633
-7.72873e-08
0.00842536
-0.00381265
-8.93767e-08
0.00842557
-0.00381272
-9.68693e-08
0.00842559
-0.00381269
-9.92505e-08
0.00842561
-0.00381266
-9.11055e-08
0.00842563
-0.00381263
0.00842544
-0.0038125
-2.90938e-08
-0.00147903
-2.95719e-08
-0.00147905
-3.1075e-08
-0.00147904
-2.89222e-08
-0.00147903
-2.23238e-08
-0.00147902
-0.00147897
-3.4115e-08
0.00893477
-0.00824125
-1.16925e-08
0.00893499
-0.00824138
-3.33067e-09
0.008935
-0.00824132
8.47306e-09
0.00893501
-0.00824127
2.64029e-08
0.00893501
-0.00824123
0.0089348
-0.00824098
2.13985e-08
0.0110837
-0.00596149
2.49267e-08
0.0110839
-0.00596158
2.27783e-08
0.0110839
-0.00596154
3.15322e-08
0.0110839
-0.00596151
4.42212e-08
0.0110839
-0.0059615
0.0110836
-0.00596134