/*--------------------------------*- C++ -*----------------------------------*\
| =========                 |                                                 |
| \\      /  F ield         | OpenFOAM: The Open Source CFD Toolbox           |
|  \\    /   O peration     | Version:  v1612+                                |
|   \\  /    A nd           | Web:      www.OpenFOAM.com                      |
|    \\/     M anipulation  |                                                 |
\*---------------------------------------------------------------------------*/
FoamFile
{
    version     2.0;
    format      ascii;
    class       volVectorField;
    location    "1.2";
    object      U;
}
// * * * * * * * * * * * * * * * * * * * * * * * * * * * * * * * * * * * * * //

dimensions      [0 1 -1 0 0 0 0];

internalField   nonuniform List<vector> 
1116
(
(0.363076 1.46194e-07 -0.37707)
(0.363077 1.7859e-07 -0.377071)
(0.363077 3.04017e-07 -0.377071)
(0.363077 7.18629e-07 -0.377071)
(0.363076 1.15882e-06 -0.377072)
(0.363076 7.42771e-07 -0.37707)
(0.993197 6.62749e-07 -0.481201)
(0.9932 8.92619e-07 -0.481202)
(0.9932 1.61698e-06 -0.481202)
(0.993199 2.09723e-06 -0.481201)
(0.993198 1.76401e-06 -0.4812)
(0.993197 2.99293e-07 -0.481199)
(2.12061 1.41278e-06 -0.65648)
(2.12061 4.20483e-06 -0.656481)
(2.12061 6.45943e-06 -0.656477)
(2.12061 5.57298e-06 -0.656474)
(2.12061 3.88583e-06 -0.656472)
(2.1206 5.54096e-07 -0.65647)
(3.38248 -2.95157e-06 -0.862481)
(3.38249 1.30195e-06 -0.862486)
(3.38248 6.19435e-06 -0.862481)
(3.38248 5.55336e-06 -0.862478)
(3.38248 3.56366e-06 -0.862476)
(3.38247 1.86342e-06 -0.862476)
(4.82798 -1.15178e-05 -0.845271)
(4.82798 -5.77994e-06 -0.845299)
(4.82798 7.26684e-06 -0.845294)
(4.82798 9.76522e-06 -0.845291)
(4.82798 1.08569e-05 -0.845291)
(4.82798 8.03584e-06 -0.845284)
(6.3857 -1.41888e-05 -1.08067)
(6.38573 -1.34167e-05 -1.08068)
(6.38573 7.73236e-07 -1.08067)
(6.38574 7.06821e-06 -1.08066)
(6.38574 4.14401e-06 -1.08067)
(6.38574 2.05763e-06 -1.08065)
(8.00317 -1.28976e-06 -1.59701)
(8.0033 -3.02198e-06 -1.59699)
(8.00328 -3.83484e-06 -1.59697)
(8.00328 3.32724e-07 -1.59697)
(8.00331 -7.62966e-06 -1.597)
(8.00326 -4.30646e-06 -1.59697)
(9.79725 2.24357e-05 -1.65213)
(9.79739 2.62781e-05 -1.65213)
(9.79735 -7.40038e-06 -1.6521)
(9.79736 -1.76997e-05 -1.6521)
(9.79743 -3.89549e-05 -1.65214)
(9.79732 -1.54562e-05 -1.65207)
(12.1074 -7.31025e-05 0.18946)
(12.1074 -6.07736e-05 0.189321)
(12.1074 -7.90912e-06 0.189363)
(12.1075 1.10019e-05 0.189388)
(12.1076 3.52736e-05 0.189352)
(12.1073 6.75455e-05 0.189558)
(9.21274 5.09163e-05 1.43315)
(9.213 4.14887e-05 1.43305)
(9.21297 2.30697e-05 1.43303)
(9.21307 0.000120536 1.43304)
(9.21312 0.000157091 1.43306)
(9.21256 0.000124608 1.4333)
(4.00173 0.0001113 1.62465)
(4.00237 0.000230602 1.62462)
(4.00229 0.000280571 1.62463)
(4.00231 0.00038404 1.62469)
(4.00236 0.000375002 1.62482)
(4.00206 0.000179239 1.62496)
(1.62541 4.70196e-06 1.37692)
(1.62575 0.000107673 1.37707)
(1.62575 0.000232565 1.37712)
(1.62571 0.000284098 1.37717)
(1.62567 0.000279751 1.37724)
(1.62559 0.000128603 1.3773)
(0.331583 1.45898e-07 -0.961305)
(0.331584 -7.06466e-09 -0.961307)
(0.331583 -1.27248e-07 -0.961307)
(0.331582 2.3542e-07 -0.961307)
(0.331582 2.43035e-07 -0.961307)
(0.331581 2.38854e-07 -0.961303)
(0.809136 2.03247e-06 -1.27734)
(0.809138 3.26755e-06 -1.27735)
(0.809135 2.3798e-06 -1.27734)
(0.809133 1.31423e-06 -1.27734)
(0.809134 -3.37735e-07 -1.27734)
(0.809133 -7.97441e-07 -1.27734)
(1.90593 3.34753e-06 -1.67716)
(1.90595 1.06669e-05 -1.67716)
(1.90594 6.76268e-06 -1.67715)
(1.90594 3.5973e-06 -1.67714)
(1.90594 1.28513e-06 -1.67714)
(1.90594 2.73115e-06 -1.67714)
(2.61234 3.93504e-07 -2.16587)
(2.61237 1.0147e-05 -2.16588)
(2.61237 7.1504e-06 -2.16587)
(2.61237 4.76061e-06 -2.16586)
(2.61237 3.48751e-06 -2.16586)
(2.61236 7.7699e-06 -2.16586)
(4.14773 -1.042e-05 -2.81651)
(4.14777 -4.95146e-06 -2.8166)
(4.14777 1.45685e-05 -2.81658)
(4.14777 8.89356e-06 -2.81658)
(4.14777 1.17808e-05 -2.81658)
(4.14776 6.49545e-06 -2.81655)
(6.40005 -3.06875e-06 -2.84644)
(6.40015 -6.2966e-06 -2.84667)
(6.40015 1.92703e-05 -2.84665)
(6.40016 9.47706e-06 -2.84663)
(6.40017 1.50759e-05 -2.84664)
(6.40013 -9.78744e-07 -2.84661)
(7.96194 -2.04437e-05 -3.4075)
(7.9623 -7.8766e-05 -3.40776)
(7.96224 -5.35037e-05 -3.40773)
(7.96225 -5.02611e-05 -3.40771)
(7.96235 -3.79306e-05 -3.40778)
(7.96227 -5.32204e-05 -3.40773)
(11.048 -9.44585e-05 -1.94912)
(11.0483 -0.000209879 -1.9494)
(11.0483 -0.000233753 -1.94937)
(11.0483 -0.000210257 -1.94937)
(11.0485 -0.000286328 -1.9496)
(11.0482 -0.000190644 -1.94907)
(11.9388 -3.02544e-06 2.79398)
(11.9393 -0.000157043 2.79386)
(11.9392 -0.000281941 2.79387)
(11.9392 -0.00015123 2.79385)
(11.9395 -0.000267663 2.79377)
(11.9385 -0.00016964 2.79406)
(7.04624 9.43978e-05 5.17134)
(7.04695 6.15847e-05 5.17117)
(7.04655 -3.79488e-05 5.17111)
(7.04659 8.34263e-05 5.1711)
(7.04713 4.06215e-05 5.1711)
(7.04576 2.36183e-05 5.1714)
(3.48648 0.000101476 4.72471)
(3.48726 0.000302359 4.72481)
(3.4872 0.000366475 4.72488)
(3.48725 0.000343732 4.72506)
(3.4875 0.000350487 4.72538)
(3.48722 0.000186896 4.72563)
(1.96121 -7.76653e-05 3.69024)
(1.96168 -4.26536e-05 3.69061)
(1.96176 9.78795e-05 3.69079)
(1.96176 0.000129614 3.69094)
(1.96179 0.000147177 3.69112)
(1.96174 7.53325e-05 3.69128)
(0.179091 1.99759e-06 -1.36303)
(0.179092 3.26971e-06 -1.36303)
(0.179092 3.31745e-06 -1.36303)
(0.179091 3.11829e-06 -1.36303)
(0.179092 2.26999e-06 -1.36303)
(0.179092 9.15375e-07 -1.36302)
(0.411719 4.51948e-06 -1.93507)
(0.411727 1.13219e-05 -1.93507)
(0.411725 7.2392e-06 -1.93507)
(0.411725 3.86866e-06 -1.93507)
(0.411727 2.8109e-06 -1.93507)
(0.411727 3.22609e-06 -1.93506)
(0.96042 2.47456e-06 -2.3325)
(0.960464 1.27577e-05 -2.33249)
(0.960472 2.63801e-06 -2.33248)
(0.960476 2.66377e-06 -2.33248)
(0.960479 -6.07119e-07 -2.33248)
(0.960475 7.57539e-06 -2.33246)
(1.81453 1.61533e-05 -3.6719)
(1.81459 1.15111e-05 -3.67193)
(1.81459 2.08648e-05 -3.6719)
(1.81459 7.55416e-06 -3.6719)
(1.81458 2.56791e-05 -3.67191)
(1.81455 7.6771e-06 -3.67188)
(3.9584 5.85819e-05 -5.00317)
(3.95857 3.10076e-05 -5.00338)
(3.95857 5.34795e-05 -5.00333)
(3.95857 7.04533e-06 -5.00332)
(3.95857 4.33073e-05 -5.00333)
(3.95851 -1.27462e-05 -5.00328)
(5.36812 0.000102886 -4.43698)
(5.36841 3.28952e-05 -4.43742)
(5.36837 3.96351e-05 -4.4373)
(5.36836 -3.12097e-06 -4.43728)
(5.3684 3.48517e-05 -4.43735)
(5.36827 -3.8818e-05 -4.4373)
(4.55712 1.71012e-05 -3.64217)
(4.55793 -9.52283e-05 -3.64235)
(4.5577 -0.000127971 -3.64236)
(4.55769 -0.000103338 -3.64237)
(4.55796 -7.51585e-05 -3.64255)
(4.55788 -9.32549e-05 -3.64252)
(0.254977 -4.85267e-05 -2.57736)
(0.255738 -0.000114923 -2.57782)
(0.255206 -0.00020018 -2.57789)
(0.255198 -0.00015547 -2.57786)
(0.255771 -0.000277251 -2.57809)
(0.255699 -0.000223827 -2.57797)
(2.01464 -1.18973e-05 5.89219)
(2.01514 -1.59058e-05 5.89204)
(2.01475 -7.19025e-05 5.89195)
(2.0147 -1.1108e-05 5.89186)
(2.01522 -0.000192961 5.89182)
(2.01453 -0.000198752 5.89189)
(0.774511 3.63658e-05 7.48563)
(0.774784 0.000173948 7.48551)
(0.774564 0.000205446 7.48541)
(0.774657 0.000129784 7.48542)
(0.775213 8.10766e-05 7.48567)
(0.774612 3.94172e-05 7.48566)
(1.55197 2.45319e-05 5.68369)
(1.55235 5.69891e-05 5.6839)
(1.55245 1.9912e-05 5.68414)
(1.55256 -5.45827e-05 5.68444)
(1.55282 -4.28507e-05 5.68496)
(1.55276 -2.42458e-06 5.68514)
(1.3184 -0.000103976 4.78331)
(1.31868 -0.00018769 4.78374)
(1.31872 -0.000141215 4.78394)
(1.31874 -0.00010151 4.78415)
(1.31877 -6.03331e-05 4.7844)
(1.31871 -2.20107e-05 4.78454)
(-0.220241 8.19806e-06 -2.08972)
(-0.22024 1.32747e-05 -2.08973)
(-0.220239 8.21547e-06 -2.08972)
(-0.220239 5.44625e-06 -2.08972)
(-0.220238 4.72229e-06 -2.08972)
(-0.220235 2.87047e-06 -2.08972)
(-0.331524 4.54097e-06 -2.11762)
(-0.331489 1.14684e-05 -2.11762)
(-0.331485 3.60969e-06 -2.11762)
(-0.331483 2.29797e-06 -2.11762)
(-0.331483 -1.40446e-07 -2.11762)
(-0.331478 4.7441e-06 -2.11761)
(0.259572 2.23962e-05 -3.41591)
(0.25959 3.41702e-06 -3.41594)
(0.259592 8.27705e-06 -3.41593)
(0.259592 -4.45377e-06 -3.41592)
(0.259585 1.22613e-05 -3.41592)
(0.259591 -8.62302e-06 -3.41588)
(2.98902 6.20112e-05 -5.91947)
(2.98918 1.06722e-05 -5.91952)
(2.98915 5.8868e-05 -5.91949)
(2.98914 -7.92997e-06 -5.91948)
(2.98913 2.81721e-05 -5.91948)
(2.98915 -5.33135e-05 -5.91939)
(4.28489 0.000133123 -6.38249)
(4.28549 5.90758e-05 -6.38264)
(4.28551 0.000110702 -6.38254)
(4.28553 3.15088e-05 -6.38253)
(4.28556 6.85026e-05 -6.38253)
(4.28553 -7.81018e-05 -6.38238)
(2.61097 3.12104e-05 -0.703637)
(2.61192 -7.38599e-05 -0.704307)
(2.61179 -3.79701e-05 -0.704124)
(2.61178 1.7418e-06 -0.704132)
(2.61196 2.93528e-05 -0.704389)
(2.61173 -3.37862e-05 -0.704488)
(-1.91054 -9.75888e-05 -0.0808786)
(-1.91058 2.77505e-05 -0.0808133)
(-1.91083 0.000174968 -0.0809413)
(-1.91078 0.000155609 -0.080978)
(-1.91045 0.000136252 -0.0811467)
(-1.91027 3.31159e-05 -0.081513)
(-3.38132 6.02782e-05 1.82082)
(-3.38144 0.00020658 1.82092)
(-3.38146 0.000178727 1.82079)
(-3.38136 0.000109364 1.82075)
(-3.38101 5.2908e-07 1.82063)
(-3.38105 -6.67925e-05 1.82022)
(-2.78197 3.64254e-05 5.24667)
(-2.7821 0.000149553 5.24678)
(-2.78212 0.000117248 5.24662)
(-2.78201 1.21326e-05 5.24653)
(-2.78165 -5.00976e-05 5.24657)
(-2.78174 -4.70137e-05 5.24615)
(-0.976659 6.71667e-05 5.97408)
(-0.976636 7.64774e-05 5.9741)
(-0.976508 -4.27015e-05 5.97411)
(-0.976352 -0.000149513 5.97417)
(-0.97606 -0.000162438 5.97456)
(-0.976078 -6.63515e-05 5.97424)
(0.441713 -5.25186e-05 4.8725)
(0.441953 -0.000207525 4.87275)
(0.442059 -0.000329283 4.87294)
(0.442148 -0.000353564 4.87321)
(0.442284 -0.000308657 4.8737)
(0.442204 -0.000130743 4.87368)
(0.875851 -9.46757e-05 4.5862)
(0.876009 -0.000189164 4.58651)
(0.876026 -0.000186031 4.58665)
(0.876041 -0.000159958 4.58682)
(0.87605 -0.000116568 4.58704)
(0.87597 -4.85141e-05 4.58709)
(0.000775783 4.63413e-07 0.000784763)
(0.000775843 4.82246e-07 0.000784716)
(0.000775874 3.56312e-08 0.000784674)
(0.00077589 -1.66312e-08 0.000784656)
(0.000775913 -7.51586e-08 0.000784632)
(0.000775954 -4.1423e-08 0.000784555)
(0.00235753 3.84563e-07 0.000814988)
(0.00235764 3.49319e-07 0.000814939)
(0.00235768 -5.30214e-08 0.00081491)
(0.0023577 -8.87102e-08 0.000814883)
(0.00235774 -2.31443e-07 0.00081486)
(0.00235775 -1.50623e-07 0.000814788)
(0.00402597 3.75837e-07 0.000872673)
(0.0040261 3.43837e-07 0.00087262)
(0.00402611 -6.46666e-08 0.00087259)
(0.00402613 -1.18691e-07 0.000872563)
(0.00402615 -2.54486e-07 0.000872541)
(0.00402606 -1.57974e-07 0.00087247)
(0.0058286 3.38794e-07 0.000950678)
(0.00582881 3.13123e-07 0.000950624)
(0.00582881 -7.49768e-08 0.000950595)
(0.00582884 -1.44587e-07 0.000950575)
(0.00582885 -2.7248e-07 0.000950554)
(0.00582872 -1.65945e-07 0.000950492)
(0.00779506 2.56259e-07 0.001035)
(0.00779536 2.19472e-07 0.00103496)
(0.00779537 -1.1337e-07 0.00103495)
(0.0077954 -1.84145e-07 0.00103494)
(0.00779541 -2.94479e-07 0.00103494)
(0.0077952 -1.7495e-07 0.00103489)
(0.00991792 1.16839e-07 0.00109956)
(0.0099183 4.74456e-08 0.00109957)
(0.00991835 -1.90317e-07 0.00109957)
(0.00991837 -2.45523e-07 0.00109958)
(0.00991838 -3.08852e-07 0.00109959)
(0.00991811 -1.71984e-07 0.00109955)
(0.012131 -6.89743e-08 0.00110295)
(0.0121314 -2.46739e-07 0.00110297)
(0.0121315 -3.36207e-07 0.00110298)
(0.0121315 -3.16819e-07 0.00110299)
(0.0121315 -3.30622e-07 0.00110301)
(0.0121312 -1.60545e-07 0.00110299)
(0.0142883 -2.58133e-07 0.00101007)
(0.0142888 -5.55719e-07 0.00101011)
(0.0142888 -4.38837e-07 0.00101013)
(0.0142888 -2.56975e-07 0.00101012)
(0.0142887 -2.11019e-07 0.00101011)
(0.0142883 -8.5624e-08 0.00101008)
(0.0159847 -3.28462e-07 0.000824153)
(0.0159851 -5.903e-07 0.000824182)
(0.0159851 -2.78244e-07 0.000824229)
(0.0159849 2.66719e-08 0.000824214)
(0.0159848 1.26736e-07 0.000824231)
(0.0159843 8.87292e-08 0.000824227)
(0.016201 -2.53168e-07 0.000314019)
(0.0162014 -3.19884e-07 0.000314087)
(0.0162012 1.11981e-07 0.000314206)
(0.016201 4.53081e-07 0.000314264)
(0.0162008 5.39756e-07 0.000314357)
(0.0162002 2.65476e-07 0.000314464)
(0.014531 5.34155e-08 -0.00134222)
(0.0145313 1.85586e-07 -0.00134212)
(0.0145312 5.44502e-07 -0.00134195)
(0.014531 8.47784e-07 -0.00134185)
(0.0145309 8.37783e-07 -0.00134172)
(0.0145303 3.77548e-07 -0.0013415)
(0.00751762 1.78762e-07 -0.00476514)
(0.00751776 3.89199e-07 -0.00476516)
(0.00751773 5.37331e-07 -0.00476513)
(0.00751773 7.01369e-07 -0.00476515)
(0.00751771 6.78601e-07 -0.00476515)
(0.0075174 3.33072e-07 -0.00476495)
(0.000761807 3.38834e-07 0.00229302)
(0.000761862 2.72135e-07 0.00229298)
(0.000761876 -8.06628e-08 0.00229293)
(0.000761897 -9.80615e-08 0.0022929)
(0.000761916 -2.32613e-07 0.00229287)
(0.000761947 -1.57019e-07 0.00229276)
(0.00231888 2.72187e-07 0.00238631)
(0.00231899 1.8725e-07 0.00238626)
(0.00231901 -1.4286e-07 0.00238623)
(0.00231904 -1.70994e-07 0.00238619)
(0.00231907 -3.62185e-07 0.00238617)
(0.00231908 -2.48749e-07 0.00238606)
(0.0039739 2.63838e-07 0.00256604)
(0.00397404 1.83138e-07 0.00256599)
(0.00397404 -1.55413e-07 0.00256595)
(0.00397407 -2.10488e-07 0.00256592)
(0.0039741 -4.03102e-07 0.0025659)
(0.00397402 -2.67026e-07 0.0025658)
(0.00578497 2.34791e-07 0.0028135)
(0.00578517 1.53704e-07 0.00281345)
(0.00578517 -1.7593e-07 0.00281342)
(0.0057852 -2.58889e-07 0.0028134)
(0.00578523 -4.46192e-07 0.00281339)
(0.00578509 -2.81995e-07 0.00281331)
(0.00779636 1.60984e-07 0.00308754)
(0.00779663 7.34753e-08 0.00308753)
(0.00779664 -2.21635e-07 0.00308753)
(0.00779666 -3.23008e-07 0.00308754)
(0.00779667 -4.76048e-07 0.00308756)
(0.00779644 -2.87314e-07 0.0030875)
(0.0100166 4.38736e-08 0.00330477)
(0.0100169 -1.04629e-07 0.00330484)
(0.010017 -3.16345e-07 0.00330486)
(0.010017 -3.76163e-07 0.0033049)
(0.0100169 -4.71391e-07 0.00330494)
(0.0100166 -2.63852e-07 0.00330488)
(0.0123643 -1.25998e-07 0.00329774)
(0.0123647 -3.45859e-07 0.00329785)
(0.0123647 -3.93241e-07 0.00329787)
(0.0123647 -3.36517e-07 0.0032979)
(0.0123646 -3.35676e-07 0.00329792)
(0.0123642 -1.74721e-07 0.00329783)
(0.0146052 -1.70024e-07 0.00273059)
(0.0146057 -3.77732e-07 0.00273066)
(0.0146056 -2.87874e-07 0.00273068)
(0.0146055 -1.19311e-07 0.00273065)
(0.0146054 -4.38494e-08 0.00273063)
(0.0146049 -9.597e-09 0.00273053)
(0.0164835 -8.19846e-08 0.000927679)
(0.016484 -6.255e-08 0.000927708)
(0.0164839 1.82182e-07 0.00092777)
(0.0164837 4.30308e-07 0.000927755)
(0.0164835 5.31935e-07 0.000927771)
(0.0164829 2.5621e-07 0.000927766)
(0.0178876 1.71119e-07 -0.00308352)
(0.0178881 5.25708e-07 -0.00308341)
(0.0178879 8.16906e-07 -0.0030832)
(0.0178877 1.02352e-06 -0.00308307)
(0.0178874 1.04361e-06 -0.00308293)
(0.0178866 4.69784e-07 -0.0030827)
(0.0179263 4.22208e-07 -0.00893274)
(0.0179267 9.22041e-07 -0.00893259)
(0.0179265 1.0893e-06 -0.00893236)
(0.0179263 1.16987e-06 -0.00893223)
(0.017926 1.03183e-06 -0.00893208)
(0.0179252 4.16401e-07 -0.00893166)
(0.0120018 3.47793e-07 -0.0194472)
(0.0120021 5.86246e-07 -0.0194476)
(0.012002 4.54139e-07 -0.0194478)
(0.012002 4.95202e-07 -0.0194479)
(0.0120019 4.44602e-07 -0.019448)
(0.0120014 2.18593e-07 -0.0194476)
(0.000715716 2.75525e-07 0.00371517)
(0.000715763 1.94253e-07 0.0037152)
(0.000715769 -1.09184e-07 0.00371519)
(0.000715788 -1.16574e-07 0.00371518)
(0.000715804 -2.34976e-07 0.00371518)
(0.000715826 -1.54052e-07 0.00371509)
(0.0021865 2.1781e-07 0.00388212)
(0.00218659 1.31887e-07 0.00388215)
(0.0021866 -1.5502e-07 0.00388215)
(0.00218663 -1.8693e-07 0.00388213)
(0.00218666 -3.52742e-07 0.00388213)
(0.00218665 -2.34477e-07 0.00388205)
(0.00377634 2.07633e-07 0.00420906)
(0.00377646 1.23357e-07 0.00420908)
(0.00377646 -1.71885e-07 0.00420908)
(0.00377648 -2.32019e-07 0.00420907)
(0.00377651 -3.98762e-07 0.00420908)
(0.00377642 -2.53923e-07 0.00420901)
(0.00556927 1.76073e-07 0.00467493)
(0.00556945 8.77013e-08 0.00467497)
(0.00556946 -2.0726e-07 0.00467498)
(0.00556949 -2.9536e-07 0.00467498)
(0.00556951 -4.50616e-07 0.00467502)
(0.00556937 -2.73779e-07 0.00467496)
(0.00765616 1.09291e-07 0.00522639)
(0.0076564 -1.10012e-08 0.00522648)
(0.00765642 -2.76304e-07 0.0052265)
(0.00765644 -3.64318e-07 0.00522655)
(0.00765644 -4.92311e-07 0.00522661)
(0.00765623 -2.8384e-07 0.00522657)
(0.0101418 6.58149e-09 0.00574871)
(0.0101421 -1.69855e-07 0.00574887)
(0.0101422 -3.57074e-07 0.00574891)
(0.0101421 -3.92176e-07 0.00574897)
(0.0101421 -4.62638e-07 0.00574904)
(0.0101418 -2.51187e-07 0.00574896)
(0.0131834 -7.86259e-08 0.0060325)
(0.0131838 -2.69877e-07 0.00603266)
(0.0131838 -3.33442e-07 0.00603268)
(0.0131837 -2.74364e-07 0.00603271)
(0.0131837 -2.71926e-07 0.00603272)
(0.0131833 -1.39067e-07 0.00603255)
(0.0170908 -3.55301e-08 0.00576305)
(0.0170912 -8.54438e-08 0.0057631)
(0.0170911 -2.35826e-08 0.00576308)
(0.017091 1.05694e-07 0.00576304)
(0.0170909 1.58566e-07 0.00576301)
(0.0170903 8.40781e-08 0.00576284)
(0.0219395 2.06482e-07 0.00458082)
(0.02194 4.80499e-07 0.00458088)
(0.0219398 5.97542e-07 0.00458094)
(0.0219396 7.09289e-07 0.00458095)
(0.0219394 6.98371e-07 0.00458098)
(0.0219386 3.19538e-07 0.00458096)
(0.0255695 5.5106e-07 0.00181799)
(0.0255699 1.11262e-06 0.00181823)
(0.0255696 1.07853e-06 0.00181848)
(0.0255693 1.04842e-06 0.00181868)
(0.025569 8.66668e-07 0.00181884)
(0.0255681 3.51678e-07 0.00181901)
(0.0276058 5.4418e-07 -0.00479534)
(0.0276064 8.84858e-07 -0.00479516)
(0.0276062 6.25355e-07 -0.00479493)
(0.0276058 5.62772e-07 -0.00479472)
(0.0276054 3.23735e-07 -0.00479456)
(0.0276044 8.48846e-08 -0.00479432)
(0.0177758 -2.3258e-07 -0.01971)
(0.0177765 -3.93288e-07 -0.019711)
(0.0177765 -5.32607e-07 -0.0197113)
(0.0177763 -3.77093e-07 -0.0197115)
(0.0177761 -3.7811e-07 -0.0197117)
(0.0177756 -7.53264e-08 -0.0197114)
(0.000631975 2.03919e-07 0.0049909)
(0.000632014 1.28859e-07 0.00499095)
(0.000632016 -1.12442e-07 0.00499096)
(0.000632031 -1.22213e-07 0.00499095)
(0.000632043 -2.18019e-07 0.00499096)
(0.000632059 -1.39716e-07 0.00499085)
(0.00194079 1.58173e-07 0.00524586)
(0.00194087 8.37358e-08 0.00524592)
(0.00194087 -1.4758e-07 0.00524593)
(0.00194089 -1.81674e-07 0.00524593)
(0.00194092 -3.16818e-07 0.00524594)
(0.0019409 -2.07672e-07 0.00524584)
(0.00338939 1.44879e-07 0.00575529)
(0.0033895 6.74211e-08 0.00575536)
(0.00338951 -1.69929e-07 0.00575537)
(0.00338952 -2.30109e-07 0.00575537)
(0.00338954 -3.63897e-07 0.0057554)
(0.00338946 -2.25436e-07 0.0057553)
(0.00509149 1.12763e-07 0.00651066)
(0.00509166 1.90533e-08 0.00651076)
(0.00509168 -2.1967e-07 0.00651077)
(0.00509169 -2.9513e-07 0.0065108)
(0.0050917 -4.15397e-07 0.00651084)
(0.00509157 -2.4508e-07 0.00651075)
(0.00719215 5.56e-08 0.00747459)
(0.00719238 -7.90965e-08 0.00747475)
(0.0071924 -2.89866e-07 0.00747478)
(0.0071924 -3.45923e-07 0.00747484)
(0.00719239 -4.38204e-07 0.00747491)
(0.00719219 -2.45978e-07 0.00747481)
(0.00985897 -2.23301e-08 0.00853231)
(0.00985925 -1.85276e-07 0.00853253)
(0.00985924 -3.08411e-07 0.00853258)
(0.00985921 -3.07454e-07 0.00853265)
(0.00985917 -3.57234e-07 0.00853272)
(0.00985887 -1.94261e-07 0.00853256)
(0.0132098 -2.23723e-08 0.00938006)
(0.0132101 -1.2372e-07 0.00938028)
(0.0132101 -1.44578e-07 0.00938029)
(0.01321 -8.00819e-08 0.0093803)
(0.0132099 -8.99799e-08 0.00938031)
(0.0132095 -5.6036e-08 0.00938006)
(0.0171418 1.44279e-07 0.00928037)
(0.0171421 2.4928e-07 0.0092805)
(0.0171419 2.59622e-07 0.00928043)
(0.0171418 3.17762e-07 0.00928036)
(0.0171417 2.84909e-07 0.0092803)
(0.0171412 1.0777e-07 0.00928005)
(0.0214961 4.75756e-07 0.00667112)
(0.0214964 8.86251e-07 0.00667123)
(0.0214961 7.75244e-07 0.00667117)
(0.021496 6.85902e-07 0.00667112)
(0.0214958 5.22412e-07 0.0066711)
(0.0214951 1.73341e-07 0.006671)
(0.0274098 7.08396e-07 -0.00218754)
(0.0274101 1.16835e-06 -0.00218739)
(0.0274098 7.88963e-07 -0.00218726)
(0.0274096 5.40984e-07 -0.00218711)
(0.0274093 2.36244e-07 -0.00218702)
(0.0274084 -1.80281e-08 -0.00218687)
(0.0345692 5.56047e-07 -0.0269755)
(0.0345704 5.10525e-07 -0.0269761)
(0.0345703 -4.63742e-08 -0.026976)
(0.0345699 -1.74338e-07 -0.0269758)
(0.0345694 -4.4759e-07 -0.0269756)
(0.0345682 -3.97646e-07 -0.026975)
(0.0346606 -8.24349e-07 -0.0796102)
(0.0346633 -1.69458e-06 -0.0796177)
(0.0346638 -1.63182e-06 -0.0796192)
(0.0346635 -1.47399e-06 -0.079619)
(0.034663 -1.39067e-06 -0.0796182)
(0.0346617 -7.66079e-07 -0.0796155)
(-0.388997 4.86147e-06 0.140349)
(-0.388979 1.13779e-05 0.140373)
(-0.388975 5.43192e-06 0.140369)
(-0.388977 5.01514e-06 0.14037)
(-0.388981 3.87868e-06 0.140369)
(-0.388973 6.94578e-06 0.140374)
(-3.01831 1.11219e-05 -1.54994)
(-3.01831 1.41071e-05 -1.54995)
(-3.0183 7.81661e-06 -1.54994)
(-3.01831 8.74691e-06 -1.54994)
(-3.01832 1.98202e-05 -1.54994)
(-3.01831 1.85167e-05 -1.54995)
(-3.66701 1.10414e-05 10.7377)
(-3.66695 2.21649e-05 10.7378)
(-3.66693 1.60735e-05 10.7378)
(-3.66693 1.73045e-05 10.7378)
(-3.66693 2.94046e-05 10.7378)
(-3.66692 2.61077e-05 10.7378)
(-1.47099 8.81142e-06 -1.99104)
(-1.47096 -7.60016e-06 -1.99104)
(-1.47097 3.87323e-06 -1.99104)
(-1.47097 -7.78352e-06 -1.99104)
(-1.47098 -5.49678e-06 -1.99104)
(-1.47093 -1.79291e-05 -1.99102)
(-5.71713 6.79647e-05 -8.31294)
(-5.71711 -4.95385e-05 -8.31294)
(-5.71712 4.81417e-05 -8.31293)
(-5.71712 -1.73667e-05 -8.31291)
(-5.71714 3.3495e-05 -8.31287)
(-5.71701 -9.95404e-05 -8.31294)
(-10.0955 4.41657e-05 -10.4361)
(-10.0955 -3.64816e-05 -10.436)
(-10.0955 7.21307e-06 -10.4361)
(-10.0956 -3.1856e-05 -10.436)
(-10.0956 -5.97894e-07 -10.436)
(-10.0955 -7.15009e-05 -10.4361)
(4.16737 4.91201e-05 -5.67363)
(4.16737 -3.97046e-05 -5.67361)
(4.16737 2.38118e-05 -5.67359)
(4.16737 -1.98491e-05 -5.67359)
(4.16738 2.91017e-05 -5.67359)
(4.16733 -5.85671e-05 -5.67359)
(4.34254 5.40491e-05 -6.03259)
(4.34256 -1.58567e-05 -6.03265)
(4.34256 2.34712e-05 -6.03261)
(4.34256 2.91898e-05 -6.0326)
(4.34262 0.000105797 -6.03257)
(4.34252 2.2618e-05 -6.03277)
(-2.78732 -1.28881e-05 -7.37334)
(-2.78736 -2.42287e-05 -7.37337)
(-2.78736 -3.68274e-05 -7.3734)
(-2.78734 -2.44703e-05 -7.3734)
(-2.78729 -3.25837e-05 -7.37353)
(-2.78729 -1.46964e-06 -7.37353)
(3.55577 0.000140735 -7.14187)
(3.55585 8.30449e-05 -7.14225)
(3.55577 8.47229e-05 -7.14224)
(3.55577 3.01451e-06 -7.14223)
(3.55581 5.89218e-05 -7.14226)
(3.55597 -5.31441e-05 -7.14227)
(-3.31223 8.60442e-05 -4.66023)
(-3.31212 0.000161982 -4.66065)
(-3.3122 0.000132303 -4.6607)
(-3.31218 9.2589e-05 -4.66075)
(-3.31211 8.19616e-05 -4.66087)
(-3.31172 2.96654e-05 -4.66077)
(-3.87119 3.11901e-05 -3.20871)
(-3.87135 3.52251e-05 -3.20871)
(-3.87133 -2.11666e-06 -3.20867)
(-3.87131 7.64873e-06 -3.2087)
(-3.87125 -9.07227e-06 -3.20878)
(-3.87117 -2.36129e-06 -3.20875)
(1.38063 0.0001207 -2.92121)
(1.38176 7.14977e-05 -2.92173)
(1.38192 0.000103369 -2.9216)
(1.382 7.95604e-06 -2.92161)
(1.38212 -2.83975e-07 -2.92168)
(1.38202 -9.48262e-05 -2.92159)
(-3.08232 3.91609e-05 0.762663)
(-3.0823 -8.10274e-06 0.762769)
(-3.08219 -2.07221e-05 0.762777)
(-3.08216 -3.58786e-05 0.762783)
(-3.0821 -3.37361e-05 0.762757)
(-3.08184 -2.99901e-05 0.762607)
(-3.86494 6.93603e-07 -1.43064)
(-3.86513 1.30706e-05 -1.43059)
(-3.86517 8.51429e-06 -1.43056)
(-3.86519 -5.97592e-07 -1.43054)
(-3.86518 1.58548e-05 -1.43054)
(-3.8651 2.14367e-05 -1.43047)
(-3.78634 -0.000131709 1.39913)
(-3.78626 -0.00013918 1.3993)
(-3.78625 -1.46037e-05 1.39934)
(-3.78618 3.08929e-05 1.39937)
(-3.78611 0.000119581 1.39931)
(-3.78616 8.76765e-05 1.39897)
(-2.93637 -7.30106e-05 1.44941)
(-2.93654 -5.25984e-05 1.4496)
(-2.93656 -2.01818e-05 1.44962)
(-2.93657 -2.78391e-05 1.44968)
(-2.93656 8.29639e-06 1.44975)
(-2.93638 3.32875e-05 1.44968)
(-1.72891 -8.5502e-06 -0.499902)
(-1.72902 -1.13776e-05 -0.499881)
(-1.72906 -1.85253e-05 -0.499853)
(-1.72911 -1.8653e-05 -0.499814)
(-1.72917 -8.83736e-06 -0.499785)
(-1.72912 4.3273e-06 -0.49978)
(-1.96931 -4.21723e-05 0.540359)
(-1.96948 6.22207e-05 0.540443)
(-1.96945 0.000168959 0.540421)
(-1.9694 0.000143555 0.540501)
(-1.96934 0.0001955 0.540507)
(-1.96912 0.000104715 0.540181)
(-1.70212 3.3413e-06 0.303081)
(-1.70222 6.25972e-06 0.30313)
(-1.70222 3.99868e-06 0.303147)
(-1.70219 -2.38918e-06 0.303195)
(-1.70219 3.50341e-05 0.303222)
(-1.70209 3.44108e-05 0.303109)
(-1.67793 2.83275e-06 -0.392697)
(-1.67801 2.10024e-06 -0.392692)
(-1.67801 5.69195e-06 -0.392691)
(-1.67801 5.25764e-06 -0.392699)
(-1.67801 1.78223e-05 -0.392706)
(-1.67794 1.36923e-05 -0.392735)
(-3.37951 2.10926e-05 1.43995)
(-3.37974 0.000131092 1.44012)
(-3.37969 0.000160832 1.44015)
(-3.37961 0.000110676 1.44016)
(-3.37951 0.000118687 1.44009)
(-3.37937 6.20462e-05 1.43977)
(-1.96689 2.80764e-06 1.69939)
(-1.96698 1.03753e-05 1.69952)
(-1.96699 2.22265e-05 1.69956)
(-1.96697 3.56511e-05 1.69957)
(-1.96696 6.65614e-05 1.69954)
(-1.96686 4.751e-05 1.6994)
(-0.871797 3.85907e-06 1.024)
(-0.871833 -7.51561e-06 1.02408)
(-0.871849 -9.37633e-06 1.02409)
(-0.87186 9.99864e-07 1.02408)
(-0.871868 1.16384e-05 1.02407)
(-0.871843 9.30729e-06 1.02401)
(-2.23661 4.81316e-05 3.34719)
(-2.23676 8.73264e-05 3.34749)
(-2.2367 5.42027e-05 3.34745)
(-2.23662 -2.94767e-06 3.34738)
(-2.23654 6.86364e-06 3.34733)
(-2.23642 2.32727e-05 3.34694)
(-1.10965 7.11231e-06 2.44982)
(-1.1097 9.07301e-06 2.45002)
(-1.1097 2.04556e-05 2.45001)
(-1.10969 2.74167e-05 2.44997)
(-1.1097 4.73475e-05 2.44991)
(-1.10965 3.89243e-05 2.44973)
(-0.647987 -1.63683e-05 1.88899)
(-0.648018 -2.57348e-05 1.88906)
(-0.648024 -8.23738e-06 1.88905)
(-0.648034 4.86794e-06 1.88902)
(-0.648045 1.61148e-05 1.88901)
(-0.648028 1.32698e-05 1.88893)
(-0.797259 3.59686e-05 3.94159)
(-0.797259 -3.00349e-05 3.94173)
(-0.797204 -0.000135676 3.94174)
(-0.797173 -0.000169585 3.94176)
(-0.797131 -0.000141605 3.94191)
(-0.797112 -4.25021e-05 3.94165)
(-0.399956 -2.97956e-06 3.01783)
(-0.39997 -3.24624e-05 3.01794)
(-0.39998 -4.99485e-05 3.01793)
(-0.400003 -5.15394e-05 3.01792)
(-0.400028 -2.50126e-05 3.01794)
(-0.400037 7.10092e-06 3.0178)
(-0.215071 -1.33363e-05 2.41391)
(-0.215076 -1.941e-05 2.41396)
(-0.21508 -9.24669e-06 2.41396)
(-0.215089 -5.6473e-06 2.41395)
(-0.2151 4.49019e-06 2.41396)
(-0.215101 6.31057e-06 2.41389)
(0.334734 -4.68767e-05 3.81074)
(0.334777 -0.000170121 3.81088)
(0.334788 -0.000256994 3.81097)
(0.334781 -0.000270397 3.81112)
(0.334792 -0.000223977 3.81139)
(0.334712 -8.94123e-05 3.81129)
(0.256679 -2.58461e-05 2.98816)
(0.25668 -6.84457e-05 2.98824)
(0.256679 -9.4073e-05 2.98828)
(0.256668 -0.000106014 2.98834)
(0.256668 -7.74451e-05 2.98843)
(0.256634 -2.36389e-05 2.98835)
(0.0249921 -3.41156e-06 2.45817)
(0.0249966 -9.20174e-06 2.45823)
(0.024997 -1.45667e-05 2.45825)
(0.0249965 -1.92485e-05 2.45827)
(0.0249957 -1.12164e-05 2.4583)
(0.0249903 -7.46278e-07 2.45825)
(1.51217 -5.26223e-05 3.84362)
(1.51221 -0.000106526 3.84377)
(1.51222 -0.000121527 3.84384)
(1.51223 -0.00012588 3.84396)
(1.51224 -0.000106351 3.84411)
(1.51217 -4.74393e-05 3.84408)
(1.09575 -1.88641e-05 2.72667)
(1.09579 -4.26553e-05 2.72675)
(1.09581 -6.0674e-05 2.72679)
(1.09582 -7.01651e-05 2.72684)
(1.09585 -5.84283e-05 2.7269)
(1.09581 -2.26159e-05 2.72683)
(0.329771 -1.11878e-06 2.22111)
(0.329785 -6.80561e-06 2.22118)
(0.329789 -1.50323e-05 2.2212)
(0.329794 -1.87685e-05 2.22122)
(0.329801 -1.50344e-05 2.22124)
(0.329785 -4.64166e-06 2.22119)
(0.324952 -3.4483e-07 0.0783571)
(0.324962 -9.22557e-07 0.078359)
(0.324963 -1.93558e-06 0.0783591)
(0.324963 -1.3615e-06 0.0783591)
(0.324963 -1.19374e-06 0.078359)
(0.324953 -6.44945e-09 0.078357)
(0.25271 -3.30982e-07 0.212966)
(0.252717 -1.23284e-06 0.212971)
(0.252718 -1.72742e-06 0.212972)
(0.252718 -1.5461e-06 0.212972)
(0.252717 -9.88877e-07 0.212972)
(0.25271 -1.60339e-07 0.212966)
(0.0946577 -1.51157e-07 0.311319)
(0.0946602 -6.54477e-07 0.311328)
(0.0946602 -9.60324e-07 0.311328)
(0.0946602 -8.96876e-07 0.311329)
(0.0946602 -3.04673e-07 0.311329)
(0.0946575 8.31802e-08 0.311322)
(0.44181 -6.59723e-07 0.108603)
(0.441825 -1.5387e-06 0.108606)
(0.441826 -2.62894e-06 0.108606)
(0.441826 -1.37948e-06 0.108606)
(0.441825 -6.97097e-07 0.108606)
(0.441812 5.16518e-07 0.108603)
(0.346844 -4.42984e-07 0.300694)
(0.346855 -1.70834e-06 0.300702)
(0.346856 -2.1119e-06 0.300703)
(0.346856 -1.54437e-06 0.300703)
(0.346855 -5.52707e-07 0.300703)
(0.346845 2.45871e-07 0.300695)
(0.130055 1.6315e-07 0.438076)
(0.130058 -3.56488e-07 0.438088)
(0.130059 -8.75794e-07 0.438089)
(0.130058 -8.44443e-07 0.438089)
(0.130058 -1.62561e-07 0.438089)
(0.130055 2.23681e-07 0.438077)
(0.607816 -4.55144e-07 0.149127)
(0.607837 -1.51388e-06 0.149131)
(0.607839 -3.57407e-06 0.14913)
(0.607839 -2.19675e-06 0.14913)
(0.607838 -1.03072e-06 0.149129)
(0.60782 6.91783e-07 0.149125)
(0.484043 -3.33001e-07 0.421191)
(0.48406 -2.35146e-06 0.421202)
(0.484063 -3.46933e-06 0.421203)
(0.484063 -2.49198e-06 0.421203)
(0.484063 -1.1808e-06 0.421202)
(0.484048 1.13099e-08 0.421191)
(0.17753 3.43004e-07 0.60972)
(0.177536 -4.58329e-07 0.609737)
(0.177537 -1.31051e-06 0.609738)
(0.177537 -1.2351e-06 0.609738)
(0.177537 -7.03876e-07 0.609737)
(0.177532 -1.58374e-07 0.60972)
(0.77596 -2.20098e-06 0.186484)
(0.775987 -3.76603e-06 0.186487)
(0.77599 -5.5161e-06 0.186486)
(0.77599 -3.42763e-06 0.186485)
(0.775989 -1.99514e-06 0.186483)
(0.775964 8.87219e-07 0.186477)
(0.668016 -1.86481e-06 0.585776)
(0.668042 -5.68593e-06 0.585791)
(0.668046 -7.1345e-06 0.585792)
(0.668049 -5.41535e-06 0.585792)
(0.66805 -3.42878e-06 0.585792)
(0.66803 -9.1899e-07 0.585775)
(0.239816 2.28378e-08 0.842118)
(0.239826 -1.57896e-06 0.842143)
(0.239828 -2.82525e-06 0.842144)
(0.239829 -2.62105e-06 0.842144)
(0.239829 -2.12009e-06 0.842143)
(0.239822 -1.00097e-06 0.842119)
(1.04898 -1.6784e-06 0.303162)
(1.04901 -8.50724e-07 0.303175)
(1.04901 -3.91974e-06 0.303176)
(1.04901 -1.37509e-06 0.303177)
(1.04901 -2.80817e-06 0.303177)
(1.04897 5.35147e-07 0.303166)
(0.949242 -4.29317e-06 0.79261)
(0.94928 -9.84055e-06 0.792632)
(0.949286 -1.23364e-05 0.792634)
(0.949293 -1.15061e-05 0.792635)
(0.949299 -9.3499e-06 0.792635)
(0.949267 -3.64886e-06 0.792612)
(0.324485 -1.3494e-06 1.14318)
(0.324499 -4.55101e-06 1.14321)
(0.324502 -6.01877e-06 1.14322)
(0.324505 -5.87078e-06 1.14322)