/*--------------------------------*- C++ -*----------------------------------*\
| =========                 |                                                 |
| \\      /  F ield         | OpenFOAM: The Open Source CFD Toolbox           |
|  \\    /   O peration     | Version:  v1612+                                |
|   \\  /    A nd           | Web:      www.OpenFOAM.com                      |
|    \\/     M anipulation  |                                                 |
\*---------------------------------------------------------------------------*/
FoamFile
{
    version     2.0;
    format      ascii;
    class       volScalarField;
    location    "8.1";
    object      p_rgh;
}
// * * * * * * * * * * * * * * * * * * * * * * * * * * * * * * * * * * * * * //

dimensions      [1 -1 -2 0 0 0 0];

internalField   nonuniform List<scalar> 
1116
(
17909.2
17899.7
17904.7
17906.4
17911.8
17899.9
18124.5
18122.9
18123.6
18126.2
18137.6
18115.7
19133.5
19130
19130.3
19132.4
19138.1
19127.8
19911
19909.1
19909.4
19911
19913.3
19908.8
20296
20295.5
20295.3
20296.5
20297.5
20295.6
19590.8
19587.5
19588.2
19589.9
19589.2
19590.2
17400.2
17395.5
17399
17395.9
17390.6
17405.1
14167.8
14172.6
14175.2
14165.6
14159
14190.3
11175.2
11167.7
11169.8
11169.7
11174.4
11161.7
9584.33
9568.75
9569.69
9582.01
9598.93
9565.09
8693.76
8674.1
8672.52
8693.92
8703.87
8663.13
7978.92
7959.05
7959.96
7979.24
7989.86
7966.35
17172.5
17182
17173.6
17179.6
17181.7
17163.1
14835.3
14900.1
14884.8
14859.2
14827.7
14888.8
16310.5
16335
16326.9
16317.7
16311.5
16338.9
19638.4
19638.7
19644.8
19632.8
19626.3
19658.5
20938.2
20932.3
20938.3
20933.2
20934.1
20942.1
19440.3
19452.1
19452.9
19440.4
19441.9
19452.2
14241.7
14326.3
14305.4
14272.4
14242.9
14324.6
6951.3
7013.46
6998.15
6980.03
6922.23
7135.09
4307.43
4226.6
4242.89
4290.51
4344.46
4126.73
3959.03
3890.35
3893.98
3941.77
3984.04
3810.75
3082.37
3078.54
3073.44
3069.87
3069.5
3074.17
2243.91
2219.74
2228.69
2248.44
2274.34
2241.01
6997.13
7119.98
7133.38
6999.91
6999.72
7103.16
1479.02
1550.82
1565.39
1481.27
1397.94
1589.02
2026.91
2021.33
2020.58
2037.89
2025.68
2038.23
5142.04
5085.63
5077.56
5144.81
5159.18
5126.36
10061.5
10053.2
10041
10054.1
10040.6
10090.7
9971.54
9981
9984.78
9945.53
9919.99
10033.1
8779.13
8656.51
8712.98
8745.7
8810.14
8570.37
5868.75
6025.35
6014.95
5862.24
5784.43
5994.46
1635.44
1925.62
1853
1644.05
1499.36
2087.57
397.739
471.667
463.093
397.257
366.186
518.697
680.896
650.975
655.17
690.694
704.326
651.501
853.105
771.563
777.279
871.205
928.198
770.724
14.7964
14.9382
14.4234
15.0951
15.8639
14.9653
12.5564
13.1571
12.2226
11.0223
10.76
11.3844
5.28456
5.65193
5.91562
5.27809
4.65541
5.09408
-24.0748
-23.6686
-23.6745
-24.0412
-24.2793
-23.0581
-65.5541
-64.9491
-65.1598
-66.1688
-67.177
-65.1497
-103.673
-104.824
-104.731
-104.248
-104.565
-104.426
-58.7049
-62.1426
-61.7706
-58.0988
-56.6684
-61.9536
212.495
163.997
175.071
205.216
220.761
118.457
88.8984
111.402
106.394
87.6234
77.1572
107.576
90.9696
91.863
91.7088
91.5851
89.9157
91.3419
92.011
103.222
102.642
92.0861
88.6776
108.731
151.09
188.049
188.278
146.451
126.026
199
3200.66
3111.12
3157.33
3084.4
3061.76
3104.94
3060.51
2984.72
3019.34
2952.77
2891.19
2966.57
2738.27
2645.65
2560.71
2594.34
2601.49
2610.78
2199.79
1860.41
1633.28
1853.08
1927.9
1999.08
1358.84
1181.38
1275.07
1184.73
984.085
1022.98
742.071
731.226
747.982
780.123
835.599
815.85
591.584
559.399
500.471
565.75
586.27
549.922
575.294
542.312
412.236
306.349
371.276
452.605
567.655
536.13
392.97
234.825
258.592
487.639
402.613
516.826
401.593
255.57
283.661
498.345
427.398
482.546
438.227
486.941
538.875
579.733
463.263
442.703
507.858
595.732
631.656
611.839
3162.91
3044.52
3115.9
3078.07
3011.3
3057.22
2926.46
2813.97
2920.92
2820.29
2622.18
2726.41
2585
2146.92
1803.68
1881.23
2389.88
2393.75
1856.68
1087.92
927.974
1216.17
1440.05
1597.5
445.334
366.493
328.336
364.19
380.572
413.857
35.1009
30.4769
20.7733
34.4924
74.583
77.4701
12.7375
10.2496
16.3646
21.8656
25.8063
16.0563
41.3717
34.0422
22.0367
51.2266
45.3261
16.2664
119.152
32.6522
14.2659
45.4269
30.4488
17.8242
210.11
39.225
24.6238
31.8923
31.2862
54.2777
183.452
55.2373
55.1895
62.9013
67.4633
125.552
204.88
112.84
70.4045
80.9187
78.5129
141.179
3194.4
3035.92
3215.37
3199.03
3136
3178.44
2237.55
2957.88
2969.98
2893.55
2780.82
1992.31
2241.92
2771.12
2709.42
2533.04
2555.07
979.453
1769.14
1633.35
817.555
824.951
1483.58
625.943
317.832
125.34
59.5341
51.0211
92.5544
169.558
18.6608
17.1098
19.6826
19.1115
17.2062
17.5226
26.0688
27.4724
30.1973
30.1134
29.2477
26.4289
27.0786
27.4571
25.4845
25.25
24.7425
23.1385
10.9705
12.3208
5.41257
9.98791
12.5327
19.4056
0.599275
2.74171
4.48953
9.67908
26.4045
24.8586
8.24327
30.8148
36.838
87.704
104.729
6.53657
61.6817
110.923
108.331
184.596
173.583
79.0098
1689.15
520.954
2516.75
3511.27
2721.13
2012.87
34.0694
789.864
562.413
2404.6
1975.76
197.017
3.28683
1462.22
1855.88
2452.88
905.207
10.9884
-24.3131
1465.02
1478.19
742.746
297.095
-7.45949
29.6446
236.91
102.552
22.4938
28.9076
18.2308
16.5
10.2126
16.0063
16.427
17.736
19.3312
14.5443
16.6455
17.3323
16.3313
15.9634
15.3865
13.7163
13.3818
11.5926
12.5304
13.3855
16.034
4.46506
2.2012
-1.01835
3.73197
3.11502
13.8734
-1.4537
-3.50584
-9.45463
-4.52966
-4.43143
-0.629364
12.5111
8.67588
2.33183
45.4882
69.7033
7.79224
274.54
258.4
270.604
250.92
238.789
276.094
31.4845
27.7904
25.5528
32.6953
36.3086
28.11
24.4253
13.6666
8.28606
25.255
24.4081
15.8326
12.335
12.091
11.531
13.8337
13.8809
15.6825
23.3042
19.5597
17.9298
20.7925
20.3048
17.2473
12.1608
10.2531
10.0622
4.81206
8.67586
10.3615
-10.729
-13.7753
-12.9679
-13.5267
-15.6016
-1.85061
3.68778
4.46316
5.68667
1.57124
-0.723427
5.3931
-15.7159
-15.6428
-15.6417
-15.3383
-15.0225
-13.2206
-17.4184
-17.6918
-17.8492
-17.5346
-17.5407
-18.5372
-15.4878
-14.9449
-14.7321
-15.2353
-15.2447
-14.5675
-19.4402
-19.4047
-19.3987
-19.2597
-19.0416
-19.2914
-15.5589
-15.7476
-15.636
-15.6014
-15.4955
-15.6729
-44.1708
-43.2407
-43.3549
-44.3537
-45.0973
-43.3272
-31.439
-31.2128
-31.2582
-31.5259
-31.5585
-31.1926
-13.31
-13.5646
-13.5248
-13.2221
-12.8974
-13.6191
-101.573
-101.34
-101.653
-102.43
-102.928
-100.574
-51.648
-51.6601
-51.7554
-52.0381
-51.8865
-51.4644
-8.90575
-9.05802
-9.02752
-8.83755
-8.49786
-9.37303
-120.069
-121.137
-121.024
-120.493
-119.498
-120.671
-52.2677
-52.2843
-52.2717
-52.6179
-52.3797
-52.3894
-5.18461
-5.23662
-5.18177
-5.0613
-4.96517
-5.73529
-72.2326
-73.9217
-74.1009
-72.6257
-71.6762
-73.1851
-39.2271
-39.603
-39.6349
-39.1334
-38.881
-39.7544
-6.30503
-6.21919
-6.24018
-6.08406
-5.88615
-6.33648
2.68143
2.26194
2.19867
2.01907
-0.0686161
-3.35829
-2.57434
-2.96666
-3.233
-2.60341
-3.38847
-4.00285
-1.21827
-1.36364
-1.43586
-1.17616
-1.29506
-1.77266
51.8911
53.6209
53.0582
52.2568
51.3865
55.2134
16.5754
17.0785
16.8719
16.8206
16.8736
17.4778
1.2614
1.2758
1.27393
1.28794
1.37486
1.30535
31.8431
32.1054
31.9889
32.6421
32.7804
34.1943
9.0634
8.63294
8.71901
9.34351
9.64857
8.80969
4.56517
4.567
4.58119
4.62854
4.69356
4.63692
358.193
364.943
361.957
354.764
345.207
358.974
1.7568
1.80687
1.85866
1.88386
1.97485
2.07451
-0.659753
-0.671109
-0.657577
-0.613076
-0.567576
-0.593039
1584.37
1558.3
1537.83
1541.3
1536.57
1539.13
6.42916
6.39935
6.57822
7.06641
7.33093
7.38884
-5.16463
-5.19707
-5.19577
-5.34765
-5.42918
-5.45481
1692.07
1682.39
1665.52
1656.36
1658.03
1667.25
5.13885
5.27321
5.50589
5.69114
5.82527
5.84076
-3.64623
-3.66818
-3.67307
-3.77802
-3.964
-4.0304
1712.19
1711.08
1709.14
1707.66
1706.12
1706.07
5.87159
5.89411
5.9553
6.05394
6.1246
6.16076
-4.2485
-4.25468
-4.2683
-4.28383
-4.29951
-4.30661
1674.26
1676.3
1676.89
1675.01
1672.72
1676.13
5.8909
5.9241
5.97232
6.01892
6.05653
6.07735
-3.9505
-3.95368
-3.9684
-3.99414
-4.01963
-4.03352
1644.85
1646.17
1647.67
1644.52
1641.89
1644.12
7.27875
7.30553
7.338
7.38287
7.42845
7.45004
-3.21776
-3.22532
-3.21803
-3.1944
-3.17574
-3.1829
1542.8
1542.57
1542.41
1541.5
1538.37
1536.51
7.8151
7.87889
7.88809
7.86044
7.8622
7.95047
-3.89781
-3.8943
-3.90472
-3.91819
-3.9311
-3.91838
-1.96641
-0.0122406
170.777
575.583
-11.3452
-6.19512
-3.94511
-3.71639
5.68763
-5.80335
-6.93399
-6.54417
-4.84396
-5.68904
-6.02029
-7.2617
-6.62075
-4.81662
-18.2442
-16.8177
-19.4314
-23.1512
-26.6211
-27.0896
-6.896
-11.1983
-12.0245
-13.9504
-12.4456
-7.85343
-6.77886
-7.41161
-8.19298
-7.3918
-4.98345
-3.74701
-27.7904
-32.379
-31.2302
165.701
-37.6092
-27.7146
-7.49285
-18.6698
-21.4452
-25.8293
-20.0925
-13.3549
-3.77693
-5.00247
-5.59371
-5.97624
-2.08174
-1.04835
-36.4677
111.831
332.547
336.363
-43.6969
-34.4067
-22.6875
-19.8557
2.4368
21.7354
-24.7861
-18.7858
-3.61201
-4.66925
-4.78894
-3.7844
-1.91659
-1.20617
-15.4373
110.539
156.421
58.3234
0.608831
-1.31571
-10.9972
12.4444
47.6075
12.7336
-5.8929
-2.97093
-1.49288
-2.40996
-2.56338
-1.9194
-0.931991
-0.0430823
7.96119
13.8323
12.6371
14.4512
13.2751
13.1532
2.99107
3.79233
6.12717
6.4343
4.90383
5.02912
-0.109918
-0.420901
0.0634426
0.341564
0.407193
0.455943
15.1132
16.5838
16.8655
15.1899
14.7069
14.6137
5.66925
5.72965
6.29212
5.85447
5.42122
5.59219
0.0763965
-0.305787
0.151824
0.298545
0.631647
0.796693
12.9218
13.003
10.7143
10.0264
10.1656
9.99905
5.23945
4.99204
4.44462
4.15918
4.71848
3.41192
0.74541
0.604407
0.926866
0.85135
1.24827
1.34083
4.84056
4.00767
0.735354
2.00577
2.75855
3.18951
2.34293
2.06473
1.35315
0.993903
1.05672
0.0688967
0.957045
0.847203
1.65664
1.79938
1.90601
2.32318
2.40917
2.13116
-1.71465
-3.10183
0.109095
1.57265
2.70104
3.01958
2.84256
1.21151
1.33029
1.66748
1.298
1.15833
2.4257
2.95621
2.44378
2.32063
12.5761
13.6455
12.7473
6.23313
6.45368
8.55389
2.44876
1.74362
3.341
1.50878
0.991985
0.927108
2.00847
2.0782
2.86763
3.44685
2.95
3.01394
387.034
329.274
330.099
356.677
326.352
364.713
-0.467086
-0.304373
0.0803244
0.493628
1.56172
1.65042
-3.17705
-2.72613
-2.40395
-2.81313
-3.07446
-3.21696
)
;

boundaryField
{
    seabed_topleft_surface
    {
        type            fixedFluxPressure;
        gradient        uniform 0;
        value           nonuniform List<scalar> 
72
(
17909.2
17899.7
17904.7
17906.4
17911.8
17899.9
18124.5
18122.9
18123.6
18126.2
18137.6
18115.7
19133.5
19130
19130.3
19132.4
19138.1
19127.8
19911
19909.1
19909.4
19911
19913.3
19908.8
20296
20295.5
20295.3
20296.5
20297.5
20295.6
19590.8
19587.5
19588.2
19589.9
19589.2
19590.2
17400.2
17395.5
17399
17395.9
17390.6
17405.1
14167.8
14172.6
14175.2
14165.6
14159
14190.3
11175.2
11167.7
11169.8
11169.7
11174.4
11161.7
9584.33
9568.75
9569.69
9582.01
9598.93
9565.09
8693.76
8674.1
8672.52
8693.92
8703.87
8663.13
7978.92
7959.05
7959.96
7979.24
7989.86
7966.35
)
;
    }
    seabed_topright_surface
    {
        type            fixedFluxPressure;
        gradient        uniform 0;
        value           nonuniform List<scalar> 
72
(
3200.66
3111.12
3157.33
3084.4
3061.76
3104.94
3060.51
2984.72
3019.34
2952.77
2891.19
2966.57
2738.27
2645.65
2560.71
2594.34
2601.49
2610.78
2199.79
1860.41
1633.28
1853.08
1927.9
1999.08
1358.84
1181.38
1275.07
1184.73
984.085
1022.98
742.071
731.226
747.982
780.123
835.599
815.85
591.584
559.399
500.471
565.75
586.27
549.922
575.294
542.312
412.236
306.349
371.276
452.605
567.655
536.13
392.97
234.825
258.592
487.639
402.613
516.826
401.593
255.57
283.661
498.345
427.398
482.546
438.227
486.941
538.875
579.733
463.263
442.703
507.858
595.732
631.656
611.839
)
;
    }
    breakwater_top_surface
    {
        type            fixedFluxPressure;
        gradient        uniform 0;
        value           nonuniform List<scalar> 
36
(
1584.37
1558.3
1537.83
1541.3
1536.57
1539.13
1692.07
1682.39
1665.52
1656.36
1658.03
1667.25
1712.19
1711.08
1709.14
1707.66
1706.12
1706.07
1674.26
1676.3
1676.89
1675.01
1672.72
1676.13
1644.85
1646.17
1647.67
1644.52
1641.89
1644.12
1542.8
1542.57
1542.41
1541.5
1538.37
1536.51
)
;
    }
    breakwater_left_surface
    {
        type            fixedFluxPressure;
        gradient        uniform 0;
        value           nonuniform List<scalar> 
24
(
7978.92
7959.05
7959.96
7979.24
7989.86
7966.35
2243.91
2219.74
2228.69
2248.44
2274.34
2241.01
853.105
771.563
777.279
871.205
928.198
770.724
151.09
188.049
188.278
146.451
126.026
199
)
;
    }
    breakwater_right_surface
    {
        type            fixedFluxPressure;
        gradient        uniform 0;
        value           nonuniform List<scalar> 
24
(
463.263
442.703
507.858
595.732
631.656
611.839
204.88
112.84
70.4045
80.9187
78.5129
141.179
61.6817
110.923
108.331
184.596
173.583
79.0098
274.54
258.4
270.604
250.92
238.789
276.094
)
;
    }
    water_front_surface
    {
        type            fixedFluxPressure;
        gradient        uniform 0;
        value           nonuniform List<scalar> 
186
(
17909.2
18124.5
19133.5
19911
20296
19590.8
17400.2
14167.8
11175.2
9584.33
8693.76
7978.92
17172.5
14835.3
16310.5
19638.4
20938.2
19440.3
14241.7
6951.3
4307.43
3959.03
3082.37
2243.91
6997.13
1479.02
2026.91
5142.04
10061.5
9971.54
8779.13
5868.75
1635.44
397.739
680.896
853.105
14.7964
12.5564
5.28456
-24.0748
-65.5541
-103.673
-58.7049
212.495
88.8984
90.9696
92.011
151.09
3200.66
3060.51
2738.27
2199.79
1358.84
742.071
591.584
575.294
567.655
402.613
427.398
463.263
3162.91
2926.46
2585
1856.68
445.334
35.1009
12.7375
41.3717
119.152
210.11
183.452
204.88
3194.4
2237.55
2241.92
1769.14
317.832
18.6608
26.0688
27.0786
10.9705
0.599275
8.24327
61.6817
1689.15
34.0694
3.28683
-24.3131
29.6446
16.5
14.5443
13.7163
4.46506
-1.4537
12.5111
274.54
31.4845
24.4253
12.335
23.3042
12.1608
-10.729
3.68778
-15.7159
-17.4184
-15.4878
-19.4402
-15.5589
-44.1708
-31.439
-13.31
-101.573
-51.648
-8.90575
-120.069
-52.2677
-5.18461
-72.2326
-39.2271
-6.30503
2.68143
-2.57434
-1.21827
51.8911
16.5754
1.2614
31.8431
9.0634
4.56517
358.193
1.7568
-0.659753
1584.37
6.42916
-5.16463
1692.07
5.13885
-3.64623
1712.19
5.87159
-4.2485
1674.26
5.8909
-3.9505
1644.85
7.27875
-3.21776
1542.8
7.8151
-3.89781
-1.96641
-3.94511
-4.84396
-18.2442
-6.896
-6.77886
-27.7904
-7.49285
-3.77693
-36.4677
-22.6875
-3.61201
-15.4373
-10.9972
-1.49288
7.96119
2.99107
-0.109918
15.1132
5.66925
0.0763965
12.9218
5.23945
0.74541
4.84056
2.34293
0.957045
2.40917
2.70104
1.298
12.5761
2.44876
2.00847
387.034
-0.467086
-3.17705
)
;
    }
    water_back_surface
    {
        type            fixedFluxPressure;
        gradient        uniform 0;
        value           nonuniform List<scalar> 
186
(
17899.9
18115.7
19127.8
19908.8
20295.6
19590.2
17405.1
14190.3
11161.7
9565.09
8663.13
7966.35
17163.1
14888.8
16338.9
19658.5
20942.1
19452.2
14324.6
7135.09
4126.73
3810.75
3074.17
2241.01
7103.16
1589.02
2038.23
5126.36
10090.7
10033.1
8570.37
5994.46
2087.57
518.697
651.501
770.724
14.9653
11.3844
5.09408
-23.0581
-65.1497
-104.426
-61.9536
118.457
107.576
91.3419
108.731
199
3104.94
2966.57
2610.78
1999.08
1022.98
815.85
549.922
452.605
487.639
498.345
579.733
611.839
3057.22
2726.41
2393.75
1597.5
413.857
77.4701
16.0563
16.2664
17.8242
54.2777
125.552
141.179
3178.44
1992.31
979.453
625.943
169.558
17.5226
26.4289
23.1385
19.4056
24.8586
6.53657
79.0098
2012.87
197.017
10.9884
-7.45949
18.2308
19.3312
15.3865
16.034
13.8734
-0.629364
7.79224
276.094
28.11
15.8326
15.6825
17.2473
10.3615
-1.85061
5.3931
-13.2206
-18.5372
-14.5675
-19.2914
-15.6729
-43.3272
-31.1926
-13.6191
-100.574
-51.4644
-9.37303
-120.671
-52.3894
-5.73529
-73.1851
-39.7544
-6.33648
-3.35829
-4.00285
-1.77266
55.2134
17.4778
1.30535
34.1943
8.80969
4.63692
358.974
2.07451
-0.593039
1539.13
7.38884
-5.45481
1667.25
5.84076
-4.0304
1706.07
6.16076
-4.30661
1676.13
6.07735
-4.03352
1644.12
7.45004
-3.1829
1536.51
7.95047
-3.91838
-6.19512
-6.54417
-4.81662
-27.0896
-7.85343
-3.74701
-27.7146
-13.3549
-1.04835
-34.4067
-18.7858
-1.20617
-1.31571
-2.97093
-0.0430823
13.1532
5.02912
0.455943
14.6137
5.59219
0.796693
9.99905
3.41192
1.34083
3.18951
0.0688967
2.32318
1.57265
1.66748
2.32063
8.55389
0.927108
3.01394
364.713
1.65042
-3.21696
)
;
    }
    water_left_surface
    {
        type            fixedFluxPressure;
        gradient        uniform 0;
        value           nonuniform List<scalar> 
42
(
17909.2
17899.7
17904.7
17906.4
17911.8
17899.9
17172.5
17182
17173.6
17179.6
17181.7
17163.1
6997.13
7119.98
7133.38
6999.91
6999.72
7103.16
14.7964
14.9382
14.4234
15.0951
15.8639
14.9653
31.4845
27.7904
25.5528
32.6953
36.3086
28.11
24.4253
13.6666
8.28606
25.255
24.4081
15.8326
12.335
12.091
11.531
13.8337
13.8809
15.6825
)
;
    }
    water_right_surface
    {
        type            fixedFluxPressure;
        gradient        uniform 0;
        value           nonuniform List<scalar> 
42
(
3200.66
3111.12
3157.33
3084.4
3061.76
3104.94
3162.91
3044.52
3115.9
3078.07
3011.3
3057.22
3194.4
3035.92
3215.37
3199.03
3136
3178.44
1689.15
520.954
2516.75
3511.27
2721.13
2012.87
-1.96641
-0.0122406
170.777
575.583
-11.3452
-6.19512
-3.94511
-3.71639
5.68763
-5.80335
-6.93399
-6.54417
-4.84396
-5.68904
-6.02029
-7.2617
-6.62075
-4.81662
)
;
    }
    water_top_surface
    {
        type            totalPressure;
        rho             rho;
        psi             none;
        gamma           1;
        p0              uniform 0;
        value           nonuniform List<scalar> 
180
(
0
0
0
0
0
0
-11.7357
-10.7682
-9.28675
-12.6011
-14.5764
-4.48414
-21.1634
-21.6738
-21.5727
-21.5779
-21.8858
-20.2632
-16.2118
-16.7565
-16.491
-16.5096
-16.5066
-16.3215
-10.3568
-10.9037
-10.7234
-10.3552
-10.1183
-10.6393
-2.1132
-2.72601
-2.83956
-2.1046
-1.72064
-3.06075
0
0
0
0
0
0
0
0
0
0
0
0
0
0
0
0
0
0
0
0
0
0
0
0
0
0
0
0
0
0
-0.201821
-0.200743
-0.198619
-0.199544
-0.198285
-0.1935
-0.0231356
-0.0474055
-0.0330357
-9.27731e-05
-0.00507672
-0.00179072
-0.56587
-0.567063
-0.48704
-0.494318
-0.501683
-0.554671
-0.35352
-0.369864
-0.354053
-0.349465
-0.347619
-0.340259
-0.447283
-0.460357
-0.452888
-0.453895
-0.454596
-0.453418
-0.233441
-0.239956
-0.23367
-0.223372
-0.216187
-0.219689
0
0
0
0
0
0
-0.857906
-6.08231
0
-0.0818226
-6.65668
-1.41572
-8.98967
-9.1544
-11.021
-8.77791
-7.77772
-4.76218
-3.10897
-6.81153
-4.33516
-4.4371
-4.41379
-1.04226
-0.133784
-0.340628
-0.126684
0
0
-0.024892
0
0
0
0
0
0
0
0
0
0
0
0
0
0
0
0
0
0
0
0
0
0
0
0
0
0
0
0
0
0
0
0
0
-0.0272831
-0.114027
-0.224611
-0.199299
-0.363606
-0.0917632
-0.461423
-0.72814
-0.74326
-0.857361
-1.26748
-1.16881
-0.943793
-0.803818
-0.723177
)
;
    }
}


// ************************************************************************* //
