/*--------------------------------*- C++ -*----------------------------------*\
| =========                 |                                                 |
| \\      /  F ield         | OpenFOAM: The Open Source CFD Toolbox           |
|  \\    /   O peration     | Version:  v1612+                                |
|   \\  /    A nd           | Web:      www.OpenFOAM.com                      |
|    \\/     M anipulation  |                                                 |
\*---------------------------------------------------------------------------*/
FoamFile
{
    version     2.0;
    format      ascii;
    class       surfaceScalarField;
    location    "8.1";
    object      phi;
}
// * * * * * * * * * * * * * * * * * * * * * * * * * * * * * * * * * * * * * //

dimensions      [0 3 -1 0 0 0 0];

internalField   nonuniform List<scalar> 
2916
(
0.00213483
0.385384
-0.387518
0.000105214
0.382405
-0.380375
0.00315905
0.37946
-0.382514
0.000926889
0.387595
-0.385363
-0.00488024
0.394973
-0.389165
0.378733
-0.383614
0.00096554
0.650541
-0.266123
-0.00122514
0.647314
-0.262719
-0.00403335
0.646306
-0.264038
-0.00304374
0.651155
-0.26455
0.0021339
0.655268
-0.265473
0.645507
-0.26464
0.00243098
0.728893
-0.080783
-0.000190668
0.72721
-0.0772747
-0.00421058
0.727243
-0.0769169
-0.00171884
0.728891
-0.0802274
0.00555051
0.730684
-0.0826853
0.726699
-0.0756419
0.00113832
0.653288
0.074466
4.77657e-05
0.651093
0.0772075
-0.00198977
0.651773
0.077508
-0.0006313
0.652613
0.0749193
0.00305479
0.653762
0.0732355
0.651339
0.0784149
-0.000545259
0.499242
0.154592
0.00011938
0.494093
0.156336
0.000130067
0.495707
0.156054
-0.000158238
0.497557
0.155344
-0.000326846
0.499236
0.154694
0.49483
0.156182
-0.00094414
0.318753
0.181433
0.000168238
0.311565
0.181415
0.0014007
0.313304
0.181171
7.55515e-06
0.316933
0.182017
-0.00244049
0.319226
0.182458
0.31191
0.180479
0.000438792
0.106266
0.212048
-1.61879e-05
0.102772
0.209248
-1.10591e-05
0.103616
0.209683
-0.000354271
0.105903
0.211373
0.00113039
0.105464
0.212278
0.103616
0.209425
0.000872232
-0.14389
0.249284
0.000436531
-0.141001
0.244209
-5.27334e-06
-0.140908
0.244966
0.00113019
-0.143355
0.248123
0.002235
-0.147929
0.252288
-0.137926
0.243776
-0.000193975
-0.309273
0.165577
0.00107336
-0.30872
0.166452
0.00203481
-0.307758
0.165889
0.00250468
-0.310245
0.16642
0.0030286
-0.313984
0.165531
-0.308101
0.173204
-0.0010559
-0.305741
-0.00247625
0.0011466
-0.311735
0.000812653
0.00398568
-0.310501
-9.6221e-05
0.0016949
-0.307649
-0.000305381
-0.00292015
-0.307132
-0.0022376
-0.315
0.00397868
0.00038714
-0.214238
-0.0918895
0.000329573
-0.229075
-0.0826028
0.00176129
-0.228048
-0.0838846
0.000204362
-0.216023
-0.0900688
-0.00460449
-0.208713
-0.0936102
-0.234954
-0.0846506
0.00746069
-0.221699
-0.00265285
-0.218961
-0.0112395
-0.219462
-0.0047231
-0.22254
0.012246
-0.225682
-0.222708
-0.00275668
0.509974
-0.894736
0.00696313
0.493702
-0.883796
0.0225916
0.483984
-0.882127
0.012011
0.518571
-0.893353
-0.0216169
0.547869
-0.903406
0.480843
-0.886074
-0.0121716
0.939089
-0.683066
-0.00201493
0.927079
-0.706252
0.0124136
0.923525
-0.718007
0.00132456
0.940395
-0.675286
-0.0262268
0.955334
-0.645386
0.915665
-0.725688
-0.00211684
1.1276
-0.267173
0.000316849
1.11718
-0.26981
0.00111185
1.11681
-0.270999
-0.000395716
1.1277
-0.266026
-0.00422035
1.13767
-0.261198
1.10936
-0.273554
0.00286933
1.23003
-0.0308399
0.0009489
1.22486
-0.0285492
-0.00293362
1.22471
-0.0265109
0.000749291
1.2301
-0.0311594
0.00794776
1.2354
-0.0316936
1.22137
-0.0256547
0.0010368
1.30537
0.0782149
0.000507301
1.30286
0.0788646
-0.001458
1.30183
0.0809068
0.000434839
1.30583
0.0777199
0.00542334
1.308
0.0771101
1.30101
0.0819704
0.00332493
1.40646
0.0770165
0.000395954
1.4079
0.0793055
-0.000772475
1.40365
0.0805186
0.000277628
1.40943
0.0773617
0.00175349
1.41156
0.0774219
1.40299
0.0802525
0.00906731
1.56894
0.0405039
5.07742e-05
1.57847
0.0476916
-0.00670659
1.57137
0.0487151
-0.00260891
1.57657
0.0401375
0.00684849
1.57939
0.0349922
1.56586
0.0534018
0.00776057
1.72547
0.0849917
0.00124989
1.75277
0.0764233
-0.00763181
1.74425
0.0809665
0.00142756
1.73472
0.0809109
0.0167508
1.73273
0.0836212
1.73653
0.0898556
-0.0339455
1.45697
0.468025
0.00667565
1.52012
0.358472
0.0300754
1.50778
0.378962
-0.00529915
1.46697
0.469552
-0.0637032
1.44344
0.513226
1.54551
0.300526
-0.031168
0.905384
0.580278
0.000865575
0.937023
0.551881
0.0268956
0.936084
0.54557
-0.00306082
0.909519
0.587099
-0.0542344
0.88653
0.605845
0.960739
0.534513
-0.015615
0.409772
0.419338
-0.00369619
0.35476
0.487741
0.00677397
0.362982
0.478748
0.00064708
0.408285
0.417292
-0.0271429
0.43524
0.38547
0.353578
0.495367
0.0708391
0.117234
-0.0238429
0.23048
-0.109558
0.229235
-0.0307185
0.106906
0.120115
0.0587243
0.250986
0.0364715
0.429257
-1.36046
-0.0237616
0.544441
-1.368
-0.121585
0.595526
-1.37983
-0.063694
0.405609
-1.35685
0.0987502
0.259397
-1.32525
0.61188
-1.3992
0.018493
0.890457
-1.16276
0.0237332
1.04182
-1.20887
0.0711523
1.06895
-1.23885
0.0571857
0.906292
-1.162
0.0341418
0.813369
-1.17631
1.12156
-1.20123
-0.0037673
1.30344
-0.676394
0.00240041
1.38977
-0.623935
0.0285225
1.3856
-0.613771
0.020773
1.31197
-0.663955
0.0232718
1.27233
-0.722659
1.42575
-0.554467
0.00411509
1.72753
-0.459037
-0.00171452
1.75455
-0.387495
-0.00503776
1.7486
-0.386183
-0.00315854
1.73095
-0.452015
0.0131863
1.72061
-0.496313
1.75212
-0.33884
-0.00057232
2.13537
-0.32906
-0.000108065
2.14372
-0.310769
1.89277e-05
2.14108
-0.311699
-0.000667049
2.13608
-0.326728
-0.00141177
2.1335
-0.335041
2.13622
-0.303542
-0.00228399
2.60327
-0.3886
0.000856673
2.59901
-0.379124
0.00824295
2.59193
-0.377715
0.00108592
2.61149
-0.390887
-0.0158322
2.62492
-0.397076
2.57717
-0.376532
0.0279486
3.05631
-0.440482
-0.000231651
3.16892
-0.49404
-0.0253158
3.13066
-0.46494
-0.00819229
3.09458
-0.460077
0.0312143
3.07962
-0.459121
3.15026
-0.488475
0.0518402
2.72654
0.362923
-0.00106174
3.10068
0.197563
-0.0542067
3.03083
0.233941
0.0482761
2.71486
0.358147
0.175135
2.65324
0.383149
3.22852
0.186731
-0.211128
0.66175
2.74394
0.00511838
0.957038
2.28587
0.168459
0.887971
2.35848
-0.0179745
0.60686
2.76399
-0.300522
0.516331
2.93268
1.21899
2.00954
-0.135498
-0.900859
2.27838
-0.0278221
-0.964584
2.36583
0.0641029
-0.955798
2.29741
-0.0611432
-0.941579
2.26078
-0.272263
-0.98765
2.32094
-0.867491
2.34873
0.028583
-0.768052
0.257948
-0.0302054
-0.837792
0.419737
-0.0781355
-0.815494
0.386373
-0.039387
-0.791509
0.228472
0.0371744
-0.767235
0.0884936
-0.799365
0.464416
0.024219
-0.675039
-0.0247896
-0.558303
-0.0509742
-0.560074
-0.038596
-0.696981
0.0167708
-0.763878
-0.531608
0.295208
-0.1045
-1.55117
-0.107741
0.642246
-1.60731
-0.860674
0.903109
-1.53001
-0.410124
-0.21113
-1.59628
0.769185
-0.887275
-1.61729
0.97334
-1.60336
0.0501322
0.130409
-1.4478
0.2279
0.655528
-1.39992
0.476747
0.797879
-1.38247
0.372427
0.222013
-1.49082
0.159776
-0.0979427
-1.75299
1.20355
-1.27166
-0.14613
1.83822
-2.23808
-0.00695175
2.05299
-2.16057
0.302246
2.00634
-2.13143
0.252522
1.91255
-2.30477
0.0531493
1.89118
-2.51241
2.54357
-1.84133
-0.174433
4.5182
-2.96459
-0.0611165
4.59142
-3.03924
0.121241
4.47741
-3.03961
0.0502814
4.57166
-3.04016
-0.0691134
4.6227
-3.10843
4.95028
-2.81467
-0.177796
7.32031
-2.95337
-0.0140687
7.29601
-3.17908
0.171852
7.18586
-3.20607
-0.00123354
7.37982
-2.96181
-0.218851
7.40808
-2.9028
7.4928
-3.06491
-0.0257067
8.19333
-1.23591
0.0579379
8.36778
-1.53455
0.176206
8.25773
-1.56785
0.0118579
8.3423
-1.18903
-0.176771
8.25183
-1.0522
8.51341
-1.57392
0.230096
6.13858
1.38418
0.0570992
6.83565
1.21109
-0.0517023
6.64943
1.25215
0.0200984
6.37075
1.43967
0.168059
6.1225
1.52224
7.11323
1.07977
0.167146
3.04814
3.28622
-0.0280557
4.12519
3.10322
-0.171394
3.90575
3.12096
0.0562468
3.15087
3.35039
0.393302
2.7248
3.44379
4.68087
3.0124
-0.0303793
0.471526
5.35094
-0.0181588
1.43791
4.96093
0.00556421
1.20584
5.03466
0.15178
0.447078
5.32156
0.171506
0.109397
5.52836
2.1537
4.70821
-0.240976
-0.264071
3.25496
-0.0141693
-0.0713314
3.64826
0.13677
-0.17576
3.52807
-0.0904507
-0.267294
3.20237
-0.429481
-0.464589
3.23396
0.24604
3.8269
-0.171074
-0.680234
0.845178
0.0652149
-0.750176
0.862294
0.203049
-0.761806
0.83459
-0.0530997
-0.640815
0.858139
-0.507817
-0.698786
0.777403
-0.730314
0.932953
-0.0284911
-1.32678
0.0267288
-1.3637
0.0667959
-1.36195
0.0523079
-1.32331
-0.0981293
-1.31223
-1.36005
-0.0791194
0.639395
-0.560275
-0.123591
0.115782
-0.0713102
0.212717
0.0957437
-0.432051
0.147241
0.236719
-0.171243
0.111093
0.0455437
-0.00939621
0.530838
-0.419744
0.0638436
1.10538
-0.529826
0.161886
-0.0347024
0.0524413
0.666177
-0.185229
-0.223319
0.444877
0.312286
0.145733
-0.0618406
0.315147
0.237114
0.926164
-0.457168
0.5333
0.697634
-0.125557
0.871685
-0.553397
0.18031
0.487865
0.0120747
0.186516
-0.367025
0.765172
0.402004
-0.547679
0.212579
0.283222
0.643698
-0.265213
0.887443
-0.512155
0.322346
0.973491
-1.38438
0.744938
0.22991
-0.907272
1.66293
-0.109436
-0.0150878
1.11961
-0.422606
-0.225841
0.75159
-0.132632
0.353725
0.287217
-1.52863
0.729261
0.0422952
-2.06652
0.927056
0.37402
-2.10901
0.870017
0.899038
-1.8711
1.331
0.173152
-1.59872
2.09877
-1.70757
1.74809
0.00454148
-1.91283
0.379659
-0.071452
-2.22218
0.231658
-0.0796978
-2.25737
0.156606
0.0469111
-2.17016
0.172444
0.063699
-2.16998
0.554469
-2.15236
0.508493
-0.0617447
-1.80646
-0.0446259
0.0285242
-2.02513
-0.287318
0.0916073
-1.96971
-0.350751
0.0264165
-1.8703
-0.234666
-0.0538371
-2.15878
0.0690529
-1.9172
-0.289005
-0.142306
-1.66947
0.00531598
0.0906606
-1.85471
-0.403396
0.165653
-1.87004
-0.174657
-0.241889
-2.02638
0.563621
-0.344922
-2.31594
0.260193
-1.75239
-0.509728
-0.279694
-1.54405
0.154271
-0.149705
-1.79818
-0.186516
0.0419622
-1.84318
-0.218527
-0.390656
-2.21667
0.622912
-0.530975
-2.42458
0.248958
-1.53134
-0.752029
-0.5358
-1.4854
0.477153
-0.48507
-1.69524
-0.153669
-0.299931
-1.7138
-0.314517
-0.541681
-2.1219
0.146971
-0.0051225
-2.14573
-0.815403
-1.29311
-0.243355
-0.474347
-0.926118
-0.0849378
-0.479518
-1.13516
-0.554908
-0.660705
-1.20361
-0.329008
-0.288051
-1.04516
-1.44939
0.610201
-0.907593
-2.13639
-0.643416
-0.0394883
-0.227472
-0.698646
-0.0821214
-1.28051
-0.0262307
-1.2595
0.128472
-1.19986
0.378207
-1.15733
-0.265209
0.171915
0.862105
-1.5943
-0.0897948
0.656162
-0.465763
0.151488
0.805679
-1.47901
0.263154
0.29523
-0.578139
-0.0555465
0.367079
-0.0577749
0.857063
-1.33235
0.403153
1.52135
-1.59222
0.209511
1.19791
-0.295667
0.349473
1.09498
-0.652582
-0.0290599
0.59105
0.228446
-0.404397
0.964987
0.0145426
1.50888
-1.51338
0.702087
1.84
-1.14629
0.60609
1.26186
0.212364
-0.137821
1.39488
0.630524
-1.16978
1.01008
1.01493
-0.730306
0.940334
-0.131599
1.63734
-1.12398
0.53229
1.81744
-0.187387
0.210358
1.00136
1.32737
-0.441481
0.98872
2.72093
-1.13477
0.701906
2.12107
-0.600564
0.501013
0.656701
1.26045
0.130051
0.67603
1.44655
0.424127
0.00394349
0.791013
1.80949
-0.63785
-0.0774815
2.57801
-0.779459
-0.694926
2.86944
-0.503915
-1.05762
3.38186
-0.168503
2.67313
1.0498
1.12576
-0.349352
0.392626
1.16439
0.515453
-0.394177
0.396953
0.468973
-0.457407
-0.605633
0.146382
-0.0100083
-1.59075
0.640204
-0.231452
0.561433
0.470603
1.54436
-0.933826
-0.373987
2.60642
-0.884756
-0.758887
1.61225
-1.18115
0.0461713
-0.604217
-1.04114
0.868758
-1.69481
-0.649479
1.38101
-1.03271
1.15658
0.475535
-0.0824379
0.976255
2.99103
-0.607688
-0.637377
3.09674
-0.0455142
-0.264367
-1.38958
0.975976
0.411228
-2.94918
0.838966
1.10362
0.178897
1.37771
-1.51133
0.763429
2.6808
1.0472
0.454233
1.2043
3.31716
1.03755
0.0248574
-1.44586
1.85863
-0.294632
-2.90371
0.522976
-0.343934
0.40089
0.236727
-1.98287
0.711968
1.18203
-1.28653
1.23475
1.69692
0.532915
1.95484
0.380548
-1.53362
1.5511
0.435648
-2.06742
-1.70679
-0.704586
0.552946
-0.834987
-1.33511
0.102286
-0.907807
-1.54876
-0.219854
-0.220959
-1.12711
0.644168
0.223221
-0.967644
-2.45954
0.97466
-1.17804
-3.77722
-0.55274
0.783326
0.211469
-2.24522
0.216266
-2.83407
0.0436843
-2.21402
-0.15756
-1.96626
-0.352063
-2.14086
-1.17001
-0.0448733
0.577905
-2.12733
-0.123622
0.603308
-0.990322
0.0373307
0.542226
-2.18219
0.434124
0.513156
-1.48809
0.319527
0.513263
-0.45644
0.721873
-1.7347
-0.63288
1.30965
-1.69109
-0.0311671
1.41966
-1.71374
0.53614
1.39147
-2.06914
1.03653
1.02312
-0.781908
0.961669
1.45949
-0.856823
1.59742
-1.42726
-0.145894
1.88897
-1.57972
0.377168
2.30914
-1.20018
0.592538
2.19219
-0.385564
0.259304
1.79069
0.580595
0.491597
2.20594
-1.11034
1.90346
-0.938421
0.312982
2.66847
-1.27987
0.182442
3.55987
0.207177
-0.371015
3.54807
1.91851
-0.921634
2.50497
1.95741
-0.0825669
2.23759
-0.214019
1.89692
0.0540215
0.237115
2.96794
-0.112461
-0.00200187
4.17517
1.43331
-0.429235
3.26081
3.2925
-0.889341
1.72005
4.11447
-0.254613
1.59455
3.39018
1.71509
2.60035
0.384946
2.28333
-0.0496846
0.126831
3.93715
1.01159
0.210761
2.52463
1.12123
0.122181
1.28952
0.665483
-0.324884
1.52376
1.15805
1.03886
0.912778
-0.193537
1.66614
-0.123103
0.106325
2.75532
-0.00278895
0.040308
1.67187
-0.262374
-0.114292
0.648603
-0.245618
0.296114
0.556107
-0.0922314
0.458843
-0.15658
-0.909457
2.14768
0.345485
-1.27254
2.56004
-0.0493263
-1.80835
1.90607
0.256103
-1.14543
-0.227538
1.18919
0.028794
-0.958985
1.17984
-0.358828
1.02536
0.0428068
1.82708
1.04122
-0.0771995
2.53836
0.595919
-1.03153
2.54225
1.3557
-0.761697
-0.777868
2.13913
0.137437
-1.3791
0.0439551
-0.804618
0.984118
-0.165545
1.01259
1.692
0.491938
1.07404
2.04159
0.583144
1.34979
3.05609
0.572497
-0.730171
1.51405
0.623878
-1.12376
-2.0135
0.107826
0.26438
-0.494115
0.210432
1.39856
-0.627831
-0.205612
1.19351
0.348885
-0.361417
1.37866
0.400616
-0.827978
-2.41347
0.196704
-1.11032
-3.58674
0.103684
0.984172
0.642736
-2.67753
0.415973
-2.81292
0.377676
-2.53714
-0.186513
-2.23005
-1.06225
-2.37545
-2.12858
-0.181414
0.213904
-2.15982
-0.182351
0.154397
-1.14378
-0.443632
0.00448185
-1.92539
-0.0485812
0.0910116
-1.97415
0.704813
0.431992
-1.64183
0.343341
-1.37323
-1.3085
0.922436
-1.09113
-0.290177
0.984323
-3.56198
0.00469141
1.17264
-3.53216
1.28714
1.50989
-3.48323
2.3955
1.56952
-3.10271
1.22943
0.0821434
-1.5031
1.3754
-0.529571
0.0706734
2.0741
-3.86373
0.967566
2.3156
-2.42542
1.62458
2.33688
-0.903409
1.85562
2.45479
-2.22665
1.26804
0.878594
-0.669345
1.24883
-0.483954
0.0847271
2.85468
-1.32748
0.651374
3.00471
0.662758
1.06399
2.33907
1.5426
0.472645
2.27073
0.561388
0.676445
1.11826
-0.665719
1.24141
0.560676
-0.721204
3.56803
0.775442
-0.373509
3.24551
2.704
0.0455619
2.23883
3.79564
0.497744
2.14889
3.05983
1.36198
2.41256
-0.972145
1.22749
0.936377
-1.12203
3.01111
1.71839
-0.724386
1.89223
2.07687
-0.536579
1.00917
1.70734
0.234559
1.19616
1.33964
1.10675
1.40257
-1.04121
0.983708
1.16189
-0.704512
1.24004
1.43157
-0.498475
0.330552
1.09327
-0.542322
-0.0879692
0.895369
-0.151204
-0.202798
0.915607
-0.271896
1.07086
-1.17148
1.56937
0.931309
-2.23702
1.08844
1.16782
-2.86018
0.275704
0.934107
-1.95571
-0.450949
0.647703
-1.05137
-0.656604
0.729302
-1.04095
0.743043
-0.0848565
1.7896
0.905842
-1.46335
1.9042
1.15866
-2.52419
1.26018
1.43205
-1.22079
-0.473129
0.857916
-0.884342
-0.591614
-0.357486
-1.01974
0.0785685
0.650975
1.55504
1.27559
0.0818014
2.32731
2.18765
-0.682096
2.16507
2.91511
0.241895
-0.537355
0.65429
0.270909
-0.983124
-1.65101
0.555167
-1.03962
1.14268
0.804047
1.00687
1.68863
1.34366
1.6312
1.80393
1.27746
2.15097
0.691016
-0.667862
-1.17005
-0.51959
-0.978406
-2.38085
1.04639
-0.0266453
0.222538
-2.09602
0.567083
-1.8138
1.04077
-1.73338
0.222132
-2.07927
-0.915043
-2.21668
-1.99723
0.372104
0.011853
-1.93513
0.077399
0.191739
-1.50434
-0.546852
0.301141
-1.2069
-0.126925
-0.0267037
-1.9895
0.692227
-0.171674
-2.26476
0.165523
-1.07665
-0.00524961
1.72246
-1.70536
0.16626
1.90597
-1.88575
0.179991
1.9803
-1.6929
0.117725
1.73008
-1.69452
-0.0308613
1.58552
-1.60861
1.99247
-1.8578
-0.187267
-1.19863
0.116239
-1.4562
0.412915
-1.4249
0.135987
-1.15384
-0.332773
-1.09237
-1.66444
-0.110059
-1.01665
-2.25623
0.122763
-0.720544
-2.41654
0.467227
-0.568293
-2.36554
0.255053
-1.08942
-2.17873
-0.286844
-1.50413
-1.97172
-0.358102
-2.27706
-0.0730909
-1.71474
-0.934172
0.0542005
-1.44006
-1.29352
0.340402
-1.22362
-1.32377
0.175971
-1.79818
-0.821341
-0.249463
-2.13029
-0.557019
-0.732295
-1.73308
-0.0383443
-0.219602
-0.0110865
-0.374041
0.161281
-0.447295
0.116841
-0.158472
-0.0954551
-0.0632645
-0.812999
-0.109851
-2.81736
-1.5671
-0.0892634
-2.77318
-1.82452
-0.0459636
-2.71559
-1.82468
-0.0938074
-2.9297
-1.50595
-0.185907
-3.08404
-1.30799
-2.38444
-1.91986
0.0826605
-3.35458
-0.479609
-0.0144665
-3.35774
-0.611835
-0.135337
-3.30935
-0.609137
-0.0364716
-3.42627
-0.423646
0.13855
-3.49237
-0.323707
-3.05355
-0.925421
0.059011
-0.121865
0.0211092
-0.14053
-0.0375934
-0.151361
0.040618
-0.117457
0.174292
-0.11917
-0.242539
-0.00174269
-3.44169
-1.08825
-0.0393864
-3.6115
-1.21462
-0.151832
-3.57489
-1.17696
-0.0767342
-3.52888
-1.09233
0.0660742
-3.51724
-1.04199
-3.43991
-1.22854
0.109247
-3.25015
-0.780398
-0.0195809
-3.33982
-0.754684
-0.198941
-3.289
-0.715664
-0.0324681
-3.29897
-0.820033
0.285283
-3.28718
-0.871525
-3.25903
-0.821017
0.0377693
-0.336984
0.00360626
-0.323088
-0.0101474
-0.328
0.0185007
-0.344734
0.0747472
-0.36279
-0.343025
-0.0584312
-3.60231
-0.380883
0.00843394
-3.87896
-0.581603
0.0737131
-3.88133
-0.566971
0.0300478
-3.61515
-0.395328
-0.102217
-3.50197
-0.310555
-3.80171
-0.593959
0.0838796
-3.03299
-1.4336
-0.0271211
-3.14455
-1.37809
-0.17812
-3.11801
-1.32798
-0.0556831
-3.0445
-1.51311
0.167506
-2.97643
-1.62026
-3.10436
-1.35086
0.0519121
-0.985393
-0.00907017
-0.906092
-0.0876973
-0.8874
-0.0338324
-1.00765
0.109897
-1.07716
-0.866182
-0.0152761
-2.4597
0.858182
0.0771609
-2.90734
0.698758
0.222417
-2.9667
0.686623
0.086048
-2.3928
0.944818
-0.208899
-2.10386
1.03605
-3.03601
0.659228
0.087324
-1.84898
-2.13164
-0.0207789
-2.07559
-2.10174
-0.113544
-2.11059
-2.09133
0.00611172
-1.8275
-2.19807
0.22522
-1.6438
-2.29942
-2.19069
-1.97096
0.042167
-1.83583
-0.0040857
-1.74507
-0.0700328
-1.71657
0.000419245
-1.86865
0.165605
-1.95626
-1.62411
0.241091
1.30748
0.693786
-0.0273251
1.15493
1.02333
-0.213183
1.15989
0.964741
-0.0177267
1.3984
0.790626
0.383313
1.52156
0.635687
0.902909
1.2194
0.0691271
1.5098
-2.40308
-0.0574679
1.3613
-2.18152
-0.089511
1.32105
-2.22045
0.0464222
1.53297
-2.46857
0.291016
1.6409
-2.66336
1.06228
-1.83932
-0.0156415
-1.84108
-0.0232721
-1.79385
0.0166478
-1.78312
0.0576455
-1.87261
0.127483
-1.95609
-1.62753
0.287788
4.35957
-0.667356
-0.0788971
4.29344
0.1998
-0.321407
4.28767
0.0405463
0.0616564
4.43535
-0.677394
0.648474
4.50763
-1.01496
4.14676
0.733511
0.114227
4.2937
-2.45144
-0.0500907
4.46263
-2.1864
-0.167299
4.42492
-2.2405
0.0223615
4.28329
-2.50617
0.326814
4.23519
-2.69538
4.39565
-1.7614
-0.0248228
-1.20648
-0.0300076
-1.23931
-0.0222697
-1.23468
-0.0264975
-1.21782
-0.00630672
-1.27892
-1.14431
-0.0127462
5.54171
-0.845384
-0.0160277
5.59702
-0.433019
0.049283
5.55846
-0.548564
0.0825307
5.50079
-0.889871
0.0598232
5.63924
-1.10315
5.47355
0.0279976
-0.0373913
4.06207
-0.93441
0.0148948
4.26002
-0.901688
0.0688215
4.19463
-0.930598
-0.0177918
4.03746
-0.956234
-0.233043
4.18509
-1.02598
4.26828
-0.789179
-0.0320687
-0.0944464
0.000827086
-0.159761
0.0223791
-0.155844
-0.0484764
-0.0902261
-0.133643
-0.110767
-0.186741
-0.273312
3.37099
-0.688111
0.0387034
3.55299
-0.649761
0.219662
3.47872
-0.680171
-0.133885
3.35392
-0.687879
-0.694251
3.41683
-0.725663
3.68563
-0.524983
-0.0753804
2.14579
0.366167
0.0265283
2.20296
0.346427
0.0600975
2.17081
0.343745
-0.0823796
2.16476
0.375405
-0.286109
2.19802
0.396561
2.26801
0.342325
0.0110902
0.49991
-0.00177426
0.494555
-0.0191154
0.490911
-0.0134766
0.502654
-0.00537661
0.504971
0.481911
-0.0429992
1.53861
-1.33855
0.0273957
1.50471
-1.36258
0.0528864
1.48991
-1.36098
-0.000789764
1.54782
-1.32389
-0.196429
1.5612
-1.31383
1.52927
-1.31773
0.0273755
0.887118
0.990286
-0.00267194
0.878466
1.00272
-0.03853
0.866623
1.00289
-0.0123312
0.893953
1.00307
0.0247215
0.894111
1.0266
0.883614
1.0127
0.00567364
0.935447
0.0002746
0.936431
-0.00959363
0.933372
-0.00270236
0.936241
0.0121227
0.936113
0.934564
-0.00671672
-1.16967
-1.48895
-0.00180233
-1.24852
-1.48267
-0.00109989
-1.23714
-1.48649
-0.00384441
-1.14707
-1.49739
-0.0242409
-1.0969
-1.50876
-1.21506
-1.48695
0.0111767
-0.718137
0.527577
-0.0230195
-0.748725
0.53712
-0.0543042
-0.740186
0.537211
-0.0326217
-0.70611
0.540429
0.0283521
-0.681529
0.55025
-0.722508
0.548493
0.00950342
0.560755
-0.00438262
0.553843
-0.0195001
0.558777
-0.00987699
0.571492
0.0132449
0.58126
0.571447
0.0328543
-0.763354
-0.616989
1.34749
0.0288707
-0.815157
-0.644876
1.46402
0.0113775
-0.844195
-0.645416
1.5071
-0.0102223
-0.822526
-0.647136
1.49126
-0.032763
-0.824091
-0.659846
1.50648
-0.813041
-0.63684
1.41712
0.000309724
-0.535371
-0.234117
0.00582377
-0.0287759
-0.583289
-0.195936
-0.0068482
-0.0573328
-0.592425
-0.126277
-0.0969377
-0.0233719
-0.552569
-0.0870923
-0.216827
-0.00339413
-0.535392
-0.0663181
-0.24236
-0.528314
-0.101009
-0.187115
0.03483
0.00610239
-0.469094
0.0892581
0.0278903
-0.527615
0.153451
0.0423922
-0.577707
0.119436
-0.0307451
-0.445746
0.044665
-0.0843353
-0.371366
-0.096197
-0.36863
-0.00980703
-0.434796
-0.172386
-0.013166
-0.468547
-0.17297
-0.00634567
-0.477168
-0.175069
-0.00324876
-0.473263
-0.17697
-0.00340587
-0.479872
-0.179816
-0.467877
-0.172369
-0.040785
-0.394467
-0.233662
-0.0607101
-0.417054
-0.227505
-0.0469342
-0.410639
-0.206584
-0.0228879
-0.403645
-0.180758
0.00396865
-0.405432
-0.167617
-0.404539
-0.160379
0.0204924
-0.0302049
0.0475075
-0.0368718
0.0814685
-0.0482329
0.0750797
-0.0708136
0.0331778
-0.0871393
-0.0894707
-0.00254778
-0.16017
-0.00966918
-0.00161014
-0.164596
-0.00931181
0.00121756
-0.169139
-0.00875704
0.000436449
-0.168457
-0.00773173
-0.00190925
-0.16986
-0.00761081
-0.165842
-0.00843651
-0.0171564
-0.195189
-0.181486
-0.0315928
-0.200488
-0.177177
-0.0396008
-0.200038
-0.167677
-0.0317426
-0.199055
-0.158019
-0.0186208
-0.19913
-0.151469
-0.193598
-0.151242
0.0158956
0.0680462
0.0293684
0.0648936
0.0333516
0.0574958
0.0267697
0.0448907
0.0115635
0.0365823
0.0333206
-0.00227568
-0.184444
0.17705
-0.00430454
-0.184206
0.176923
-0.00527934
-0.18544
0.177658
-0.00475204
-0.186913
0.178654
-0.00270505
-0.188948
0.179291
-0.188513
0.177371
-0.0111511
-0.232822
-0.121957
-0.017028
-0.234206
-0.121299
-0.0176653
-0.233269
-0.119212
-0.0134408
-0.234374
-0.114781
-0.00518684
-0.235892
-0.112778
-0.23352
-0.111421
0.00730219
0.170419
0.0157264
0.169347
0.0197856
0.164824
0.016357
0.159158
0.00801866
0.154678
0.153174
-0.0017671
-0.477133
0.65595
-0.00443633
-0.475083
0.654675
-0.00574093
-0.477713
0.656676
-0.0050241
-0.48389
0.661827
-0.00233711
-0.4904
0.667004
-0.483621
0.658655
-0.00620462
-0.373297
-0.219588
-0.0076902
-0.372888
-0.222008
-0.0096456
-0.372975
-0.221995
-0.00918647
-0.375235
-0.223895
-0.00472248
-0.378609
-0.229033
-0.372904
-0.22686
0.00472994
0.0468835
0.00803484
0.050851
0.0093888
0.0451939
0.00784024
0.0350969
0.0035991
0.0263433
0.031732
-0.00235611
-0.830642
0.000234385
-0.830589
0.00292627
-0.832508
0.000198499
-0.832834
-0.00542538
-0.836128
-0.833725
-0.00562234
-0.517033
-0.00394196
-0.51716
-0.00398307
-0.517253
-0.00427826
-0.516005
-0.00250662
-0.516683
-0.514599
0.00538447
0.00523932
0.00287795
0.00482065
0.00495378
-0.525973
-1.57896
-0.054887
0.0602359
-1.88434
0.154347
-0.732122
-1.01204
-0.120991
-0.235304
-2.19048
-0.28049
0.43622
-2.27947
-0.0338826
-1.1564
0.219387
0.0916264
-1.01517
-0.655417
0.485531
-2.09843
-0.179811
-0.472683
0.422002
-0.475832
-1.29506
-0.82559
-0.542513
-0.728033
-2.16036
-0.686131
-0.943215
-0.941216
0.0364932
-0.319806
-0.0749031
-0.0956727
-0.455261
-0.400522
-0.535432
-0.485229
-0.38839
-0.332582
-0.407794
0.221173
-1.84807
0.480886
0.530944
-3.60312
-0.114293
-0.40829
-3.75307
1.03915
-1.21327
-4.02742
1.06867
-1.09701
-2.84367
-0.409179
-0.339054
-0.456426
0.840686
-2.33591
-1.00827
0.340426
-2.7027
-0.579964
-0.532714
-3.01321
-0.34255
-1.64631
-2.81917
-0.637165
-1.54007
-2.22584
-1.41021
-1.522
-1.29833
0.210861
-0.58912
0.116757
-0.405165
-0.263916
-0.513176
-0.665791
-0.655802
-0.439847
-0.680621
-0.71622
1.11413
-0.7122
-0.450611
0.11736
-3.51803
0.536774
-0.483375
-2.70911
1.92357
-0.491593
-2.10038
2.27387
-1.59642
-1.34821
-0.182801
0.370076
-1.54432
1.10789
-1.32022
-1.50814
0.163156
-2.54845
-0.604811
-0.697727
-2.10586
-0.0849224
-1.58144
-1.96141
0.107571
-1.46692
-1.26143
-1.61151
-0.660873
-1.73431
0.27702
-0.86183
-0.0615306
-0.662384
-0.350305
-0.768243
-0.689502
-0.705357
-0.237356
-0.844998
-0.862216
0.636234
-0.376779
-1.19402
-0.228136
-1.4343
1.50796
0.0408341
0.00191154
2.31545
0.412254
1.17369
2.27135
-0.442457
0.908615
0.324683
0.596611
-1.46514
0.324331
-0.432986
-1.77626
-0.531432
-0.794489
-0.388856
-0.820936
-0.217598
0.424089
-0.756573
0.592559
0.624342
-0.51468
0.375517
-1.3203
0.0482866
-1.70066
-0.150099
-0.899263
-0.368363
-0.841191
-0.435451
-0.70717
-0.25371
-0.576471
-0.018632
-0.811684
-0.752672
-0.890094
0.914281
-0.657532
-1.4741
1.14895
1.71846
-0.81761
2.43341
1.92954
0.524785
3.19976
1.52484
0.869306
2.59495
0.445043
1.84283
-0.0260952
-1.09091
1.24862
-1.01969
-1.60614
1.56086
-0.285531
-0.781748
2.09426
-0.0611496
0.787058
2.39202
-0.136726
0.81557
1.80569
-0.559555
1.50253
-0.544799
-0.448616
-0.498953
-0.477275
-0.786171
-0.0444432
-0.85509
0.467192
-0.618872
0.319043
-0.438004
-0.409991
-1.44005
1.54511
0.173778
-1.42749
2.42819
0.996097
-0.228387
2.49009
0.317229
0.914771
2.05274
0.0362756
0.958378
1.40195
0.339132
1.74887
0.585974
-1.05028
1.7668
-0.191094
-0.665702
2.38166
-0.62358
0.535116
2.35164
-1.12353
1.34274
2.05004
-0.941648
0.731584
1.62034
-0.166797
1.69021
0.245451
-0.273945
-0.163329
-0.0483132
-0.800197
0.341139
-1.12631
0.511109
-0.746285
0.198193
-0.178427
-0.0698871
-0.830218
1.70021
0.465674
-0.471625
2.10353
-0.0344504
-0.020641
1.62217
-0.66266
0.131848
1.34526
-0.566102
-0.0408378
1.24647
0.180958
1.63786
-0.0218635
-0.168695
1.61738
0.0604369
0.343445
1.936
-0.968193
0.647869
1.7153
-1.52108
0.654612
1.59554
-1.19868
0.15739
1.52697
0.0499227
1.59254
0.448157
0.143208
-0.146241
0.368333
-0.828303
0.320659
-1.06667
0.213651
-0.71444
0.0583348
-0.132617
0.0389517
0.282641
1.02495
0.089394
-0.235
1.64579
0.00521812
-0.991843
1.30037
-0.272081
-1.02069
0.675071
-0.564628
-0.771401
0.945893
-0.284917
0.94265
-0.992871
0.654688
0.806291
-0.375595
1.03207
1.26625
-0.966032
0.826822
1.11529
-1.13075
0.259728
0.852079
-0.808594
-0.035932
1.04459
0.246887
0.949187
0.405688
0.280919
-0.272124
0.47887
-0.733258
0.347047
-0.742219
0.00346352
-0.395353
-0.0460612
-0.0140887
0.097866
0.762518
0.654777
-0.422059
-0.0272986
1.56088
0.392815
-0.82298
1.51416
0.441491
-0.443106
0.459984
-0.546569
-0.728417
0.198119
-0.55521
0.00413644
-1.64686
0.61049
0.48199
-0.813298
0.981777
1.05984
-0.836282
1.06557
0.967444
-0.667832
0.783206
0.375545
-0.441788
0.437335
0.546922
0.243956
0.502495
0.344665
0.0234823
-0.313648
0.159685
-0.52263
0.243623
-0.443015
0.0404917
-0.180918
-0.0456828
-0.0206242
0.0310756
0.885497
0.896619
-0.928586
1.14841
2.1127
0.204861
0.97735
2.67515
0.8525
1.00338
0.799327
-0.717638
0.00733534
-0.342499
-0.867672
-0.640003
-2.03913
0.215003
0.399909
-0.531592
0.82752
1.04793
-0.384029
1.66371
1.31209
-0.140963
1.5459
0.26723
0.208128
0.889551
-0.136851
0.694654
-0.196559
0.790772
-0.142681
0.155921
-0.0943774
0.114889
0.148849
0.149102
0.136103
0.204277
0.0318553
0.188204
0.213547
0.417443
0.812701
-1.15185
1.60783
1.3753
-0.729626
2.86566
2.07311
-0.327458
1.67027
0.389993
-1.08229
0.136877
-0.475865
-1.23927
-0.31174
-1.61716
-0.269917
0.328748
0.222278
0.221093
0.292612
0.207654
1.15592
0.585275
0.412037
0.85195
0.0237989
0.878294
0.391687
-0.349669
1.02872
-0.162615
1.03333
0.0109869
0.796411
0.0719429
0.788892
0.21722
0.802409
0.215437
0.723847
0.0251736
0.65765
0.710901
-0.148683
-1.7517
-0.136106
-1.09198
0.141234
-0.831069
0.1932
-1.72227
0.166932
-1.92321
-2.03034
-0.379234
-1.14437
-0.27738
-0.993033
0.0200918
-0.813444
0.0522792
-1.09299
0.0559828
-1.14056
-1.12814
-0.089189
0.0547815
0.306549
0.253546
0.109336
)
;

boundaryField
{
    seabed_topleft_surface
    {
        type            calculated;
        value           uniform 0;
    }
    seabed_topright_surface
    {
        type            calculated;
        value           uniform 0;
    }
    breakwater_top_surface
    {
        type            calculated;
        value           uniform 0;
    }
    breakwater_left_surface
    {
        type            calculated;
        value           uniform 0;
    }
    breakwater_right_surface
    {
        type            calculated;
        value           uniform 0;
    }
    water_front_surface
    {
        type            calculated;
        value           uniform 0;
    }
    water_back_surface
    {
        type            calculated;
        value           uniform 0;
    }
    water_left_surface
    {
        type            calculated;
        value           uniform 0;
    }
    water_right_surface
    {
        type            calculated;
        value           uniform 0;
    }
    water_top_surface
    {
        type            calculated;
        value           nonuniform List<scalar> 
180
(
3.10836
3.05866
3.10853
3.16085
3.14665
3.32413
-2.65543
-2.54947
-2.3736
-2.7491
-2.9471
-1.67919
-3.51133
-3.55335
-3.54658
-3.54549
-3.57014
-3.44972
-3.0728
-3.1231
-3.0986
-3.10033
-3.0998
-3.0838
-2.43649
-2.50057
-2.47999
-2.43545
-2.40578
-2.4713
-1.04072
-1.19037
-1.21549
-1.03696
-0.929888
-1.26716
1.5307
1.41771
1.34768
1.49594
1.5709
1.19319
3.68392
3.91327
3.86875
3.63274
3.53782
3.90613
2.9821
3.14758
3.09424
2.98072
3.10211
3.17707
1.54034
1.56151
1.54139
1.56624
1.57418
1.59398
0.445907
0.441986
0.434029
0.453475
0.448142
0.443083
-0.352949
-0.352254
-0.350477
-0.350986
-0.349799
-0.346146
-0.107211
-0.137993
-0.121304
-0.042064
-0.0049207
-0.0188238
-0.378653