/*--------------------------------*- C++ -*----------------------------------*\
| =========                 |                                                 |
| \\      /  F ield         | OpenFOAM: The Open Source CFD Toolbox           |
|  \\    /   O peration     | Version:  v1612+                                |
|   \\  /    A nd           | Web:      www.OpenFOAM.com                      |
|    \\/     M anipulation  |                                                 |
\*---------------------------------------------------------------------------*/
FoamFile
{
    version     2.0;
    format      ascii;
    class       volVectorField;
    location    "8.1";
    object      U;
}
// * * * * * * * * * * * * * * * * * * * * * * * * * * * * * * * * * * * * * //

dimensions      [0 1 -1 0 0 0 0];

internalField   nonuniform List<vector> 
1116
(
(0.416965 0.00336212 -0.306715)
(0.415801 -0.000215221 -0.301701)
(0.406904 0.000597994 -0.303302)
(0.425628 0.00507216 -0.305614)
(0.446469 -0.00259888 -0.3073)
(0.404424 -0.00896497 -0.305195)
(1.06724 0.00212114 -0.211866)
(1.05748 -0.000504266 -0.210221)
(1.05407 -0.00170956 -0.207819)
(1.06822 -0.00709666 -0.213112)
(1.07882 0.00262271 -0.218052)
(1.05249 4.96827e-05 -0.207503)
(1.48811 0.00235497 -0.224778)
(1.48414 0.00185645 -0.224853)
(1.48388 -0.00214235 -0.223228)
(1.48872 -0.00638187 -0.225041)
(1.4932 0.00375775 -0.227987)
(1.48271 0.00559023 -0.222594)
(1.50001 0.000841591 -0.0702161)
(1.49774 0.001129 -0.0681344)
(1.49821 -0.00100234 -0.0684183)
(1.49968 -0.00283461 -0.0691822)
(1.50195 0.00188309 -0.0712447)
(1.49733 0.0033883 -0.0671705)
(1.17044 -0.000936713 0.116523)
(1.16452 -0.00016186 0.118179)
(1.16659 0.000342219 0.117179)
(1.16838 -4.16227e-06 0.117953)
(1.17058 -0.000226587 0.116722)
(1.16588 -0.000609038 0.118124)
(0.828235 -0.0011321 0.175811)
(0.81345 -0.000789533 0.170249)
(0.817679 0.00116457 0.170415)
(0.823566 0.00156721 0.175397)
(0.828051 -0.00158523 0.177165)
(0.814936 -0.00277314 0.168821)
(0.457454 0.00138167 0.00364617)
(0.442028 -0.000745386 -0.00814991)
(0.445065 0.000770362 -0.00571527)
(0.454777 -0.000794172 0.000571141)
(0.460775 0.000117684 0.00809499)
(0.440496 0.00212968 -0.0127022)
(-0.123573 0.00189909 -0.358387)
(-0.122962 0.000120812 -0.366747)
(-0.122471 0.000752389 -0.364184)
(-0.122812 -0.000705635 -0.360727)
(-0.128716 0.0020779 -0.354766)
(-0.119404 0.00393202 -0.372059)
(-0.623832 -0.00148299 -0.608621)
(-0.615383 0.000898246 -0.607578)
(-0.615072 0.00156024 -0.607204)
(-0.623538 0.00211385 -0.608552)
(-0.634433 0.00357175 -0.612154)
(-0.610194 0.00139946 -0.602373)
(-0.769661 -0.00371222 -0.658597)
(-0.773067 0.00102575 -0.646687)
(-0.769807 0.00160871 -0.647569)
(-0.773512 0.00551865 -0.65751)
(-0.780117 -0.00106592 -0.669988)
(-0.772109 -0.00637809 -0.633004)
(-0.723742 -0.00125218 -0.595015)
(-0.738962 0.00173403 -0.573541)
(-0.738283 -0.00096428 -0.575885)
(-0.726914 0.00502407 -0.594219)
(-0.726675 -0.00432198 -0.614315)
(-0.746838 -0.0068408 -0.562601)
(-0.335783 0.00792044 -0.455924)
(-0.369157 0.00451908 -0.437443)
(-0.366968 -0.00936537 -0.441413)
(-0.338764 -0.0108587 -0.456011)
(-0.318606 0.00338786 -0.475191)
(-0.380257 0.0168155 -0.436103)
(0.16541 6.08961e-05 -1.24519)
(0.134672 -0.00577627 -1.22629)
(0.111695 0.0172533 -1.23541)
(0.195575 0.0308531 -1.23547)
(0.266669 -0.00516468 -1.24742)
(0.112653 -0.0426368 -1.2374)
(1.62608 -0.00748662 -0.899503)
(1.59891 -0.0109458 -0.882159)
(1.58493 0.00748767 -0.890244)
(1.63 0.0126714 -0.890605)
(1.66889 -0.0123804 -0.891178)
(1.57263 -0.0268406 -0.892724)
(2.20582 -0.00160192 -0.0877374)
(2.17943 -0.00160838 -0.0728856)
(2.17875 0.00251121 -0.0730815)
(2.20588 -0.00101752 -0.0856385)
(2.2293 -0.000307392 -0.0924926)
(2.15865 -0.00594927 -0.0692633)
(2.46105 0.00227459 0.400834)
(2.44829 0.00287737 0.410534)
(2.44764 -0.000724658 0.412209)
(2.46224 -0.0055103 0.401511)
(2.47714 0.00711759 0.396395)
(2.43824 0.0075466 0.414608)
(2.53642 0.000661587 0.487618)
(2.53181 0.001267 0.492572)
(2.53175 -0.000147602 0.493075)
(2.53629 -0.00298845 0.488821)
(2.54148 0.00398504 0.488115)
(2.5289 0.00613715 0.491809)
(2.66701 0.00389842 0.465049)
(2.66217 0.00194601 0.470418)
(2.65842 -0.000901004 0.469475)
(2.66869 -0.00100986 0.467738)
(2.67196 0.00141214 0.467851)
(2.65746 0.0026962 0.468195)
(2.96871 0.0102791 0.681122)
(2.98078 0.00553426 0.684537)
(2.96713 -0.00529504 0.683219)
(2.98057 -0.007749 0.682264)
(2.98594 0.00306194 0.67707)
(2.96733 0.0096455 0.691029)
(3.43992 0.00863298 1.11825)
(3.46293 0.0057527 1.10942)
(3.44842 -0.00384974 1.10908)
(3.45734 -0.0095151 1.11722)
(3.46368 0.0111911 1.1259)
(3.422 0.022767 1.11687)
(3.76603 -0.0332435 1.1383)
(3.86622 -0.0168768 1.13545)
(3.84152 0.0248699 1.13414)
(3.78538 0.0311895 1.14111)
(3.7686 -0.0482958 1.14487)
(3.86377 -0.0473261 1.15004)
(2.60243 -0.0410456 0.654322)
(2.73921 -0.0177002 0.65035)
(2.71874 0.0190914 0.648244)
(2.62286 0.0367576 0.661343)
(2.54963 -0.0438811 0.667682)
(2.82855 -0.0600406 0.647916)
(1.21872 -0.0330845 0.315184)
(1.21616 -0.00325977 0.324364)
(1.2264 -0.00501402 0.322245)
(1.22179 0.0224344 0.322044)
(1.20207 -0.0196257 0.331102)
(1.23556 -0.0458446 0.305756)
(0.319808 0.0622219 -0.221794)
(0.106035 0.054235 -0.228459)
(0.131358 -0.0950681 -0.225849)
(0.314104 -0.102114 -0.223411)
(0.451374 0.0595949 -0.214833)
(0.0797241 0.13061 -0.241968)
(-0.292906 0.0306255 -2.38473)
(-0.199497 0.0465751 -2.35108)
(-0.108964 -0.0921807 -2.33325)
(-0.424156 -0.148862 -2.38955)
(-0.731054 0.0300907 -2.41807)
(-0.115405 0.164204 -2.34758)
(1.54615 -0.00628029 -2.19111)
(1.88985 0.0534704 -2.29621)
(1.99424 -0.00685384 -2.33485)
(1.59 0.127274 -2.16793)
(1.35704 -0.0411216 -2.05299)
(2.06637 0.13432 -2.35876)
(2.22584 -0.0111134 -1.1582)
(2.47876 0.00515654 -1.18508)
(2.47836 -0.00105161 -1.19074)
(2.25018 0.0575934 -1.15365)
(2.13018 -0.0201207 -1.12642)
(2.6108 0.0642277 -1.20266)
(3.09638 0.00178363 -0.539625)
(3.18732 0.0044004 -0.540676)
(3.17196 -0.00797525 -0.533668)
(3.10431 0.000471599 -0.541268)
(3.06613 -0.0049585 -0.538281)
(3.2 0.0258296 -0.531216)
(3.86709 -0.00060469 -0.105646)
(3.89178 0.000129525 -0.107594)
(3.88383 -0.00041248 -0.0993841)
(3.8731 0.000161232 -0.109021)
(3.86701 -0.00193348 -0.11112)
(3.87069 0.000592985 -0.0936276)
(4.49839 -0.00298439 -0.0657353)
(4.50728 -0.00080424 -0.060328)
(4.50577 0.00309285 -0.0540579)
(4.49353 0.0102545 -0.0669953)
(4.48763 -0.00932114 -0.0671341)
(4.50518 -0.0151084 -0.0537694)
(5.6827 0.025407 -0.435635)
(5.65428 0.018456 -0.404127)
(5.63054 -0.0177292 -0.397677)
(5.72081 -0.0302985 -0.438688)
(5.79455 0.0199846 -0.459096)
(5.56334 0.0250798 -0.383638)
(6.64947 0.0430118 -0.653597)
(7.13569 0.0480978 -0.686156)
(7.01256 -0.0487334 -0.663795)
(6.75693 -0.0468754 -0.672093)
(6.58117 0.128065 -0.66937)
(7.12799 0.190216 -0.630972)
(3.67734 -0.204263 0.921539)
(4.72946 -0.0857511 0.485497)
(4.5489 0.083046 0.568768)
(3.53957 0.20334 0.92388)
(3.45566 -0.284739 1.0932)
(5.38915 -0.0992389 0.227448)
(-0.84801 -0.117469 1.84237)
(-0.939274 -0.106401 1.69863)
(-0.977702 0.0442887 1.6775)
(-0.924733 0.0820524 1.85175)
(-1.10682 -0.235742 1.95793)
(-0.674023 -0.201611 1.614)
(-1.48585 0.0498726 1.0772)
(-1.61823 0.018953 1.3278)
(-1.56951 -0.0744128 1.29634)
(-1.56406 -0.0942306 1.0541)
(-1.55203 0.00947008 0.92292)
(-1.52977 0.090367 1.3789)
(-1.38196 0.03742 0.476069)
(-1.40833 0.011371 0.825352)
(-1.37054 -0.0510316 0.818985)
(-1.4053 -0.061336 0.446874)
(-1.37648 -0.00726252 0.307619)
(-1.32087 0.0489108 0.903412)
(-0.00440032 0.206959 -3.30331)
(1.06772 0.392216 -3.33815)
(1.42021 -0.65105 -3.29348)
(-0.844055 -0.862757 -3.3137)
(-2.41515 0.196862 -3.18644)
(1.08866 1.07738 -3.3743)
(-0.596638 -0.070485 -2.23077)
(1.2027 0.208417 -2.3929)
(1.82536 0.155107 -2.46449)
(-0.272629 0.664602 -2.26457)
(-1.59868 -0.00837825 -2.45223)
(2.35648 0.366925 -2.3886)
(1.24129 -0.131311 -1.83754)
(1.8141 -0.120547 -1.62816)
(1.8292 0.117249 -1.58625)
(1.37773 0.388373 -1.8002)
(1.24421 0.0435386 -2.0839)
(3.03865 0.0889814 -1.32754)
(5.96118 -0.124193 -1.89991)
(6.32654 -0.159197 -1.6122)
(6.08323 0.0530108 -1.62171)
(6.083 0.142482 -1.8842)
(6.10592 -0.0790641 -2.09016)
(7.16595 0.00249784 -1.36592)
(11.0675 -0.133406 -1.80833)
(11.0851 -0.149891 -1.75086)
(10.8597 0.122113 -1.77049)
(11.1389 0.164338 -1.7985)
(11.2549 -0.193186 -1.83639)
(11.6492 -0.101128 -1.70009)
(15.8142 -0.0635343 -1.76262)
(15.6904 -0.0109749 -1.7764)
(15.4875 0.140609 -1.78196)
(15.9815 0.234216 -1.75336)
(15.9755 -0.23003 -1.76541)
(15.9521 -0.0854611 -1.76302)
(17.0051 0.0481828 -0.526853)
(17.8643 0.241214 -0.737506)
(17.5912 -0.137504 -0.656572)
(17.5461 0.10092 -0.576408)
(17.231 -0.016096 -0.547528)
(18.1796 0.161761 -0.744948)
(9.08969 0.0939056 1.71173)
(10.8138 0.157003 1.24987)
(10.4171 -0.190873 1.33348)
(9.41698 -0.0962859 1.71608)
(8.76525 0.233924 1.81712)
(11.5654 0.386924 1.16211)
(4.98689 -0.0258414 8.06253)
(7.45099 0.0221065 6.72802)
(6.96078 -0.0711999 6.95249)
(5.03971 0.0696629 8.08651)
(3.95577 0.133563 8.60328)
(8.71018 0.289547 6.01692)
(-0.110168 -0.206391 6.06716)
(1.14826 -0.15903 6.83279)
(0.74436 0.121833 6.56396)
(-0.264004 0.168311 5.97734)
(-0.599296 -0.41971 6.0041)
(2.54702 -0.215178 7.0817)
(0.429761 -0.14941 -0.0135481)
(0.150709 -0.0696572 0.26729)
(0.0719423 0.144978 0.178098)
(0.572654 0.202539 -0.0562109)
(0.196524 -0.35095 -0.497854)
(0.110089 -0.351609 0.391431)
(-4.52129 -0.0361701 -2.97669)
(-4.4183 -0.0113143 -2.91017)
(-4.4113 0.049548 -2.91381)
(-4.53453 0.103031 -3.00727)
(-4.62229 -0.0377979 -3.09321)
(-4.31552 -0.106796 -2.88821)
(-0.612842 -0.0918842 -0.310098)
(-0.270157 -0.12857 -0.249437)
(-0.674676 -0.0358422 -0.255967)
(-0.363659 0.378035 -0.415154)
(0.342788 -0.101853 -0.11292)
(-0.28914 0.370578 -0.0963781)
(-2.02454 0.0418033 0.0138414)
(-0.217358 0.039868 -0.317841)
(0.281849 0.361131 -1.13105)
(-0.624918 0.860501 -0.523238)
(-0.51811 -0.0778211 0.313597)
(-1.91949 0.00871624 0.215121)
(-2.41366 0.134777 0.400271)
(0.42284 0.81453 -0.726974)
(0.632669 0.872984 -1.25789)
(-0.522458 0.0808293 -0.529749)
(-0.831159 -0.746059 0.0577864)
(-1.83126 -0.337928 0.0983613)
(-0.313748 0.467376 -0.145902)
(2.04971 1.06691 -0.895146)
(-0.58281 0.557732 0.13667)
(-2.41668 0.105911 0.153853)
(0.00281457 -0.392857 0.104209)
(-0.714567 -0.31738 0.0028447)
(2.63344 0.162738 -0.530874)
(3.90219 0.244194 -1.36295)
(4.07925 -0.0930391 -1.88457)
(2.57954 0.755738 -0.665973)
(1.17512 0.683865 0.869446)
(1.51398 -0.178911 0.0732865)
(3.6786 -0.119889 -0.887474)
(4.65349 0.117379 -1.91218)
(4.92018 -0.243861 -2.61779)
(4.9018 0.0747682 -2.06924)
(4.45414 0.0691522 -0.87743)
(4.6743 0.00926194 -1.3904)
(3.89465 -0.198604 -1.02288)
(4.43419 0.0554771 -1.95073)
(4.47003 -0.0160579 -2.52007)
(4.05934 0.240838 -1.93841)
(4.41663 -0.170828 -1.43602)
(4.24286 0.0285797 -1.60568)
(3.54275 -0.216524 -0.845062)
(4.11353 -0.0247705 -1.83997)
(4.10975 0.146208 -2.31243)
(3.94615 0.242934 -1.45894)
(4.63426 -0.700605 -1.58994)
(3.85118 -0.00837347 -1.40137)
(3.30888 -0.252372 -0.339074)
(3.94449 -0.314407 -1.56923)
(4.11139 -0.0518949 -2.1508)
(4.67653 0.134032 -1.48013)
(5.34814 -1.02178 -1.67868)
(3.50997 0.167764 -1.12837)
(3.0554 -0.391432 0.438161)
(3.87423 -0.651057 -1.19848)
(4.13808 -0.378913 -2.07241)
(5.25306 -0.323929 -2.04496)
(5.41502 -0.666069 -2.22671)
(3.125 0.689571 -0.88736)
(2.39169 -0.361476 0.82528)
(3.19266 -0.512185 -0.877702)
(3.50445 -0.615153 -1.96563)
(3.51864 -0.511194 -2.16441)
(3.56772 0.0409109 -2.72525)
(2.15674 0.981712 -0.647607)
(0.972712 -0.266228 0.350795)
(1.57565 -0.111674 -0.856687)
(1.8313 -0.110306 -1.37088)
(1.55785 0.0818289 -1.24802)
(1.17131 0.210358 -1.1551)
(0.61977 0.448457 -0.0716781)
(-0.900066 -0.047045 -1.99105)
(-0.53739 0.281937 -0.0766631)
(-1.43699 -0.384634 -1.55207)
(-0.41203 0.638937 -0.326849)
(0.333841 -0.213463 0.0555589)
(-0.730346 0.149442 -1.67919)
(-2.48646 0.0862475 -2.14633)
(-2.0193 0.531853 0.445536)
(-1.80217 0.00833216 0.171237)
(-0.705228 0.582165 0.991105)
(-1.63513 -0.699387 0.433696)
(-2.46119 0.0935238 -2.13937)
(-3.35922 0.360582 -0.961475)
(-2.88915 0.88516 1.26001)
(-2.47908 0.433807 1.77455)
(-1.6654 -0.787999 1.83616)
(-2.4191 -1.34145 0.8751)
(-3.33877 -0.0654147 -1.21732)
(-3.78093 0.437178 1.16255)
(-2.3267 0.522606 3.22656)
(-3.91964 -0.053464 5.18503)
(-2.99444 -0.925254 3.72996)
(-1.70926 -1.06794 2.56924)
(-3.16907 -0.261013 1.19395)
(-2.95455 0.612978 2.73294)
(-1.59369 0.601472 4.19136)
(-0.00306337 -0.64783 4.43014)
(0.0974097 -0.541713 4.8211)
(-0.513037 -0.615161 5.86986)
(-1.79083 -0.401719 5.46015)
(-2.25579 0.634359 1.67835)
(-1.62997 0.994111 2.31369)
(-0.203414 -0.139113 2.72943)
(2.18988 -0.628379 2.24438)
(3.76404 -0.0364151 2.26133)
(1.96602 -0.0465692 2.63722)
(-3.56144 0.428994 0.64284)
(-4.37213 0.216146 0.376955)
(-2.54473 -0.74002 0.504513)
(-0.866193 -0.485305 0.539953)
(1.15408 0.488857 1.49252)
(-1.87798 0.933799 0.0439792)
(-3.70474 0.760162 0.931283)
(-6.99222 1.55366 0.289076)
(-3.90425 -0.266959 1.32923)
(2.93105 -0.443052 2.95523)
(5.3253 -0.24442 2.24384)
(-3.3894 0.887193 -0.498232)
(1.8778 -0.00305228 1.09681)
(-4.43202 2.44232 1.16023)
(-8.06233 2.1577 1.44743)
(1.99407 0.75369 3.21152)
(6.41185 -0.774687 2.18467)
(-0.21223 0.408154 -1.27741)
(3.80544 -0.723731 1.22235)
(0.442697 0.982856 0.832508)
(-5.67306 1.75282 1.27151)
(3.08047 1.31097 2.31444)
(5.16789 -0.764723 -1.72746)
(1.40733 1.9204 0.263964)
(3.87148 -0.814334 -1.2945)
(4.27279 -0.501827 -1.65721)
(2.54875 -1.69604 1.17638)
(2.65867 1.46106 -4.13086)
(4.15481 -0.868423 -6.68909)
(1.43974 2.3456 0.471892)
(2.58347 0.144542 -3.457)
(3.52944 0.382179 -4.87215)
(2.84173 -0.123506 -3.78982)
(3.32205 0.355404 -3.53117)
(3.294 -0.730423 -3.64917)
(1.02234 -0.168482 -1.10492)
(0.195068 -0.361342 -3.98651)
(-0.301694 0.220441 -1.54869)
(0.0344591 -0.365039 -3.9754)
(-0.469899 0.405439 -1.85069)
(0.0804276 0.313971 -0.261581)
(0.104531 0.375704 -3.26036)
(-2.07682 -1.0914 -3.93923)
(-1.93712 0.0444611 -1.47214)
(-1.93538 -0.114898 -2.55662)
(-1.38337 1.10351 -0.073685)
(-1.9108 0.740505 -0.35163)
(-2.54843 1.0355 -3.6492)
(-3.03651 -0.614956 -3.23515)
(-3.64604 0.37621 -0.287053)
(-3.61322 0.452625 0.945692)
(-2.67895 0.519846 2.12754)
(-3.80168 -0.0412323 -1.33744)
(-3.55638 0.916687 -3.23492)
(-3.95364 0.0981987 -1.76831)
(-5.22066 0.444366 2.3121)
(-5.01676 -0.0779666 5.63335)
(-4.5052 -0.764271 4.09563)
(-4.80329 -0.75634 -0.213699)
(-3.79361 0.498998 -0.841089)
(-5.56416 0.315225 -0.664473)
(-7.96154 0.326864 3.76227)
(-8.16466 -0.363025 6.78189)
(-4.888 -0.693227 7.40349)
(-3.58137 -0.678178 7.64762)
(-3.69161 0.0304148 5.55279)
(-6.18085 0.157023 -2.18099)
(-9.8761 0.444647 0.525638)
(-7.07359 -0.0687295 0.000793733)
(-3.59584 0.41715 -1.1959)
(-4.11551 -0.278118 1.02455)
(-3.32268 -0.194686 0.367335)
(-3.25312 -0.42747 -3.20634)
(-6.9916 0.103983 -2.79815)
(-3.89363 0.185991 -3.74458)
(-2.04138 -0.142088 -3.43721)
(-2.8902 -0.00581291 -3.10988)
(-1.26245 0.423577 -3.02355)
(-3.01689 -0.555319 -1.37226)
(-3.22526 -1.05405 -2.51081)
(-1.91021 -1.64002 -1.28131)
(-0.125728 -1.58957 1.82073)
(1.1172 -0.424548 1.83039)
(-0.158602 0.452758 1.40496)
(-4.96834 -0.135616 1.50059)
(-5.97046 0.308297 0.0781256)
(-5.01325 -0.640877 2.22727)
(0.18815 -0.859633 5.08112)
(2.83879 -0.656533 0.560698)
(1.26283 0.935373 2.40645)
(-2.52416 -0.601228 2.13245)
(-4.48898 0.368748 3.24084)
(-6.94434 0.445112 5.25892)
(0.802881 0.853636 4.38423)
(2.92683 0.0541635 -3.96502)
(0.934783 1.27587 1.32063)
(-3.2065 -1.04932 1.83174)
(-1.40988 0.0360058 0.61893)
(-0.379796 -0.999747 0.518956)
(2.17841 1.51271 -5.01113)
(3.79109 -0.774619 -7.03589)
(-2.22975 1.21058 2.01199)
(3.53616 0.427409 -5.39329)
(3.76562 0.557802 -5.90567)
(3.2527 0.342521 -5.08479)
(3.37483 0.512444 -4.22741)
(3.44378 -0.973655 -4.57381)
(2.415 -0.916479 -3.78508)
(1.61158 -0.800725 -4.02421)
(0.317126 0.218076 -2.49275)
(1.57859 -0.337675 -4.27998)
(1.63204 -0.481317 -3.65651)
(0.745093 0.38353 -1.28435)
(1.64971 0.834857 -3.1655)
(-1.84775 -1.67304 -2.7644)
(-0.809721 -0.0582226 -4.86617)
(-1.30945 -0.750878 -5.26676)
(-1.87255 0.915354 -2.60096)
(-2.26118 1.24053 -2.60808)
(-2.47553 2.3749 -1.73727)
(-2.27732 -1.71622 -2.64599)
(-2.74558 0.035101 -4.01195)
(-3.44863 0.14075 -2.26157)
(-3.85107 1.51823 0.386155)
(-3.71689 1.26319 -2.44719)
(-3.02784 1.78733 -0.0439922)
(-2.40248 -0.962642 -2.41588)
(-4.93408 0.20153 -1.34157)
(-5.37997 0.0169169 2.20822)
(-5.32108 1.05974 3.49852)
(-5.55324 0.716064 -0.445471)
(-1.40244 0.398693 1.13416)
(-2.93892 -1.05053 0.244892)
(-6.81338 -0.201474 1.11054)
(-7.2377 -0.703948 5.09618)
(-5.60392 -0.187949 7.69752)
(-4.84537 0.160154 5.93293)
(-2.47003 0.630993 5.12965)
(-2.62799 -0.962092 1.81049)
(-8.06427 -0.817685 2.6925)
(-6.743 -0.978611 3.70408)
(-4.02011 -0.609945 3.33601)
(-4.16877 -0.244885 3.09877)
(-3.57248 0.595456 2.67756)
(-2.59667 -0.900078 2.46733)
(-4.67231 -0.825413 2.62834)
(-2.02203 -0.537718 2.33326)
(-1.01889 -0.520691 2.12688)
(-1.34796 -0.396779 2.50758)
(-1.24698 0.0645503 2.13744)
(-2.03351 -0.440327 2.41052)
(-0.880505 -1.7102 2.1997)
(0.0944391 -2.7678 1.93176)
(0.78469 -2.29075 2.08145)
(1.35533 -1.4218 1.9381)
(1.5565 -0.362003 1.9716)
(-4.63474 0.507663 2.38983)
(-3.79595 -0.69842 1.97865)
(-1.80794 -2.43103 2.80086)
(0.361861 -1.62302 2.66007)
(1.33592 -1.12614 -0.549584)
(1.89205 -0.121747 1.51596)
(-3.08146 0.39527 3.44811)
(-4.6163 0.916383 4.41345)
(-4.42766 -0.914195 5.85916)
(1.04325 0.0467418 0.97263)
(2.17404 0.258093 -3.97852)
(2.68277 0.308119 -0.548278)
(-5.89439 -0.00975284 3.81017)
(-7.93887 2.01994 4.54889)
(-7.82822 1.13947 4.95823)
(1.16938 1.85844 -3.61402)
(3.0861 -0.321813 -5.82141)
(-6.10192 -0.486306 2.27782)
(3.62791 0.0688525 -4.3527)
(3.48609 0.294843 -4.07625)
(3.47161 0.865457 -3.89198)
(3.81187 0.903055 -4.21016)
(3.85919 -0.611118 -4.50562)
(3.24631 -0.728926 -3.85449)
(-2.91041 0.161191 -1.35047)
(-1.35567 0.499399 -1.52774)
(-0.469052 -0.424216 -1.38477)
(-3.45506 -0.373525 -1.48368)
(-4.80893 0.164173 -1.6915)
(-0.733625 0.92746 -1.56009)
(-4.11228 -0.088724 1.24892)
(-3.91307 0.105118 1.95903)
(-3.04042 0.137218 2.14717)
(-4.32094 0.197536 1.23511)
(-4.67788 -0.0604578 0.746796)
(-3.22551 0.0642829 1.9347)
(-4.05925 -0.250293 5.69613)
(-4.49385 -0.0548603 5.61329)
(-4.02725 0.2581 5.70776)
(-4.11278 0.454728 5.78123)
(-4.28992 -0.2599 5.75196)
(-3.90201 -0.236714 6.07766)
(-5.43357 -0.113718 -2.37136)
(-5.20807 -0.0652527 -2.00924)
(-4.85173 0.279309 -1.87923)
(-5.16975 0.542407 -2.50075)
(-4.97458 -0.134572 -3.23459)
(-4.09855 -0.308261 -1.5176)
(-3.24623 -0.0553323 -1.81016)
(-4.2286 -0.0475653 -1.01045)
(-4.29656 0.137328 -0.547818)
(-2.98306 0.437324 -1.94006)
(-2.26599 -0.16863 -2.76568)
(-4.79992 -0.193795 -0.0643612)
(-0.960427 -0.0462263 -4.84565)
(-1.56636 -0.012739 -4.64171)
(-1.88533 0.00632826 -4.3107)
(-0.717657 0.233465 -5.02117)
(-0.302373 -0.0606958 -5.40032)
(-3.06767 -0.0511712 -2.99565)
(-3.55756 -0.0713085 -5.43753)
(-4.42286 -0.0966834 -5.32537)
(-4.52933 -0.0490311 -5.25321)
(-3.37122 -0.0542639 -5.69204)
(-2.65574 -0.146196 -6.09781)
(-4.7972 -0.113516 -4.47872)
(-0.580346 0.072367 -5.56712)
(-1.05056 0.0945274 -5.52593)
(-1.10188 -0.129936 -5.38727)
(-0.354109 -0.127071 -5.74707)
(0.037112 0.0522369 -5.93003)
(-2.14831 0.23642 -4.90712)
(0.00403266 0.035466 -6.50706)
(-0.0402554 0.0600956 -6.5851)
(-0.0450445 -0.0303198 -6.56975)
(0.0140647 -0.0198369 -6.57053)
(0.00725871 0.111579 -6.61719)
(-0.326945 0.151497 -6.36718)
(-2.43674 -0.0126477 -7.35422)
(-2.6152 0.0240652 -7.81841)
(-2.55404 -0.114749 -7.79519)
(-2.3827 -0.193487 -7.58784)
(-2.28807 0.0362199 -7.59539)
(-2.6789 0.118781 -7.37148)
(-1.04755 0.106042 -6.05236)
(-1.08548 0.102146 -6.25572)
(-1.02737 -0.145301 -6.12456)
(-1.06414 -0.214616 -6.16752)
(-1.08461 0.171991 -6.13109)
(-1.26725 0.305229 -6.07295)
(-0.421623 0.0305425 -5.69526)
(-0.43685 0.0246395 -5.79016)
(-0.461052 -0.0132709 -5.74411)
(-0.416292 -0.00792828 -5.7473)
(-0.421694 0.0513491 -5.74671)
(-0.500414 0.0665889 -5.71435)
(-1.58075 -0.0628141 -7.37265)
(-1.89468 -0.00225584 -8.13296)
(-1.79801 0.0132586 -8.18463)
(-1.66985 0.0895826 -7.3991)
(-1.60733 -0.0671301 -7.15803)
(-1.90508 -0.0388112 -7.88139)
(-2.10108 0.094147 -6.34107)
(-1.92506 0.0829011 -6.62965)
(-1.82597 -0.137168 -6.57888)
(-2.25528 -0.216038 -6.3696)
(-2.48128 0.110072 -6.1605)
(-1.98419 0.230313 -6.55918)
(-0.960517 0.0433419 -4.55191)
(-0.897174 0.0345402 -4.67052)
(-0.900063 -0.050406 -4.63171)
(-0.984374 -0.0978434 -4.55147)
(-1.04282 0.0576425 -4.49908)
(-0.920471 0.0973582 -4.61343)
(-0.645483 -0.066743 -3.39144)
(-1.25982 0.0540537 -4.43356)
(-1.29382 0.078985 -4.55356)
(-0.628311 0.289951 -3.24003)
(-0.283556 -0.193252 -2.71838)
(-1.28887 -0.0655233 -4.59789)
(-4.18481 0.0754233 -4.42214)
(-4.14638 0.0800002 -4.97352)
(-4.04481 -0.112585 -5.05428)
(-4.3572 -0.122675 -4.33793)
(-4.54798 0.137014 -3.85021)
(-3.96341 0.283882 -5.2753)
(-2.91414 0.0328954 -2.05631)
(-2.65411 0.031652 -2.33546)
(-2.57961 -0.0385973 -2.38354)
(-2.99248 -0.0867688 -2.05209)
(-3.21389 0.100239 -1.85554)
(-2.49043 0.13929 -2.4746)
(3.57227 0.107294 3.45805)
(3.59655 0.251175 3.17584)
(3.59476 -0.279387 3.21473)
(3.89933 -0.117292 3.66473)
(3.92803 0.105916 3.88732)
(3.45628 0.473089 2.8068)
(-4.43414 0.0515514 3.22599)
(-4.33013 0.0707278 2.84956)
(-4.37143 -0.15649 2.83337)
(-4.52733 -0.0425422 3.40741)
(-4.74073 0.147418 3.69098)
(-4.00191 0.376599 2.11126)
(-4.21509 -0.0191664 2.64967)
(-4.11123 -0.0129462 2.44118)
(-4.06662 -0.0266333 2.31107)
(-4.26931 0.0558021 2.58205)
(-4.41861 0.0760449 2.72062)
(-3.81309 0.110282 2.03344)
(-0.236756 0.188852 8.65842)
(1.16676 0.224099 8.33266)
(0.92003 -0.337287 8.33795)
(-0.150882 -0.17737 8.86888)
(-0.863327 0.332715 9.07868)
(2.23317 0.682931 8.05835)
(-5.0848 0.0735859 9.57714)
(-4.32454 0.112541 9.75465)
(-4.44103 -0.208449 9.70796)
(-5.23404 -0.0704054 9.65176)
(-5.79147 0.127575 9.66236)
(-3.2938 0.400205 9.54683)
(-3.48726 -0.0365971 6.70869)
(-3.39999 -0.0046386 7.12969)
(-3.40556 -0.0603754 7.04752)
(-3.54826 0.0237255 6.61161)
(-3.7179 -0.0587054 6.43481)
(-2.99475 0.0307178 7.11719)
(-1.67263 -0.0558319 11.887)
(-0.148647 0.0265436 11.7392)
(-0.491373 -0.051494 11.7315)
(-1.80016 0.172519 11.8225)
(-2.40928 -0.0417219 12.0286)
(1.21082 0.126596 11.3848)
(-3.87937 -0.079182 9.7395)
(-3.60009 0.000192738 10.166)
(-3.70551 0.0145136 10.0263)
(-3.96095 0.159769 9.65007)
(-4.19583 -0.219085 9.95896)
(-2.99364 -0.221318 10.1197)
(-1.13331 -0.0463023 5.51024)
(-1.3614 -0.018419 5.81586)
(-1.34022 0.0175444 5.71717)
(-1.12929 0.0384552 5.50697)
(-1.21432 -0.120464 5.72909)
(-1.42071 -0.161234 5.87119)
(-1.3913 -0.227293 6.29895)
(-1.18786 -0.160147 6.73082)
(-1.31018 0.195536 6.56391)
(-1.43789 0.185974 6.2284)
(-1.60835 -0.528742 6.39585)
(-0.797813 -0.503676 6.9881)
(0.0604562 -0.0785876 5.50456)
(-0.0631545 -0.0304135 5.682)
(-0.0721714 0.0610865 5.59839)
(0.0598561 0.0522232 5.51971)
(0.052897 -0.221025 5.61199)
(-0.155637 -0.256961 5.85758)
(0.715498 0.00503709 2.90535)
(0.681141 0.0123468 2.94657)
(0.675639 -0.0151955 2.90849)
(0.728893 -0.0170809 2.95392)
(0.744903 -0.00271783 2.96756)
(0.637401 -0.00929506 3.00796)
(-2.33524 -0.0488623 2.71964)
(-2.40521 -0.0143523 2.5654)
(-2.4095 0.0420426 2.55587)
(-2.28083 0.0867126 2.75224)
(-2.25941 -0.108571 2.85189)
(-2.24573 -0.174037 2.6453)
(1.07547 0.0156033 2.9925)
(1.09446 0.0249564 2.97296)
(1.0998 -0.0295755 2.93731)
(1.1097 -0.033527 3.00671)
(1.19114 0.0160165 3.01437)
(1.14343 0.0141695 3.00579)
(1.55237 0.003594 0.796755)
(1.56507 0.00606883 0.789288)
(1.55404 -0.00614738 0.774743)
(1.55198 -0.0106023 0.81089)
(1.54393 0.00766381 0.800543)
(1.55238 0.00959999 0.791501)
(-3.31206 -0.00504653 -1.41347)
(-3.29242 -0.00409124 -1.55626)
(-3.30314 -0.00127509 -1.54641)
(-3.32714 0.00147085 -1.38851)
(-3.35089 -0.0140522 -1.30674)
(-3.30207 -0.0170033 -1.56046)
(2.45825 0.0163634 -2.4689)
(2.50048 0.00488708 -2.60212)
(2.492 -0.044251 -2.57229)
(2.47468 -0.0633736 -2.42004)
(2.48315 0.00956019 -2.32335)
(2.50121 0.0418802 -2.50078)
(1.83096 0.00929445 -0.635501)
(1.82017 0.00565379 -0.633806)
(1.82024 -0.0134214 -0.630451)
(1.83546 -0.0198971 -0.63192)
(1.84453 0.00497111 -0.629931)
(1.82761 0.0147146 -0.622293)
(2.18956 0.0307125 0.188422)
(2.27699 0.0561992 0.14013)
(2.26163 0.0300954 0.068268)
(2.2878 0.0102633 0.179699)
(2.33956 -0.0455287 0.196345)
(2.2633 -0.0468899 0.180901)
(0.998919 0.0124845 -3.91549)
(0.810755 -0.0138838 -4.14737)
(0.517268 -0.0809848 -4.25042)
(0.408968 -0.0626732 -4.24004)
(0.333342 -0.0123433 -4.25316)
(0.542093 -0.00159776 -4.16971)
(-0.394863 0.0192605 -0.21468)
(-0.532419 0.0765766 -0.307481)
(-0.641028 0.200393 -0.256604)
(-0.398641 0.240545 -0.0131863)
(-0.250511 0.121007 0.101199)
(-0.199659 0.0185123 0.0602808)
(0.437934 -0.00859588 -0.170315)
(0.453779 -0.0225145 -0.198529)
(0.468295 -0.015767 -0.213078)
(0.473457 -0.00505534 -0.232144)
(0.480002 -0.00606833 -0.235967)
(0.457435 -0.00188424 -0.221907)
(0.175221 -0.0327983 -1.93031)
(0.183138 -0.0857862 -2.08401)
(0.154128 -0.0827667 -2.12042)
(0.084244 -0.0543025 -2.07404)
(0.0561349 -0.00865789 -2.09337)
(0.0146066 0.0171389 -2.03888)
(0.332802 0.0139525 -1.06353)
(0.35728 0.0474642 -1.06464)
(0.391797 0.104567 -0.986643)
(0.447239 0.129258 -0.99399)
(0.476358 0.0823572 -1.00137)
(0.468484 0.0218047 -1.05294)
(0.266542 -0.00253789 0.142553)
(0.265283 -0.0055806 0.140928)
(0.262136 5.68324e-05 0.137752)
(0.256204 0.00401574 0.142744)
(0.253563 -0.00262504 0.140297)
(0.255341 -0.0028823 0.13281)
(0.627165 -0.0150763 -0.794638)
(0.606789 -0.0388263 -0.81408)
(0.56723 -0.0554902 -0.831922)
(0.535039 -0.0555176 -0.832309)
(0.512972 -0.0396917 -0.836394)
(0.525162 -0.0148965 -0.807299)
(-0.161341 0.0123089 -0.840647)
(-0.154193 0.0356416 -0.859859)
(-0.135348 0.0500296 -0.841273)
(-0.0903156 0.0486291 -0.835804)
(-0.0541667 0.0292155 -0.833595)
(-0.0390844 0.00671873 -0.824727)
(-0.220447 -0.00147178 0.145257)
(-0.220888 -0.0047911 0.144779)
(-0.220234 -0.00763516 0.143485)
(-0.2184 -0.0090852 0.145622)
(-0.216056 -0.00611043 0.14707)
(-0.214815 -0.000892378 0.137569)
(0.199574 -0.00908013 -0.93592)
(0.198103 -0.0223378 -0.932921)
(0.193215 -0.0263897 -0.93635)
(0.184866 -0.0251819 -0.944921)
(0.17944 -0.0138455 -0.956237)
(0.167797 -0.00151906 -0.942789)
(-0.138156 0.00523842 -0.945693)
(-0.132677 0.0177955 -0.959418)
(-0.120226 0.028459 -0.951602)
(-0.10607 0.0291098 -0.95266)
(-0.095778 0.0186313 -0.953397)
(-0.090646 0.00531277 -0.952168)
(-0.535059 -0.000937287 -0.159571)
(-0.533119 -0.00400461 -0.159033)
(-0.53693 -0.00829604 -0.160073)
(-0.543109 -0.0102648 -0.161597)
(-0.548916 -0.0057156 -0.161998)
(-0.540922 -0.000302368 -0.166126)
(0.205561 -0.00589138 -2.17915)
(0.206014 -0.0112076 -2.16763)
(0.203141 -0.0127882 -2.17904)
(0.192744 -0.0144921 -2.21049)
(0.189057 -0.01089 -2.24504)
(0.196756 -0.00392392 -2.20226)
(-0.627484 0.00344552 -0.683262)
(-0.627589 0.00963547 -0.692734)
(-0.622461 0.0140199 -0.6836)
(-0.616166 0.015015 -0.668367)
(-0.610327 0.00849509 -0.657532)
(-0.609417 0.00125502 -0.662843)
(-2.25643 -0.00311452 0.153604)
(-2.25415 -0.00260001 0.155922)
(-2.25758 0.00303874 0.156074)
(-2.27141 0.00535541 0.152131)
(-2.2853 -0.00525082 0.155429)
(-2.2603 -0.0079405 0.14863)
(0.521767 -0.00488004 -4.3065)
(0.528671 -0.00796752 -4.31284)
(0.532782 -0.00504744 -4.3203)
(0.553706 -0.00933484 -4.31345)
(0.579977 -0.00577521 -4.32875)
(0.561636 0.00155202 -4.31801)
(0.527968 0.00654878 0.351457)
(0.514687 0.00987231 0.359091)
(0.528622 0.00484937 0.363496)
(0.55582 0.00412047 0.362244)
(0.577849 0.00937087 0.368873)
(0.560119 0.00653051 0.37737)
(2.10732 -1.18373 -3.51489)
(-0.556468 0.129609 -2.30437)
(2.56666 0.0418828 -2.46244)
(2.80681 -1.32969 -3.49548)
(0.956239 0.572455 -4.57512)
(1.96737 0.707361 -2.16315)
(1.74176 -0.387806 -2.73791)
(0.005369 0.5598 -3.96495)
(1.81065 0.351286 -1.16554)
(1.41931 -1.35393 -3.53262)
(0.611956 -0.994607 -4.20352)
(1.84591 -0.23438 -1.95225)
(1.09928 0.0861064 -1.30851)
(0.00657746 -0.0422578 -3.48631)
(1.5927 -0.0476958 2.28593)
(1.29524 -0.879494 -0.403446)
(0.375574 -0.180538 -3.64756)
(1.06281 -0.403773 -1.68146)
(-1.72534 -0.131602 -1.62318)
(0.106795 0.665493 -8.17595)
(-1.9229 0.201771 -7.7869)
(-1.36336 -0.981423 -9.6509)
(-0.732876 -1.43065 -7.62451)
(-2.47773 -0.414504 1.83712)
(1.15256 0.638782 -4.10988)
(0.858008 0.742102 -5.38581)
(0.239914 -0.0129035 -6.06924)
(0.855479 -1.14127 -5.95924)
(2.2763 -1.79303 -4.03677)
(2.08003 -0.718484 -2.50985)
(0.352129 0.149163 -4.23868)
(0.466435 0.20433 -4.27748)
(0.200644 -0.0350732 -4.6936)
(0.794418 -0.474069 -4.18883)
(0.979615 -0.623012 -3.94292)
(0.617821 -0.181466 -3.08501)
(-0.35696 0.657919 0.230259)
(0.297341 1.11854 -9.13172)
(-2.64401 -0.906246 -6.32532)
(-3.50495 0.174026 -3.4606)
(2.22465 -1.45689 -4.88056)
(3.83141 -0.678263 2.57838)
(2.86715 0.713442 -2.08278)
(1.57567 0.945507 -5.1219)
(1.18023 -0.523979 -4.30067)
(1.94497 -1.11699 -4.32131)
(3.74521 -1.55238 -1.04324)
(3.4456 -0.733093 -0.67183)
(1.7932 0.288588 -2.4923)
(1.01159 0.138575 -3.68985)
(1.68552 -0.228867 -2.94352)
(1.73749 -0.551376 -2.97803)
(1.64573 -0.469406 -2.97014)
(2.15035 -0.0681726 -1.4428)
(2.6291 0.589479 -0.0287533)
(-2.15612 0.300505 -3.1517)
(-4.64277 -0.692017 0.440901)
(-5.34684 0.793407 2.47159)
(-1.12087 -0.344306 2.06801)
(3.3037 -0.0938698 2.2177)
(3.78518 0.248946 -0.91872)
(1.22029 0.122587 -2.06396)
(-0.655164 -0.994334 -0.277026)
(-2.22618 -0.491682 2.25498)
(2.77563 -0.665169 1.65925)
(3.60045 -0.16282 0.547047)
(1.85858 -0.0897896 -0.516419)
(1.66657 -0.25792 -0.824638)
(1.44045 -0.442618 -0.502618)
(1.0068 -0.372828 0.387729)
(1.75799 -0.0141367 0.104691)
(1.4004 -0.0246095 -0.22226)
(1.51245 -1.09405 1.58774)
(-4.24763 -1.00105 1.89795)
(-5.21045 -1.32446 4.76793)
(-4.47176 0.0499036 6.23628)
(-0.830395 0.668346 5.27814)
(1.46348 0.950582 3.58924)
(2.66452 -1.04438 2.27616)
(0.0225323 -1.35197 2.85828)
(-1.40075 -1.34316 4.50287)