/*--------------------------------*- C++ -*----------------------------------*\
| =========                 |                                                 |
| \\      /  F ield         | OpenFOAM: The Open Source CFD Toolbox           |
|  \\    /   O peration     | Version:  v1612+                                |
|   \\  /    A nd           | Web:      www.OpenFOAM.com                      |
|    \\/     M anipulation  |                                                 |
\*---------------------------------------------------------------------------*/
FoamFile
{
    version     2.0;
    format      ascii;
    class       volScalarField;
    location    "5.2";
    object      alpha.water;
}
// * * * * * * * * * * * * * * * * * * * * * * * * * * * * * * * * * * * * * //

dimensions      [0 0 0 0 0 0 0];

internalField   nonuniform List<scalar> 
1116
(
0.352946
0.352941
0.35294
0.352941
0.352942
0.352944
0.375399
0.375395
0.375394
0.375395
0.375396
0.375398
0.42526
0.425256
0.425256
0.425257
0.425257
0.425262
0.580679
0.58067
0.580673
0.580674
0.580673
0.580681
0.907415
0.907411
0.907412
0.907412
0.907411
0.907416
0.974706
0.974706
0.974706
0.974706
0.974706
0.974706
0.974706
0.974706
0.974706
0.974706
0.974706
0.974706
0.974642
0.974638
0.974639
0.974639
0.974638
0.974641
0.974506
0.974502
0.974503
0.974504
0.974502
0.974505
0.97376
0.973759
0.97376
0.973759
0.973759
0.97376
0.972139
0.972141
0.972141
0.97214
0.97214
0.972139
0.970064
0.970066
0.970065
0.970064
0.970065
0.970063
1.25052e-06
1.25052e-06
1.25091e-06
1.2513e-06
1.25148e-06
1.25175e-06
0.00417845
0.00417804
0.00417837
0.00417856
0.00417813
0.00417744
0.0363906
0.0363964
0.0363944
0.0363927
0.0363936
0.0363903
0.209294
0.20937
0.209335
0.209321
0.209342
0.20931
0.716777
0.716929
0.716855
0.716834
0.716882
0.716812
0.974706
0.974706
0.974706
0.974706
0.974706
0.974706
0.974531
0.974532
0.974532
0.974532
0.974532
0.974531
0.940596
0.940672
0.940645
0.940636
0.940661
0.940614
0.814138
0.814298
0.81424
0.814216
0.814264
0.814172
0.701035
0.701083
0.701062
0.701039
0.701049
0.701033
0.705535
0.705495
0.7055
0.705487
0.705475
0.705502
0.732235
0.732091
0.732144
0.732139
0.732064
0.732207
8.97173e-07
8.98022e-07
8.97379e-07
8.9829e-07
8.98598e-07
8.98017e-07
1.04002e-05
1.0448e-05
1.04251e-05
1.04253e-05
1.04372e-05
1.04134e-05
0.000268829
0.000269744
0.000269301
0.000269278
0.000269515
0.000269046
0.0421216
0.0422497
0.0421872
0.0421804
0.0422173
0.0421449
0.319071
0.319348
0.319222
0.319209
0.319295
0.319131
0.481618
0.481793
0.481726
0.481708
0.481763
0.481667
0.476469
0.476603
0.476557
0.476542
0.476582
0.47651
0.278157
0.278251
0.27822
0.278207
0.278231
0.278177
0.11632
0.11632
0.116323
0.116321
0.116314
0.11631
0.0199183
0.0198569
0.0198798
0.0198816
0.0198602
0.0198978
0.0594425
0.059347
0.0593782
0.0593752
0.059368
0.0594005
0.0447768
0.0447262
0.0447432
0.0447481
0.0446935
0.0447733
3.14414e-07
3.14073e-07
3.13488e-07
3.1476e-07
3.14709e-07
3.1434e-07
4.09516e-06
4.10493e-06
4.09607e-06
4.10334e-06
4.10607e-06
4.09822e-06
0.00355916
0.00355803
0.00355426
0.00356132
0.00356135
0.00355807
0.00996794
0.00996735
0.00996896
0.00997143
0.00997193
0.00997058
1.83833e-06
1.83866e-06
1.8366e-06
1.83423e-06
1.83197e-06
1.83474e-06
1.76652e-06
1.7664e-06
1.76455e-06
1.76222e-06
1.7619e-06
1.76232e-06
1.70385e-06
1.703e-06
1.70107e-06
1.69991e-06
1.70025e-06
1.70028e-06
1.51273e-06
1.51166e-06
1.51027e-06
1.5103e-06
1.50973e-06
1.51006e-06
1.31934e-06
1.31881e-06
1.31828e-06
1.31775e-06
1.31768e-06
1.31764e-06
1.20647e-06
1.20586e-06
1.20532e-06
1.20506e-06
1.2052e-06
1.20439e-06
1.09556e-06
1.09496e-06
1.09468e-06
1.09461e-06
1.09397e-06
1.09335e-06
0.00721467
0.00722793
0.00722753
0.0072099
0.00720532
0.00723492
0.00355119
0.00356829
0.0025037
0.00426013
0.0189498
0.00219315
0.0330431
0.0389235
0.0238201
0.0378249
0.0536771
0.0141558
0.052869
0.0532548
0.0533168
0.0534969
0.0536771
0.0490497
0.0452098
0.0435448
0.0490981
0.0487244
0.0455124
0.0524953
0.0312626
0.0287124
0.0329236
0.038746
0.0391319
0.0492716
0.0651044
0.0653009
0.0619945
0.0704124
0.0709158
0.0572455
0.0802009
0.0805527
0.0795297
0.0787606
0.078064
0.0768557
0.081441
0.0817408
0.0810236
0.0793993
0.0784783
0.0779023
0.0825698
0.0834434
0.0842051
0.082494
0.0799695
0.0784563
0.0834434
0.0842053
0.0861154
0.0830207
0.0815815
0.0594576
0.0485495
0.0486817
0.0351038
0.0532227
0.069012
0.0492036
0.00233508
0.00233423
0.0037971
0.00298732
0.00871316
0.0070044
0.00389531
0.00436611
0.00267373
0.00422419
0.00787294
0.00203818
0.00695416
0.0069234
0.00614534
0.00718375
0.00669018
0.00562081
0.00100969
0.00085003
0.00114706
0.000966886
0.000817493
0.00182142
2.10548e-07
2.05544e-07
2.1563e-07
2.25669e-07
5.42008e-05
2.23945e-07
1.26337e-07
1.25454e-07
1.27843e-07
1.23421e-07
1.18554e-07
1.38231e-07
9.39911e-08
9.39296e-08
9.39291e-08
9.44909e-08
9.7814e-08
1.01175e-07
4.18562e-05
2.01653e-05
6.78973e-08
6.31684e-05
3.64656e-05
8.85561e-08
0.00791234
0.00676433
0.00581846
0.00846804
0.00705442
0.00861637
0.0497404
0.0493497
0.0474669
0.0473913
0.0212731
0.0568203
0.0830963
0.0852432
0.0894389
0.0774763
0.028837
0.0934996
0.0500332
0.0645827
0.0911559
0.0610289
0.0116571
0.0944268
0.00233423
0.00233423
0.0124641
0.00253001
0.00237844
0.00253024
0.00108626
0.00124409
0.000928645
0.00177682
0.000815778
0.00108344
0.00031805
0.000178237
0.000680257
0.000182139
1.62279e-06
0.00101374
2.89366e-05
2.57478e-05
3.51971e-05
3.72568e-06
1.72615e-07
4.96506e-05
1.26338e-07
1.36073e-07
1.28321e-07
2.0075e-07
1.18554e-07
1.38231e-07
9.39919e-08
9.393e-08
9.44072e-08
9.44906e-08
9.77993e-08
1.01175e-07
8.78604e-08
8.80947e-08
8.85827e-08
8.75554e-08
8.23634e-08
9.38795e-08
1.27609e-10
1.22141e-10
7.63145e-11
6.80933e-11
-5.7248e-11
-1.1642e-12
1.83494e-11
1.64807e-11
-3.29332e-09
-1.04178e-10
-3.54282e-09
-5.91537e-09
8.10574e-07
8.01696e-07
-3.99248e-09
1.81806e-06
6.66499e-06
1.32999e-06
0.0170671
0.0165513
0.021315
0.011278
0.00898498
0.0257825
0.134443
0.138541
0.141027
0.129325
0.0887626
0.113076
0.0906644
0.103893
0.14124
0.0341403
0.00173889
0.113762
2.06853e-05
2.22962e-05
1.82311e-05
2.54412e-05
2.17916e-05
1.73805e-05
6.89241e-06
6.09084e-06
6.72176e-06
6.28787e-06
4.73615e-06
6.74942e-06
9.73255e-06
8.79543e-06
9.23612e-06
9.25776e-06
6.0268e-06
7.14981e-06
4.34838e-06
4.01336e-06
4.49491e-06
3.89786e-06
2.59445e-06
4.53953e-06
1.49693e-06
1.45619e-06
1.5673e-06
1.29631e-06
8.89506e-07
1.73078e-06
1.04518e-07
1.03929e-07
1.09395e-07
1.08282e-07
1.01198e-07
1.45372e-07
1.83896e-11
1.64969e-11
9.77201e-12
1.38992e-11
1.23227e-11
7.51977e-12
1.60195e-11
1.427e-11
1.33595e-11
1.29486e-11
1.25836e-11
1.23438e-11
-8.39722e-12
-1.10506e-11
7.76865e-12
-6.82536e-11
-7.36959e-10
7.17455e-12
8.06814e-07
7.976e-07
3.9085e-09
1.80473e-06
6.58601e-06
1.32381e-06
0.0354494
0.0315779
0.0396476
0.0276242
0.0307092
0.0580088
0.140949
0.14124
0.141445
0.141445
0.140597
0.140285
2.56048e-08
2.51365e-08
2.51799e-08
2.54958e-08
2.539e-08
2.5455e-08
7.78635e-09
7.78521e-09
7.78289e-09
7.78567e-09
7.79014e-09
7.79194e-09
7.78462e-09
7.78289e-09
7.78289e-09
7.78289e-09
7.78567e-09
7.79014e-09
9.7191e-06
9.68748e-06
9.66798e-06
9.72493e-06
9.71782e-06
9.70868e-06
1.04488e-06
1.03681e-06
1.03563e-06
1.04395e-06
1.04181e-06
1.04234e-06
7.78635e-09
7.78521e-09
7.78289e-09
7.78567e-09
7.79014e-09
7.79194e-09
0.000727743
0.000726642
0.000726246
0.000727824
0.000727547
0.000727513
9.67038e-07
9.67014e-07
9.66077e-07
9.67521e-07
9.67634e-07
9.6703e-07
7.27416e-08
7.25914e-08
7.24745e-08
7.27826e-08
7.27499e-08
7.26997e-08
0.00141836
0.00141758
0.00141787
0.00141823
0.00141799
0.00141855
1.36551e-06
1.36605e-06
1.36528e-06
1.36602e-06
1.36642e-06
1.36632e-06
1.26799e-06
1.26809e-06
1.2675e-06
1.26836e-06
1.26861e-06
1.26866e-06
1.86871e-06
1.86965e-06
1.8678e-06
1.86517e-06
1.86196e-06
1.86762e-06
3.95655e-06
3.96376e-06
3.95602e-06
3.9675e-06
3.97237e-06
3.95516e-06
1.28379e-06
1.28443e-06
1.28375e-06
1.28438e-06
1.28455e-06
1.28481e-06
1.87759e-06
1.87799e-06
1.87638e-06
1.87435e-06
1.87221e-06
1.87685e-06
8.4344e-06
8.43483e-06
8.43469e-06
8.43443e-06
8.43441e-06
8.43394e-06
2.21978e-06
2.22539e-06
2.22324e-06
2.22263e-06
2.22402e-06
2.22307e-06
2.41957e-06
2.42351e-06
2.41913e-06
2.42396e-06
2.42836e-06
2.40848e-06
8.43483e-06
8.43469e-06
8.43482e-06
8.43469e-06
8.43443e-06
8.43441e-06
3.36555e-06
3.3875e-06
3.37713e-06
3.37775e-06
3.38589e-06
3.36718e-06
1.51578e-06
1.53118e-06
1.52465e-06
1.52309e-06
1.52452e-06
1.52237e-06
1.65499e-06
1.66962e-06
1.66312e-06
1.66232e-06
1.66564e-06
1.64989e-06
9.84293e-07
9.90518e-07
9.86954e-07
9.88141e-07
9.91709e-07
9.85846e-07
6.81227e-07
6.84104e-07
6.8349e-07
6.78696e-07
6.71424e-07
6.91994e-07
4.44718e-09
4.48904e-09
4.46724e-09
4.47181e-09
4.49134e-09
4.41128e-09
-4.28655e-11
-4.30743e-11
-4.30328e-11
-4.30125e-11
-4.33475e-11
-4.25733e-11
1.31911e-06
1.31876e-06
1.31821e-06
1.31767e-06
1.31759e-06
1.31651e-06
7.84875e-05
7.86983e-05
7.86745e-05
7.82409e-05
7.7624e-05
7.93836e-05
2.83016e-07
2.85334e-07
2.84594e-07
2.80707e-07
2.73389e-07
2.92902e-07
0.000168725
0.00016886
0.000168966
0.000168239
0.000167635
0.000169677
0.000781356
0.000781803
0.000781946
0.000780236
0.000778256
0.000784032
7.25581e-06
7.26304e-06
7.25867e-06
7.25459e-06
7.23909e-06
7.27075e-06
0.061843
0.0618453
0.0618982
0.0617066
0.0615762
0.0620491
7.87741e-22
7.96211e-22
7.91976e-22
7.96211e-22
7.91976e-22
8.00446e-22
6.23232e-07
6.23537e-07
6.23651e-07
6.21582e-07
6.18267e-07
6.27678e-07
0.204191
0.20421
0.204254
0.204301
0.204329
0.204303
-9.50868e-16
-7.57217e-16
1.55248e-29
1.68377e-18
2.63998e-15
5.75951e-22
-2.56125e-25
7.3246e-32
6.90281e-28
1.41966e-25
5.09598e-15
-2.02286e-25
0.204436
0.204469
0.204507
0.204523
0.204525
0.204521
-5.72791e-15
-4.55532e-15
6.62391e-28
2.63871e-24
3.89296e-07
5.87331e-20
-8.18328e-25
-3.54687e-25
-1.60619e-24
-6.11239e-25
-4.35441e-25
-6.13673e-25
0.195415
0.195292
0.195289
0.195333
0.195272
0.195535
-2.43856e-14
-1.97692e-14
-3.66391e-14
-3.79131e-15
-2.31394e-13
-5.65012e-15
-9.23245e-25
-8.67178e-25
-9.3497e-25
-8.03947e-25
-1.53371e-24
-5.34926e-25
0.160476
0.160355
0.160296
0.160481
0.160465
0.160372
-6.29149e-18
-1.03686e-17
-4.30449e-16
-1.53131e-15
-4.19098e-24
-3.23487e-24
-1.39732e-24
-1.68462e-24
-1.84437e-24
-1.78425e-24
-1.81313e-24
-1.34796e-24
0.159922
0.159802
0.159749
0.159912
0.159887
0.159832
-8.18331e-17
-1.25401e-16
-5.43561e-15
-2.03666e-14
-3.07524e-24
-2.45105e-24
-6.79069e-25
-8.67478e-25
-9.15448e-25
-1.21624e-24
-1.45493e-24
-1.15204e-24
0.151819
0.151744
0.151788
0.151588
0.151437
0.152021
-3.19199e-17
-4.67773e-17
-2.03213e-15
-7.65363e-15
-5.08921e-19
-1.60193e-18
-3.17668e-25
-4.25548e-25
-4.31666e-25
-7.34805e-25
-9.71007e-25
-7.76507e-25
2.25295e-06
2.40439e-06
2.03971e-06
2.71168e-06
2.25013e-06
1.93158e-06
2.68219e-07
2.63921e-07
2.73521e-07
2.84075e-07
2.19525e-07
2.78913e-07
1.12849e-07
9.71746e-08
1.33126e-07
9.61419e-08
6.35069e-08
1.47791e-07
8.94983e-07
8.08034e-07
1.26128e-06
8.02198e-07
1.58026e-06
1.46138e-06
8.17667e-08
7.49729e-08
9.62163e-08
7.67412e-08
4.79372e-08
1.0873e-07
1.12682e-08
1.00035e-08
1.34576e-08
1.01644e-08
6.87939e-09
1.361e-08
2.61439e-06
2.34553e-06
2.97671e-06
2.90483e-06
3.04273e-06
2.77151e-06
1.05563e-07
8.25965e-08
1.87928e-07
7.05644e-08
9.9493e-09
2.22517e-07
3.21995e-10
2.73825e-10
4.10914e-10
2.69602e-10
1.6142e-10
4.27872e-10
4.88757e-07
4.40455e-07
4.90449e-07
5.46537e-07
8.02784e-07
4.62192e-07
1.50775e-08
1.28409e-08
2.2107e-08
1.09013e-08
1.61769e-10
1.96662e-08
4.90167e-12
4.13139e-12
6.47933e-12
4.00686e-12
2.84271e-12
6.76368e-12
6.11367e-10
5.328e-10
7.90941e-10
5.0945e-10
8.19679e-09
7.65238e-10
5.70179e-12
4.8524e-12
7.28904e-12
4.78357e-12
2.88445e-12
7.55283e-12
-9.26787e-16
-4.68311e-16
-1.23577e-15
-1.14875e-16
-1.84253e-16
-1.42884e-16
2.11681e-08
1.9724e-08
2.18975e-08
1.92564e-08
1.55935e-08
1.75394e-08
1.44315e-12
1.51466e-12
1.33503e-12
1.52915e-12
1.72518e-12
1.41528e-12
1.31556e-12
1.40253e-12
1.18009e-12
1.41839e-12
1.76588e-12
1.26654e-12
5.13105e-09
5.40858e-09
4.81925e-09
4.07291e-09
1.7464e-09
4.69652e-09
2.00064e-12
2.03169e-12
1.92878e-12
1.98117e-12
2.11426e-12
1.94351e-12
3.03017e-12
3.04083e-12
2.9823e-12
3.08023e-12
3.10913e-12
2.96691e-12
2.53123e-12
6.67533e-12
3.64296e-12
-6.67757e-12
-1.6921e-12
6.88693e-12
3.65227e-12
3.68448e-12
3.74638e-12
3.91103e-12
3.95911e-12
3.87706e-12
6.26051e-13
6.37234e-13
6.15949e-13
6.50228e-13
6.67964e-13
6.23489e-13
-4.07998e-11
-1.03989e-11
-9.04296e-14
-1.14708e-10
-1.15628e-09
-9.07297e-13
2.08794e-12
2.07188e-12
2.0005e-12
8.5791e-16
1.23123e-15
1.99723e-14
1.72259e-21
1.55696e-21
1.42119e-21
1.58995e-21
9.16266e-22
1.02598e-21
-1.13787e-08
-1.11839e-08
-6.51556e-13
-3.08296e-08
-7.04223e-08
-2.04252e-08
5.8154e-12
-1.65103e-13
4.28696e-13
-3.33041e-12
-8.17238e-12
-4.02366e-13
1.33967e-08
1.33478e-08
1.24936e-08
1.40574e-08
1.44498e-08
1.36132e-08
-5.99995e-10
-4.84703e-08
-9.73383e-09
9.4695e-05
0.000246922
-1.09208e-08
6.14473e-11
6.35379e-11
9.09732e-11
2.18085e-10
6.29162e-10
2.88928e-10
2.3649e-11
1.51566e-09
4.58901e-09
5.27488e-10
1.63408e-08
1.06718e-08
0.106359
0.106825
0.105525
0.117229
0.118993
0.110264
1.58819e-23
1.20437e-23
6.71612e-16
2.36617e-12
5.07829e-10
2.85547e-10
6.93963e-08
5.27014e-08
4.32925e-08
1.84134e-07
4.01583e-07
3.39147e-08
)
;

boundaryField
{
    seabed_topleft_surface
    {
        type            zeroGradient;
    }
    seabed_topright_surface
    {
        type            zeroGradient;
    }
    breakwater_top_surface
    {
        type            zeroGradient;
    }
    breakwater_left_surface
    {
        type            zeroGradient;
    }
    breakwater_right_surface
    {
        type            zeroGradient;
    }
    water_front_surface
    {
        type            zeroGradient;
    }
    water_back_surface
    {
        type            zeroGradient;
    }
    water_left_surface
    {
        type            zeroGradient;
    }
    water_right_surface
    {
        type            zeroGradient;
    }
    water_top_surface
    {
        type            inletOutlet;
        inletValue      uniform 0;
        value           nonuniform List<scalar> 
180
(
7.78462e-09
7.78289e-09
7.78289e-09
7.78289e-09
7.78567e-09
7.79014e-09
7.78635e-09
7.78521e-09
7.78289e-09
7.78567e-09
7.79014e-09
7.79194e-09
7.27416e-08
7.25914e-08
7.24745e-08
7.27826e-08
7.27499e-08
7.26997e-08
1.26799e-06
1.26809e-06
1.2675e-06
1.26836e-06
1.26861e-06
1.26866e-06
0
0
0
0
0
0
0
0
0
0
0
0
0
0
0
0
0
0
0
0
0
0
0
0
0
0
0
0
0
0
2.83016e-07
2.85334e-07
2.84594e-07
2.80707e-07
2.73389e-07
2.92902e-07
7.25581e-06
7.26304e-06
7.25867e-06
7.25459e-06
7.23909e-06
7.27075e-06
0
0
0
0
0
0
0
0
0
0
0
0
0
0
0
0
0
0
0
0
0
0
0
0
0
0
0
0
0
0
0
0
0
0
0
0
0
0
0
0
0
0
1.12849e-07
9.71746e-08
1.33126e-07
9.61419e-08
6.35069e-08
1.47791e-07
1.12682e-08
1.00035e-08
1.34576e-08
1.01644e-08
6.87939e-09
1.361e-08
3.21995e-10
2.73825e-10
4.10914e-10
2.69602e-10
1.6142e-10
4.27872e-10
4.90167e-12
4.13139e-12
6.47933e-12
4.00686e-12
2.84271e-12
6.76368e-12
0
0
0
0
0
0
0
0
0
0
0
0
0
0
0
0
0
0
0
0
0
0
0
0
0
0
0
0
0
0
0
0
0
0
0
0
0
0
0
0
0
0
0
0
0
0
0
0
)
;
    }
}


// ************************************************************************* //
