/*--------------------------------*- C++ -*----------------------------------*\
| =========                 |                                                 |
| \\      /  F ield         | OpenFOAM: The Open Source CFD Toolbox           |
|  \\    /   O peration     | Version:  v1612+                                |
|   \\  /    A nd           | Web:      www.OpenFOAM.com                      |
|    \\/     M anipulation  |                                                 |
\*---------------------------------------------------------------------------*/
FoamFile
{
    version     2.0;
    format      ascii;
    class       volScalarField;
    location    "5.2";
    object      p;
}
// * * * * * * * * * * * * * * * * * * * * * * * * * * * * * * * * * * * * * //

dimensions      [1 -1 -2 0 0 0 0];

internalField   nonuniform List<scalar> 
1116
(
1819.17
1819.15
1819.15
1819.15
1819.15
1819.16
2063.07
2063.07
2063.06
2063.06
2063.06
2063.04
3362.36
3362.32
3362.32
3362.32
3362.31
3362.31
6678.19
6678.28
6678.21
6678.19
6678.22
6678.16
11472.4
11472.6
11472.5
11472.5
11472.6
11472.4
15086.3
15086.4
15086.3
15086.4
15086.4
15086.3
16270.7
16270.8
16270.7
16270.8
16270.8
16270.8
15951
15951.3
15951.2
15951.2
15951.2
15951.1
15420
15420.1
15420
15420
15420
15419.9
14925.5
14925
14925.2
14925.2
14925.1
14925.2
14617.6
14616.9
14617.1
14617.1
14617
14617.2
14063.9
14063.8
14063.8
14063.8
14063.6
14063.9
58.4782
58.4728
58.474
58.4736
58.4719
58.474
68.8079
68.7817
68.7905
68.7919
68.7841
68.7935
267.368
267.23
267.277
267.311
267.274
267.312
1616.51
1616.57
1616.53
1616.53
1616.56
1616.49
4102.25
4102.18
4102.17
4102.25
4102.23
4102.24
6329.84
6329.92
6329.91
6329.92
6329.91
6329.9
7091.3
7091.13
7091.2
7091.25
7091.16
7091.29
6569.52
6568.99
6569.18
6569.3
6569.16
6569.36
5620.19
5619.69
5619.86
5619.92
5619.86
5619.87
4234.04
4233.33
4233.59
4233.7
4233.67
4233.34
4129.13
4128.3
4128.56
4128.52
4128.38
4128.63
4282.36
4281.87
4281.98
4281.89
4281.44
4282.31
69.2101
69.224
69.2172
69.2176
69.2177
69.2109
51.1077
51.1332
51.1244
51.1212
51.1205
51.1119
45.0306
45.025
45.0313
45.0285
45.0257
45.0281
111.218
111.242
111.325
111.175
111.203
111.217
1473.28
1474.56
1473.97
1473.92
1474.33
1473.55
2328.1
2329.01
2328.65
2328.57
2328.87
2328.36
2295.08
2295.7
2295.48
2295.44
2295.65
2295.26
1303.92
1304.26
1304.15
1304.12
1304.23
1303.95
522.802
522.691
522.735
522.732
522.686
522.72
115.445
115.235
115.292
115.344
115.28
115.327
400.425
400.414
400.406
400.082
399.731
400.933
415.146
414.92
414.986
415.135
415.033
414.915
27.8583
27.8692
27.8639
27.8655
27.866
27.8606
11.1253
11.1331
11.1305
11.128
11.1268
11.1236
-39.315
-39.3186
-39.3191
-39.3143
-39.3163
-39.3153
-152.835
-153.048
-152.999
-152.921
-152.961
-152.889
-124.741
-124.747
-124.75
-124.743
-124.74
-124.739
-84.439
-84.4348
-84.4375
-84.4369
-84.4332
-84.4382
-55.8143
-55.827
-55.8228
-55.8169
-55.812
-55.8241
-42.4668
-42.4791
-42.475
-42.4714
-42.4648
-42.4833
-32.0227
-32.0114
-32.0131
-32.0232
-32.0199
-32.0114
-6.13629
-6.09102
-6.1109
-6.15623
-6.21368
-6.04616
66.975
66.9832
66.9765
66.9561
66.9428
67.0094
-24.9497
-25.4342
-25.2258
-24.7085
-24.2159
-25.9584
1861.33
1920.64
1844.92
1996.34
2187.84
1916.08
1476.54
1510.43
1474.45
1489.02
1423.08
1329.69
570.287
558.986
607.548
620.452
617.124
652.759
191.79
187.998
209.983
219.329
230.741
238.212
156.545
152.338
165.762
190.187
197.625
221.798
282.711
282.15
278.759
303.709
306.171
262.897
347.289
342.728
341.798
346.84
353.584
364.606
1022.15
999.085
955.484
1036.98
1030.87
1006.02
2694.65
2680.62
2611.13
2600.89
2392.07
2414.84
2633.35
2657.23
2621.64
2572.75
2289.86
2552.33
1513.11
1530.21
1518.37
1513.38
1430.34
1525.32
1492.82
1490.24
1519.39
1492.13
1488.46
1413.85
659.583
677.663
653.618
668.54
565.144
623.716
-46.326
-51.8902
-31.6351
-43.0892
-66.2034
-12.3032
-174.398
-174.875
-175.876
-176.096
-178.348
-172.449
-155.565
-155.985
-156.978
-158.321
-160.397
-155.281
-107.038
-107.28
-107.696
-108.834
-112.671
-108.077
-75.0655
-75.2881
-75.1025
-74.0137
-76.6337
-73.9965
-35.3094
-36.4144
-36.5011
-35.0551
-35.1904
-33.5512
36.6101
33.7921
33.481
29.4871
33.1674
36.2363
269.865
260.876
259.525
255.607
222.555
274.795
563.923
555.732
570.195
537.579
405.063
648.243
625.252
624.658
607.335
460.725
267.908
573.122
1116.22
1112.74
1032.68
918.524
830.599
935.823
-5.55687
-7.16168
-6.78269
-11.4535
-15.539
-2.41909
-214.716
-213.915
-214.093
-211.769
-206.299
-218.51
-172.949
-172.216
-176.604
-178.083
-184.015
-182.199
-142.692
-142.068
-144.017
-144.528
-145.938
-147.28
-94.0555
-93.6379
-94.6638
-95.0502
-95.0796
-96.9354
-61.6349
-61.4787
-61.5436
-61.4485
-62.044
-61.8404
-38.7281
-38.4615
-38.4148
-38.6797
-38.5735
-39.2694
-26.1194
-25.9165
-25.7696
-26.8173
-25.974
-27.6383
-18.3991
-18.7501
-17.7992
-17.228
-13.4809
-17.609
66.2006
64.9707
76.6783
45.9362
20.2438
79.2866
560.177
551.006
528.313
353.378
320.197
403.866
994.369
1006.41
646.21
627.127
640.801
646.114
-94.7631
-95.5365
-93.705
-92.0352
-89.0187
-88.6128
-202.75
-204.126
-203.848
-203.892
-202.973
-202.093
-210.782
-211.356
-213.873
-213.478
-213.998
-213.65
-158.411
-158.036
-159.015
-158.814
-159.154
-160.845
-98.0291
-98.0193
-98.38
-98.3592
-98.6035
-99.8945
-65.5139
-65.4973
-65.6239
-65.4651
-65.5027
-66.0542
-46.3601
-46.2161
-46.3414
-46.1894
-46.2068
-46.6226
-39.9586
-39.8424
-40.2243
-40.3192
-40.2879
-40.7992
-38.0363
-37.7571
-38.1281
-38.1853
-38.4304
-38.3202
-31.3492
-31.4315
-32.2306
-34.5178
-37.9355
-32.4908
7.41511
7.59074
13.6997
-15.7725
-25.0811
23.0987
-408.963
-386.075
-415.723
-233.663
249.488
-263.297
-15.0541
-15.0487
-15.0513
-15.0511
-15.0513
-15.0543
-43.7879
-43.787
-43.7879
-43.7885
-43.7892
-43.7904
-62.9375
-62.9376
-62.938
-62.9383
-62.9388
-62.9393
-35.2659
-35.266
-35.2672
-35.2704
-35.272
-35.2738
-56.7359
-56.7347
-56.7363
-56.7385
-56.7394
-56.7417
-64.834
-64.8344
-64.8349
-64.8354
-64.8358
-64.8365
-103.088
-103.089
-103.088
-103.098
-103.098
-103.097
-88.1054
-88.1086
-88.1076
-88.1114
-88.1121
-88.1117
-69.7732
-69.7744
-69.7741
-69.7754
-69.7755
-69.7752
-123.368
-123.386
-123.379
-123.382
-123.384
-123.374
-96.9177
-96.925
-96.9223
-96.9236
-96.9244
-96.9211
-71.3222
-71.3252
-71.3239
-71.3244
-71.3245
-71.3241
-100.173
-100.171
-100.172
-100.173
-100.174
-100.174
-92.5911
-92.5956
-92.5928
-92.5942
-92.5956
-92.5929
-70.5192
-70.5201
-70.5199
-70.52
-70.5196
-70.5197
-77.962
-77.9508
-77.9548
-77.9564
-77.9548
-77.9616
-78.8101
-78.8055
-78.8069
-78.8075
-78.8075
-78.8095
-67.4204
-67.4194
-67.4197
-67.4196
-67.4191
-67.4195
-57.6742
-57.673
-57.6773
-57.674
-57.6754
-57.6742
-59.5379
-59.5289
-59.5339
-59.5351
-59.5357
-59.5331
-63.8355
-63.8338
-63.8345
-63.8345
-63.8337
-63.8348
-39.4778
-39.4827
-39.4843
-39.4823
-39.4895
-39.4747
-40.2489
-40.2461
-40.2485
-40.2492
-40.2549
-40.2415
-62.5651
-62.5631
-62.5642
-62.5648
-62.5646
-62.5641
-39.361
-39.3682
-39.3653
-39.3675
-39.3721
-39.3529
-24.3078
-24.2972
-24.3045
-24.3117
-24.3299
-24.2855
-65.5574
-65.5567
-65.5573
-65.5584
-65.5614
-65.5547
-51.9477
-51.9435
-51.9439
-51.9444
-51.9402
-51.9243
-4.30258
-4.30373
-4.30639
-4.30481
-4.30987
-4.32461
-73.0521
-73.0492
-73.0517
-73.0561
-73.0679
-73.0441
-0.368543
-0.397754
-0.385877
-0.363405
-0.340072
-0.411103
-49.9756
-49.9798
-49.9733
-49.9575
-49.9273
-50.0055
-65.1039
-65.104
-65.1032
-65.1001
-65.0962
-65.107
182.911
182.768
182.936
182.528
182.275
183.236
-78.3581
-78.3598
-78.3555
-78.3445
-78.3295
-78.367
-84.689
-84.693
-84.6909
-84.6764
-84.6653
-84.7023
937.893
937.957
938.674
939.174
940.946
940.03
-52.2775
-52.2863
-52.271
-52.2773
-52.3392
-52.4141
-71.7291
-71.7075
-71.6315
-71.5561
-71.3879
-71.3811
952.037
952.201
952.385
952.569
952.684
953.498
-54.3482
-54.3513
-54.3424
-54.3496
-54.3519
-54.3138
-70.351
-70.3406
-70.3176
-70.2911
-70.2391
-70.1854
909.397
908.839
908.829
909.053
908.838
909.876
-54.2195
-54.222
-54.2208
-54.2301
-54.2422
-54.2271
-69.8164
-69.8097
-69.7977
-69.7827
-69.7571
-69.7601
742.517
741.963
741.721
742.565
742.53
741.98
-53.7907
-53.7898
-53.7838
-53.7928
-53.7991
-53.7548
-70.0391
-70.0333
-70.0285
-70.0168
-70.0007
-70.0246
731.672
731.13
730.883
731.616
731.496
731.237
-57.7243
-57.7264
-57.724
-57.7325
-57.7363
-57.7256
-72.6461
-72.6424
-72.6397
-72.6372
-72.6304
-72.6385
671.066
670.692
670.861
670.037
669.374
671.844
-53.532
-53.531
-53.5287
-53.5289
-53.5272
-53.5249
-76.5842
-76.5833
-76.5822
-76.5765
-76.5707
-76.587
-54.9577
-56.0136
-54.0618
-55.7328
-55.4321
-53.4865
-44.3289
-44.745
-43.8722
-45.1205
-45.7305
-44.4785
-59.26
-59.3119
-59.1877
-59.4925
-59.7356
-59.3168
-109.769
-111.225
-110.536
-111.073
-110.183
-108.769
-58.8348
-59.3781
-58.8693
-59.5448
-59.4156
-58.7767
-58.3561
-58.445
-58.3191
-58.5692
-58.5986
-58.3744
-130.415
-130.487
-131.571
-130.465
-130.017
-132.303
-76.3594
-76.5989
-76.6207
-76.7987
-76.5075
-76.5541
-60.3315
-60.4125
-60.344
-60.5351
-60.5448
-60.3288
-111.596
-111.584
-112.027
-111.83
-111.601
-113
-79.0944
-79.1803
-79.2585
-79.3576
-79.266
-79.3679
-63.551
-63.5754
-63.5598
-63.6206
-63.6176
-63.5723
-84.6467
-84.6539
-84.7944
-84.8499
-84.7662
-85.4236
-72.2177
-72.2433
-72.2805
-72.3475
-72.3492
-72.4347
-65.3681
-65.3758
-65.3734
-65.3954
-65.3847
-65.4052
-65.7531
-65.7638
-65.7865
-65.8152
-65.8202
-65.9727
-65.372
-65.3807
-65.3934
-65.4225
-65.4274
-65.4654
-66.3419
-66.3443
-66.3467
-66.3519
-66.3467
-66.3675
-54.4355
-54.4271
-54.4434
-54.4583
-54.4693
-54.5795
-60.8689
-60.8745
-60.8873
-60.9064
-60.9176
-60.9449
-66.5041
-66.5053
-66.5061
-66.5091
-66.5067
-66.5173
-49.9777
-49.9922
-50.0608
-50.1246
-50.1089
-50.2532
-58.9169
-58.9301
-58.9599
-58.9911
-59.0069
-59.0406
-66.5994
-66.5994
-66.5992
-66.6
-66.5972
-66.6045
-43.489
-43.4044
-43.4522
-43.5058
-43.4127
-44.0381
-57.1011
-57.1156
-57.1707
-57.2314
-57.2907
-57.2729
-65.4525
-65.4486
-65.4417
-65.4322
-65.4081
-65.4546
-43.7978
-43.5899
-43.9913
-43.7753
-43.6989
-44.506
-57.6237
-57.6668
-57.794
-57.9879
-58.1801
-57.9844
-66.8778
-66.8758
-66.8761
-66.8752
-66.837
-66.8648
-39.8306
-38.6291
-40.685
-36.5776
-36.4457
-43.6285
-57.3925
-57.4025
-57.4727
-57.6805
-57.7094
-57.557
-66.9443
-66.8832
-66.8142
-66.5927
-66.3457
-66.833
404.245
401.697
404.448
449.359
472.194
437.835
-57.3802
-57.5241
-57.182
-57.464
-57.1582
-57.012
-78.241
-78.3007
-78.0548
-78.1942
-77.6376
-77.1373
)
;

boundaryField
{
    seabed_topleft_surface
    {
        type            calculated;
        value           nonuniform List<scalar> 
72
(
3559.5
3559.47
3559.45
3559.46
3559.47
3559.48
3913.81
3913.78
3913.77
3913.78
3913.78
3913.77
5458.25
5458.2
5458.19
5458.2
5458.19
5458.21
9538.27
9538.32
9538.27
9538.25
9538.28
9538.25
15939
15939.2
15939.1
15939.1
15939.2
15939.1
19883.7
19883.9
19883.8
19883.8
19883.9
19883.8
21068.1
21068.3
21068.2
21068.3
21068.3
21068.2
20748.2
20748.5
20748.3
20748.4
20748.4
20748.3
20216.5
20216.5
20216.5
20216.5
20216.5
20216.4
19718.3
19717.8
19718
19718
19717.9
19718
19402.4
19401.7
19402
19402
19401.8
19402.1
18838.6
18838.5
18838.4
18838.5
18838.3
18838.6
)
;
    }
    seabed_topright_surface
    {
        type            calculated;
        value           nonuniform List<scalar> 
72
(
1883.71
1943.1
1862.15
2022.2
2285.93
1931.78
1643.93
1706.74
1596.5
1679.92
1691.92
1404.21
835.162
825.759
874.625
888.414
885.972
898.855
419.005
407.026
456.317
463.825
459.444
501.25
315.183
298.437
332.567
385.62
394.955
468.985
607.747
608.152
588.504
654.845
659.781
549.291
746.554
743.722
737.762
739.023
742.341
747.422
1427.51
1405.92
1358.79
1432.3
1421.67
1393.99
3105.56
3095.83
3030.08
3011.43
2790.19
2805.52
3048.56
3076.18
3049.98
2985.88
2695.91
2849.6
1756.74
1774.5
1695.9
1780
1774.59
1772.17
1509.22
1506.64
1542.98
1511.74
1536.22
1453.21
)
;
    }
    breakwater_top_surface
    {
        type            calculated;
        value           nonuniform List<scalar> 
36
(
1943.36
1943.51
1944.44
1945.17
1947.08
1946.04
1958.7
1959.03
1959.39
1959.66
1959.78
1960.57
1871.85
1870.69
1870.67
1871.11
1870.59
1872.92
1533.77
1532.62
1532.09
1533.84
1533.73
1532.72
1520.21
1519.08
1518.57
1520.1
1519.86
1519.34
1419.9
1419.16
1419.54
1417.74
1416.33
1421.67
)
;
    }
    breakwater_left_surface
    {
        type            calculated;
        value           nonuniform List<scalar> 
24
(
14080.3
14080.1
14080.1
14080.2
14080
14080.3
4294.46
4293.97
4294.08
4293.98
4293.53
4294.41
415.886
415.659
415.726
415.875
415.772
415.655
-24.8195
-25.3037
-25.0953
-24.5783
-24.0858
-25.8278
)
;
    }
    breakwater_right_surface
    {
        type            calculated;
        value           nonuniform List<scalar> 
24
(
1492.87
1490.3
1519.47
1492.19
1488.62
1413.98
1116.27
1112.79
1032.9
918.583
830.655
935.882
995.852
1008.11
648.511
627.696
640.846
647.97
-406.712
-383.82
-413.464
-231.404
251.733
-261.057
)
;
    }
    water_front_surface
    {
        type            calculated;
        value           nonuniform List<scalar> 
186
(
1819.17
2063.07
3362.36
6678.19
11472.4
15086.3
16270.7
15951
15420
14925.5
14617.6
14063.9
58.4782
68.8079
267.368
1616.51
4102.25
6329.84
7091.3
6569.52
5620.19
4234.04
4129.13
4282.36
69.2101
51.1077
45.0306
111.218
1473.28
2328.1
2295.08
1303.92
522.802
115.445
400.425
415.146
27.8583
11.1253
-39.315
-152.835
-124.741
-84.439
-55.8143
-42.4668
-32.0227
-6.13629
66.975
-24.9497
1861.33
1476.54
570.287
191.79
156.545
282.711
347.289
1022.15
2694.65
2633.35
1513.11
1492.82
659.583
-46.326
-174.398
-155.565
-107.038
-75.0655
-35.3094
36.6101
269.865
563.923
625.252
1116.22
-5.55687
-214.716
-172.949
-142.692
-94.0555
-61.6349
-38.7281
-26.1194
-18.3991
66.2006
560.177
994.369
-94.7631
-202.75
-210.782
-158.411
-98.0291
-65.5139
-46.3601
-39.9586
-38.0363
-31.3492
7.41511
-408.963
-15.0541
-43.7879
-62.9375
-35.2659
-56.7359
-64.834
-103.088
-88.1054
-69.7732
-123.368
-96.9177
-71.3222
-100.173
-92.5911
-70.5192
-77.962
-78.8101
-67.4204
-57.6742
-59.5379
-63.8355
-39.4778
-40.2489
-62.5651
-39.361
-24.3078
-65.5574
-51.9477
-4.30258
-73.0521
-0.368543
-49.9756
-65.1039
182.911
-78.3581
-84.689
937.893
-52.2775
-71.7291
952.037
-54.3482
-70.351
909.397
-54.2195
-69.8164
742.517
-53.7907
-70.0391
731.672
-57.7243
-72.6461
671.066
-53.532
-76.5842
-54.9577
-44.3289
-59.26
-109.769
-58.8348
-58.3561
-130.415
-76.3594
-60.3315
-111.596
-79.0944
-63.551
-84.6467
-72.2177
-65.3681
-65.7531
-65.372
-66.3419
-54.4355
-60.8689
-66.5041
-49.9777
-58.9169
-66.5994
-43.489
-57.1011
-65.4525
-43.7978
-57.6237
-66.8778
-39.8306
-57.3925
-66.9443
404.245
-57.3802
-78.241
)
;
    }
    water_back_surface
    {
        type            calculated;
        value           nonuniform List<scalar> 
186
(
1819.16
2063.04
3362.31
6678.16
11472.4
15086.3
16270.8
15951.1
15419.9
14925.2
14617.2
14063.9
58.474
68.7935
267.312
1616.49
4102.24
6329.9
7091.29
6569.36
5619.87
4233.34
4128.63
4282.31
69.2109
51.1119
45.0281
111.217
1473.55
2328.36
2295.26
1303.95
522.72
115.327
400.933
414.915
27.8606
11.1236
-39.3153
-152.889
-124.739
-84.4382
-55.8241
-42.4833
-32.0114
-6.04616
67.0094
-25.9584
1916.08
1329.69
652.759
238.212
221.798
262.897
364.606
1006.02
2414.84
2552.33
1525.32
1413.85
623.716
-12.3032
-172.449
-155.281
-108.077
-73.9965
-33.5512
36.2363
274.795
648.243
573.122
935.823
-2.41909
-218.51
-182.199
-147.28
-96.9354
-61.8404
-39.2694
-27.6383
-17.609
79.2866
403.866
646.114
-88.6128
-202.093
-213.65
-160.845
-99.8945
-66.0542
-46.6226
-40.7992
-38.3202
-32.4908
23.0987
-263.297
-15.0543
-43.7904
-62.9393
-35.2738
-56.7417
-64.8365
-103.097
-88.1117
-69.7752
-123.374
-96.9211
-71.3241
-100.174
-92.5929
-70.5197
-77.9616
-78.8095
-67.4195
-57.6742
-59.5331
-63.8348
-39.4747
-40.2415
-62.5641
-39.3529
-24.2855
-65.5547
-51.9243
-4.32461
-73.0441
-0.411103
-50.0055
-65.107
183.236
-78.367
-84.7023
940.03
-52.4141
-71.3811
953.498
-54.3138
-70.1854
909.876
-54.2271
-69.7601
741.98
-53.7548
-70.0246
731.237
-57.7256
-72.6385
671.844
-53.5249
-76.587
-53.4865
-44.4785
-59.3168
-108.769
-58.7767
-58.3744
-132.303
-76.5541
-60.3288
-113
-79.3679
-63.5723
-85.4236
-72.4347
-65.4052
-65.9727
-65.4654
-66.3675
-54.5795
-60.9449
-66.5173
-50.2532
-59.0406
-66.6045
-44.0381
-57.2729
-65.4546
-44.506
-57.9844
-66.8648
-43.6285
-57.557
-66.833
437.835
-57.012
-77.1373
)
;
    }
    water_left_surface
    {
        type            calculated;
        value           nonuniform List<scalar> 
42
(
1825.13
1825.11
1825.11
1825.11
1825.11
1825.12
58.4947
58.4893
58.4905
58.4902
58.4884
58.4906
69.2263
69.2402
69.2334
69.2338
69.2339
69.2271
27.8742
27.8851
27.8798
27.8814
27.8819
27.8765
-15.0541
-15.0487
-15.0513
-15.0511
-15.0513
-15.0543
-43.7879
-43.787
-43.7879
-43.7885
-43.7892
-43.7904
-62.9375
-62.9376
-62.938
-62.9383
-62.9388
-62.9393
)
;
    }
    water_right_surface
    {
        type            calculated;
        value           nonuniform List<scalar> 
42
(
1861.4
1920.71
1844.97
1996.42
2188.17
1916.13
659.664
677.751
653.679
668.626
565.291
623.766
-5.52311
-7.12538
-6.75148
-11.4086
-15.5096
-2.38538
-94.7469
-95.5203
-93.6889
-92.0189
-89.0025
-88.5966
-54.9577
-56.0136
-54.0618
-55.7328
-55.4321
-53.4865
-44.3289
-44.745
-43.8722
-45.1205
-45.7305
-44.4785
-59.26
-59.3119
-59.1877
-59.4925
-59.7356
-59.3168
)
;
    }
    water_top_surface
    {
        type            calculated;
        value           nonuniform List<scalar> 
180
(
-68.6705
-68.6705
-68.6705
-68.6705
-68.6705
-68.6705
-68.6705
-68.6705
-68.6705
-68.6705
-68.6705
-68.6705
-68.675
-68.675
-68.675
-68.675
-68.675
-68.675
-68.757
-68.757
-68.757
-68.757
-68.757
-68.757
-70.0525
-70.0475
-70.05
-70.0508
-70.0497
-70.0509
-70.4449
-70.4356
-70.44
-70.4418
-70.4389
-70.4419
-70.0777
-70.0662
-70.0712
-70.0734
-70.0692
-70.0752
-70.6459
-70.6361
-70.6407
-70.6427
-70.6397
-70.6453
-69.434
-69.4322
-69.4334
-69.434
-69.4345
-69.4328
-68.6894
-68.6896
-68.6895
-68.6893
-68.6888
-68.6901
-69.1678
-69.1683
-69.168
-69.1677
-69.1666
-69.1688
-73.524
-73.5245
-73.5202
-73.5236
-73.5269
-73.5143
-70.7715
-70.7837
-70.7669
-70.7253
-70.7466
-70.7145
-71.1368
-71.1594
-71.1556
-71.0727
-71.0558
-71.2384
-70.9673
-70.968
-70.9632
-70.9678
-70.9934
-70.9149
-71.5453
-71.5473
-71.5301
-71.5698
-71.6105
-71.4663
-73.0402
-73.0471
-73.0268
-73.0682
-73.1109
-72.9785
-70.7207
-70.7252
-70.7167
-70.7293
-70.7469
-70.6981
-68.6777
-68.6767
-68.6791
-68.6766
-68.6744
-68.6801
-68.6708
-68.6707
-68.6709
-68.6707
-68.6705
-68.6709
-68.67
-68.67
-68.67
-68.67
-68.67
-68.67
-68.67
-68.67
-68.67
-68.67
-68.67
-68.67
-68.7982
-68.7995
-68.8002
-68.8017
-68.7997
-68.8062
-69.7465
-69.7476
-69.7482
-69.7503
-69.748
-69.7565
-70.1755
-70.1748
-70.1736
-70.173
-70.1706
-70.175
-71.1499
-71.1459
-71.1405
-71.1337
-71.1262
-71.1273
-70.6274
-70.6237
-70.6167
-70.6046
-70.5911
-70.6058
-72.4078
-72.4017
-72.3869
-72.4259
-72.4449
-72.3705
-72.912
-72.8869
-72.8021
-72.8587
-72.8752
-72.6877
-71.4198
-71.4354
-71.4253
-71.39
-71.3529
-71.3513
)
;
    }
}


// ************************************************************************* //
