/*--------------------------------*- C++ -*----------------------------------*\
| =========                 |                                                 |
| \\      /  F ield         | OpenFOAM: The Open Source CFD Toolbox           |
|  \\    /   O peration     | Version:  v1612+                                |
|   \\  /    A nd           | Web:      www.OpenFOAM.com                      |
|    \\/     M anipulation  |                                                 |
\*---------------------------------------------------------------------------*/
FoamFile
{
    version     2.0;
    format      ascii;
    class       surfaceScalarField;
    location    "5.2";
    object      phi;
}
// * * * * * * * * * * * * * * * * * * * * * * * * * * * * * * * * * * * * * //

dimensions      [0 3 -1 0 0 0 0];

internalField   nonuniform List<scalar> 
2916
(
1.43483e-06
0.0452651
-0.0452665
-7.61943e-07
0.0452656
-0.0452633
-5.4592e-06
0.0452668
-0.0452621
-1.27108e-05
0.0452669
-0.0452596
-1.85551e-05
0.0452665
-0.0452606
0.0452672
-0.0452858
2.48146e-06
-0.110045
0.155308
5.87351e-07
-0.110043
0.155311
-5.32219e-06
-0.110043
0.155316
-1.15826e-05
-0.110042
0.155315
-1.01117e-05
-0.110042
0.155307
-0.110041
0.155298
1.06586e-05
-0.567803
0.457747
3.41009e-06
-0.567801
0.457765
-4.0881e-06
-0.567798
0.457763
-6.897e-06
-0.567795
0.457756
-5.89471e-06
-0.567794
0.457751
-0.567792
0.457745
-7.90888e-06
-1.1335
0.565702
1.03537e-05
-1.13349
0.565673
5.49389e-06
-1.13348
0.565688
-8.00866e-06
-1.13348
0.5657
-1.75728e-06
-1.13348
0.565681
-1.13348
0.565691
-3.42499e-05
-1.51337
0.379909
1.87545e-05
-1.51339
0.379846
1.24991e-05
-1.51335
0.379878
-7.34988e-06
-1.51335
0.379891
5.88599e-06
-1.51336
0.379866
-1.51338
0.379901
-8.30508e-05
-1.76067
0.247379
1.55792e-05
-1.76077
0.247285
1.24335e-05
-1.76069
0.247335
-7.05917e-06
-1.76068
0.247348
2.91572e-05
-1.76071
0.247314
-1.76071
0.247363
-8.26317e-05
-1.83605
0.0754634
9.74098e-06
-1.83628
0.075415
5.4625e-06
-1.83614
0.0754626
-4.9058e-06
-1.83614
0.075465
3.75541e-05
-1.8362
0.0754448
-1.83612
0.075442
7.39906e-05
-1.66837
-0.167757
1.88346e-05
-1.66866
-0.167567
-1.47425e-05
-1.6685
-0.167606
-2.95525e-06
-1.66851
-0.167639
-2.93729e-05
-1.66859
-0.167578
-1.66841
-0.167733
0.000311218
-1.32049
-0.348187
3.37168e-05
-1.32064
-0.347744
-5.07228e-05
-1.32054
-0.347881
-2.17195e-05
-1.32058
-0.347956
-0.000161241
-1.32064
-0.347812
-1.32046
-0.348116
0.000389877
-0.897533
-0.423348
8.78601e-06
-0.897383
-0.422874
-8.06678e-05
-0.897412
-0.423038
-5.09478e-05
-0.897497
-0.423115
-0.0002433
-0.897489
-0.422959
-0.897409
-0.423293
0.000139263
-0.36466
-0.533012
-3.53597e-05
-0.364477
-0.532731
-6.64935e-05
-0.364532
-0.532849
-6.726e-05
-0.364606
-0.53289
-0.000207436
-0.364539
-0.53281
-0.364593
-0.533023
-0.000150432
-0.36451
-5.03687e-05
-0.364577
2.39495e-08
-0.364582
-4.16264e-05
-0.364564
-7.50777e-05
-0.364505
-0.364669
0.000305648
0.344398
-0.38997
-0.000102799
0.344957
-0.389808
-0.000113963
0.344718
-0.389967
-1.13272e-05
0.344635
-0.389997
-0.000148112
0.344791
-0.389916
0.34456
-0.389995
0.000528576
-0.568949
1.06813
-2.94568e-05
-0.568295
1.06912
-0.000110842
-0.56855
1.06867
-2.25982e-05
-0.568641
1.0685
-0.000244073
-0.568476
1.0688
-0.568802
1.06842
0.000553873
-1.67227
1.56052
-1.71035e-05
-1.67212
1.56216
-0.000168598
-1.6722
1.56156
-1.48573e-05
-1.67219
1.56115
-0.000195958
-1.67213
1.56159
-1.67227
1.56101
0.000252049
-2.01058
0.903754
3.75495e-05
-2.0104
0.904164
-5.83382e-05
-2.01047
0.904056
-7.94453e-07
-2.0105
0.903953
-0.000101696
-2.01043
0.904077
-2.01056
0.903877
0.000212655
-1.90478
0.273896
2.85985e-05
-1.90477
0.274405
-2.96643e-05
-1.90475
0.274222
2.69898e-06
-1.90477
0.274126
-0.000108601
-1.90475
0.2743
-1.9048
0.274033
0.00012264
-1.72649
0.0689729
9.86868e-06
-1.72665
0.0692773
-2.01739e-05
-1.72656
0.0691727
3.84722e-06
-1.72656
0.0691163
-7.25213e-05
-1.72658
0.0692209
-1.72656
0.0690554
0.000176825
-1.45105
-0.200163
-2.87714e-06
-1.4513
-0.199759
-3.44242e-05
-1.45118
-0.199889
1.70589e-05
-1.45117
-0.199974
-7.86035e-05
-1.4512
-0.199839
-1.45113
-0.200072
0.00021656
-1.05108
-0.56794
-1.23444e-05
-1.05118
-0.567457
-4.28509e-05
-1.05114
-0.567615
1.86131e-05
-1.05114
-0.567728
-7.17396e-05
-1.05113
-0.567565
-1.05108
-0.567851
-2.15555e-05
-0.560506
-0.838737
-3.84822e-05
-0.560112
-0.838793
-2.34559e-05
-0.56029
-0.838744
-7.77214e-06
-0.560306
-0.83881
2.55248e-05
-0.560173
-0.838797
-0.560351
-0.838821
-0.000348496
-0.23439
-0.749116
-8.40587e-05
-0.23352
-0.749731
-3.99178e-06
-0.233898
-0.749511
-3.2452e-05
-0.233886
-0.749506
0.000231194
-0.233735
-0.749661
-0.234082
-0.749331
-0.000486285
-0.282059
-0.484857
-4.55005e-05
-0.28179
-0.484902
2.87968e-05
-0.28194
-0.484881
-2.76609e-05
-0.281848
-0.484871
0.000326057
-0.282076
-0.484823
-0.281862
-0.484917
1.24681e-05
-0.646581
1.06229e-05
-0.646365
1.54367e-05
-0.646527
4.86438e-06
-0.646402
-0.000212267
-0.646364
-0.646743
-0.00177557
-2.01719
1.629
-0.000180631
-2.02092
1.62952
-0.000168516
-2.01918
1.6292
-9.04594e-05
-2.01925
1.62918
0.000758888
-2.02006
1.62929
-2.01832
1.62908
-0.000496597
-4.17333
3.22477
4.9696e-06
-4.18001
3.22771
-0.000466233
-4.17673
3.22668
-0.000276262
-4.17675
3.22581
0.000197044
-4.17832
3.22659
-4.17529
3.22558
0.00272229
-4.89546
2.27992
-6.26165e-05
-4.89938
2.28432
-0.00110437
-4.89759
2.28347
-0.000352929
-4.89742
2.28107
-0.00107024
-4.89837
2.28235
-4.89666
2.28132
0.00147374
-3.92366
-0.0695214
-9.12114e-05
-3.92425
-0.069407
-0.000333435
-3.92395
-0.0693402
-9.25247e-05
-3.92414
-0.0695671
-0.000617479
-3.92422
-0.0695493
-3.92391
-0.0694886
-6.69279e-05
-2.65336
-0.996336
1.80235e-05
-2.65313
-0.996802
-0.000105123
-2.65321
-0.996402
-6.18444e-05
-2.65335
-0.996713
0.000171735
-2.65323
-0.996918
-2.65336
-0.996351
-0.000569168
-1.78049
-0.803327
-2.76918e-05
-1.78007
-0.804318
-2.83708e-05
-1.78026
-0.803776
-5.41226e-05
-1.78035
-0.803856
0.000409669
-1.7802
-0.804279
-1.78042
-0.803471
-0.000796436
-0.879182
-1.10068
-6.86147e-05
-0.878897
-1.10166
-3.38308e-05
-0.879029
-1.10115
-7.9892e-05
-0.8791
-1.10118
0.00051734
-0.879031
-1.1016
-0.879123
-1.10086
-0.00115908
0.307638
-1.7536
-0.000144402
0.307846
-1.75521
-6.00066e-05
0.307769
-1.7545
-0.000134661
0.307728
-1.75448
0.000693143
0.307691
-1.75511
0.30766
-1.75394
-0.00160782
1.46167
-1.99116
-0.000314875
1.46199
-1.99423
-0.000129535
1.46195
-1.99311
-0.000175894
1.46189
-1.99292
0.000960659
1.46153
-1.99378
1.46171
-1.99191
-0.000825324
1.87348
-1.16011
7.27712e-05
1.87277
-1.16141
0.000595897
1.87308
-1.16116
-6.04144e-05
1.87409
-1.16106
-0.000463398
1.87415
-1.16188
1.87187
-1.15996
-0.000402969
0.255455
1.13357
0.000342289
0.252575
1.13455
0.000870339
0.253479
1.13419
0.00024248
0.255648
1.1342
-6.56115e-05
0.254278
1.13536
0.253355
1.13354
0.00122561
-0.392352
-0.000260882
-0.392304
-0.00100709
-0.392301
0.00058715
-0.392347
0.00137074
-0.39287
-0.392017
-0.00144235
-1.88466
3.5151
-0.000145954
-1.8872
3.51543
-0.00023023
-1.88593
3.51522
-0.000190463
-1.88616
3.5153
0.000521096
-1.88676
3.51535
-1.88566
3.51526
-0.000732845
-3.02766
4.3685
-0.000171413
-3.03075
4.37069
-0.000321745
-3.02917
4.37008
-0.000211701
-3.0296
4.36914
0.000231883
-3.0304
4.36978
-3.02897
4.36913
0.000876986
-3.18786
2.43925
-0.0001307
-3.18851
2.44309
-0.00078234
-3.18797
2.44292
-0.000332711
-3.18872
2.43974
-0.000469602
-3.18891
2.441
-3.18848
2.44036
0.000633635
-2.69736
-0.560658
-0.000333379
-2.69731
-0.559639
-0.000640323
-2.69728
-0.559733
-0.000230183
-2.69793
-0.560768
-0.000268257
-2.69813
-0.560291
-2.698
-0.560241
-0.000395317
-1.06118
-2.63212
-0.000105669
-1.06081
-2.63359
-0.000923315
-1.06044
-2.63242
-0.000537143
-1.06169
-2.63333
0.000831359
-1.06249
-2.63392
-1.06147
-2.63205
-0.00100282
1.196
-3.0595
-0.000139883
1.19637
-3.06236
-0.000421534
1.19694
-3.06088
-0.000314109
1.19556
-3.06121
0.00103743
1.19442
-3.06255
1.19639
-3.06028
0.000900374
3.0191
-2.92468
-0.000271758
3.0204
-2.92451
-0.000426711
3.02032
-2.92437
-0.000304266
3.0195
-2.92524
-5.79698e-05
3.01868
-2.92611
3.01993
-2.92446
0.00152171
3.64033
-2.37635
-0.000331429
3.64118
-2.37415
-0.000794376
3.64117
-2.37488
-0.000575776
3.64099
-2.37619
0.000103911
3.64004
-2.37715
3.64049
-2.3744
0.000110031
2.685
-1.03594
-0.000387308
2.68171
-1.03426
-0.000750616
2.68339
-1.03496
-0.000750372
2.68405
-1.03598
0.000587576
2.68225
-1.03732
2.68276
-1.03359
-0.00163943
0.93309
0.593444
0.00177897
0.921704
0.595171
0.00463722
0.925511
0.593849
0.000775577
0.933496
0.593356
-0.0113687
0.94104
0.591475
0.915453
0.595979
0.00144144
-0.520284
2.58551
0.000749671
-0.528015
2.58498
0.00144052
-0.525588
2.5846
0.00100707
-0.51912
2.58726
-0.00262595
-0.510765
2.5908
-0.534694
2.58105
0.00236315
-0.914998
-0.00222024
-0.915736
-0.0050024
-0.915106
-0.000752753
-0.915716
0.0125575
-0.916945
-0.914153
-0.301
-5.21376
5.51476
0.192084
-5.61056
5.11747
-1.94786
-4.72605
6.866
-1.15097
-5.54202
4.74513
3.01543
-6.84059
2.67419
-3.93712
6.95255
-0.00768476
-6.86513
1.65906
0.098619
-7.18071
1.46384
0.130839
-6.84548
2.08721
0.261114
-7.03965
1.36736
0.360317
-7.57536
0.635565
-6.10681
2.53
0.0312981
-7.12896
0.232525
-0.00493092
-7.35862
0.214141
0.179177
-7.23135
0.20176
0.119769
-7.24116
0.260921
-0.207338
-7.54535
0.297099
-6.74418
0.430038
0.0388757
-6.85369
-0.314142
0.02293
-7.002
-0.340671
0.166003
-6.89912
-0.475308
0.0721434
-6.93646
-0.210844
-0.23099
-7.33033
0.0881132
-6.49642
-0.478754
0.0388163
-6.43808
-0.454426
0.0175932
-6.52831
-0.452463
0.116082
-6.38421
-0.613392
0.0256409
-6.4675
-0.378518
-0.263788
-6.89305
-0.147858
-5.90403
-0.856176
0.0205183
-5.82609
-0.63251
0.0349023
-5.85238
-0.690317
0.079694
-5.7342
-0.694811
-0.00246931
-5.82982
-0.555514
-0.123257
-6.18601
-0.586253
-5.35042
-0.676869
0.00530109
-5.09044
-0.740954
0.0195326
-5.08539
-0.78122
0.0771247
-4.96646
-0.825331
-0.0431147
-5.10588
-0.603709
-0.121571
-5.40543
-0.70212
-4.7314
-0.740592
0.00522709
-4.12946
-0.966204
0.033599
-4.14969
-0.964074
0.0771772
-4.01498
-0.995055
-0.00574191
-4.16121
-0.861747
-0.146163
-4.38863
-0.876374
-3.73825
-1.13931
-0.0225652
-2.0412
-2.0657
0.048957
-2.094
-2.12721
0.234835
-2.05692
-2.14394
0.163249
-2.09965
-1.98997
-0.366031
-2.24475
-1.6146
-1.91723
-2.18705
-0.0527641
0.598892
-2.58732
0.0253899
0.52925
-2.70141
0.332063
0.411922
-2.77551
0.0904458
0.557113
-2.41515
-0.848232
0.576477
-1.88255
-0.258581
-2.50688
0.0260866
2.11705
-1.54425
0.169696
2.17593
-1.79029
0.68696
1.96364
-2.06898
0.423087
2.10105
-1.28007
-0.726996
2.22622
-0.499659
1.01185
-1.99742
-0.171246
2.2883
-0.14192
2.14661
1.11859
0.703124
0.413004
2.80664
0.0558708
2.58335
1.06772
-0.259016
-4.91345
10.6872
-0.0728128
-5.3077
10.239
-0.571616
-4.47958
11.8444
0.201811
-5.52056
9.49226
0.797543
-6.67389
8.75236
-3.82654
11.5766
-0.0217756
-7.45617
4.22355
-0.279412
-7.60803
4.02182
0.370964
-7.47891
4.43617
0.0434474
-7.74732
3.92163
-1.03416
-8.65409
3.69337
-6.96545
4.63476
0.02319
-7.24397
-0.002867
-0.0292689
-7.28443
-0.0570003
-0.0983145
-7.17405
-0.0340537
-0.088899
-7.40772
-0.0880955
-0.203491
-8.31145
0.0690458
-7.04071
0.3018
0.0738755
-5.8529
-1.77908
0.140625
-5.89248
-1.79938
0.132027
-5.69275
-1.94801
0.202147
-6.02016
-1.66853
0.0362619
-6.79648
-1.26097
-5.54144
-1.94176
0.0532935
-4.345
-2.01562
0.0678954
-4.34397
-2.01557
0.163433
-4.22308
-2.1786
0.292279
-4.62675
-1.90077
-0.0930993
-5.0757
-1.48326
-4.09158
-2.39914
0.0126731
-3.47133
-1.51885
-0.058038
-3.39459
-1.56898
-0.030405
-3.3046
-1.64093
0.0240388
-3.86739
-1.36931
-0.226271
-4.09616
-1.31549
-3.28179
-1.71293
-0.0100211
-3.63689
-0.565372
-0.0715011
-3.54835
-0.565983
-0.109587
-3.42929
-0.662552
-0.146835
-4.02785
-0.406006
-0.177389
-4.30049
-0.467234
-3.38248
-0.817285
-0.0497016
-3.64843
-0.904971
-0.0900441
-3.62738
-0.844704
-0.0576078
-3.5396
-0.917188
-0.24486
-3.92453
-0.777814
-0.182993
-4.49218
-0.746544
-3.4402
-1.26459
-0.0969258
-3.00096
-2.61624
-0.156866
-3.00334
-2.69131
-0.162091
-2.93402
-2.74429
-0.273428
-3.20012
-2.60305
-0.263224
-4.02672
-2.09027
-2.95635
-2.93412
-0.0675602
-1.98243
-3.53829
-0.11995
-2.04756
-3.6048
-0.132882
-1.98549
-3.71111
-0.221729
-2.13114
-3.39528
-0.264043
-2.58575
-3.28121
-2.08647
-3.6408
0.227241
-1.1431
-2.61082
0.309355
-1.12121
-2.79876
0.544087
-1.23645
-3.05275
0.556863
-1.14424
-2.27974
-0.235016
-1.00263
-1.2909
-1.35574
-2.96317
0.806077
0.339125
1.64671
0.184769
2.24398
-1.1306
2.68201
1.22437
-0.464719
4.72745
-0.752747
-0.115623
-0.859672
11.6625
-0.118151
-1.03727
11.2788
0.261619
-1.04009
12.5047
0.239494
-1.23383
10.7482
0.228096
-1.44431
10.2081
-0.755168
12.5599
-0.0748754
-2.77693
6.21568
-0.23893
-2.77957
5.92817
-0.0165721
-3.19581
6.36953
-0.376423
-2.73751
5.78517
-0.416617
-3.43096
5.72021
-3.10384
6.56681
-0.0978168
-3.29526
0.613286
-0.040642
-3.29828
0.404541
-0.379769
-3.41675
0.526008
-0.0507287
-3.39786
0.243217
0.146386
-3.80567
0.246638
-3.65583
1.00018
-0.00883158
-3.29203
-1.77349
0.00836556
-3.29445
-1.82041
-0.238784
-3.31179
-1.80582
-0.0307599
-3.38019
-1.89422
0.440825
-3.59085
-1.94737
-3.4207
-1.73606
0.001094
-2.79088
-2.51786
0.0133777
-2.78424
-2.53806
-0.160672
-2.77919
-2.53715
0.00359885
-2.85918
-2.58605
0.457074
-2.94045
-2.58713
-2.81511
-2.54766
-0.00233548
-2.07304
-2.23436
-0.0340784
-2.06259
-2.25889
-0.154931
-2.02598
-2.27329
0.010851
-2.13482
-2.25946
0.232081
-2.22404
-2.25314
-1.99968
-2.29627
-0.0352375
-1.05645
-1.54672
-0.0724815
-1.04997
-1.54137
-0.182162
-1.00559
-1.57326
-0.0465681
-1.19047
-1.48595
0.226936
-1.53271
-1.43206
-0.955861
-1.63417
-0.0621617
-0.654338
-1.24492
-0.119928
-0.625515
-1.21139
-0.220727
-0.564327
-1.25765
-0.226692
-0.81509
-1.14723
0.286968
-1.6754
-1.11752
-0.614971
-1.31851
-0.0443287
-1.64438
-1.58187
-0.15353
-1.60238
-1.60524
-0.277261
-1.53304
-1.65184
-0.371932
-1.71438
-1.60908
0.16208
-2.49215
-1.80752
-1.71484
-1.67218
-0.0605176
-1.94016
-3.18198
-0.188174
-1.9183
-3.16122
-0.304362
-1.79786
-3.33011
-0.241923
-2.11894
-3.05316
0.0505081
-2.86622
-3.19958
-1.95819
-3.34694
-0.0125971
-1.32406
-3.21433
-0.164622
-1.33509
-3.22994
-0.501472
-1.175
-3.33875
-0.384091
-1.49658
-3.01948
0.391413
-2.3928
-2.53982
-1.32281
-3.20713
0.154903
-1.13984
0.211531
-1.20695
-0.569478
-1.52459
-0.241883
-0.599811
0.6944
1.39837
-1.38115
-0.0616063
2.06619
9.65794
-0.0779913
1.8273
9.46786
0.29936
1.97001
10.1573
0.120436
1.70985
9.21729
-0.0828421
1.71977
8.69158
2.40274
10.0743
0.0224524
1.50346
6.75596
-0.155191
1.45586
6.47724
0.135338
1.1706
6.87841
-0.133887
1.45943
6.30481
-0.634939
1.67068
6.27035
1.30082
7.03379
0.0433449
0.536424
1.53698
-0.0193778
0.518482
1.40465
-0.161717
0.353255
1.48569
-0.280681
0.505181
1.31643
-0.357954
0.619323
1.37527
0.303234
1.63981
0.0320671
0.0370803
-1.30621
0.0711777
0.0323797
-1.37342
-0.0149127
-0.0292982
-1.33718
0.00890982
0.00449865
-1.41737
0.0521292
0.0292838
-1.40055
-0.0990047
-1.2817
0.0274945
-0.094995
-2.41328
0.0554444
-0.0980025
-2.43564
0.0360096
-0.118905
-2.42811
0.0386296
-0.138485
-2.44569
0.052705
-0.142441
-2.42948
-0.159638
-2.43432
0.0241149
-0.00293664
-2.35053
0.0405304
-0.0110169
-2.36229
0.0252905
-0.0168779
-2.36008
0.0308853
-0.0529554
-2.35058
0.0405764
-0.0679146
-2.33736
-0.038465
-2.37687
0.00294608
0.253038
-1.80565
0.0121137
0.242912
-1.80446
-0.009452
0.237206
-1.80577
0.01771
0.222064
-1.78813
0.064944
0.225948
-1.77315
0.21086
-1.81855
-0.0331424
0.532358
-1.4911
-0.0448271
0.526821
-1.48361
-0.168325
0.588097
-1.48504
-0.084371
0.444524
-1.45364
0.149764
0.273706
-1.39941
0.517398
-1.47529
-0.00467356
-0.120054
-0.924783
-0.0113553
-0.129073
-0.942661
-0.134959
0.000171333
-0.940308
-0.0309426
-0.28948
-0.979086
0.0751164
-0.688869
-0.951002
-0.10079
-0.978871
-0.0218216
-1.19357
-2.08664
-0.0427423
-1.21414
-2.05524
-0.0937374
-1.21253
-2.06641
-0.0504882
-1.26664
-2.11925
-0.0636056
-1.78017
-2.09516
-1.39586
-2.11548
-0.0663135
-1.12457
-3.21702
-0.224811
-1.1439
-3.14168
-0.44984
-1.13444
-3.19182
-0.330662
-1.34635
-3.05895
0.144696
-1.87873
-2.91662
-1.26051
-3.19779
-0.0788439
-2.18556
-0.256039
-2.17366
-0.748485
-2.16658
-0.662742
-2.0319
0.642704
-1.7858
-1.99896
-0.000769494
3.80292
-0.287046
-9.82854e-05
3.80301
-0.288247
-0.000152646
3.80294
-0.287672
-0.000169655
3.80301
-0.287698
0.000171749
3.80302
-0.28801
3.80308
-0.287645
-0.000225719
3.35564
0.447504
-5.38235e-05
3.35565
0.447179
-6.7584e-05
3.35565
0.447308
-8.22368e-05
3.35567
0.447356
-1.7914e-05
3.35568
0.447272
3.35571
0.447346
-2.11578e-05
0.309143
-1.99921e-05
0.309103
-3.38047e-05
0.309117
-4.30793e-05
0.309129
-4.5707e-05
0.309119
0.309133
-0.000597965
4.25024
-0.168188
-5.73255e-05
4.25116
-0.169261
2.34375e-05
4.25078
-0.168457
-8.39177e-05
4.25052
-0.168971
0.000220307
4.25079
-0.16932
4.2505
-0.168795
-0.000481651
3.35353
1.3447
-9.52901e-07
3.35374
1.34411
5.42113e-05
3.35362
1.34441
-0.000106742
3.35364
1.34439
7.70952e-05
3.35368
1.34419
3.35363
1.34429
-0.000140293
0.786399
-2.73077e-05
0.786288
-1.8855e-05
0.786314
-5.76366e-05
0.786362
-1.51259e-05
0.786315
0.786311
-0.000440175
2.82308
-0.551579
-0.00016851
2.82578
-0.552229
0.00037507
2.82547
-0.551552
-7.64336e-05
2.8235
-0.552285
-0.000154504
2.82442
-0.552667
2.82373
-0.55232
-0.000743064
2.44888
1.71964
-5.08139e-06
2.45002
1.71914
0.000648756
2.44969
1.71953
9.93165e-05
2.44916
1.71928
0.000104171
2.44954
1.71907
2.44909
1.71904
-0.000335089
1.24303
1.61758e-05
1.243
0.000227746
1.243
4.99548e-05
1.243
0.000129271
1.24298
1.2429
0.000481649
0.365547
-1.47827
-3.95643e-05
0.367224
-1.47857
9.80274e-05
0.3667
-1.47813
-0.00011922
0.365881
-1.47872
-0.000510851
0.366533
-1.4791
0.365957
-1.47903
5.8534e-05
0.461951
1.62318
5.72208e-05
0.463456
1.62291
0.000334825
0.462829
1.62313
4.52124e-05
0.462449
1.623
-0.000208321
0.462953
1.6229
0.462303
1.62249
-3.95134e-05
1.47002
7.44255e-05
1.47045
0.000200303
1.47024
0.000103116
1.47018
0.00011759
1.47027
1.47005
0.00126143
-1.02692
-3.08472
0.000215733
-1.02598
-3.08514
0.000476462
-1.02603
-3.08477
0.000351042
-1.02707
-3.08486
-0.000605534
-1.02689
-3.08518
-1.02663
-3.08505
0.00110899
-0.759195
1.35434
0.00010067
-0.756681
1.35461
0.000312989
-0.757776
1.35466
0.000153932
-0.758343
1.35444
-0.000782988
-0.757574
1.35453
-0.758507
1.35358
0.000110335
1.55802
0.000100857
1.55945
0.000158989
1.55886
9.8562e-05
1.55852
8.63261e-05
1.55896
1.55829
0.000981789
-1.76891
-4.37629
0.000364301
-1.76748
-4.37939
0.000669179
-1.76795
-4.378
0.000427614
-1.7688
-4.37703
-0.00078193
-1.76855
-4.37797
-1.769
-4.37711
0.00124531
-1.05365
0.637832
0.00027478
-1.04994
0.638034
0.00026762
-1.05152
0.638226
0.000265765
-1.05241
0.638046
-0.000642842
-1.05121
0.638096
-1.05286
0.636787
8.56406e-05
1.48117
4.51788e-05
1.48375
0.000105336
1.4827
5.83951e-05
1.48206
-6.63023e-05
1.48298
1.48133
0.000511861
-2.31264
-4.98884
0.000199772
-2.30891
-4.99468
0.000444224
-2.31045
-4.99216
1.69444e-05
-2.3116
-4.99024
-0.00199076
-2.31102
-4.99105
-2.31224
-4.99131
0.000246027
-1.40032
-0.274732
0.000240249
-1.39612
-0.274743
0.000410665
-1.39793
-0.274472
0.000442649
-1.39892
-0.274668
-0.000516466
-1.39745
-0.274511
-1.40017
-0.275805
-0.000323744
0.969289
1.18322e-05
0.971809
0.000221801
0.970721
0.000140484
0.970138
0.000253397
0.97105
0.968977
0.000695937
-2.04467
-5.32121
0.000319811
-2.04077
-5.32768
0.000721824
-2.04252
-5.32493
-5.36752e-05
-2.04364
-5.32201
-0.00320993
-2.04394
-5.3211
-2.04264
-5.32627
-0.000748542
-1.56023
-0.75843
0.000247814
-1.55787
-0.758648
0.000736512
-1.55907
-0.7584
0.000312179
-1.55949
-0.758389
-0.00139256
-1.55887
-0.757871
-1.56033
-0.759506
-0.000502886
0.501437
0.00010064
0.502653
0.000263882
0.50208
0.000183977
0.501881
0.000427834
0.502324
0.501007
0.00151079
-1.11873
-5.23992
0.000250889
-1.11537
-5.24531
0.000491109
-1.11684
-5.24329
1.90595e-05
-1.11814
-5.23938
-0.00207138
-1.11996
-5.23637
-1.11473
-5.24721
-0.0016125
-0.928255
-0.947295
0.000920266
-0.927658
-0.948892
0.00202623
-0.928015
-0.948319
0.000396645
-0.928359
-0.946539
-0.00487231
-0.929271
-0.94329
-0.92703
-0.952075
-0.000251914
0.329007
0.00015864
0.329363
0.000289911
0.329175
0.000202476
0.329102
-0.000205314
0.329184
0.328869
0.00133141
0.322487
-4.97029
-2.79944e-05
0.325043
-4.97381
-0.000518796
0.32384
-4.97278
-0.000114682
0.322313
-4.96873
0.000447168
0.318936
-4.96439
0.327107
-4.97788
-0.000510907
0.33925
-0.963543
0.000654282
0.340235
-0.965255
0.00131352
0.33987
-0.965006
0.000453224
0.338296
-0.961661
-0.00224624
0.335133
-0.956789
0.343247
-0.970463
-0.000147359
0.319701
0.000497093
0.319818
0.000997262
0.319731
0.000197423
0.319564
-0.00289716
0.319479
0.319845
0.00121564
1.46368
-3.84968
-0.000564755
1.46368
-3.85074
-0.000661833
1.4628
-3.85088
-0.000482459
1.46539
-3.84704
0.00164944
1.4671
-3.84282
1.46052
-3.8557
0.000191834
0.809734
-0.309782
-0.000823866
0.809613
-0.310164
-0.00183158
0.809239
-0.310436
-0.000326104
0.8108
-0.308574
0.00436735
0.812146
-0.306533
0.807316
-0.312892
2.7581e-05
0.867411
-0.000137132
0.867323
-0.000536883
0.867341
7.24842e-05
0.867175
0.00139167
0.867154
0.867404
-0.000553557
-3.34009
-1.42402
-0.000439269
-3.34297
-1.42362
0.000853001
-3.34409
-1.42319
-0.000236613
-3.33726
-1.42441
-0.00208755
-3.3331
-1.42481
-3.34912
-1.42282
0.000602261
-3.00797
-0.642505
-0.000962538
-3.00923
-0.642347
-0.00277871
-3.00949
-0.643219
-0.000322628
-3.00644
-0.641847
0.00538031
-3.00434
-0.641001
-3.01181
-0.644829
0.000506696
-0.384159
-0.000260253
-0.384156
-0.00148159
-0.384675
-4.29766e-05
-0.383929
0.00294787
-0.382858
-0.386073
-0.00136161
-0.490692
-0.816483
1.30854
-0.00159236
-0.492891
-0.81671
1.30983
-0.0049173
-0.488655
-0.816815
1.30879
-0.00507054
-0.481872
-0.812202
1.29423
0.00539128
-0.467698
-0.811242
1.26848
-0.47599
-0.815168
1.29655
-0.00613577
-0.607714
-0.519232
0.642389
-0.00813459
-0.609782
-0.519276
0.638162
-0.00595874
-0.60536
-0.517761
0.632287
-0.0149123
-0.596846
-0.508729
0.632655
-0.0233081
-0.584788
-0.502996
0.628479
-0.592304
-0.512147
0.605151
-0.00639276
-0.282405
0.397827
-0.0134728
-0.279468
0.395327
-0.0183846
-0.275715
0.390836
-0.0226582
-0.275471
0.39144
-0.00494343
-0.26628
0.374877
-0.258768
0.367335
-0.000305268
-0.29746
-0.518718
-8.69264e-05
-0.298651
-0.518278
0.000676622
-0.299227
-0.518351
0.000190337
-0.293355
-0.518361
-0.00117229
-0.291983
-0.517896
-0.297519
-0.518822
-0.00380829
-0.476769
-0.336116
-0.00676009
-0.479535
-0.335443
-0.00875574
-0.479959
-0.335035
-0.0123476
-0.470236
-0.328259
-0.0129116
-0.470621
-0.323796
-0.491468
-0.33111
-0.00351532
0.00726707
-0.00486861
0.00853159
-0.00557725
0.0105596
-0.00774597
0.00963293
-0.00586128
0.0116231
0.0208554
-6.82341e-05
-0.338244
-0.180406
7.84961e-05
-0.338276
-0.180149
0.000639175
-0.338584
-0.180328
-0.000337705
-0.337687
-0.179697
-0.0017928
-0.336886
-0.179555
-0.340274
-0.180341
-0.00129105
-0.566698
-0.106373
-0.00331401
-0.566904
-0.104793
-0.00603751
-0.566866
-0.104031
-0.000860766
-0.566976
-0.104148
0.00918742
-0.569362
-0.101368
-0.563663
-0.0985317
-0.00162139
0.17737
-0.00244056
0.17768
-0.00317912
0.178885
-0.0035886
0.178135
-0.000475632
0.177959
0.1836
-1.77729e-05
-0.231017
0.0506293
0.00044529
-0.231158
0.0505463
0.00155029
-0.231845
0.0504123
-0.000299871
-0.228577
0.0507304
-0.00346075
-0.227004
0.0506099
-0.234203
0.0504012
-0.00237651
-0.551126
0.216111
-0.00287218
-0.551452
0.215995
-0.00457156
-0.550911
0.216732
-0.00356924
-0.551351
0.217622
0.00266212
-0.55384
0.219236
-0.54699
0.216918
-0.000915532
0.446713
-0.00160917
0.446707
-0.00404974
0.447846
-0.00126365
0.446764
0.00552719
0.4455
0.450908
-0.000107447
-0.418418
0.469154
1.47421e-05
-0.418494
0.468918
0.000267629
-0.418434
0.468593
-0.000355612
-0.418056
0.46941
-0.00134505
-0.418058
0.469657
-0.419218
0.468274
-0.000929278
-0.806502
0.605124
-0.00155412
-0.807079
0.605203
-0.0033332
-0.805891
0.605968
-0.000707219
-0.808112
0.605052
0.00686957
-0.811204
0.604807
-0.803129
0.607699
-0.000549086
0.647247
-0.000771011
0.647043
-0.00196574
0.648131
-0.000506584
0.64671
0.00309363
0.644857
0.650622
-0.000334282
-0.954536
-3.05536e-05
-0.955002
0.00105867
-0.955684
-0.000256854
-0.953684
-0.00246935
-0.95294
-0.957013
-0.000495108
-0.991425
-0.000634807
-0.992008
-0.00178259
-0.991789
-0.000511233
-0.991751
0.00322363
-0.992869
-0.990918
-7.3877e-05
-0.0001892
-0.000857906
-0.000121299
0.00155291
0.00411257
6.55177
3.10206
-0.0280776
6.51793
2.98213
0.295376
6.71996
3.11392
0.143294
6.44413
2.92524
-0.203476
6.20771
2.83064
6.58702
3.28383
0.0163495
4.36145
2.17397
0.00685665
4.36976
2.15766
0.152321
4.38501
2.18949
0.106765
4.35308
2.1366
-0.0798284
4.31776
2.07654
4.31287
2.19431
0.00526795
0.777565
0.00734992
0.786095
0.0344039
0.780774
0.031979
0.782869
-0.00375576
0.780197
0.758762
0.0796844
6.14902
3.62931
-0.0400837
6.0302
3.54894
0.181984
6.22587
3.54439
-0.0233761
5.9343
3.50112
-0.405257
5.88524
3.59763
6.22667
3.68569
0.0491751
4.92209
3.35173
0.0106241
4.89983
3.32658
0.121249
4.94522
3.35952
0.0305296
4.86611
3.29552
-0.130115
4.84779
3.27464
4.90554
3.38533
0.0132142
1.51279
0.0103738
1.51631
0.039489
1.52157
0.0191668
1.51057
-0.0136812
1.50191
1.50478
0.0533267
2.29714
2.81582
0.00363032
2.2184
2.78488
-0.0197414
2.29831
2.75514
-0.12628
2.17196
2.75213
-0.184483
2.19868
2.83243
2.34376
2.79725
0.0424445
2.44011
3.16632
0.0112836
2.42075
3.1554
0.0512834
2.44503
3.1728
-0.0193922
2.40403
3.13412
-0.104676
2.41453
3.14406
2.4388
3.18561
0.0103987
1.51767
0.00598056
1.51895
0.0259556
1.52336
0.00722214
1.51626
-0.020632
1.51812
1.51499
0.0331952
-0.618476
2.09489
0.0115217
-0.651158
2.08429
-0.0163492
-0.63105
2.07688
-0.0647854
-0.671537
2.05474
-0.0592261
-0.658039
2.08435
-0.620732
2.07706
0.022942
0.265557
2.25934
0.0112318
0.258309
2.25764
0.0267002
0.261694
2.26459
-0.0111858
0.253958
2.24651
-0.0492376
0.264235
2.25984
0.254387
2.26125
0.00332094
1.01639
0.00183853
1.0172
0.00882277
1.01779
0.00118995
1.01829
-0.00596699
1.02352
1.01252
0.0148257
-1.71802
1.3848
0.00943155
-1.72853
1.38258
0.00176397
-1.72703
1.38347
-0.0176344
-1.73473
1.36317
-0.00751011
-1.7306
1.37534
-1.73876
1.37399
0.00957444
-0.745933
1.27768
0.00803608
-0.748245
1.27889
0.0162571
-0.749779
1.27911
0.00161609
-0.74942
1.27584
-0.0102338
-0.744341
1.28543
-0.759034
1.27129
2.78258e-05
0.509501
-0.000501549
0.509934
-0.000703571
0.509239
-0.000133713
0.510962
0.0056944
0.513765
0.506338
0.00415391
-1.76688
0.796994
-0.00158777
-1.77071
0.796738
-0.00401043
-1.77114
0.796964
-0.00651122
-1.77244
0.78753
0.00939675
-1.77085
0.792927
-1.78138
0.787899
0.00315537
-1.07944
0.587088
0.00405045
-1.0804
0.587687
0.00642635
-1.08053
0.586127
0.0033472
-1.08038
0.586857
0.00481463
-1.07769
0.590805
-1.08532
0.580034
-0.000530416
0.211062
-0.00117888
0.211031
-0.00217909
0.210745
-0.000828412
0.210991
0.00460006
0.211517
0.209616
-0.00480937
-1.41247
0.408628
-0.00961649
-1.41287
0.409961
-0.0156929
-1.41237
0.409639
-0.0098619
-1.41174
0.405307
0.0205392
-1.40933
0.398704
-1.41675
0.406642
-6.78832e-05
-1.06634
0.241028
0.000501311
-1.06622
0.240465
0.000472245
-1.06516
0.238944
0.00150627
-1.06429
0.238376
0.00524043
-1.06116
0.238899
-1.06589
0.234413
-0.000961464
0.081815
-0.00200864
0.0817391
-0.00261438
0.0816967
-0.00196071
0.0813346
0.00193152
0.0809613
0.0815131
-0.0135392
-1.2521
0.183171
-0.0216786
-1.24974
0.184232
-0.0294299
-1.24655
0.178903
-0.0234921
-1.23635
0.182083
0.0141695
-1.22273
0.18436
-1.24109
0.186621
-0.00404037
-1.24381
0.236773
-0.00676005
-1.24238
0.235828
-0.0089968
-1.24026
0.234887
-0.00752593
-1.23738
0.237935
0.000960517
-1.23389
0.241578
-1.23629
0.230574
-0.00175671
0.0429929
-0.0030874
0.0429125
-0.00351433
0.0427325
-0.00284129
0.0424727
-0.000133258
0.041713
0.0426783
-0.00711259
-0.811403
0.0769059
-0.0189513
-0.806868
0.0602792
-0.0666374
-0.805366
0.091648
-0.0271832
-0.786926
-0.0495306
0.133558
-0.772137
-0.155246
-0.800671
0.14198
-0.00853909
-0.982431
0.41634
-0.0119264
-0.982387
0.414733
-0.0102548
-0.981977
0.409827
-0.00829939
-0.97835
0.427405
-0.0128595
-0.969856
0.443858
-0.985211
0.402254
-0.000879954
0.128569
-0.00230773
0.128015
-0.00502943
0.127465
-0.00379619
0.123394
0.0070228
0.117561
0.125392
-0.0271047
-1.18638
-0.796243
-0.00587084
-1.1778
-0.838392
-0.0490665
-1.1764
-0.755171
-0.000291046
-1.21466
-1.0029
0.145516
-1.25173
-1.14448
-1.1973
-0.630676
-0.00520429
-1.40962
0.644783
0.00430346
-1.41004
0.637466
0.0251589
-1.40963
0.622199
0.0112876
-1.40633
0.632947
-0.0287967
-1.3912
0.623417
-1.41339
0.589546
-0.00259416
0.198468
-0.00646163
0.197469
-0.0128486
0.19666
-0.00977485
0.193477
0.01017
0.188765
0.190846
0.000650216
-1.56605
-2.44786
0.06613
-1.54032
-2.50523
0.0491387
-1.54757
-2.38242
0.123078
-1.4401
-2.69569
0.0520522
-1.26375
-2.72633
-1.54775
-2.22866
-0.038101
-1.45973
0.576563
-0.067715
-1.4553
0.582052
-0.104231
-1.45783
0.56897
-0.0906199
-1.40173
0.580972
0.0359962
-1.31668
0.549724
-1.45889
0.536673
-0.0106441
0.321483
-0.0243697
0.322949
-0.0580554
0.323404
-0.0397079
0.332447
0.0530174
0.339469
0.314652
0.00784443
-3.33274
0.00584973
-3.36706
0.0183715
-3.25273
0.0188494
-3.43384
-0.0330526
-3.19175
-2.96412
-0.0272095
-2.08658
-0.0733451
-2.10071
-0.0610631
-2.06376
-0.149638
-2.13164
-0.10679
-2.0564
-1.92909
-0.0103282
-0.0322474
-0.024499
-0.08271
-0.0870397
)
;

boundaryField
{
    seabed_topleft_surface
    {
        type            calculated;
        value           uniform 0;
    }
    seabed_topright_surface
    {
        type            calculated;
        value           uniform 0;
    }
    breakwater_top_surface
    {
        type            calculated;
        value           uniform 0;
    }
    breakwater_left_surface
    {
        type            calculated;
        value           uniform 0;
    }
    breakwater_right_surface
    {
        type            calculated;
        value           uniform 0;
    }
    water_front_surface
    {
        type            calculated;
        value           uniform 0;
    }
    water_back_surface
    {