/*--------------------------------*- C++ -*----------------------------------*\
| =========                 |                                                 |
| \\      /  F ield         | OpenFOAM: The Open Source CFD Toolbox           |
|  \\    /   O peration     | Version:  v1612+                                |
|   \\  /    A nd           | Web:      www.OpenFOAM.com                      |
|    \\/     M anipulation  |                                                 |
\*---------------------------------------------------------------------------*/
FoamFile
{
    version     2.0;
    format      ascii;
    class       volScalarField;
    location    "6.35";
    object      alpha.water;
}
// * * * * * * * * * * * * * * * * * * * * * * * * * * * * * * * * * * * * * //

dimensions      [0 0 0 0 0 0 0];

internalField   nonuniform List<scalar> 
320
(
1
1
1
1
1.53737e-05
1.44275e-05
1.30851e-05
1.57191e-05
1.58198e-05
1.61208e-05
1.55114e-05
1.57699e-05
1.67702e-05
1.59634e-05
1.3231e-05
1.70777e-05
0.999984
0.999987
0.999985
0.999985
0.999983
0.999981
0.999979
0.999978
0.999981
0.999984
0.999992
0.999982
1
1
1
1
1
1
1
1
1
1
1
1
1
1
1
1
1
1
1
1
1
1
1
1
1
1
1
1
1.56214e-05
1.72508e-05
1.44612e-05
1.48202e-05
1.1432e-05
1.08397e-05
1.17142e-05
1.1928e-05
1.60172e-05
1.47265e-05
1.33903e-05
1.25526e-05
1.59563e-05
1.33832e-05
1.39568e-05
1.4768e-05
1.37827e-05
1.48894e-05
1.64104e-05
1.52294e-05
0.999984
0.999982
0.999988
0.99998
0.99999
0.999991
0.999991
0.999993
0.999983
0.999985
0.999993
0.999993
0.999982
0.999989
0.999992
0.999993
0.999992
0.999986
0.999986
0.999991
1
1
1
1
1
1
1
1
1
1
1
1
1
1
1
1
1
1
1
1
1
1
1
1
1
1
1
1
1
1
1
1
1
1
1
1
1
1
1
1
1
1
1
1
1
1
1
1
1
1
1
1
1
1
1
1
1
1
1
1
1
1
1
1
1
1
1
1
1
1
1
1
1
1
1
1
1.68363e-05
1.58727e-05
1.49458e-05
1.39639e-05
1.56049e-05
1.50891e-05
1.49713e-05
1.46161e-05
1.53177e-05
1.69876e-05
1.57025e-05
1.52182e-05
1.8123e-05
1.5759e-05
1.53392e-05
1.50834e-05
1.71713e-05
1.52956e-05
1.53429e-05
1.61643e-05
1.74212e-05
1.57961e-05
1.62537e-05
1.52079e-05
1.49202e-05
1.65091e-05
1.67626e-05
1.97637e-05
0.999983
0.999982
0.999982
0.999991
0.999986
0.999985
0.999976
0.999981
0.999988
0.999979
0.99998
0.999984
0.999981
0.999985
0.999984
0.999985
0.999981
0.999983
0.999983
0.999978
0.999981
0.999986
0.999992
0.999986
0.999984
0.99998
0.999981
0.999979
1
1
1
1
1
1
1
1
1
1
1
1
1
1
1
1
1
1
1
1
1
1
1
1
1
1
1
1
1
1
1
1
1
1
1
1
1
1
1
1
1
1
1
1
1
1
1
1
1
1
1
1
1
1
1
1
1
1
1
1
1
1
1
1
1
1
1
1
1
1
1
1
1
1
1
1
1
1
1
1
1
1
1
1
1.60195e-05
1.52697e-05
1.57658e-05
1.3543e-05
0.99998
0.999986
0.999985
0.999985
)
;

boundaryField
{
    top_fluid_surface
    {
        type            inletOutlet;
        inletValue      uniform 0;
        value           nonuniform List<scalar> 
64
(
0
1.44275e-05
1.30851e-05
0
0
0
0
0
0
0
1.3231e-05
0
0
0
1.44612e-05
1.48202e-05
1.1432e-05
1.08397e-05
1.17142e-05
1.1928e-05
0
0
1.33903e-05
1.25526e-05
0
1.33832e-05
1.39568e-05
1.4768e-05
1.37827e-05
1.48894e-05
0
1.52294e-05
0
0
0
1.39639e-05
0
0
0
0
0
0
0
0
0
0
0
0
0
0
1.53429e-05
0
0
0
0
0
1.49202e-05
0
0
0
0
1.52697e-05
0
1.3543e-05
)
;
    }
    bottom_fluid_surface
    {
        type            zeroGradient;
    }
    lateral_surface_1
    {
        type            zeroGradient;
    }
    lateral_surface_2
    {
        type            zeroGradient;
    }
    lateral_surface_3
    {
        type            zeroGradient;
    }
    lateral_surface_4
    {
        type            zeroGradient;
    }
}


// ************************************************************************* //
