/*--------------------------------*- C++ -*----------------------------------*\
| =========                 |                                                 |
| \\      /  F ield         | OpenFOAM: The Open Source CFD Toolbox           |
|  \\    /   O peration     | Version:  v1612+                                |
|   \\  /    A nd           | Web:      www.OpenFOAM.com                      |
|    \\/     M anipulation  |                                                 |
\*---------------------------------------------------------------------------*/
FoamFile
{
    version     2.0;
    format      ascii;
    class       volScalarField;
    location    "6.35";
    object      p;
}
// * * * * * * * * * * * * * * * * * * * * * * * * * * * * * * * * * * * * * //

dimensions      [1 -1 -2 0 0 0 0];

internalField   nonuniform List<scalar> 
320
(
14724.8
14724.8
14724.8
14724.8
4.97978
4.98003
4.97973
4.9802
4.98034
4.97984
4.97986
4.98033
4.97913
4.98023
4.98132
4.98116
4914.88
4914.85
4914.82
4914.89
4914.88
4914.88
4914.86
4914.85
4914.89
4914.89
4914.86
4914.9
14724.8
14724.8
14724.8
14724.8
14724.8
14724.8
14724.8
14724.8
14724.8
14724.8
14724.8
14724.8
24534.8
24534.8
24534.8
24534.8
24534.8
24534.8
24534.8
24534.8
24534.8
24534.8
24534.8
24534.8
24534.8
24534.8
24534.8
24534.8
4.98018
4.97976
4.9801
4.97941
4.97819
4.97904
4.97952
4.97986
4.97932
4.97842
4.97896
4.9792
4.97953
4.97943
4.97907
4.9808
4.98023
4.97802
4.98285
4.98185
4914.89
4914.9
4914.86
4914.82
4914.82
4914.82
4914.83
4914.84
4914.89
4914.88
4914.87
4914.85
4914.88
4914.84
4914.87
4914.88
4914.87
4914.89
4914.91
4914.88
14724.8
14724.8
14724.8
14724.8
14724.8
14724.8
14724.8
14724.8
14724.8
14724.8
14724.8
14724.8
14724.8
14724.8
14724.8
14724.8
14724.8
14724.8
14724.8
14724.8
24534.8
24534.8
24534.8
24534.8
24534.8
24534.8
24534.8
24534.8
24534.8
24534.8
24534.8
24534.8
24534.8
24534.8
24534.8
24534.8
24534.8
24534.8
24534.8
24534.8
34344.8
34344.8
34344.8
34344.8
34344.8
34344.8
34344.8
34344.8
34344.8
34344.8
34344.8
34344.8
34344.8
34344.8
34344.8
34344.8
34344.8
34344.8
34344.8
34344.8
34344.8
34344.8
34344.8
34344.8
34344.8
34344.8
34344.8
34344.8
34344.8
34344.8
34344.8
34344.8
34344.8
34344.8
34344.8
34344.8
4.98118
4.98003
4.97647
4.9811
4.97945
4.97864
4.97763
4.97772
4.97872
4.98016
4.98016
4.97905
4.97939
4.97889
4.97855
4.97837
4.97851
4.9791
4.98049
4.97899
4.97891
4.97888
4.98063
4.98056
4.98151
4.98146
4.98243
4.98393
4914.9
4914.88
4914.87
4914.86
4914.9
4914.89
4914.84
4914.86
4914.9
4914.88
4914.87
4914.88
4914.91
4914.89
4914.88
4914.89
4914.9
4914.88
4914.84
4914.87
4914.9
4914.9
4914.93
4914.89
4914.84
4914.88
4914.89
4914.91
14724.8
14724.8
14724.8
14724.8
14724.8
14724.8
14724.8
14724.8
14724.8
14724.8
14724.8
14724.8
14724.8
14724.8
14724.8
14724.8
14724.8
14724.8
14724.8
14724.8
14724.8
14724.8
14724.8
14724.8
14724.8
14724.8
14724.8
14724.8
24534.8
24534.8
24534.8
24534.8
24534.8
24534.8
24534.8
24534.8
24534.8
24534.8
24534.8
24534.8
24534.8
24534.8
24534.8
24534.8
24534.8
24534.8
24534.8
24534.8
24534.8
24534.8
24534.8
24534.8
24534.8
24534.8
24534.8
24534.8
34344.8
34344.8
34344.8
34344.8
34344.8
34344.8
34344.8
34344.8
34344.8
34344.8
34344.8
34344.8
34344.8
34344.8
34344.8
34344.8
34344.8
34344.8
34344.8
34344.8
34344.8
34344.8
34344.8
34344.8
34344.8
34344.8
34344.8
34344.8
4.98119
4.98072
4.98031
4.97995
4914.87
4914.85
4914.89
4914.82
)
;

boundaryField
{
    top_fluid_surface
    {
        type            calculated;
        value           nonuniform List<scalar> 
64
(
-2.70087e-09
0
0
-1.81559e-10
-5.71386e-10
-5.58331e-09
-8.33247e-10
-4.63995e-11
-2.62231e-08
-3.93203e-09
0
-1.41749e-08
-3.98955e-10
-2.43865e-08
0
0
0
0
0
0
-3.57307e-09
0
0
0
-5.64692e-09
0
0
0
0
0
-8.05186e-10
0
-1.18798e-08
-7.69095e-10
-1.18209e-09
0
-2.91843e-10
-2.78239e-10
-3.4234e-09
0
-1.99214e-10
-1.86914e-08
-4.37183e-09
-4.99195e-10
-3.83249e-08
-1.05865e-09
-2.15217e-09
-7.31059e-10
-3.50856e-08
-6.08445e-10
0
-9.0249e-09
-4.43943e-08
-2.87796e-09
-1.37443e-09
-1.16066e-10
0
-6.06357e-09
-6.85642e-09
-5.9626e-08
-2.59584e-09
0
-2.29463e-11
0
)
;
    }
    bottom_fluid_surface
    {
        type            calculated;
        value           nonuniform List<scalar> 
64
(
39249.8
39249.8
39249.8
39249.8
39249.8
39249.8
39249.8
39249.8
39249.8
39249.8
39249.8
39249.8
39249.8
39249.8
39249.8
39249.8
39249.8
39249.8
39249.8
39249.8
39249.8
39249.8
39249.8
39249.8
39249.8
39249.8
39249.8
39249.8
39249.8
39249.8
39249.8
39249.8
39249.8
39249.8
39249.8
39249.8
39249.8
39249.8
39249.8
39249.8
39249.8
39249.8
39249.8
39249.8
39249.8
39249.8
39249.8
39249.8
39249.8
39249.8
39249.8
39249.8
39249.8
39249.8
39249.8
39249.8
39249.8
39249.8
39249.8
39249.8
39249.8
39249.8
39249.8
39249.8
)
;
    }
    lateral_surface_1
    {
        type            calculated;
        value           nonuniform List<scalar> 
40
(
4.98118
4.98003
4.97647
4.9811
4.97945
4.97864
4.97763
4.98393
4914.9
4914.88
4914.87
4914.86
4914.9
4914.89
4914.84
4914.91
14724.8
14724.8
14724.8
14724.8
14724.8
14724.8
14724.8
14724.8
24534.8
24534.8
24534.8
24534.8
24534.8
24534.8
24534.8
24534.8
34344.8
34344.8
34344.8
34344.8
34344.8
34344.8
34344.8
34344.8
)
;
    }
    lateral_surface_2
    {
        type            calculated;
        value           nonuniform List<scalar> 
40
(
4.97889
4.97855
4.97837
4.97851
4.9791
4.98049
4.97899
4.97891
4914.89
4914.88
4914.89
4914.9
4914.88
4914.84
4914.87
4914.9
14724.8
14724.8
14724.8
14724.8
14724.8
14724.8
14724.8
14724.8
24534.8
24534.8
24534.8
24534.8
24534.8
24534.8
24534.8
24534.8
34344.8
34344.8
34344.8
34344.8
34344.8
34344.8
34344.8
34344.8
)
;
    }
    lateral_surface_3
    {
        type            calculated;
        value           nonuniform List<scalar> 
40
(
4.97763
4.97772
4.97872
4.98016
4.98016
4.97905
4.97939
4.97889
4914.84
4914.86
4914.9
4914.88
4914.87
4914.88
4914.91
4914.89
14724.8
14724.8
14724.8
14724.8
14724.8
14724.8
14724.8
14724.8
24534.8
24534.8
24534.8
24534.8
24534.8
24534.8
24534.8
24534.8
34344.8
34344.8
34344.8
34344.8
34344.8
34344.8
34344.8
34344.8
)
;
    }
    lateral_surface_4
    {
        type            calculated;
        value           nonuniform List<scalar> 
40
(
4.97891
4.97888
4.98063
4.98056
4.98151
4.98146
4.98243
4.98393
4914.9
4914.9
4914.93
4914.89
4914.84
4914.88
4914.89
4914.91
14724.8
14724.8
14724.8
14724.8
14724.8
14724.8
14724.8
14724.8
24534.8
24534.8
24534.8
24534.8
24534.8
24534.8
24534.8
24534.8
34344.8
34344.8
34344.8
34344.8
34344.8
34344.8
34344.8
34344.8
)
;
    }
}


// ************************************************************************* //
