/*--------------------------------*- C++ -*----------------------------------*\
| =========                 |                                                 |
| \\      /  F ield         | OpenFOAM: The Open Source CFD Toolbox           |
|  \\    /   O peration     | Version:  v1612+                                |
|   \\  /    A nd           | Web:      www.OpenFOAM.com                      |
|    \\/     M anipulation  |                                                 |
\*---------------------------------------------------------------------------*/
FoamFile
{
    version     2.0;
    format      ascii;
    class       volScalarField;
    location    "6.35";
    object      p_rgh;
}
// * * * * * * * * * * * * * * * * * * * * * * * * * * * * * * * * * * * * * //

dimensions      [1 -1 -2 0 0 0 0];

internalField   nonuniform List<scalar> 
320
(
-9800.21
-9800.2
-9800.2
-9800.2
-0.000548599
0.00433261
0.0106114
-0.001826
-0.00217848
-0.00414892
-0.0011427
-0.00194003
-0.00804596
-0.00299587
0.011489
-0.00752044
-9799.88
-9799.96
-9799.96
-9799.89
-9799.87
-9799.84
-9799.83
-9799.82
-9799.84
-9799.88
-9800.03
-9799.84
-9800.2
-9800.2
-9800.21
-9800.2
-9800.2
-9800.21
-9800.21
-9800.21
-9800.2
-9800.19
-9800.19
-9800.19
-9800.21
-9800.21
-9800.21
-9800.21
-9800.2
-9800.21
-9800.21
-9800.21
-9800.21
-9800.21
-9800.21
-9800.21
-9800.2
-9800.2
-9800.19
-9800.2
-0.0013684
-0.00977351
0.00423555
0.00178603
0.0171706
0.0209289
0.017119
0.0164164
-0.00416794
0.00125622
0.00834926
0.012688
-0.0036612
0.00884738
0.00567639
0.00343484
0.00769653
5.84393e-05
-0.00256073
0.00222365
-9799.87
-9799.83
-9799.97
-9799.88
-9800.03
-9800.05
-9800.04
-9800.06
-9799.86
-9799.9
-9800.04
-9800.04
-9799.85
-9800
-9800.01
-9800.02
-9800.02
-9799.9
-9799.88
-9799.99
-9800.2
-9800.21
-9800.2
-9800.22
-9800.21
-9800.21
-9800.21
-9800.2
-9800.21
-9800.2
-9800.2
-9800.19
-9800.2
-9800.2
-9800.19
-9800.18
-9800.18
-9800.19
-9800.19
-9800.19
-9800.2
-9800.21
-9800.2
-9800.22
-9800.21
-9800.21
-9800.21
-9800.2
-9800.21
-9800.2
-9800.2
-9800.2
-9800.21
-9800.2
-9800.19
-9800.19
-9800.19
-9800.2
-9800.2
-9800.2
-9800.21
-9800.21
-9800.21
-9800.2
-9800.21
-9800.21
-9800.21
-9800.21
-9800.21
-9800.21
-9800.21
-9800.21
-9800.2
-9800.2
-9800.2
-9800.2
-9800.2
-9800.21
-9800.2
-9800.21
-9800.21
-9800.21
-9800.21
-9800.2
-9800.21
-9800.2
-9800.2
-9800.2
-9800.21
-9800.2
-9800.2
-9800.2
-9800.2
-9800.2
-9800.2
-9800.2
-0.00632118
-0.00274681
-0.00176319
0.00767304
-0.0020104
-0.000299591
-0.000727649
0.00109981
-0.00133725
-0.0080807
-0.00177899
-0.000522182
-0.0144105
-0.00332972
-0.00161255
-0.000535492
-0.0106352
-0.000850854
0.000304904
-0.00522137
-0.0114569
-0.00352268
-0.00401679
0.00103976
0.00340389
-0.00443192
-0.0047124
-0.0179117
-9799.86
-9799.85
-9799.87
-9800
-9799.9
-9799.9
-9799.8
-9799.86
-9799.92
-9799.81
-9799.84
-9799.88
-9799.81
-9799.88
-9799.88
-9799.9
-9799.83
-9799.87
-9799.91
-9799.81
-9799.82
-9799.89
-9799.95
-9799.9
-9799.92
-9799.82
-9799.83
-9799.77
-9800.2
-9800.2
-9800.21
-9800.2
-9800.2
-9800.21
-9800.23
-9800.22
-9800.2
-9800.21
-9800.21
-9800.2
-9800.2
-9800.2
-9800.2
-9800.2
-9800.21
-9800.21
-9800.21
-9800.21
-9800.2
-9800.19
-9800.17
-9800.19
-9800.2
-9800.2
-9800.2
-9800.2
-9800.2
-9800.2
-9800.21
-9800.2
-9800.21
-9800.21
-9800.22
-9800.22
-9800.21
-9800.21
-9800.21
-9800.2
-9800.2
-9800.2
-9800.2
-9800.2
-9800.2
-9800.2
-9800.21
-9800.2
-9800.2
-9800.19
-9800.19
-9800.19
-9800.2
-9800.2
-9800.2
-9800.2
-9800.2
-9800.2
-9800.21
-9800.2
-9800.21
-9800.21
-9800.22
-9800.21
-9800.21
-9800.21
-9800.21
-9800.21
-9800.2
-9800.2
-9800.2
-9800.2
-9800.2
-9800.2
-9800.2
-9800.2
-9800.2
-9800.2
-9800.19
-9800.19
-9800.2
-9800.2
-9800.2
-9800.2
-0.00230966
0.000893545
-0.00194237
0.00858817
-9799.83
-9799.94
-9799.89
-9799.96
)
;

boundaryField
{
    top_fluid_surface
    {
        type            totalPressure;
        rho             rho;
        psi             none;
        gamma           1;
        p0              uniform 0;
        value           nonuniform List<scalar> 
64
(
-2.70087e-09
0
0
-1.81559e-10
-5.71386e-10
-5.58331e-09
-8.33247e-10
-4.63995e-11
-2.62231e-08
-3.93203e-09
0
-1.41749e-08
-3.98955e-10
-2.43865e-08
0
0
0
0
0
0
-3.57307e-09
0
0
0
-5.64692e-09
0
0
0
0
0
-8.05186e-10
0
-1.18798e-08
-7.69095e-10
-1.18209e-09
0
-2.91843e-10
-2.78239e-10
-3.4234e-09
0
-1.99214e-10
-1.86914e-08
-4.37183e-09
-4.99195e-10
-3.83249e-08
-1.05865e-09
-2.15217e-09
-7.31059e-10
-3.50856e-08
-6.08445e-10
0
-9.0249e-09
-4.43943e-08
-2.87796e-09
-1.37443e-09
-1.16066e-10
0
-6.06357e-09
-6.85642e-09
-5.9626e-08
-2.59584e-09
0
-2.29463e-11
0
)
;
    }
    bottom_fluid_surface
    {
        type            fixedFluxPressure;
        gradient        uniform 0;
        value           nonuniform List<scalar> 
64
(
-9800.21
-9800.21
-9800.21
-9800.2
-9800.21
-9800.21
-9800.21
-9800.21
-9800.21
-9800.21
-9800.21
-9800.21
-9800.2
-9800.2
-9800.2
-9800.2
-9800.2
-9800.21
-9800.2
-9800.21
-9800.21
-9800.21
-9800.21
-9800.2
-9800.21
-9800.2
-9800.2
-9800.2
-9800.21
-9800.2
-9800.2
-9800.2
-9800.2
-9800.2
-9800.2
-9800.2
-9800.2
-9800.2
-9800.21
-9800.2
-9800.21
-9800.21
-9800.22
-9800.21
-9800.21
-9800.21
-9800.21
-9800.21
-9800.2
-9800.2
-9800.2
-9800.2
-9800.2
-9800.2
-9800.2
-9800.2
-9800.2
-9800.2
-9800.19
-9800.19
-9800.2
-9800.2
-9800.2
-9800.2
)
;
    }
    lateral_surface_1
    {
        type            fixedFluxPressure;
        gradient        uniform 0;
        value           nonuniform List<scalar> 
40
(
-0.00632118
-0.00274681
-0.00176319
0.00767304
-0.0020104
-0.000299591
-0.000727649
-0.0179117
-9799.86
-9799.85
-9799.87
-9800
-9799.9
-9799.9
-9799.8
-9799.77
-9800.2
-9800.2
-9800.21
-9800.2
-9800.2
-9800.21
-9800.23
-9800.2
-9800.2
-9800.2
-9800.21
-9800.2
-9800.21
-9800.21
-9800.22
-9800.2
-9800.2
-9800.2
-9800.21
-9800.2
-9800.21
-9800.21
-9800.22
-9800.2
)
;
    }
    lateral_surface_2
    {
        type            fixedFluxPressure;
        gradient        uniform 0;
        value           nonuniform List<scalar> 
40
(
-0.00332972
-0.00161255
-0.000535492
-0.0106352
-0.000850854
0.000304904
-0.00522137
-0.0114569
-9799.88
-9799.88
-9799.9
-9799.83
-9799.87
-9799.91
-9799.81
-9799.82
-9800.2
-9800.2
-9800.2
-9800.21
-9800.21
-9800.21
-9800.21
-9800.2
-9800.2
-9800.2
-9800.2
-9800.2
-9800.2
-9800.21
-9800.2
-9800.2
-9800.2
-9800.2
-9800.2
-9800.2
-9800.2
-9800.2
-9800.2
-9800.2
)
;
    }
    lateral_surface_3
    {
        type            fixedFluxPressure;
        gradient        uniform 0;
        value           nonuniform List<scalar> 
40
(
-0.000727649
0.00109981
-0.00133725
-0.0080807
-0.00177899
-0.000522182
-0.0144105
-0.00332972
-9799.8
-9799.86
-9799.92
-9799.81
-9799.84
-9799.88
-9799.81
-9799.88
-9800.23
-9800.22
-9800.2
-9800.21
-9800.21
-9800.2
-9800.2
-9800.2
-9800.22
-9800.22
-9800.21
-9800.21
-9800.21
-9800.2
-9800.2
-9800.2
-9800.22
-9800.21
-9800.21
-9800.21
-9800.21
-9800.21
-9800.2
-9800.2
)
;
    }
    lateral_surface_4
    {
        type            fixedFluxPressure;
        gradient        uniform 0;
        value           nonuniform List<scalar> 
40
(
-0.0114569
-0.00352268
-0.00401679
0.00103976
0.00340389
-0.00443192
-0.0047124
-0.0179117
-9799.82
-9799.89
-9799.95
-9799.9
-9799.92
-9799.82
-9799.83
-9799.77
-9800.2
-9800.19
-9800.17
-9800.19
-9800.2
-9800.2
-9800.2
-9800.2
-9800.2
-9800.19
-9800.19
-9800.19
-9800.2
-9800.2
-9800.2
-9800.2
-9800.2
-9800.2
-9800.19
-9800.19
-9800.2
-9800.2
-9800.2
-9800.2
)
;
    }
}


// ************************************************************************* //
