/*--------------------------------*- C++ -*----------------------------------*\
| =========                 |                                                 |
| \\      /  F ield         | OpenFOAM: The Open Source CFD Toolbox           |
|  \\    /   O peration     | Version:  v1612+                                |
|   \\  /    A nd           | Web:      www.OpenFOAM.com                      |
|    \\/     M anipulation  |                                                 |
\*---------------------------------------------------------------------------*/
FoamFile
{
    version     2.0;
    format      ascii;
    class       surfaceScalarField;
    location    "6.35";
    object      phi;
}
// * * * * * * * * * * * * * * * * * * * * * * * * * * * * * * * * * * * * * //

dimensions      [0 3 -1 0 0 0 0];

internalField   nonuniform List<scalar> 
816
(
-2.35799e-06
-9.51488e-06
2.36293e-06
-8.62531e-06
-1.40018e-05
3.21293e-05
3.51097e-06
5.42345e-06
-2.40378e-06
8.15813e-06
-1.70648e-05
-6.5239e-06
5.14626e-07
2.98003e-06
4.94403e-06
-1.1436e-05
-2.38901e-06
7.19355e-06
9.2979e-06
-1.72506e-05
0.000652135
-0.000546076
1.30924e-05
-0.000148439
0.000101668
0.000553004
-5.05463e-06
-2.03085e-05
-2.36722e-05
-0.000172691
-7.06293e-06
-9.09052e-05
0.00039863
-0.000125737
-1.43091e-06
0.000219605
-0.0002191
-9.33904e-05
-3.20685e-06
0.000275499
-0.00022678
-2.12969e-05
-2.32303e-06
7.80743e-05
4.30434e-05
-0.000139223
-1.63849e-06
-0.000127219
0.000303463
-5.15325e-05
-4.96463e-06
-3.37186e-05
1.22075e-05
0.00012949
1.73085e-05
0.000156055
-3.123e-05
9.44264e-05
-3.10635e-07
-0.000148761
0.000327477
-0.000252967
-1.05409e-05
-0.000138686
5.26276e-05
-3.54626e-06
-0.000136437
-0.000315362
1.83017e-05
1.35165e-06
-2.0827e-05
-1.5544e-06
1.57725e-05
2.37868e-05
-2.60491e-05
1.99546e-06
1.32362e-05
1.3585e-06
-3.9737e-06
-2.75002e-06
2.00832e-05
-4.22341e-06
1.13622e-05
-6.08481e-06
-2.24282e-06
-2.21941e-06
-6.82711e-06
-5.49987e-07
-2.40134e-06
5.77478e-06
-2.59332e-05
3.81104e-06
1.01771e-05
6.47697e-06
-2.29628e-05
-3.61003e-06
2.15138e-05
4.57715e-06
5.61079e-06
-1.8654e-05
2.75442e-06
9.36255e-06
-3.08967e-05
1.38422e-05
2.57576e-05
2.17751e-05
-2.94633e-05
2.58365e-06
1.30463e-05
-4.56718e-06
2.62414e-05
2.64523e-06
-1.18198e-05
-1.35172e-05
3.95809e-06
6.87638e-06
-5.4025e-06
-1.0673e-06
-1.08117e-05
-1.1895e-06
-1.06366e-05
-1.12624e-05
-4.14611e-06
1.11064e-06
-1.74545e-06
-1.7583e-06
-1.22431e-05
2.47843e-06
3.8215e-06
3.74006e-06
-2.64017e-06
-3.95558e-06
-1.49485e-07
-1.3222e-06
-1.23575e-05
-3.50633e-06
-1.13853e-05
-3.57889e-06
-1.01427e-05
-3.37594e-06
-6.36394e-06
3.15817e-06
5.70457e-06
-2.17554e-06
-1.48929e-05
-6.35093e-06
-1.38147e-05
-1.03189e-05
-1.3519e-05
-4.95636e-06
-7.36651e-07
1.17233e-05
-3.6967e-06
-6.95602e-06
-4.72593e-06
-3.56628e-06
-1.56796e-06
-5.76338e-06
2.04335e-06
-4.43802e-06
-4.29406e-06
1.37418e-06
3.88285e-06
-1.50508e-06
2.80655e-06
-3.89254e-06
2.88185e-07
1.85988e-06
7.58796e-07
-8.55869e-07
4.06955e-06
3.54684e-06
-3.35132e-06
-8.825e-07
-9.25549e-07
-3.63155e-06
-6.46783e-06
-2.31016e-06
-1.99434e-06
7.70711e-07
-1.22352e-06
-7.32175e-06
-4.66513e-07
2.13934e-06
1.60141e-06
-6.77658e-07
-1.35637e-06
1.56598e-07
-1.47901e-06
-1.4204e-06
-1.9172e-06
-6.67259e-06
-3.70355e-06
-2.18704e-06
-1.6857e-06
-3.63276e-06
-2.89837e-06
4.02721e-06
1.28537e-07
-8.02002e-07
-4.74572e-06
-7.87604e-06
-4.36996e-06
-5.78862e-06
-2.78644e-06
-3.8961e-06
-1.24072e-07
-1.99005e-06
3.64685e-06
-2.89521e-06
-2.76559e-06
-2.30862e-06
0.000225879
-0.000233823
6.65412e-06
-7.53306e-05
0.000515298
-4.50161e-07
1.4949e-05
0.00040296
-5.71742e-06
-2.54587e-05
0.000380722
-7.29996e-06
-0.000132363
8.70179e-05
-4.33969e-06
-0.000299155
-0.000128087
-0.000189427
-3.17958e-06
-0.00021217
-0.000406015
-3.48835e-06
-0.000290715
-0.000632978
-3.4912e-06
-0.000230748
-0.000348759
-1.29966e-06
-3.56286e-05
0.000183749
1.40843e-05
-0.000346112
-0.00021926
-3.03477e-05
3.00565e-06
-9.95721e-05
-0.000308769
-1.66265e-07
-0.000399348
-0.000147021
1.68668e-06
-6.82508e-05
-0.000239383
2.34033e-07
-0.000139935
0.000104547
2.0114e-06
-0.000271876
-0.000317654
1.59549e-05
-2.31327e-06
-9.06766e-05
-0.000225587
-4.59985e-06
-0.000235115
-0.000308478
-0.000187832
-0.000189564
-0.000165642
-1.83246e-05
-0.000182465
-4.84156e-06
-0.000231495
-0.00026868
-1.31753e-05
3.50347e-06
1.74726e-05
7.40121e-06
6.8029e-06
-1.39498e-05
7.24481e-07
8.5646e-06
-1.33775e-05
1.25566e-05
-1.28293e-06
-1.99402e-06
2.09725e-06
1.53935e-05
3.49054e-05
-2.5165e-05
-2.83825e-05
1.19192e-06
4.41652e-05
-1.17074e-05
-1.11353e-05
3.14096e-05
-3.10187e-05
-3.70087e-05
5.58538e-05
-3.71587e-05
-2.54809e-05
-3.61193e-06
-4.74804e-06
1.7255e-05
-1.15273e-05
-2.28198e-06
-1.37318e-05
1.38513e-06
3.5532e-05
-5.50672e-06
-1.84063e-05
4.2411e-05
-2.68117e-05
4.06252e-06
-3.97246e-05
-7.58163e-06
-5.64418e-08
2.95214e-05
-1.19167e-05
2.16578e-05
2.18107e-05
-2.70889e-05
-1.39723e-05
4.65046e-06
3.02556e-05
1.01734e-05
-1.3223e-05
3.80335e-05
-2.00415e-05
-1.21513e-05
5.63917e-06
-1.22581e-05
-4.76289e-06
-8.29115e-07
-4.11376e-06
3.1476e-05
-1.65683e-05
-1.91117e-05
7.49524e-06
1.23203e-06
8.40731e-06
-4.3567e-06
-5.94523e-07
-7.36074e-06
3.35276e-07
-3.43541e-06
-5.10586e-06
-9.54299e-06
-1.30256e-06
-6.78567e-07
-5.19396e-06
-7.15009e-06
1.687e-05
1.17258e-05
1.21171e-05
1.11735e-06
2.05456e-05
3.07983e-06
5.06259e-06
1.45374e-05
1.66612e-05
1.50471e-05
2.54254e-05
2.02869e-05
8.40685e-06
-2.29965e-06
1.82475e-06
-7.52026e-06
-4.84963e-06
3.11398e-06
6.16325e-06
2.22363e-06
1.58971e-05
-1.50141e-06
1.21453e-05
1.93067e-05
9.79805e-06
-4.01738e-06
-1.79267e-05
5.67548e-08
-3.97272e-06
1.3966e-05
9.16087e-06
-9.93876e-06
1.00726e-05
1.39223e-05
3.78149e-06
7.80195e-07
1.34427e-05
-7.73454e-06
9.39949e-06
1.71089e-05
7.35755e-06
5.2192e-06
2.93142e-06
3.16612e-06
1.8116e-06
-5.79469e-07
-3.04719e-07
1.37355e-05
7.58437e-06
1.32229e-05
4.48652e-06
7.27484e-07
3.00383e-06
-2.69375e-06
-6.30131e-07
-2.35822e-06
-8.00092e-07
-2.66673e-06
2.87209e-07
-5.67924e-06
-9.48012e-07
-4.88582e-07
-3.11788e-06
-3.6597e-06
5.02721e-06
7.13233e-06
7.41662e-06
3.95891e-07
7.35777e-06
1.79871e-06
3.02148e-06
4.62512e-06
8.8945e-06
8.93899e-06
8.10138e-06
1.15554e-05
4.87401e-06
-8.29427e-07
6.70377e-07
-4.66723e-06
-9.71009e-09
1.63801e-06
3.06243e-06
1.02355e-06
4.70599e-06
-1.17229e-06
6.79645e-06
6.34668e-06
5.49965e-06
-2.89057e-06
-4.55328e-06
3.17115e-07
-2.26614e-06
4.24435e-06
4.33968e-06
-4.94486e-06
3.03026e-06
7.2884e-06
2.42471e-06
3.53315e-07
4.89509e-06
-4.64887e-06
5.3304e-06
5.19921e-06
4.19418e-06
3.17325e-06
1.61725e-06
1.4645e-06
1.18793e-06
-1.85357e-07
-1.20188e-06
3.42033e-06
4.67642e-06
7.52578e-06
-1.07406e-07
-2.75351e-06
1.15344e-06
-2.61206e-06
1.56408e-06
5.326e-07
5.57932e-07
-2.73214e-06
-3.70058e-07
1.04987e-06
-6.30773e-07
2.99135e-06
-2.84051e-06
2.83824e-07
4.3917e-08
-2.80626e-06
-1.53235e-06
5.30847e-07
-2.8956e-07
-3.53214e-06
-1.06356e-07
5e-07
-1.33167e-06
-8.89109e-07
-7.84367e-07
-7.32067e-07
-3.52316e-06
-1.02934e-06
-4.11681e-07
-2.17259e-06
8.67909e-07
-1.12174e-06
-1.33747e-06
-4.09185e-06
-2.95177e-06
-1.0475e-06
-3.90479e-07
-1.55752e-06
-1.91753e-06
-5.40759e-07
1.69376e-06
6.69995e-07
-1.30112e-06
-7.94639e-07
1.33747e-07
-1.78336e-07
-1.8788e-06
-9.72789e-08
-8.57777e-07
-1.45685e-06
2.64256e-06
3.74575e-06
8.4441e-07
1.52329e-06
1.73825e-06
4.23352e-06
4.35188e-06
4.60306e-06
1.77643e-06
1.01342e-06
-1.23584e-06
1.00424e-06
2.00079e-06
6.5429e-07
-7.02262e-07
3.46388e-06
3.1276e-06
-5.6835e-07
3.32867e-07
-6.61961e-07
2.97796e-06
-2.26834e-06
3.49163e-06
1.13892e-06
2.86376e-07
-1.77335e-06
2.57871e-06
1.82998e-06
2.27408e-06
3.26358e-07
1.21306e-06
2.89018e-07
2.19969e-06
3.05132e-06
0.000459024
-0.000422412
5.51456e-06
0.000521946
-9.1087e-07
0.000526849
-5.88891e-06
0.000314167
-2.97386e-06
0.000250416
2.19258e-06
-1.99643e-05
-2.13757e-08
7.69146e-05
4.66239e-06
-6.41713e-05
2.80449e-06
-0.000249414
1.17959e-05
-0.000165007
-7.57339e-06
-0.000260481
-4.7316e-06
-0.000260148
2.89648e-06
-3.81385e-05
-3.9666e-07
7.251e-05
1.16532e-06
-4.35503e-05
1.66705e-06
-0.000107982
1.30609e-05
-5.73628e-05
1.59028e-05
-8.81694e-05
5.18373e-06
-0.000223223
-1.19534e-05
-0.000262652
9.69516e-07
0.000250597
9.42588e-06
7.24297e-05
7.3707e-06
0.000105108
7.36606e-06
-0.00010117
-2.48672e-06
-0.000292231
1.00351e-06
-0.000294183
1.14798e-05
-0.000317297
-7.36574e-06
-1.5595e-05
6.74207e-06
-6.50016e-06
-9.61255e-06
4.24522e-06
1.8954e-05
1.64477e-05
-1.19807e-05
-9.60591e-07
3.34942e-05
-1.95538e-05
2.66032e-05
-2.83662e-05
-1.47665e-05
1.95914e-05
-4.13505e-05
1.60523e-05
-1.7396e-05
-9.96861e-06
2.54913e-05
-9.27248e-06
-4.28059e-05
8.81757e-06
-6.2205e-05
1.52869e-05
-8.3713e-06
7.63028e-06
5.05523e-06
-1.23704e-05
2.12382e-05
-4.35968e-06
-1.8715e-05
-3.69032e-06
7.12289e-06
-6.45874e-07
-1.62927e-05
2.36389e-06
-6.86934e-06
-9.23268e-06
-1.70572e-05
-1.41685e-05
-2.03045e-05
3.11738e-05
-3.58637e-05
1.33849e-05
1.12462e-05
-7.6653e-06
3.7743e-05
-1.89221e-06
-2.40936e-05
-3.93565e-06
3.36722e-07
-4.51676e-06
9.56621e-06
2.18926e-07
-2.90264e-05
-2.82592e-05
-6.86238e-06
1.00868e-05
-5.26004e-06
-1.40281e-06
9.13896e-06
-8.2541e-06
-4.80927e-06
5.14398e-07
1.51856e-05
1.04981e-05
1.14389e-05
1.39222e-05
-6.47254e-06
-9.34387e-06
-1.80695e-05
-5.5708e-06
-9.04679e-06
1.25614e-05
1.04635e-05
4.38613e-06
-1.7972e-05
-9.98851e-06
-2.75477e-05
-1.20538e-05
-4.48069e-06
-6.01831e-06
2.14123e-06
5.5193e-06
9.7139e-06
1.18928e-06
-8.23237e-06
3.09066e-06
3.7259e-06
4.52533e-06
-7.90306e-06
1.68796e-06
-4.00721e-06
1.2538e-06
-7.47603e-06
2.93313e-06
-8.07019e-06
-1.64428e-05
-1.64793e-05
-6.68136e-06
5.26111e-06
6.94532e-06
1.64049e-05
1.02607e-06
-1.0741e-05
3.37103e-06
1.19697e-06
7.88953e-06
4.74996e-06
5.02809e-06
-1.29557e-05
-1.31439e-05
-4.35349e-06
5.58834e-06
-1.81988e-06
-1.20515e-06
3.32603e-06
-4.62051e-06
-2.20486e-06
2.12871e-07
4.64015e-06
6.13086e-06
2.38845e-06
7.51495e-06
-7.47245e-07
-5.18256e-06
-5.36832e-06
-3.49177e-06
-3.31494e-06
6.37172e-06
2.38092e-06
3.29865e-06
-6.0046e-06
-5.37483e-06
-7.32188e-06
-6.77214e-06
-2.41958e-06
-3.89771e-06
8.77306e-07
3.35315e-06
2.47047e-06
6.62626e-07
-2.46911e-06
1.97283e-06
1.23234e-06
2.14403e-06
-2.57525e-06
2.10528e-07
-1.75277e-06
5.0957e-07
-3.44404e-06
2.15613e-06
-2.43993e-06
-9.2831e-06
-5.04114e-06
-3.18206e-06
1.55851e-06
4.04542e-06
4.48217e-06
3.0621e-07
-2.7887e-06
1.82282e-06
1.16012e-06
5.06029e-06
2.76886e-07
3.17139e-06
-3.57469e-06
-4.41443e-06
-2.51575e-06
2.87931e-06
-5.20349e-07
-2.59199e-06
1.66871e-07
1.6945e-06
3.57543e-06
-1.79766e-06
-1.35844e-06
2.54119e-06
7.68921e-07
-1.9502e-06
-3.34729e-06
-1.48238e-06
9.79681e-07
5.19486e-07
1.05082e-06
1.60711e-06
1.90224e-07
-2.83736e-07
7.43619e-07
-4.30407e-06
-1.61662e-06
1.06009e-06
8.81469e-08
1.56709e-06
2.11098e-06
1.55522e-06
0.000188421
0.000132657
-7.79895e-06
-0.000125823
-6.05586e-06
0.000474508
-1.85035e-06
-5.27859e-07
8.23285e-06
2.055e-05
-7.38679e-06
1.59367e-05
)
;

boundaryField
{
    top_fluid_surface
    {
        type            calculated;
        value           nonuniform List<scalar> 
64
(
-8.72692e-05
0.000152418
0.000431255
-5.20796e-05
-6.81943e-05
-0.000184592
-5.92394e-05
-3.78572e-05
-0.000382975
-0.000143816
0.000509218
-0.000326367
-6.32115e-05
-0.000421028
0.000145618
7.28247e-05
0.00072106
0.000892428
0.00073198
0.000743956
-0.000166834
4.23656e-06
0.000357984
0.000557236
-0.000164747
0.000387949
0.000239698
0.000178427
0.000361808
1.71848e-05
-0.000114834
0.00012002
-0.000282301
-0.000102356
-9.07999e-05
0.000317541
-7.12497e-05
-3.15806e-05
-0.000103987
9.94688e-07
-4.54353e-05
-0.000347337
-0.000125815
-4.32814e-05
-0.000559642
-0.000111916
-0.000100356
-5.10926e-05
-0.000472769
-4.89913e-05
3.25021e-05
-0.000240101
-0.000525276
-0.000147222
-0.000131016
-4.07361e-06
9.47042e-05
-0.000206037
-0.000215955
-0.000688492
-0.000120357
8.51547e-05
-3.35308e-05
0.00039606
)
;
    }
    bottom_fluid_surface
    {
        type            calculated;
        value           uniform 0;
    }
    lateral_surface_1
    {
        type            calculated;
        value           uniform 0;
    }
    lateral_surface_2
    {
        type            calculated;
        value           uniform 0;
    }
    lateral_surface_3
    {
        type            calculated;
        value           uniform 0;
    }
    lateral_surface_4
    {
        type            calculated;
        value           uniform 0;
    }
}


// ************************************************************************* //
