/*--------------------------------*- C++ -*----------------------------------*\
| =========                 |                                                 |
| \\      /  F ield         | OpenFOAM: The Open Source CFD Toolbox           |
|  \\    /   O peration     | Version:  v1612+                                |
|   \\  /    A nd           | Web:      www.OpenFOAM.com                      |
|    \\/     M anipulation  |                                                 |
\*---------------------------------------------------------------------------*/
FoamFile
{
    version     2.0;
    format      ascii;
    class       volScalarField;
    location    "6.9";
    object      p;
}
// * * * * * * * * * * * * * * * * * * * * * * * * * * * * * * * * * * * * * //

dimensions      [1 -1 -2 0 0 0 0];

internalField   nonuniform List<scalar> 
1116
(
16925.3
16925.2
16925.2
16925.3
16925.2
16925.3
15752.9
15753
15753
15752.9
15752.9
15752.9
13597.1
13597.3
13597.3
13597.2
13597.2
13597.2
10943.5
10943.6
10943.5
10943.6
10943.8
10943.1
8678.95
8679.6
8679
8679.51
8679.19
8678.93
6932.37
6935.63
6934.32
6933.82
6931.42
6935.87
5925.01
5921.62
5922.43
5924.13
5927.73
5920.86
5630.96
5628.13
5629.88
5629.41
5633.16
5627.05
5725.21
5720.26
5722.48
5724.16
5726.8
5720.38
5908.02
5911.37
5910.24
5909.1
5903.44
5918.41
6312.99
6318.53
6321.02
6307.92
6304.57
6323.76
6534.05
6529.6
6535.29
6529.89
6537.97
6528.26
10634.5
10634.6
10634.5
10634.5
10634.5
10634.5
7727.87
7728.65
7728.36
7728.17
7728.27
7728.26
5021.53
5022.19
5022.19
5021.71
5021.57
5022.19
2825.2
2825.76
2825.2
2825.46
2825.77
2824.58
1500.25
1500.12
1499.95
1500.33
1500.61
1499.53
902.324
899.927
900.661
901.132
904.311
899.919
617.905
619.424
618.479
617.619
617.728
622.06
668.543
666.123
666.177
668.965
669.932
666.139
968.392
969.276
969.663
968.625
967.842
972.401
1169.4
1171.7
1171.08
1169.75
1166.68
1176.52
1403.27
1407.58
1406.46
1401.68
1397.52
1408.4
1535.51
1534.62
1535.53
1533.01
1532.79
1531
4934.37
4934.56
4934.53
4934.31
4934.28
4934.39
1308.41
1308.93
1308.99
1308.35
1308.38
1309.07
511.334
511.7
511.88
511.104
511.095
511.825
38.6716
37.2143
37.6955
37.9309
38.2852
37.1445
-43.241
-45.7179
-44.8406
-44.1861
-43.6007
-45.4051
73.0415
70.4349
71.149
72.6056
75.1784
68.7624
179.065
177.994
178.068
179.146
179.447
177.298
152.31
155.688
154.253
153.306
150.771
156.754
158.43
158.974
158.63
158.819
157.942
161.068
145.155
146.607
145.74
145.318
143.272
147.97
246.927
249.163
246.884
247.722
244.347
248.143
237.435
239.05
237.473
238.364
235.389
239.282
2115.6
2115.22
2115.27
2115.27
2115.04
2115.17
-75.7608
-76.3496
-76.0297
-76.1072
-76.1067
-76.0095
-42.7045
-43.159
-42.952
-43.0174
-43.0904
-42.9799
-78.8282
-79.0669
-79.0585
-79.1063
-79.182
-79.136
-67.0941
-67.5353
-67.3893
-67.3445
-66.7892
-67.9607
-16.0705
-16.4531
-16.3243
-16.5336
-16.6083
-17.458
38.8592
40.3037
39.8656
39.3411
38.2787
40.2114
23.6658
24.9136
24.4389
23.8837
22.4179
23.9363
5.69518
6.01781
6.007
5.82309
5.35011
6.5065
4.61154
4.56444
4.56894
4.5488
4.54444
4.50136
14.2664
14.9623
14.5689
14.5155
13.9519
14.8304
-77.3751
-78.1306
-77.3634
-77.5621
-76.5762
-77.6987
2206.23
2241.66
2241.16
2291.53
2301.56
2222.43
1867.77
1757.55
1928.91
1779.7
1796.23
1732.07
1272.01
1157.67
1273.9
1145.46
1221.74
1280.58
722.136
654.608
708.255
597.423
691.916
800.1
436.383
442.049
454.898
455.462
434.464
504.937
391.536
413.712
421.465
423.744
403.844
412.613
369.41
350.164
360.587
323.269
327.157
315.344
379.684
355.5
316.601
250.108
246.347
269.146
380.636
369.359
309.959
312.124
324.12
321.424
417.672
397.597
369.662
438.353
486.604
404.899
701.962
704.194
694.973
772.747
777.447
799.001
731.817
761.498
811.136
849.368
924.333
912.571
1219.97
1281.11
1237.65
1321.17
1227.28
1201.29
447.931
322.312
407.22
338.844
365.258
396.824
64.0686
62.038
70.8342
53.9337
58.0381
57.3682
-17.9519
-42.4328
-43.7167
-33.6439
-22.8643
-34.7532
-43.6474
-52.6552
-46.1804
-46.8421
-42.6461
-39.7694
-38.3682
-34.5163
-31.7773
-29.5827
-26.9997
-17.7125
-26.506
-26.6048
-27.9776
-23.3459
-16.104
-6.32077
-15.2376
-16.3393
-16.9917
-22.2385
-28.2639
-16.4284
0.73502
-4.02354
-4.30954
-11.1465
-21.1238
-16.6266
8.7729
7.70405
9.43808
8.17478
4.50827
-7.14483
72.3437
53.8321
51.2891
88.0654
111.559
63.2783
212.326
143.882
88.4825
241.984
293.015
300.777
513.415
461.407
489.07
456.26
373.793
464.432
44.9393
44.5887
37.444
17.0354
11.4804
28.1498
-16.4435
-6.89646
-13.7413
-11.0918
-12.4615
-12.7806
-25.976
-26.8621
-26.414
-24.6462
-24.7503
-22.2135
-20.4996
-22.9316
-19.0671
-20.2754
-16.9108
-15.8349
-24.6689
-25.037
-23.4161
-22.8916
-21.2876
-21.6524
-28.8656
-27.5443
-28.5628
-28.6328
-24.1221
-24.4355
-26.7793
-25.273
-23.029
-28.4233
-27.6895
-26.559
-16.5755
-15.8667
-15.5456
-20.7629
-23.9118
-23.5955
-23.4831
-24.6352
-24.9954
-30.6151
-27.718
-30.0386
-14.3592
-15.1092
-15.8646
-15.2314
-13.1181
-17.4826
-42.9926
-34.635
-39.2005
-34.5378
-23.5436
-28.5006
214.032
210.772
190.359
213.76
148.26
174.868
-17.6442
-10.6678
-20.469
-26.0757
-34.6261
-26.2353
-15.1685
-13.2799
-13.6177
-13.7664
-14.8631
-14.9963
-34.6251
-34.6016
-36.6728
-35.4079
-36.3439
-36.0873
-35.2279
-35.0858
-34.9296
-34.2889
-34.0186
-34.0781
-40.5708
-41.0268
-41.3268
-40.0736
-39.4795
-40.9297
-40.6597
-40.5044
-40.2933
-39.9967
-36.5734
-36.3555
-36.517
-36.0964
-34.9419
-37.4878
-34.933
-35.2174
-27.7137
-27.3657
-26.8675
-28.7956
-30.0959
-30.7019
-33.6835
-33.8025
-34.066
-33.9188
-33.5228
-34.8137
-25.3896
-20.5048
-21.2706
-24.4981
-27.4739
-28.1512
-64.4919
-65.8234
-73.3856
-97.2842
-124.542
-90.5865
1814.78
1817.3
1816.1
1815.64
1815.73
1815.02
522.646
522.399
521.13
520.381
519.747
518.945
-228.629
-227.664
-228.309
-228.092
-228.039
-228.93
-59.4629
-60.3356
-59.8386
-60.0366
-60.2848
-59.3176
-86.1064
-86.0716
-86.2838
-85.8966
-85.7445
-86.2412
-172.043
-165.502
-169.22
-168.144
-166.509
-171.863
-54.3654
-54.566
-54.4535
-54.5928
-54.65
-54.4659
-46.9403
-47.0243
-47.0777
-47.2087
-47.3242
-47.0744
-66.3143
-66.7299
-66.5189
-66.3337
-66.1711
-66.5296
-99.9789
-99.6862
-99.7667
-100.025
-100.049
-99.9253
-90.6967
-90.7302
-90.6453
-91.3322
-91.8164
-90.901
-82.5903
-83.4644
-82.9631
-83.8324
-85.1212
-83.4525
-85.0339
-85.5523
-85.5604
-85.5522
-85.2784
-86.3991
-89.3449
-89.6938
-89.4064
-89.8948
-90.3396
-89.3036
-102.057
-101.81
-100.902
-102.554
-103.665
-99.2288
-54.739
-54.9373
-55.1438
-55.2418
-55.6915
-56.4664
-77.4232
-77.5985
-77.8137
-77.8123
-78.4728
-78.1248
-126.989
-127.044
-126.819
-126.176
-126.034
-124.203
-32.1802
-31.7225
-32.1256
-32.1113
-33.0121
-31.7152
-51.8881
-51.9352
-52.1528
-52.5153
-53.055
-52.3417
-92.4162
-92.4078
-92.4197
-92.4478
-92.6319
-91.7589
-28.5403
-28.3547
-28.4518
-28.4994
-28.6423
-27.6382
-50.5391
-50.6014
-50.7121
-50.6314
-50.7115
-50.5694
-75.21
-75.4067
-75.4603
-75.2993
-75.2962
-75.5819
-23.2988
-23.3518
-23.3945
-23.3806
-23.2532
-23.5154
-43.7061
-43.6932
-43.7252
-43.7453
-43.7476
-43.7528
-64.7616
-64.7865
-64.7922
-64.7848
-64.7877
-64.783
-24.4482
-24.6117
-24.5332
-24.3992
-24.2055
-24.6513
-47.0127
-47.0034
-47.0072
-47.0072
-47.0152
-47.0018
-63.7623
-63.764
-63.7629
-63.7465
-63.749
-63.7514
-39.231
-39.1624
-39.0804
-39.1745
-39.193
-39.0794
-53.9563
-53.9464
-53.9438
-53.9562
-53.967
-53.9418
-65.5028
-65.4986
-65.4951
-65.49
-65.4911
-65.4855
11.5294
10.1514
10.3386
10.823
11.7315
10.0044
-50.8876
-50.8877
-50.8965
-50.8825
-50.8819
-50.8956
-71.9797
-71.9294
-71.926
-71.9281
-71.9527
-71.9165
228.436
228.814
228.352
226.323
220.981
226.108
-47.5061
-47.3393
-47.2867
-47.4554
-47.618
-47.4657
-71.8779
-71.8617
-71.8101
-71.9476
-71.9358
-72.0174
253.004
252.524
253.291
256.882
259.247
255.99
-51.1537
-51.1011
-51.0747
-51.0192
-50.955
-50.9306
-70.3095
-70.3279
-70.3403
-70.3693
-70.3278
-70.3171
264.443
264.842
265.321
265.676
265.667
265.472
-49.6573
-49.635
-49.6199
-49.6559
-49.6553
-49.6521
-69.4472
-69.4545
-69.4593
-69.4705
-69.4742
-69.4778
263.349
263.607
263.984
264.362
264.431
264.363
-50.2336
-50.2353
-50.2407
-50.2435
-50.242
-50.2306
-69.4187
-69.4263
-69.4357
-69.4384
-69.4298
-69.427
257.172
257.382
257.753
257.981
257.986
258.017
-49.6644
-49.6536
-49.6418
-49.6311
-49.6222
-49.6265
-70.3238
-70.3307
-70.34
-70.3509
-70.3538
-70.3487
218.959
218.366
218.266
218.251
218.176
218.145
-47.5578
-47.5571
-47.5532
-47.5395
-47.5276
-47.5418
-72.4672
-72.4684
-72.475
-72.4812
-72.4893
-72.4834
145.697
138.649
117.941
156.377
93.4431
122.172
-167.603
58.568
-105.142
-74.0755
-4.73221
-142.643
-183.911
-158.832
-176.652
-165.697
-125.196
-162.601
-45.9913
-43.1662
-48.0579
-50.5744
-59.8284
-48.7748
-69.0897
-75.405
-90.2904
-80.628
-81.5611
-67.6927
-93.4297
-107.478
-116.661
-105.812
-95.5098
-86.7614
-32.0793
-32.6029
-31.1839
-32.3154
-34.6569
-33.875
-46.9628
-45.8806
-46.887
-46.6636
-46.304
-47.5475
-63.4933
-62.5925
-62.9015
-62.7422
-62.0424
-64.0516
-44.1354
-45.0381
-45.2009
-45.4767
-45.7923
-45.1905
-58.5644
-59.1224
-59.3893
-59.084
-58.3581
-58.53
-70.0134
-70.7169
-71.175
-70.7974
-69.6763
-69.7169
-39.0297
-39.1319
-38.864
-38.7021
-38.611
-38.3634
-53.6747
-53.564
-53.5743
-53.6017
-53.636
-53.6351
-62.4311
-62.3971
-62.3464
-62.3017
-62.2098
-62.2682
-41.3396
-41.2392
-41.3735
-41.4403
-41.2335
-40.758
-55.1785
-55.1129
-55.1729
-55.3076
-55.3703
-55.2919
-62.8155
-62.7804
-62.8
-62.8788
-62.8686
-62.8645
-39.5198
-39.7493
-40.0363
-40.0448
-40.0348
-39.9172
-52.9885
-52.5198
-52.3355
-52.9332
-53.311
-53.2817
-61.6794
-61.6183
-61.5502
-61.6581
-61.6871
-61.7363
-40.6544
-40.9603
-41.3132
-41.2316
-41.1026
-40.6275
-54.0584
-53.8665
-54.0187
-53.9711
-53.9801
-54.1209
-61.427
-61.2981
-61.1318
-61.2927
-61.4629
-61.5521
-34.7344
-35.5672
-36.9418
-36.8582
-38.1059
-37.2165
-55.1233
-55.4879
-55.8445
-55.1252
-54.6197
-54.6587
-60.6001
-60.5288
-60.5267
-60.6553
-60.7623
-60.8361
-38.792
-39.3373
-40.5299
-40.2977
-40.3331
-40.075
-57.3665
-57.3639
-57.3273
-57.3036
-56.8622
-57.1759
-60.7579
-60.7422
-60.7899
-60.7493
-60.8589
-60.827
-44.2427
-45.9367
-46.9294
-46.6885
-46.5442
-45.843
-59.2183
-59.2714
-59.3007
-58.9105
-58.3783
-58.3939
-61.8225
-61.8862
-62.0496
-62.2818
-62.4576
-62.4441
-7.09651
-7.93456
-7.63818
-14.8922
-24.0189
-9.946
-58.1163
-57.8365
-57.3761
-57.0042
-55.8148
-56.6282
-73.3783
-73.5537
-73.3304
-72.7568
-71.4929
-72.4409
)
;

boundaryField
{
    seabed_topleft_surface
    {
        type            calculated;
        value           nonuniform List<scalar> 
72
(
20285.1
20285.1
20285.1
20285.2
20285.1
20285.2
20374.6
20375.1
20374.8
20374.7
20374.8
20374.8
18393.1
18393.4
18393.4
18393.2
18393.2
18393.3
15739.6
15739.6
15739.5
15739.6
15739.8
15739.1
13475
13475.6
13475
13475.5
13475.2
13474.9
11442.5
11445.1
11443.7
11444.5
11442.4
11444.9
10239.1
10235.9
10236.6
10238.7
10241.9
10235
9847.17
9844.79
9847.01
9845.48
9848.7
9844.14
9887.82
9882.47
9885.7
9886.08
9888.49
9883.34
10033.7
10035.3
10035.5
10034
10029.5
10042.7
10431.2
10435.2
10438.9
10425.4
10423.1
10440.8
10649.3
10644.2
10650.5
10645
10653.6
10642.8
)
;
    }
    seabed_topright_surface
    {
        type            calculated;
        value           nonuniform List<scalar> 
72
(
2662.76
2698.2
2697.75
2748.14
2758.19
2679.04
2324.29
2214
2385.47
2236.31
2252.83
2188.68
1728.43
1374.03
1567.17
1477.52
1678.3
1737.18
986.82
788.429
965.028
706.27
1009.97
1256.65
614.27
821.772
834.873
825.369
721.529
925.77
754.538
792.391
804.441
811.693
795.052
808.519
750.57
703.715
721.311
614.755
684.31
592.73
761.204
723.288
637.988
489.288
560.562
413.732
762.578
750.034
615.791
643.91
670.971
509.03
799.615
778.303
714.249
821.431
879.458
795.009
1076.51
1041.54
1061.15
1170.94
1179.85
1198.12
952.391
997.89
1187.98
1233.19
1326.74
1179.33
)
;
    }
    breakwater_top_surface
    {
        type            calculated;
        value           nonuniform List<scalar> 
36
(
523.228
522.548
521.365
519.42
511.956
520.073
561.548
559.902
561.591
569.956
575.821
567.3
581.692
582.571
583.601
584.316
584.352
583.88
579.953
580.563
581.392
582.13
582.197
582.058
572.174
572.707
573.493
574.002
573.978
574.056
511.207
510.039
509.884
509.86
509.794
509.682
)
;
    }
    breakwater_left_surface
    {
        type            calculated;
        value           nonuniform List<scalar> 
24
(
6548.15
6543.69
6549.39
6543.98
6552.07
6542.35
1539.41
1538.47
1539.41
1536.9
1536.72
1534.85
237.874
239.502
237.921
238.8
235.811
239.729
-76.9197
-77.6733
-76.908
-77.1095
-76.1258
-77.2477
)
;
    }
    breakwater_right_surface
    {
        type            calculated;
        value           nonuniform List<scalar> 
24
(
732.572
762.307
812.426
850.682
925.711
913.485
213.136
144.644
88.9217
243.015
294.366
301.959
-42.6582
-34.6188
-39.1841
-34.5215
-23.1633
-28.4842
-64.4536
-65.709
-73.2262
-97.1423
-124.392
-90.5011
)
;
    }
    water_front_surface
    {
        type            calculated;
        value           nonuniform List<scalar> 
186
(
16925.3
15752.9
13597.1
10943.5
8678.95
6932.37
5925.01
5630.96
5725.21
5908.02
6312.99
6534.05
10634.5
7727.87
5021.53
2825.2
1500.25
902.324
617.905
668.543
968.392
1169.4
1403.27
1535.51
4934.37
1308.41
511.334
38.6716
-43.241
73.0415
179.065
152.31
158.43
145.155
246.927
237.435
2115.6
-75.7608
-42.7045
-78.8282
-67.0941
-16.0705
38.8592
23.6658
5.69518
4.61154
14.2664
-77.3751
2206.23
1867.77
1272.01
722.136
436.383
391.536
369.41
379.684
380.636
417.672
701.962
731.817
1219.97
447.931
64.0686
-17.9519
-43.6474
-38.3682
-26.506
-15.2376
0.73502
8.7729
72.3437
212.326
513.415
44.9393
-16.4435
-25.976
-20.4996
-24.6689
-28.8656
-26.7793
-16.5755
-23.4831
-14.3592
-42.9926
214.032
-17.6442
-15.1685
-34.6251
-35.2279
-40.5708
-40.6597
-36.517
-27.7137
-33.6835
-25.3896
-64.4919
1814.78
522.646
-228.629
-59.4629
-86.1064
-172.043
-54.3654
-46.9403
-66.3143
-99.9789
-90.6967
-82.5903
-85.0339
-89.3449
-102.057
-54.739
-77.4232
-126.989
-32.1802
-51.8881
-92.4162
-28.5403
-50.5391
-75.21
-23.2988
-43.7061
-64.7616
-24.4482
-47.0127
-63.7623
-39.231
-53.9563
-65.5028
11.5294
-50.8876
-71.9797
228.436
-47.5061
-71.8779
253.004
-51.1537
-70.3095
264.443
-49.6573
-69.4472
263.349
-50.2336
-69.4187
257.172
-49.6644
-70.3238
218.959
-47.5578
-72.4672
145.697
-167.603
-183.911
-45.9913
-69.0897
-93.4297
-32.0793
-46.9628
-63.4933
-44.1354
-58.5644
-70.0134
-39.0297
-53.6747
-62.4311
-41.3396
-55.1785
-62.8155
-39.5198
-52.9885
-61.6794
-40.6544
-54.0584
-61.427
-34.7344
-55.1233
-60.6001
-38.792
-57.3665
-60.7579
-44.2427
-59.2183
-61.8225
-7.09651
-58.1163
-73.3783
)
;
    }
    water_back_surface
    {
        type            calculated;
        value           nonuniform List<scalar> 
186
(
16925.3
15752.9
13597.2
10943.1
8678.93
6935.87
5920.86
5627.05
5720.38
5918.41
6323.76
6528.26
10634.5
7728.26
5022.19
2824.58
1499.53
899.919
622.06
666.139
972.401
1176.52
1408.4
1531
4934.39
1309.07
511.825
37.1445
-45.4051
68.7624
177.298
156.754
161.068
147.97
248.143
239.282
2115.17
-76.0095
-42.9799
-79.136
-67.9607
-17.458
40.2114
23.9363
6.5065
4.50136
14.8304
-77.6987
2222.43
1732.07
1280.58
800.1
504.937
412.613
315.344
269.146
321.424
404.899
799.001
912.571
1201.29
396.824
57.3682
-34.7532
-39.7694
-17.7125
-6.32077
-16.4284
-16.6266
-7.14483
63.2783
300.777
464.432
28.1498
-12.7806
-22.2135
-15.8349
-21.6524
-24.4355
-26.559
-23.5955
-30.0386
-17.4826
-28.5006
174.868
-26.2353
-14.9963
-36.0873
-34.0781
-40.9297
-36.3555
-35.2174
-30.7019
-34.8137
-28.1512
-90.5865
1815.02
518.945
-228.93
-59.3176
-86.2412
-171.863
-54.4659
-47.0744
-66.5296
-99.9253
-90.901
-83.4525
-86.3991
-89.3036
-99.2288
-56.4664
-78.1248
-124.203
-31.7152
-52.3417
-91.7589
-27.6382
-50.5694
-75.5819
-23.5154
-43.7528
-64.783
-24.6513
-47.0018
-63.7514
-39.0794
-53.9418
-65.4855
10.0044
-50.8956
-71.9165
226.108
-47.4657
-72.0174
255.99
-50.9306
-70.3171
265.472
-49.6521
-69.4778
264.363
-50.2306
-69.427
258.017
-49.6265
-70.3487
218.145
-47.5418
-72.4834
122.172
-142.643
-162.601
-48.7748
-67.6927
-86.7614
-33.875
-47.5475
-64.0516
-45.1905
-58.53
-69.7169
-38.3634
-53.6351
-62.2682
-40.758
-55.2919
-62.8645
-39.9172
-53.2817
-61.7363
-40.6275
-54.1209
-61.5521
-37.2165
-54.6587
-60.8361
-40.075
-57.1759
-60.827
-45.843
-58.3939
-62.4441
-9.946
-56.6282
-72.4409
)
;
    }
    water_left_surface
    {
        type            calculated;
        value           nonuniform List<scalar> 
42
(
16936.8
16936.7
16936.7
16936.8
16936.8
16936.8
10647.1
10647.2
10647.1
10647.2
10647.1
10647.1
4946.75
4946.93
4946.9
4946.68
4946.65
4946.76
2127.73
2127.34
2127.4
2127.39
2127.17
2127.3
1814.78
1817.3
1816.1
1815.64
1815.73
1815.02
522.646
522.399
521.13
520.381
519.747
518.945
-228.629
-227.664
-228.309
-228.092
-228.039
-228.93
)
;
    }
    water_right_surface
    {
        type            calculated;
        value           nonuniform List<scalar> 
42
(
2207.8
2243.22
2242.72
2293.09
2303.13
2223.99
1221.51
1282.33
1239.18
1322.7
1228.81
1202.82
514.895
462.883
490.425
457.013
374.791
465.933
215.452
212.22
191.807
214.455
148.933
176.339
145.697
138.649
117.941
156.377
93.4431
122.172
-167.603
58.568
-105.142
-74.0755
-4.73221
-142.643
-183.911
-158.832
-176.652
-165.697
-125.196
-162.601
)
;
    }
    water_top_surface
    {
        type            calculated;
        value           nonuniform List<scalar> 
180
(
-371.323
-365.674
-368.768
-370.295
-369.537
-371.885
-369.034
-357.767
-363.943
-364.066
-361.832
-366.511
-68.9902
-68.67
-68.73
-68.6885
-68.67
-68.9871
-71.5983
-70.6785
-70.1446
-72.69
-76.3125
-70.0745
-128.411
-121.034
-118.362
-128.746
-130.365
-112.5
-135.538
-135.086
-134.633
-134.267
-130.212
-132.544
-83.7302
-83.0941
-82.8954
-84.1615
-85.5956
-81.2674
-84.5454
-84.7925
-84.7834
-84.5987
-84.5362
-84.8515
-74.2877
-74.3068
-74.3116
-74.2753
-74.2691
-74.3069
-72.006
-72.0041
-72.0094
-71.9972
-72.0183
-71.9907
-72.6889
-72.6894
-72.6922
-72.6866
-72.7016
-72.6782
-70.9908
-71.0094
-71.0109
-71.0056
-71.0043
-71.008
-69.0127
-68.9902
-68.9762
-69.0232
-69.0964
-69.0239
-70.4663
-70.5028
-70.5254
-70.5191
-70.5194
-70.4675
-69.9549
-69.9438
-69.9278
-69.9161
-69.9053
-69.9081
-70.2355
-70.2429
-70.2451
-70.2437
-70.2462
-70.2362
-70.5777
-70.5833
-70.5827
-70.5797
-70.5836
-70.5767
-69.7485
-69.7435
-69.742
-69.7409
-69.7406
-69.7363
-2431.5
-184.838
-385.464
-345.404
-107.486
-2609.5
-68.6701
-182.319
-232.301
-177.99
-107.028
-68.6701
-68.67
-68.6701
-68.6702
-68.6701
-68.67
-68.67
-72.0357
-72.2756
-72.4381
-72.5443
-72.2815
-72.5342
-68.7704
-68.7696
-68.7794
-68.77
-68.7763
-68.7683
-69.0759
-69.0624
-69.0841
-69.1326
-69.1604
-69.1333
-68.67
-68.67
-68.67
-68.67
-68.67
-68.67
-68.67
-68.67
-68.67
-68.67
-68.67
-68.67
-68.67
-68.67
-68.6752
-68.6807
-68.6867
-68.6883
-68.9717
-69.0152
-69.0491
-69.0603
-69.1101
-69.0843
-69.9859
-70.0834
-70.2017
-70.2781
-70.4953
-70.2575
-70.7745
-70.5437
-70.0539
-70.204
-70.4853
-70.5391
)
;
    }
}


// ************************************************************************* //
