/*--------------------------------*- C++ -*----------------------------------*\
| =========                 |                                                 |
| \\      /  F ield         | OpenFOAM: The Open Source CFD Toolbox           |
|  \\    /   O peration     | Version:  v1612+                                |
|   \\  /    A nd           | Web:      www.OpenFOAM.com                      |
|    \\/     M anipulation  |                                                 |
\*---------------------------------------------------------------------------*/
FoamFile
{
    version     2.0;
    format      ascii;
    class       volScalarField;
    location    "4.2";
    object      alpha.water;
}
// * * * * * * * * * * * * * * * * * * * * * * * * * * * * * * * * * * * * * //

dimensions      [0 0 0 0 0 0 0];

internalField   nonuniform List<scalar> 
1116
(
0.486362
0.486366
0.486367
0.486368
0.48637
0.486363
0.491591
0.491594
0.491596
0.491597
0.491598
0.491593
0.524653
0.524655
0.524657
0.524657
0.524658
0.524657
0.586773
0.586775
0.586776
0.586776
0.586777
0.586778
0.673942
0.673946
0.673947
0.673947
0.673948
0.673949
0.79093
0.790931
0.790933
0.790932
0.790933
0.790935
0.928334
0.928329
0.92833
0.92833
0.928328
0.928333
0.973128
0.973128
0.973128
0.973128
0.973128
0.973128
0.973139
0.973139
0.973139
0.973139
0.973139
0.973139
0.97315
0.97315
0.97315
0.97315
0.97315
0.97315
0.973128
0.973128
0.973128
0.973128
0.973128
0.973128
0.973112
0.973112
0.973112
0.973112
0.973112
0.973112
1.47658e-08
1.47659e-08
1.47659e-08
1.47663e-08
1.47665e-08
1.47669e-08
6.76486e-09
6.765e-09
6.76509e-09
6.76494e-09
6.76493e-09
6.76545e-09
5.00002e-09
5.00005e-09
5.00009e-09
5.00006e-09
5.00004e-09
5.0001e-09
4.83466e-09
4.83466e-09
4.83468e-09
4.83467e-09
4.83467e-09
4.83467e-09
4.82897e-09
4.82898e-09
4.829e-09
4.82899e-09
4.82899e-09
4.82899e-09
0.00266534
0.00266563
0.00266556
0.00266557
0.00266564
0.00266566
0.040331
0.0403344
0.0403331
0.0403342
0.0403347
0.0403347
0.335013
0.33497
0.334989
0.334991
0.334982
0.335003
0.79058
0.790598
0.790585
0.790584
0.790584
0.790589
0.973164
0.973164
0.973164
0.973164
0.973164
0.973164
0.97315
0.97315
0.97315
0.97315
0.97315
0.97315
0.973125
0.973125
0.973125
0.973125
0.973125
0.973125
1.84777e-07
1.84701e-07
1.84729e-07
1.84742e-07
1.84721e-07
1.84814e-07
5.33871e-07
5.33838e-07
5.33854e-07
5.33847e-07
5.33813e-07
5.33898e-07
4.30516e-08
4.30556e-08
4.30566e-08
4.30517e-08
4.30544e-08
4.30721e-08
4.22229e-09
4.22217e-09
4.22233e-09
4.22238e-09
4.22212e-09
4.22213e-09
2.41698e-09
2.417e-09
2.417e-09
2.417e-09
2.41699e-09
2.417e-09
-5.75882e-09
-5.75347e-09
-5.75396e-09
-5.75381e-09
-5.75278e-09
-5.7544e-09
9.2511e-05
9.24813e-05
9.24957e-05
9.24954e-05
9.24898e-05
9.24899e-05
0.00185842
0.00185865
0.00185878
0.00185842
0.00185841
0.00185846
0.185824
0.185889
0.185858
0.185844
0.185853
0.185846
0.581646
0.581752
0.581699
0.581686
0.58171
0.581672
0.888179
0.888134
0.888147
0.888146
0.888123
0.888169
0.973112
0.973112
0.973112
0.973112
0.973112
0.973112
2.17369e-07
2.1722e-07
2.17266e-07
2.17289e-07
2.17253e-07
2.17421e-07
8.00499e-07
8.00505e-07
8.0051e-07
8.00521e-07
8.00531e-07
8.00531e-07
1.79617e-07
1.79555e-07
1.79574e-07
1.79565e-07
1.79545e-07
1.79668e-07
5.52749e-10
5.52339e-10
5.524e-10
5.52255e-10
5.52093e-10
5.52521e-10
4.19174e-09
4.19307e-09
4.19297e-09
4.19314e-09
4.19358e-09
4.19237e-09
3.68658e-07
3.68904e-07
3.68844e-07
3.68838e-07
3.68916e-07
3.68757e-07
7.40143e-06
7.39748e-06
7.39931e-06
7.39912e-06
7.39832e-06
7.39899e-06
9.94827e-05
9.94487e-05
9.94651e-05
9.94647e-05
9.94582e-05
9.9459e-05
0.0165032
0.0165521
0.0165366
0.0165246
0.0165343
0.016519
0.335068
0.335625
0.33541
0.335321
0.335465
0.335246
0.63529
0.636091
0.635763
0.635676
0.635897
0.635545
0.722409
0.72257
0.722497
0.722562
0.722616
0.722451
3.00215e-18
2.962e-18
3.18204e-18
2.74018e-18
2.72774e-18
3.45132e-18
2.2049e-17
2.19771e-17
2.23887e-17
2.15396e-17
2.72824e-17
2.30973e-17
1.23019e-15
1.21725e-15
1.28716e-15
1.14305e-15
1.11245e-15
1.36685e-15
5.46592e-14
5.38764e-14
5.80298e-14
4.97256e-14
4.79266e-14
6.31098e-14
4.20697e-12
4.16155e-12
4.4136e-12
3.89861e-12
3.77954e-12
4.74685e-12
2.89106e-10
2.8488e-10
3.06906e-10
2.62929e-10
2.53234e-10
3.33952e-10
1.436e-08
1.41945e-08
1.53255e-08
1.29975e-08
1.23919e-08
1.67954e-08
2.57655e-05
2.53935e-05
2.73446e-05
2.34715e-05
2.25905e-05
2.97014e-05
0.000259474
0.000256995
0.000271736
0.000241838
0.000232563
0.000291201
2.63336e-05
2.64599e-05
2.82636e-05
2.40324e-05
2.19265e-05
2.97079e-05
1.86646e-05
1.88481e-05
2.04998e-05
1.65862e-05
1.46264e-05
2.38061e-05
3.4921e-06
3.39637e-06
3.28192e-06
3.24877e-06
3.24877e-06
3.24877e-06
1.65306e-17
1.6364e-17
1.69993e-17
1.5871e-17
1.55609e-17
1.77652e-17
3.9653e-17
3.93732e-17
4.04478e-17
4.0508e-17
3.99058e-17
4.17496e-17
2.16258e-15
2.14341e-15
2.21112e-15
2.08293e-15
2.04564e-15
2.28981e-15
3.26424e-13
3.22793e-13
3.35578e-13
3.10928e-13
3.04346e-13
3.50958e-13
2.35865e-11
2.33115e-11
2.42606e-11
2.24429e-11
2.19471e-11
2.54027e-11
1.55516e-09
1.56234e-09
1.64443e-09
1.44289e-09
1.3375e-09
1.78758e-09
8.99091e-08
8.8885e-08
9.23912e-08
8.55869e-08
8.36808e-08
9.66278e-08
3.2222e-06
3.18913e-06
3.31369e-06
3.07051e-06
2.99496e-06
3.47064e-06
0.00238189
0.00236473
0.00242941
0.00230199
0.00225586
0.00251907
0.00762884
0.00760438
0.00774356
0.00745047
0.00729623
0.00799657
6.39221e-05
6.6842e-05
7.71417e-05
5.10519e-05
4.04502e-05
0.000104901
3.54061e-06
3.4921e-06
3.39637e-06
3.28192e-06
3.24877e-06
3.40663e-06
3.87444e-18
3.8212e-18
3.90162e-18
3.80023e-18
3.79333e-18
3.97664e-18
4.73042e-17
4.70177e-17
4.83842e-17
4.58208e-17
4.50672e-17
5.00968e-17
4.8622e-15
4.80791e-15
4.95722e-15
4.68934e-15
4.62484e-15
5.12857e-15
4.17893e-14
4.16895e-14
4.17258e-14
4.07164e-14
3.94194e-14
4.20034e-14
1.50196e-12
1.71729e-12
1.90168e-12
1.18458e-12
5.51914e-13
2.56801e-12
2.73679e-10
2.68594e-10
2.7269e-10
2.70209e-10
2.72768e-10
2.75432e-10
1.55296e-08
1.52254e-08
1.54321e-08
1.54099e-08
1.56033e-08
1.55345e-08
6.60813e-07
6.47566e-07
6.54158e-07
6.5846e-07
6.68429e-07
6.56057e-07
0.000142084
0.000133372
0.000129488
0.000152407
0.000174906
0.00011382
0.0171396
0.0170257
0.0171634
0.0170046
0.0168524
0.0174153
0.0296472
0.0296118
0.0299556
0.0291838
0.0285123
0.0307805
4.12214e-06
4.0231e-06
3.95657e-06
3.85296e-06
3.81981e-06
3.97767e-06
4.38965e-19
4.34106e-19
4.4039e-19
4.33248e-19
4.33243e-19
4.45122e-19
2.42651e-17
2.40392e-17
2.43173e-17
2.39726e-17
2.39852e-17
2.45481e-17
1.10924e-16
1.07912e-16
9.22969e-17
1.42442e-16
1.52317e-16
6.98047e-17
8.2284e-15
8.04141e-15
6.87727e-15
1.11607e-14
1.28071e-14
5.28075e-15
1.21704e-13
1.19396e-13
1.19778e-13
1.22647e-13
1.25074e-13
1.18571e-13
9.34472e-12
9.16526e-12
9.24421e-12
9.35747e-12
9.52198e-12
9.21653e-12
1.76961e-09
1.81604e-09
1.72236e-09
2.01207e-09
2.14128e-09
1.48698e-09
1.41279e-06
1.39966e-06
1.39263e-06
1.43448e-06
1.44793e-06
1.36051e-06
2.04707e-06
2.04479e-06
2.06331e-06
2.02452e-06
1.99357e-06
2.0663e-06
2.83944e-05
2.76109e-05
2.73268e-05
2.92858e-05
2.96411e-05
2.73664e-05
0.0513956
0.0512007
0.0513812
0.0513237
0.0509225
0.0520137
0.126082
0.12591
0.127228
0.124469
0.121855
0.13003
4.38024e-09
4.36929e-09
4.37314e-09
4.36959e-09
4.35707e-09
4.37912e-09
1.2392e-09
1.2316e-09
1.23411e-09
1.23342e-09
1.22809e-09
1.24039e-09
-1.8998e-16
-2.08042e-16
-2.13555e-16
-2.08807e-16
-2.0757e-16
-2.1258e-16
6.245e-07
6.24025e-07
6.24179e-07
6.24152e-07
6.23855e-07
6.24579e-07
1.13765e-24
1.18289e-24
1.20334e-24
1.18177e-24
1.17059e-24
1.20768e-24
-1.19724e-15
-1.31111e-15
-1.34595e-15
-1.31599e-15
-1.30818e-15
-1.33987e-15
1.34438e-07
1.3434e-07
1.34359e-07
1.34356e-07
1.34332e-07
1.34455e-07
1.77272e-21
1.73708e-21
1.74288e-21
1.72944e-21
1.71231e-21
1.75981e-21
-7.4889e-15
-8.22227e-15
-8.44615e-15
-8.2533e-15
-8.2032e-15
-8.40631e-15
6.83955e-12
6.69996e-12
6.72275e-12
6.67073e-12
6.60521e-12
6.7922e-12
1.05965e-14
1.05852e-14
1.05881e-14
1.05871e-14
1.05758e-14
1.05916e-14
-7.45884e-17
-6.11014e-17
-6.30042e-17
-5.8608e-17
-5.36418e-17
-6.97308e-17
3.45417e-10
3.45129e-10
3.45207e-10
3.45175e-10
3.45097e-10
3.45232e-10
1.89433e-12
1.89254e-12
1.89308e-12
1.89336e-12
1.8933e-12
1.89334e-12
7.97759e-15
7.88888e-15
7.90553e-15
7.88236e-15
7.84354e-15
7.94885e-15
2.99593e-08
2.99522e-08
2.9953e-08
2.99527e-08
2.99518e-08
2.99525e-08
3.21961e-10
3.21617e-10
3.21698e-10
3.21632e-10
3.2152e-10
3.21775e-10
2.40662e-12
2.40441e-12
2.40497e-12
2.4048e-12
2.40429e-12
2.40558e-12
3.58582e-07
3.58294e-07
3.58421e-07
3.58398e-07
3.58333e-07
3.58407e-07
1.04451e-08
1.04348e-08
1.04397e-08
1.04391e-08
1.04369e-08
1.04399e-08
3.25924e-10
3.25703e-10
3.25764e-10
3.25744e-10
3.2569e-10
3.25778e-10
1.18106e-05
1.17937e-05
1.1801e-05
1.18e-05
1.17945e-05
1.17994e-05
3.3795e-07
3.3539e-07
3.35104e-07
3.29346e-07
3.26061e-07
3.29493e-07
1.04463e-08
1.04361e-08
1.04409e-08
1.04403e-08
1.04381e-08
1.04411e-08
3.61842e-05
3.62933e-05
3.61722e-05
3.604e-05
3.60013e-05
3.60156e-05
3.09503e-06
3.06122e-06
3.0307e-06
2.98528e-06
2.9603e-06
2.98418e-06
6.92026e-07
6.95177e-07
6.97958e-07
7.00775e-07
7.01869e-07
7.00853e-07
4.97514e-06
4.91311e-06
4.84884e-06
4.75832e-06
4.71828e-06
4.75722e-06
4.43151e-06
4.36934e-06
4.29055e-06
4.23028e-06
4.21516e-06
4.23024e-06
4.33166e-06
4.25275e-06
4.17634e-06
4.13907e-06
4.12817e-06
4.14529e-06
7.5914e-06
7.51773e-06
7.47038e-06
7.38579e-06
7.311e-06
7.37981e-06
5.39428e-06
5.30363e-06
5.27698e-06
5.17211e-06
5.09706e-06
5.18569e-06
0.000171946
0.000172003
0.000172048
0.000172029
0.000172067
0.00017212
0.0836616
0.0837219
0.0836889
0.0837577
0.083828
0.0836316
5.55865e-07
5.35935e-07
5.48186e-07
5.45444e-07
5.26467e-07
5.63789e-07
2.71933e-07
2.29006e-07
2.59082e-07
2.51699e-07
2.11641e-07
2.90022e-07
0.40051
0.400409
0.400516
0.400459
0.40067
0.400381
2.59034e-06
2.54443e-06
2.47832e-06
2.28684e-06
2.11644e-06
1.8814e-06
2.59669e-05
2.39017e-05
2.34058e-05
2.52255e-05
1.89405e-05
2.06289e-05
0.457368
0.457515
0.457613
0.457215
0.457371
0.457721
2.30613e-20
-4.05754e-18
-7.61876e-18
-1.13176e-17
-2.47132e-17
1.56134e-19
-7.13342e-24
-2.934e-24
-1.42778e-23
-5.21096e-24
-3.41223e-24
-5.40105e-24
0.494386
0.494417
0.49444
0.494492
0.494534
0.494425
-3.11965e-15
-2.17007e-14
-1.51775e-13
-6.5319e-13
-1.56546e-12
-1.44427e-13
-3.161e-24
-2.17494e-24
-1.73388e-24
-1.17779e-24
-7.2259e-24
-3.11469e-25
0.494707
0.494738
0.494769
0.494807
0.494825
0.494779
0.0135477
0.0135696
0.0135031
0.0136572
0.0138873
0.0132837
-4.17588e-23
-5.26427e-23
-5.69624e-23
-5.80126e-23
-5.55112e-23
-4.07851e-23
0.494738
0.494769
0.494807
0.494825
0.494825
0.494825
0.0257109
0.0257737
0.0257065
0.0258407
0.0261805
0.025368
-4.5084e-23
-5.68641e-23
-6.15216e-23
-6.27449e-23
-6.03053e-23
-4.38066e-23
0.456813
0.456888
0.45683
0.457028
0.457388
0.456483
-1.46408e-11
-2.26477e-11
-3.31397e-11
-4.51727e-11
-5.07306e-11
-4.80403e-11
-1.6551e-23
-2.27698e-23
-2.0683e-23
-2.6548e-23
-4.55363e-23
-5.70938e-21
3.67859e-20
3.6491e-20
3.67549e-20
3.63376e-20
3.61542e-20
3.72955e-20
3.39196e-21
3.37562e-21
3.38625e-21
3.36183e-21
3.31816e-21
3.45236e-21
2.35208e-22
2.34496e-22
2.34988e-22
2.33489e-22
2.29552e-22
2.40107e-22
2.83683e-18
2.81406e-18
2.80864e-18
2.81201e-18
2.80241e-18
2.83909e-18
3.34685e-19
3.33111e-19
3.32066e-19
3.32361e-19
3.27308e-19
3.38358e-19
3.0553e-20
3.04724e-20
3.04337e-20
3.03842e-20
2.97606e-20
3.11121e-20
1.5324e-17
1.53535e-17
1.50062e-17
1.53134e-17
1.52509e-17
1.50096e-17
1.07581e-17
1.07081e-17
1.05195e-17
1.07167e-17
1.04806e-17
1.07097e-17
1.69508e-18
1.69319e-18
1.68073e-18
1.69003e-18
1.63937e-18
1.72198e-18
3.31418e-17
3.30079e-17
3.23112e-17
3.33548e-17
3.34884e-17
3.209e-17
7.51828e-17
6.96694e-17
6.6078e-17
7.37323e-17
6.58458e-17
6.48675e-17
6.00745e-17
6.01267e-17
5.94183e-17
6.00264e-17
5.69949e-17
6.11987e-17
1.37837e-15
1.35607e-15
1.35435e-15
1.39662e-15
1.42472e-15
1.33319e-15
1.48165e-14
1.51701e-14
1.48381e-14
1.4907e-14
1.3374e-14
1.57586e-14
4.92696e-15
4.97477e-15
4.92782e-15
4.93155e-15
4.60617e-15
5.1352e-15
1.27643e-13
1.25494e-13
1.26299e-13
1.28346e-13
1.30667e-13
1.25415e-13
1.76052e-14
1.79138e-14
1.75982e-14
1.77124e-14
1.62288e-14
1.84988e-14
1.01741e-13
1.02781e-13
1.01759e-13
1.01695e-13
9.67939e-14
1.05765e-13
1.03773e-11
1.02088e-11
1.02705e-11
1.04409e-11
1.06293e-11
1.01972e-11
2.18702e-13
2.16095e-13
2.16661e-13
2.20408e-13
2.22412e-13
2.15752e-13
1.05887e-13
1.06869e-13
1.05863e-13
1.05873e-13
1.01041e-13
1.08677e-13
2.65321e-08
2.62748e-08
2.58875e-08
2.69939e-08
2.72938e-08
2.46694e-08
1.68103e-11
1.65809e-11
1.66395e-11
1.69283e-11
1.71957e-11
1.65106e-11
4.57477e-13
4.53786e-13
4.53934e-13
4.59895e-13
4.60754e-13
4.54092e-13
3.44649e-08
3.42845e-08
3.38596e-08
3.5548e-08
3.34884e-08
3.59456e-08
1.46619e-09
1.45005e-09
1.45019e-09
1.47767e-09
1.4918e-09
1.43366e-09
5.01188e-09
6.07407e-09
6.63479e-09
4.04116e-09
3.03616e-09
5.30914e-09
1.53286e-06
1.52682e-06
1.50795e-06
1.5811e-06
1.4841e-06
1.61495e-06
1.98803e-05
2.3246e-05
2.37589e-05
1.96601e-05
1.68057e-05
2.09319e-05
4.76921e-06
4.54645e-06
4.44422e-06
4.83099e-06
4.57887e-06
4.34588e-06
0.000242983
0.000245085
0.00024602
0.000237504
0.000186834
0.000287051
0.000438718
0.000443307
0.000445889
0.000426451
0.00032571
0.000544659
8.68844e-20
8.29838e-20
8.13533e-20
9.11532e-20
1.12109e-19
1.27051e-19
0.190835
0.191171
0.191997
0.189662
0.187776
0.19357
5.21905e-06
4.94018e-06
4.61259e-06
4.3597e-06
3.76276e-06
3.76276e-06
6.08022e-06
5.06116e-06
4.52203e-06
2.16937e-05
5.48552e-05
4.70373e-06
)
;

boundaryField
{
    seabed_topleft_surface
    {
        type            zeroGradient;
    }
    seabed_topright_surface
    {
        type            zeroGradient;
    }
    breakwater_top_surface
    {
        type            zeroGradient;
    }
    breakwater_left_surface
    {
        type            zeroGradient;
    }
    breakwater_right_surface
    {
        type            zeroGradient;
    }
    water_front_surface
    {
        type            zeroGradient;
    }
    water_back_surface
    {
        type            zeroGradient;
    }
    water_left_surface
    {
        type            zeroGradient;
    }
    water_right_surface
    {
        type            zeroGradient;
    }
    water_top_surface
    {
        type            inletOutlet;
        inletValue      uniform 0;
        value           nonuniform List<scalar> 
180
(
0
0
0
0
0
0
0
0
0
0
0
0
0
0
0
0
0
0
0
0
0
0
0
0
7.97759e-15
7.88888e-15
7.90553e-15
7.88236e-15
7.84354e-15
7.94885e-15
2.40662e-12
2.40441e-12
2.40497e-12
2.4048e-12
2.40429e-12
2.40558e-12
3.25924e-10
3.25703e-10
3.25764e-10
3.25744e-10
3.2569e-10
3.25778e-10
1.04463e-08
1.04361e-08
1.04409e-08
1.04403e-08
1.04381e-08
1.04411e-08
6.92026e-07
6.95177e-07
6.97958e-07
7.00775e-07
7.01869e-07
7.00853e-07
4.33166e-06
4.25275e-06
4.17634e-06
4.13907e-06
4.12817e-06
4.14529e-06
0.000171946
0.000172003
0.000172048
0.000172029
0.000172067
0.00017212
0
0
0
0
0
0
0
0
0
0
0
0
0
0
0
0
0
0
0
0
0
0
0
0
0
0
0
0
0
0
0
0
0
0
0
0
0
0
0
0
0
0
2.35208e-22
2.34496e-22
2.34988e-22
2.33489e-22
2.29552e-22
2.40107e-22
3.0553e-20
3.04724e-20
3.04337e-20
3.03842e-20
2.97606e-20
3.11121e-20
1.69508e-18
1.69319e-18
1.68073e-18
1.69003e-18
1.63937e-18
1.72198e-18
6.00745e-17
6.01267e-17
5.94183e-17
6.00264e-17
5.69949e-17
6.11987e-17
4.92696e-15
4.97477e-15
4.92782e-15
4.93155e-15
4.60617e-15
5.1352e-15
1.01741e-13
1.02781e-13
1.01759e-13
1.01695e-13
9.67939e-14
1.05765e-13
1.05887e-13
1.06869e-13
1.05863e-13
1.05873e-13
1.01041e-13
1.08677e-13
4.57477e-13
4.53786e-13
4.53934e-13
4.59895e-13
4.60754e-13
4.54092e-13
5.01188e-09
6.07407e-09
6.63479e-09
4.04116e-09
3.03616e-09
5.30914e-09
0
0
0
0
0
0
0
0
0
0
0
0
6.08022e-06
5.06116e-06
4.52203e-06
2.16937e-05
5.48552e-05
4.70373e-06
)
;
    }
}


// ************************************************************************* //
