/*--------------------------------*- C++ -*----------------------------------*\
| =========                 |                                                 |
| \\      /  F ield         | OpenFOAM: The Open Source CFD Toolbox           |
|  \\    /   O peration     | Version:  v1612+                                |
|   \\  /    A nd           | Web:      www.OpenFOAM.com                      |
|    \\/     M anipulation  |                                                 |
\*---------------------------------------------------------------------------*/
FoamFile
{
    version     2.0;
    format      ascii;
    class       volScalarField;
    location    "4.2";
    object      p;
}
// * * * * * * * * * * * * * * * * * * * * * * * * * * * * * * * * * * * * * //

dimensions      [1 -1 -2 0 0 0 0];

internalField   nonuniform List<scalar> 
1116
(
2397.95
2397.98
2397.98
2397.99
2398
2397.96
2445.37
2445.39
2445.4
2445.4
2445.41
2445.38
2616.36
2616.38
2616.39
2616.39
2616.39
2616.38
2881.02
2881.03
2881.04
2881.04
2881.04
2881.04
3243.23
3243.25
3243.25
3243.25
3243.26
3243.26
4011.79
4011.8
4011.8
4011.8
4011.81
4011.82
5716.45
5716.48
5716.46
5716.47
5716.47
5716.49
9568.11
9568.01
9568.04
9568.04
9568.03
9568.08
13964.1
13964.1
13964.1
13964.1
13964.1
13964.1
17570.7
17570.7
17570.7
17570.7
17570.7
17570.7
21224.3
21224.2
21224.3
21224.2
21224.2
21224.3
24147.4
24147.4
24147.4
24147.4
24147.4
24147.5
-28.6138
-28.6136
-28.6137
-28.6136
-28.6135
-28.6136
-28.6676
-28.6675
-28.6676
-28.6674
-28.6671
-28.6672
-33.5732
-33.5733
-33.5734
-33.5731
-33.5725
-33.5723
-54.6033
-54.6039
-54.6039
-54.6037
-54.603
-54.6013
-1.03131
-1.03178
-1.03089
-1.031
-1.03076
-1.02792
152.794
152.794
152.795
152.794
152.794
152.799
295.168
295.15
295.155
295.154
295.152
295.171
1638.48
1638.23
1638.36
1638.35
1638.3
1638.41
5344.4
5344.41
5344.43
5344.38
5344.37
5344.35
8013.75
8013.75
8013.77
8013.67
8013.71
8013.65
11510.4
11510.5
11510.5
11510.4
11510.5
11510.4
14668
14668.1
14668.1
14668.1
14668.1
14668.2
-23.0731
-23.0731
-23.0731
-23.0731
-23.0731
-23.0731
-25.2789
-25.2788
-25.2788
-25.2787
-25.2785
-25.2784
-32.1836
-32.1835
-32.1835
-32.1832
-32.1829
-32.1825
-68.1636
-68.1638
-68.1639
-68.1639
-68.1636
-68.1633
-96.5483
-96.5488
-96.5489
-96.5489
-96.549
-96.5478
-75.1558
-75.1591
-75.1578
-75.1571
-75.1572
-75.1562
-10.7261
-10.7357
-10.7317
-10.7341
-10.7363
-10.7349
70.8827
70.8664
70.8742
70.8738
70.87
70.8759
514.622
514.757
514.689
514.672
514.68
514.697
3234.63
3234.43
3234.47
3234.46
3234.44
3234.55
6495.6
6495.17
6495.26
6495.32
6495.41
6495.41
7930.96
7931.28
7931.21
7931.22
7931.31
7931.32
-42.5276
-42.5276
-42.5277
-42.5278
-42.5279
-42.5281
-43.6916
-43.6915
-43.6915
-43.6915
-43.6914
-43.6915
-46.1328
-46.1325
-46.1324
-46.1322
-46.1318
-46.132
-63.248
-63.248
-63.2478
-63.2474
-63.2471
-63.2471
-70.5951
-70.5951
-70.595
-70.5942
-70.5936
-70.5937
-56.1376
-56.1358
-56.1352
-56.1347
-56.1343
-56.1357
-15.6534
-15.6556
-15.6512
-15.6526
-15.6539
-15.6544
-0.325589
-0.318005
-0.319364
-0.319788
-0.31826
-0.3228
52.809
53.0209
52.9334
52.8978
52.9594
52.8926
1505.77
1508.57
1507.49
1506.95
1507.67
1506.65
3405.25
3410.34
3408.15
3407.59
3408.87
3406.96
3449.8
3450.83
3450.44
3450.59
3450.94
3450
15.4947
15.4947
15.4947
15.4947
15.4947
15.4947
16.5913
16.5913
16.5913
16.5913
16.5913
16.5914
18.9082
18.9082
18.9083
18.9083
18.9084
18.9084
22.7354
22.7354
22.7356
22.7353
22.7355
22.7356
28.6745
28.6732
28.675
28.672
28.6737
28.6762
37.3771
37.3714
37.3813
37.3668
37.3748
37.3877
50.3142
50.2899
50.337
50.276
50.2902
50.3642
77.9937
77.8933
78.0774
77.7919
77.7598
78.2815
113.734
113.591
113.928
113.292
113.041
114.606
59.4243
59.458
59.4452
59.2832
59.0957
59.8872
-11.3544
-11.3209
-11.2724
-11.5439
-11.68
-10.6902
-24.0519
-24.0615
-24.0682
-24.045
-24.0517
-24.1518
4.47026
4.47025
4.47024
4.47022
4.47022
4.47021
5.46467
5.46464
5.46463
5.46463
5.46465
5.4647
7.53659
7.5366
7.53667
7.53665
7.53674
7.53679
10.8794
10.8792
10.8797
10.8792
10.8795
10.8795
15.9018
15.9004
15.9027
15.9003
15.902
15.9018
22.8231
22.8166
22.8283
22.8168
22.8225
22.8258
31.5444
31.5244
31.5614
31.5374
31.5369
31.5429
43.5051
43.4616
43.4702
43.6773
43.6822
43.2834
45.3894
45.1847
44.8203
46.3566
46.8273
43.9881
-32.8154
-32.395
-32.2107
-33.8017
-34.5274
-30.132
-74.1388
-74.1537
-74.2147
-74.2343
-74.3692
-74.5485
-62.2707
-62.3127
-62.3941
-62.0755
-62.1075
-62.9254
-7.73072
-7.73069
-7.73069
-7.73069
-7.7307
-7.7307
-6.98334
-6.98336
-6.98337
-6.98337
-6.98335
-6.9833
-5.50525
-5.50528
-5.5052
-5.50522
-5.50512
-5.50508
-3.38169
-3.38181
-3.38136
-3.3816
-3.38147
-3.38182
-0.927033
-0.927676
-0.926346
-0.926419
-0.925965
-0.928594
0.72592
0.72402
0.728488
0.728773
0.731727
0.719858
-2.28362
-2.28566
-2.29101
-2.23584
-2.20583
-2.35828
-21.4965
-21.4962
-21.6075
-21.244
-21.1042
-21.8641
-59.223
-59.2251
-59.3104
-59.2235
-59.1593
-59.2246
-92.6653
-92.3913
-92.103
-94.2295
-95.1843
-90.3473
-223.616
-223.679
-224.791
-221.921
-220.054
-228.471
-86.9123
-86.9283
-86.9318
-86.8495
-86.8941
-87.249
-20.7569
-20.7568
-20.7568
-20.7568
-20.7568
-20.7568
-20.3032
-20.3032
-20.3033
-20.3033
-20.3033
-20.3033
-19.5055
-19.5056
-19.5056
-19.5056
-19.5055
-19.5055
-18.6591
-18.6592
-18.659
-18.6591
-18.659
-18.6593
-18.447
-18.4472
-18.4469
-18.4468
-18.4466
-18.4486
-20.1964
-20.1966
-20.1971
-20.1962
-20.1946
-20.2032
-26.8025
-26.7956
-26.8061
-26.8068
-26.8056
-26.8156
-49.8134
-49.7586
-49.812
-49.8503
-49.8918
-49.8077
-71.5178
-71.4074
-71.4884
-71.8594
-72.1914
-71.1588
-95.9386
-96.0939
-96.2715
-96.256
-96.3985
-96.7333
-168.611
-168.998
-169.12
-169.12
-168.063
-173.878
-701.424
-700.766
-706.364
-694.371
-683.232
-718.657
-48.3178
-48.3179
-48.3182
-48.3184
-48.3186
-48.3187
-57.8086
-57.8087
-57.8088
-57.809
-57.8092
-57.8092
-66.8485
-66.8485
-66.8485
-66.8485
-66.8486
-66.8484
-48.7889
-48.789
-48.7892
-48.7892
-48.7892
-48.7892
-57.6474
-57.6475
-57.6475
-57.6475
-57.6474
-57.6472
-66.6183
-66.6183
-66.6182
-66.6182
-66.6182
-66.6181
-50.2774
-50.2772
-50.2771
-50.277
-50.2768
-50.2767
-57.4617
-57.4616
-57.4615
-57.4613
-57.4611
-57.461
-66.0546
-66.0548
-66.0548
-66.0547
-66.0548
-66.0548
-54.9683
-54.968
-54.9678
-54.9675
-54.9673
-54.9672
-56.9738
-56.9737
-56.9737
-56.9737
-56.9737
-56.9738
-64.7864
-64.7866
-64.7867
-64.7867
-64.7866
-64.7866
-53.4503
-53.4493
-53.4494
-53.4488
-53.4481
-53.4483
-54.1305
-54.1304
-54.1307
-54.1306
-54.1303
-54.1303
-63.3119
-63.312
-63.3119
-63.3118
-63.3117
-63.3115
-40.4318
-40.4293
-40.4296
-40.4296
-40.4294
-40.4305
-48.3671
-48.367
-48.3672
-48.3675
-48.3675
-48.3674
-61.8931
-61.8932
-61.8931
-61.893
-61.893
-61.8928
-32.0772
-32.0772
-32.076
-32.0767
-32.0771
-32.0772
-50.001
-50.0026
-50.0019
-50.0023
-50.003
-50.0023
-64.6803
-64.6814
-64.6813
-64.6812
-64.6814
-64.681
-41.4388
-41.4266
-41.4337
-41.4354
-41.4336
-41.4387
-61.3618
-61.3529
-61.359
-61.3568
-61.3568
-61.3613
-69.3684
-69.3662
-69.3686
-69.3666
-69.3669
-69.369
-90.1525
-90.1209
-90.1406
-90.1468
-90.1395
-90.1391
-108.629
-108.636
-108.638
-108.64
-108.645
-108.639
-88.9318
-88.9483
-88.9441
-88.9436
-88.9454
-88.9458
-107.5
-107.523
-107.555
-107.562
-107.565
-107.517
-118.62
-118.643
-118.647
-118.654
-118.652
-118.639
-89.0725
-89.1005
-89.0914
-89.0883
-89.0832
-89.0924
-13.63
-13.4318
-13.468
-13.5404
-13.5365
-13.5498
-91.2815
-91.2628
-91.2585
-91.2649
-91.2665
-91.2859
-79.1498
-79.1778
-79.163
-79.165
-79.169
-79.164
359.317
360.253
360.06
360.302
360.656
359.476
-71.4343
-71.4406
-71.3957
-71.4009
-71.4382
-71.3916
-73.4437
-73.4458
-73.4394
-73.4419
-73.4497
-73.4329
1912.1
1911.61
1912.18
1912.23
1913.84
1910.96
-47.7925
-47.8914
-47.8153
-47.458
-47.1897
-47.8715
-67.5499
-67.5293
-67.507
-67.5582
-67.5631
-67.4332
2207.46
2208.08
2208.58
2206.83
2207.65
2209.13
-46.7433
-46.7265
-46.7028
-46.6944
-46.6764
-46.6862
-64.5403
-64.5277
-64.5247
-64.5443
-64.551
-64.5024
2420.45
2420.64
2420.85
2421.18
2421.79
2420.65
-38.2731
-38.3321
-38.3001
-38.2274
-38.1892
-38.3162
-67.3486
-67.345
-67.3421
-67.3321
-67.3244
-67.3273
2578.56
2578.51
2578.98
2579.14
2579.01
2579.6
9.4772
9.5014
9.45587
9.75028
10.3323
8.98665
-66.5293
-66.515
-66.516
-66.511
-66.482
-66.5303
2606.95
2606.75
2607.5
2606.75
2604.69
2609.57
47.2122
47.3063
47.2789
47.5041
48.3701
46.4529
-61.0127
-60.9952
-61.0037
-60.98
-60.9335
-61.0601
2141.79
2142.13
2141.97
2142.61
2143.5
2141.1
-51.3132
-51.3063
-51.2808
-51.3287
-51.3423
-51.2295
-66.2831
-66.2717
-66.2736
-66.266
-66.2429
-66.2981
-34.2412
-34.2411
-34.241
-34.241
-34.2411
-34.2412
-47.9724
-47.9723
-47.9724
-47.9724
-47.9725
-47.9726
-61.7692
-61.7692
-61.7692
-61.7692
-61.7693
-61.7693
-34.0274
-34.0274
-34.0275
-34.0275
-34.0276
-34.0276
-47.8962
-47.8963
-47.8963
-47.8964
-47.8965
-47.8966
-61.759
-61.759
-61.759
-61.7591
-61.7591
-61.7591
-33.7277
-33.7278
-33.7279
-33.7279
-33.7279
-33.7279
-47.8304
-47.8305
-47.8306
-47.8306
-47.8306
-47.8306
-61.7699
-61.7699
-61.7699
-61.7699
-61.7699
-61.7699
-33.6443
-33.6444
-33.6445
-33.6446
-33.6446
-33.6447
-47.9686
-47.9686
-47.9687
-47.9687
-47.9687
-47.9687
-61.8672
-61.8672
-61.8672
-61.8672
-61.8672
-61.8672
-34.3667
-34.3669
-34.3673
-34.3677
-34.368
-34.3684
-48.6575
-48.6576
-48.6579
-48.6582
-48.6587
-48.6587
-62.1342
-62.1343
-62.1344
-62.1345
-62.1347
-62.1348
-36.7344
-36.7347
-36.7368
-36.7383
-36.7398
-36.7404
-50.4273
-50.4277
-50.4293
-50.4303
-50.4325
-50.4325
-62.9113
-62.9115
-62.9121
-62.9125
-62.9133
-62.9135
-40.1844
-40.1821
-40.1915
-40.2041
-40.2114
-40.1979
-51.8783
-51.8807
-51.8858
-51.8929
-51.8971
-51.8989
-63.0641
-63.0648
-63.066
-63.0676
-63.0683
-63.0701
-55.9824
-55.9749
-56.0005
-56.0236
-56.0651
-56.0361
-61.6911
-61.6935
-61.7028
-61.7061
-61.7252
-61.7307
-66.6583
-66.6599
-66.6635
-66.6659
-66.6704
-66.6767
-59.282
-59.2556
-59.3272
-59.5613
-59.8019
-59.5214
-63.7051
-63.7156
-63.7586
-63.8114
-63.9113
-63.914
-67.2119
-67.2179
-67.2232
-67.2258
-67.2337
-67.2662
-84.1632
-84.1776
-84.3688
-84.8174
-85.2041
-85.2245
-81.9675
-82.0194
-82.0898
-82.1835
-82.3532
-82.5371
-69.6741
-69.6838
-69.7109
-69.7522
-69.7469
-69.8615
-69.4406
-69.3135
-69.4812
-69.2146
-69.2129
-70.4343
-63.9262
-63.9452
-63.843
-63.3685
-63.3227
-63.1303
-67.0053
-67.0364
-67.0018
-66.8743
-66.7512
-66.9146
772.688
775.09
778.332
768.848
756.944
795.471
-56.5458
-56.5453
-56.4487
-56.1435
-55.9774
-55.716
-84.6252
-84.7273
-84.7782
-84.7594
-84.9383
-84.7169
)
;

boundaryField
{
    seabed_topleft_surface
    {
        type            calculated;
        value           nonuniform List<scalar> 
72
(
4794.28
4794.33
4794.34
4794.35
4794.37
4794.3
4867.41
4867.45
4867.47
4867.47
4867.49
4867.44
5200.97
5201
5201.01
5201.01
5201.03
5201
5771.06
5771.09
5771.1
5771.1
5771.11
5771.11
6561.88
6561.91
6561.93
6561.92
6561.94
6561.95
7905.66
7905.68
7905.69
7905.69
7905.69
7905.71
10285.9
10285.9
10285.9
10285.9
10285.9
10286
14357.8
14357.7
14357.8
14357.8
14357.8
14357.8
18753.9
18753.9
18753.9
18753.9
18753.9
18753.9
22360.5
22360.6
22360.6
22360.6
22360.6
22360.6
26014.1
26014
26014
26013.9
26013.9
26014
28937.1
28937.1
28937.1
28937.1
28937.1
28937.1
)
;
    }
    seabed_topright_surface
    {
        type            calculated;
        value           nonuniform List<scalar> 
72
(
20.4166
20.4166
20.4166
20.4165
20.4165
20.4165
21.5131
21.5131
21.5131
21.5132
21.5132
21.5132
23.83
23.8301
23.8301
23.8302
23.8302
23.8303
27.6573
27.6573
27.6575
27.6572
27.6573
27.6574
33.5964
33.5951
33.5969
33.5939
33.5956
33.598
42.299
42.2932
42.3031
42.2886
42.2966
42.3096
55.2362
55.2118
55.2589
55.1979
55.2121
55.2861
83.0423
82.94
83.1338
82.8292
82.7927
83.3494
119.931
119.776
120.186
119.402
119.106
120.959
64.4757
64.5099
64.506
64.3232
64.1253
64.9551
-6.34077
-6.30639
-6.24976
-6.54049
-6.68621
-5.65134
-19.1129
-19.123
-19.1302
-19.1071
-19.1139
-19.2139
)
;
    }
    breakwater_top_surface
    {
        type            calculated;
        value           nonuniform List<scalar> 
36
(
3879.54
3878.56
3879.65
3879.42
3882.06
3877.77
4453.51
4454.86
4455.83
4452.13
4453.72
4456.91
4847.89
4848.23
4848.56
4849.14
4849.96
4848.28
5007.57
5007.68
5008.3
5008.64
5008.6
5008.97
5036.12
5036.07
5037.01
5036.34
5034.29
5039.16
4385.12
4385.83
4385.39
4386.99
4389.65
4382.82
)
;
    }
    breakwater_left_surface
    {
        type            calculated;
        value           nonuniform List<scalar> 
24
(
24163.8
24163.8
24163.8
24163.8
24163.8
24163.9
14684.1
14684.1
14684.2
14684.2
14684.2
14684.2
7946.71
7947.04
7946.97
7946.98
7947.06
7947.07
3461.28
3462.31
3461.91
3462.07
3462.41
3461.47
)
;
    }
    breakwater_right_surface
    {
        type            calculated;
        value           nonuniform List<scalar> 
24
(
-24.035
-24.0446
-24.0513
-24.0281
-24.0348
-24.1348
-62.2541
-62.2961
-62.3776
-62.0589
-62.0909
-62.9088
-86.896
-86.912
-86.9155
-86.8333
-86.8779
-87.2327
-699.408
-698.753
-704.331
-692.381
-681.284
-716.58
)
;
    }
    water_front_surface
    {
        type            calculated;
        value           nonuniform List<scalar> 
186
(
2397.95
2445.37
2616.36
2881.02
3243.23
4011.79
5716.45
9568.11
13964.1
17570.7
21224.3
24147.4
-28.6138
-28.6676
-33.5732
-54.6033
-1.03131
152.794
295.168
1638.48
5344.4
8013.75
11510.4
14668
-23.0731
-25.2789
-32.1836
-68.1636
-96.5483
-75.1558
-10.7261
70.8827
514.622
3234.63
6495.6
7930.96
-42.5276
-43.6916
-46.1328
-63.248
-70.5951
-56.1376
-15.6534
-0.325589
52.809
1505.77
3405.25
3449.8
15.4947
16.5913
18.9082
22.7354
28.6745
37.3771
50.3142
77.9937
113.734
59.4243
-11.3544
-24.0519
4.47026
5.46467
7.53659
10.8794
15.9018
22.8231
31.5444
43.5051
45.3894
-32.8154
-74.1388
-62.2707
-7.73072
-6.98334
-5.50525
-3.38169
-0.927033
0.72592
-2.28362
-21.4965
-59.223
-92.6653
-223.616
-86.9123
-20.7569
-20.3032
-19.5055
-18.6591
-18.447
-20.1964
-26.8025
-49.8134
-71.5178
-95.9386
-168.611
-701.424
-48.3178
-57.8086
-66.8485
-48.7889
-57.6474
-66.6183
-50.2774
-57.4617
-66.0546
-54.9683
-56.9738
-64.7864
-53.4503
-54.1305
-63.3119
-40.4318
-48.3671
-61.8931
-32.0772
-50.001
-64.6803
-41.4388
-61.3618
-69.3684
-90.1525
-108.629
-88.9318
-107.5
-118.62
-89.0725
-13.63
-91.2815
-79.1498
359.317
-71.4343
-73.4437
1912.1
-47.7925
-67.5499
2207.46
-46.7433
-64.5403
2420.45
-38.2731
-67.3486
2578.56
9.4772
-66.5293
2606.95
47.2122
-61.0127
2141.79
-51.3132
-66.2831
-34.2412
-47.9724
-61.7692
-34.0274
-47.8962
-61.759
-33.7277
-47.8304
-61.7699
-33.6443
-47.9686
-61.8672
-34.3667
-48.6575
-62.1342
-36.7344
-50.4273
-62.9113
-40.1844
-51.8783
-63.0641
-55.9824
-61.6911
-66.6583
-59.282
-63.7051
-67.2119
-84.1632
-81.9675
-69.6741
-69.4406
-63.9262
-67.0053
772.688
-56.5458
-84.6252
)
;
    }
    water_back_surface
    {
        type            calculated;
        value           nonuniform List<scalar> 
186
(
2397.96
2445.38
2616.38
2881.04
3243.26
4011.82
5716.49
9568.08
13964.1
17570.7
21224.3
24147.5
-28.6136
-28.6672
-33.5723
-54.6013
-1.02792
152.799
295.171
1638.41
5344.35
8013.65
11510.4
14668.2
-23.0731
-25.2784
-32.1825
-68.1633
-96.5478
-75.1562
-10.7349
70.8759
514.697
3234.55
6495.41
7931.32
-42.5281
-43.6915
-46.132
-63.2471
-70.5937
-56.1357
-15.6544
-0.3228
52.8926
1506.65
3406.96
3450
15.4947
16.5914
18.9084
22.7356
28.6762
37.3877
50.3642
78.2815
114.606
59.8872
-10.6902
-24.1518
4.47021
5.4647
7.53679
10.8795
15.9018
22.8258
31.5429
43.2834
43.9881
-30.132
-74.5485
-62.9254
-7.7307
-6.9833
-5.50508
-3.38182
-0.928594
0.719858
-2.35828
-21.8641
-59.2246
-90.3473
-228.471
-87.249
-20.7568
-20.3033
-19.5055
-18.6593
-18.4486
-20.2032
-26.8156
-49.8077
-71.1588
-96.7333
-173.878
-718.657
-48.3187
-57.8092
-66.8484
-48.7892
-57.6472
-66.6181
-50.2767
-57.461
-66.0548
-54.9672
-56.9738
-64.7866
-53.4483
-54.1303
-63.3115
-40.4305
-48.3674
-61.8928
-32.0772
-50.0023
-64.681
-41.4387
-61.3613
-69.369
-90.1391
-108.639
-88.9458
-107.517
-118.639
-89.0924
-13.5498
-91.2859
-79.164
359.476
-71.3916
-73.4329
1910.96
-47.8715
-67.4332
2209.13
-46.6862
-64.5024
2420.65
-38.3162
-67.3273
2579.6
8.98665
-66.5303
2609.57
46.4529
-61.0601
2141.1
-51.2295
-66.2981
-34.2412
-47.9726
-61.7693
-34.0276
-47.8966
-61.7591
-33.7279
-47.8306
-61.7699
-33.6447
-47.9687
-61.8672
-34.3684
-48.6587
-62.1348
-36.7404
-50.4325
-62.9135
-40.1979
-51.8989
-63.0701
-56.0361
-61.7307
-66.6767
-59.5214
-63.914
-67.2662
-85.2245
-82.5371
-69.8615
-70.4343
-63.1303
-66.9146
795.471
-55.716
-84.7169
)
;
    }
    water_left_surface
    {
        type            calculated;
        value           nonuniform List<scalar> 
42
(
2406.16
2406.19
2406.19
2406.19
2406.21
2406.17
-28.5972
-28.5971
-28.5972
-28.5971
-28.597
-28.5971
-23.0569
-23.0569
-23.0569
-23.0569
-23.0569
-23.0569
-42.5117
-42.5117
-42.5119
-42.512
-42.5121
-42.5122
-48.3178
-48.3179
-48.3182
-48.3184
-48.3186
-48.3187
-57.8086
-57.8087
-57.8088
-57.809
-57.8092
-57.8092
-66.8485
-66.8485
-66.8485
-66.8485
-66.8486
-66.8484
)
;
    }
    water_right_surface
    {
        type            calculated;
        value           nonuniform List<scalar> 
42
(
15.5116
15.5116
15.5116
15.5115
15.5115
15.5115
4.48677
4.48677
4.48675
4.48674
4.48673
4.48673
-7.71453
-7.7145
-7.7145
-7.7145
-7.71451
-7.71452
-20.741
-20.7409
-20.7409
-20.7409
-20.7409
-20.7409
-34.2412
-34.2411
-34.241
-34.241
-34.2411
-34.2412
-47.9724
-47.9723
-47.9724
-47.9724
-47.9725
-47.9726
-61.7692
-61.7692
-61.7692
-61.7692
-61.7693
-61.7693
)
;
    }
    water_top_surface
    {
        type            calculated;
        value           nonuniform List<scalar> 
180
(
-71.602
-71.6023
-71.6022
-71.6022
-71.6022
-71.6019
-71.3436
-71.3438
-71.3437
-71.3437
-71.3438
-71.3436
-70.5735
-70.5738
-70.5738
-70.5738
-70.574
-70.5739
-69.3712
-69.3715
-69.3716
-69.3716
-69.3717
-69.3715
-68.67
-68.67
-68.67
-68.67
-68.67
-68.67
-68.67
-68.67
-68.67
-68.67
-68.67
-68.67
-68.67
-68.67
-68.67
-68.67
-68.67
-68.67
-68.6707
-68.6707
-68.6707
-68.6707
-68.6707
-68.6707
-68.7175
-68.7177
-68.7179
-68.7181
-68.7181
-68.7181
-68.9672
-68.9617
-68.9565
-68.9539
-68.9532
-68.9544
-80.4657
-80.4696
-80.4728
-80.4714
-80.474
-80.4777
-87.5274
-87.5845
-87.5586
-87.5675
-87.6076
-87.5125
-79.1057
-79.4809
-79.4975
-79.0889
-79.143
-79.6759
-74.6305
-74.5798
-74.5548
-74.7046
-74.7802
-74.449
-69.0139
-69.0215
-69.0172
-69.0244
-69.0343
-69.0153
-76.8585
-76.8885
-76.8328
-76.9622
-77.1353
-76.6807
-95.4419
-95.5338
-95.4387
-95.5884
-95.8634
-95.1478
-79.4479
-79.4952
-79.4573
-79.4992
-79.5639
-79.3838
-68.67
-68.67
-68.67
-68.67
-68.67
-68.67
-68.67
-68.67
-68.67
-68.67
-68.67
-68.67
-68.67
-68.67
-68.67
-68.67
-68.67
-68.67
-68.67
-68.67
-68.67
-68.67
-68.67
-68.67
-68.67
-68.67
-68.67
-68.67
-68.67
-68.67
-68.67
-68.67
-68.67
-68.67
-68.67
-68.67
-68.67
-68.67
-68.67
-68.67
-68.67
-68.67
-68.67
-68.67
-68.67
-68.67
-68.67
-68.67
-68.6703
-68.6704
-68.6705
-68.6703
-68.6702
-68.6704
-71.0115
-71.0192
-71.0197
-71.0035
-71.0054
-71.0255
-72.2579
-72.295
-72.3112
-72.2468
-72.3067
-72.2783
-69.0871
-69.0172
-69.0212
-70.1582
-72.4331
-69.009
)
;
    }
}


// ************************************************************************* //
