/*--------------------------------*- C++ -*----------------------------------*\
| =========                 |                                                 |
| \\      /  F ield         | OpenFOAM: The Open Source CFD Toolbox           |
|  \\    /   O peration     | Version:  v1612+                                |
|   \\  /    A nd           | Web:      www.OpenFOAM.com                      |
|    \\/     M anipulation  |                                                 |
\*---------------------------------------------------------------------------*/
FoamFile
{
    version     2.0;
    format      ascii;
    class       volScalarField;
    location    "4.2";
    object      p_rgh;
}
// * * * * * * * * * * * * * * * * * * * * * * * * * * * * * * * * * * * * * //

dimensions      [1 -1 -2 0 0 0 0];

internalField   nonuniform List<scalar> 
1116
(
4794.28
4794.33
4794.34
4794.35
4794.37
4794.3
4867.41
4867.45
4867.47
4867.47
4867.49
4867.44
5200.97
5201
5201.01
5201.01
5201.03
5201
5771.06
5771.09
5771.1
5771.1
5771.11
5771.11
6561.88
6561.91
6561.93
6561.92
6561.94
6561.95
7905.66
7905.68
7905.69
7905.69
7905.69
7905.71
10285.9
10285.9
10285.9
10285.9
10285.9
10286
14357.8
14357.7
14357.8
14357.8
14357.8
14357.8
18753.9
18753.9
18753.9
18753.9
18753.9
18753.9
22360.5
22360.6
22360.6
22360.6
22360.6
22360.6
26014.1
26014
26014
26013.9
26013.9
26014
28937.1
28937.1
28937.1
28937.1
28937.1
28937.1
-13.882
-13.8819
-13.8819
-13.8818
-13.8818
-13.8819
-13.936
-13.9359
-13.936
-13.9358
-13.9355
-13.9356
-18.8416
-18.8417
-18.8418
-18.8415
-18.8409
-18.8407
-39.8717
-39.8723
-39.8723
-39.8721
-39.8714
-39.8698
13.7003
13.6998
13.7007
13.7006
13.7008
13.7037
206.751
206.755
206.755
206.755
206.755
206.76
903.442
903.474
903.46
903.475
903.481
903.5
6583.53
6582.64
6583.04
6583.06
6582.88
6583.32
16993.9
16994.2
16994
16994
16994
16994
22350.3
22350.3
22350.3
22350.2
22350.3
22350.2
25846.8
25846.9
25846.8
25846.7
25846.9
25846.8
29004
29004.1
29004.1
29004.1
29004.1
29004.2
1.47259
1.47258
1.47259
1.4726
1.47261
1.47263
-0.724606
-0.724556
-0.72454
-0.724406
-0.724191
-0.724145
-7.64132
-7.64129
-7.64121
-7.64101
-7.64061
-7.64027
-43.6223
-43.6225
-43.6226
-43.6226
-43.6223
-43.622
-72.0071
-72.0076
-72.0077
-72.0077
-72.0077
-72.0065
-50.6147
-50.618
-50.6168
-50.6161
-50.6162
-50.6151
16.0831
16.0729
16.0772
16.0747
16.0724
16.0738
140.986
140.976
140.986
140.977
140.973
140.98
5094.95
5096.67
5095.84
5095.48
5095.71
5095.55
17519.2
17521.6
17520.3
17520
17520.6
17519.7
28295.3
28293.8
28294.2
28294.2
28293.8
28294.9
31812.9
31813.3
31813.2
31813.2
31813.3
31813.3
-8.16929
-8.16927
-8.16941
-8.16952
-8.1696
-8.16976
-9.31321
-9.31313
-9.3132
-9.31317
-9.31308
-9.31319
-11.7757
-11.7755
-11.7754
-11.7752
-11.7748
-11.775
-28.8971
-28.8971
-28.8969
-28.8965
-28.8962
-28.8963
-36.2441
-36.2441
-36.244
-36.2432
-36.2426
-36.2427
-21.7741
-21.7723
-21.7717
-21.7712
-21.7708
-21.7722
18.9515
18.9492
18.9536
18.9522
18.9508
18.9504
37.4392
37.4456
37.4448
37.4444
37.4457
37.4412
653.492
655.382
654.763
654.317
654.709
654.119
13038.5
13060.4
13051.9
13048.4
13054
13045.5
25240.5
25273.1
25259.7
25256.1
25265
25251
28274.7
28281.3
28278.4
28280.8
28283
28276.4
20.4166
20.4166
20.4166
20.4165
20.4165
20.4165
21.5131
21.5131
21.5131
21.5132
21.5132
21.5132
23.83
23.8301
23.8301
23.8302
23.8302
23.8303
27.6573
27.6573
27.6575
27.6572
27.6573
27.6574
33.5964
33.5951
33.5969
33.5939
33.5956
33.598
42.299
42.2932
42.3031
42.2886
42.2966
42.3096
55.2362
55.2118
55.2589
55.1979
55.2121
55.2861
83.0423
82.94
83.1338
82.8292
82.7927
83.3494
119.931
119.776
120.186
119.402
119.106
120.959
64.4757
64.5099
64.506
64.3232
64.1253
64.9551
-6.34077
-6.30639
-6.24976
-6.54049
-6.68621
-5.65134
-19.1129
-19.123
-19.1302
-19.1071
-19.1139
-19.2139
19.2018
19.2018
19.2018
19.2017
19.2017
19.2017
20.1962
20.1962
20.1961
20.1961
20.1962
20.1962
22.2681
22.2681
22.2682
22.2682
22.2683
22.2683
25.6109
25.6107
25.6112
25.6107
25.611
25.611
30.6333
30.6319
30.6342
30.6318
30.6335
30.6333
37.5547
37.5481
37.5598
37.5483
37.5541
37.5573
46.2773
46.2572
46.2943
46.2702
46.2697
46.2758
58.284
58.24
58.2504
58.454
58.4577
58.066
95.1746
94.7175
95.3049
94.9659
94.7578
95.7922
94.1881
94.2486
96.4811
90.5769
87.5812
102.283
-58.4665
-58.4385
-58.3479
-58.7514
-59.0423
-58.2731
-47.4871
-47.5298
-47.6126
-47.2957
-47.3282
-48.1437
16.8105
16.8105
16.8105
16.8105
16.8105
16.8105
17.5578
17.5578
17.5578
17.5578
17.5578
17.5579
19.0359
19.0359
19.036
19.036
19.0361
19.0361
21.1595
21.1594
21.1598
21.1596
21.1597
21.1594
23.6142
23.6135
23.6148
23.6148
23.6152
23.6126
25.2671
25.2652
25.2697
25.27
25.2729
25.2611
22.258
22.2559
22.2506
22.3057
22.3357
22.1833
3.06092
3.06084
2.94968
3.31334
3.45338
2.69319
-31.1983
-31.4141
-31.5946
-30.9458
-30.33
-31.8929
352.08
349.562
353.228
347.209
342.521
361.16
527.775
526.845
534.161
518.109
503.512
550.705
-62.27
-62.2884
-62.2936
-62.2139
-62.2593
-62.6103
13.594
13.5941
13.5941
13.5941
13.5941
13.5941
14.0476
14.0476
14.0476
14.0476
14.0476
14.0476
14.8453
14.8453
14.8453
14.8453
14.8453
14.8454
15.6918
15.6916
15.6918
15.6918
15.6919
15.6916
15.9039
15.9037
15.9039
15.9041
15.9042
15.9022
14.1545
14.1543
14.1537
14.1547
14.1563
14.1477
7.54847
7.55536
7.54482
7.54415
7.54531
7.5353
-15.414
-15.3597
-15.4133
-15.4502
-15.4913
-15.4101
-37.0967
-36.9864
-37.0667
-37.4391
-37.7721
-36.737
-60.6133
-60.7955
-60.9828
-60.9001
-61.0305
-61.4433
1629.46
1622.38
1628.45
1626.48
1613.77
1645.4
3659.63
3654.38
3694.01
3611.34
3532.74
3777.87
-4.17259
-4.17274
-4.17297
-4.17321
-4.17341
-4.17351
-3.8535
-3.85361
-3.85376
-3.85395
-3.85409
-3.85409
-3.08347
-3.08351
-3.0835
-3.08353
-3.08356
-3.0834
-4.61635
-4.61649
-4.61664
-4.61672
-4.61674
-4.61667
-3.6924
-3.69249
-3.6925
-3.69248
-3.6924
-3.69219
-2.85331
-2.85331
-2.85325
-2.85322
-2.85322
-2.8531
-6.1265
-6.1263
-6.12622
-6.12607
-6.12586
-6.12581
-3.5067
-3.50661
-3.50647
-3.5063
-3.50614
-3.50603
-2.28962
-2.28977
-2.28976
-2.28974
-2.28978
-2.28982
-10.8233
-10.823
-10.8228
-10.8225
-10.8223
-10.8222
-3.01877
-3.01869
-3.0187
-3.01868
-3.01869
-3.01877
-1.02142
-1.02163
-1.02168
-1.02166
-1.02164
-1.02162
-9.3053
-9.30428
-9.3044
-9.30382
-9.30305
-9.30331
-0.175479
-0.175435
-0.175666
-0.175612
-0.175313
-0.175263
0.453087
0.453019
0.45305
0.453155
0.453292
0.453491
3.7145
3.717
3.7167
3.71674
3.71694
3.7158
5.58792
5.58806
5.58777
5.58757
5.58753
5.58758
1.8719
1.8718
1.87191
1.87201
1.87203
1.87217
12.0836
12.0836
12.0848
12.0841
12.0837
12.0836
3.95459
3.95296
3.95367
3.95328
3.95257
3.95322
-0.915316
-0.916419
-0.916268
-0.916168
-0.9164
-0.915995
3.2271
3.23847
3.23172
3.22998
3.23159
3.22667
-7.38857
-7.37987
-7.38596
-7.38408
-7.38423
-7.38858
-5.60273
-5.60049
-5.60293
-5.60096
-5.60122
-5.60333
-44.4118
-44.3753
-44.4003
-44.4124
-44.4068
-44.4058
-54.507
-54.5157
-54.5195
-54.5243
-54.5301
-54.5236
-25.1227
-25.139
-25.1347
-25.134
-25.1357
-25.1362
-63.136
-63.1613
-63.1966
-63.2071
-63.2121
-63.162
-64.4257
-64.4527
-64.4606
-64.4707
-64.4701
-64.4564
-25.0316
-25.0646
-25.0603
-25.0597
-25.0552
-25.0633
30.8498
31.0447
31.0064
30.9303
30.931
30.9207
-37.0358
-37.022
-37.019
-37.0311
-37.0368
-37.0514
-4.43164
-4.45598
-4.43828
-4.44156
-4.44311
-4.43474
4093.01
4096.61
4094.96
4098.23
4101.69
4091.84
-17.4494
-17.4567
-17.4112
-17.4165
-17.4548
-17.4062
-9.66136
-9.66623
-9.65785
-9.66085
-9.67119
-9.64939
19619.1
19614.1
19619.4
19617
19627.9
19612.2
6.30215
6.20079
6.27325
6.62027
6.87943
6.18489
-2.13079
-2.24175
-2.25104
-2.18633
-2.59162
-2.35414
22421.9
22429
22433.8
22414.6
22422.3
22439.2
7.21172
7.2285
7.25221
7.26055
7.27858
7.26883
-0.775276
-0.762685
-0.759721
-0.779254
-0.785957
-0.737408
24267.4
24269
24270.2
24272.8
24275.3
24269.3
15.6819
15.6229
15.6549
15.7276
15.7658
15.6388
-3.58356
-3.58003
-3.5771
-3.56706
-3.55938
-3.56234
24439.7
24441
24442.9
24444.7
24445.4
24443.9
793.666
794.874
791.239
799.844
812.829
778.948
-2.7643
-2.74995
-2.75097
-2.74596
-2.717
-2.76534
24469.5
24470.7
24473
24473.1
24471
24475.9
1487.01
1490.49
1486.84
1494.3
1513.48
1467.77
2.75233
2.76977
2.76128
2.78501
2.83149
2.70488
22331.8
22335.4
22332.7
22342.1
22358.8
22316.6
2.64185
2.6487
2.67417
2.6263
2.61266
2.72547
-2.51807
-2.50673
-2.50855
-2.50102
-2.47793
-2.53314
9.90385
9.90394
9.90397
9.90395
9.90391
9.90384
5.98263
5.98266
5.98265
5.9826
5.98251
5.9824
1.99585
1.99584
1.99581
1.99579
1.99574
1.99566
10.1176
10.1176
10.1175
10.1175
10.1174
10.1174
6.05878
6.05873
6.05866
6.0586
6.05851
6.0584
2.00604
2.006
2.00597
2.00594
2.0059
2.00586
10.4173
10.4172
10.4171
10.4171
10.4171
10.4171
6.12456
6.12447
6.12442
6.1244
6.12438
6.12439
1.99513
1.99513
1.99512
1.99512
1.99511
1.99514
10.5007
10.5006
10.5005
10.5004
10.5004
10.5003
5.98645
5.98641
5.98634
5.98632
5.98628
5.98631
1.89783
1.89785
1.89784
1.89783
1.8978
1.89781
9.7783
9.77812
9.77773
9.77735
9.77696
9.77659
5.29752
5.29743
5.29705
5.29679
5.29631
5.29626
1.63075
1.63072
1.6306
1.63047
1.63032
1.63018
7.41056
7.41032
7.40824
7.40675
7.40522
7.40461
3.52775
3.52733
3.52566
3.5247
3.5225
3.52254
0.853746
0.853533
0.852946
0.852518
0.851696
0.851455
3.96057
3.96287
3.9535
3.94089
3.9336
3.94712
2.07673
2.07433
2.0692
2.06209
2.05786
2.05614
0.700947
0.700213
0.699027
0.69744
0.696705
0.694877
-11.8362
-11.8287
-11.8544
-11.8774
-11.9189
-11.89
-7.73612
-7.73853
-7.74776
-7.75108
-7.77021
-7.77569
-2.89331
-2.89489
-2.89855
-2.90087
-2.90544
-2.91173
-15.1355
-15.1091
-15.1807
-15.4147
-15.6554
-15.3749
-9.75006
-9.76054
-9.8035
-9.8563
-9.95621
-9.95887
-3.44655
-3.45252
-3.45777
-3.46053
-3.46851
-3.50091
-39.9506
-39.9652
-40.1573
-40.6027
-40.9937
-41.0082
-26.941
-26.8114
-26.8542
-27.1688
-27.4924
-27.4538
-5.60526
-5.62914
-5.66284
-5.67941
-5.69018
-5.81966
-14.5798
-14.3601
-14.4865
-14.5955
-16.8284
-13.6301
13.6762
13.9046
14.1459
13.5726
8.18837
20.1824
-3.24029
-3.27141
-3.2368
-3.10932
-2.98623
-3.14958
9232.82
9250.04
9289.71
9177.23
9082.17
9376.23
-2.30948
-2.32401
-2.24504
-1.95347
-1.81963
-1.55818
-20.4729
-20.6399
-20.7252
-19.6125
-17.679
-20.6522
)
;

boundaryField
{
    seabed_topleft_surface
    {
        type            fixedFluxPressure;
        gradient        uniform 0;
        value           nonuniform List<scalar> 
72
(
4794.28
4794.33
4794.34
4794.35
4794.37
4794.3
4867.41
4867.45
4867.47
4867.47
4867.49
4867.44
5200.97
5201
5201.01
5201.01
5201.03
5201
5771.06
5771.09
5771.1
5771.1
5771.11
5771.11
6561.88
6561.91
6561.93
6561.92
6561.94
6561.95
7905.66
7905.68
7905.69
7905.69
7905.69
7905.71
10285.9
10285.9
10285.9
10285.9
10285.9
10286
14357.8
14357.7
14357.8
14357.8
14357.8
14357.8
18753.9
18753.9
18753.9
18753.9
18753.9
18753.9
22360.5
22360.6
22360.6
22360.6
22360.6
22360.6
26014.1
26014
26014
26013.9
26013.9
26014
28937.1
28937.1
28937.1
28937.1
28937.1
28937.1
)
;
    }
    seabed_topright_surface
    {
        type            fixedFluxPressure;
        gradient        uniform 0;
        value           nonuniform List<scalar> 
72
(
20.4166
20.4166
20.4166
20.4165
20.4165
20.4165
21.5131
21.5131
21.5131
21.5132
21.5132
21.5132
23.83
23.8301
23.8301
23.8302
23.8302
23.8303
27.6573
27.6573
27.6575
27.6572
27.6573
27.6574
33.5964
33.5951
33.5969
33.5939
33.5956
33.598
42.299
42.2932
42.3031
42.2886
42.2966
42.3096
55.2362
55.2118
55.2589
55.1979
55.2121
55.2861
83.0423
82.94
83.1338
82.8292
82.7927
83.3494
119.931
119.776
120.186
119.402
119.106
120.959
64.4757
64.5099
64.506
64.3232
64.1253
64.9551
-6.34077
-6.30639
-6.24976
-6.54049
-6.68621
-5.65134
-19.1129
-19.123
-19.1302
-19.1071
-19.1139
-19.2139
)
;
    }
    breakwater_top_surface
    {
        type            fixedFluxPressure;
        gradient        uniform 0;
        value           nonuniform List<scalar> 
36
(
19619.1
19614.1
19619.4
19617
19627.9
19612.2
22421.9
22429
22433.8
22414.6
22422.3
22439.2
24267.4
24269
24270.2
24272.8
24275.3
24269.3
24439.7
24441
24442.9
24444.7
24445.4
24443.9
24469.5
24470.7
24473
24473.1
24471
24475.9
22331.8
22335.4
22332.7
22342.1
22358.8
22316.6
)
;
    }
    breakwater_left_surface
    {
        type            fixedFluxPressure;
        gradient        uniform 0;
        value           nonuniform List<scalar> 
24
(
28937.1
28937.1
28937.1
28937.1
28937.1
28937.1
29004
29004.1
29004.1
29004.1
29004.1
29004.2
31812.9
31813.3
31813.2
31813.2
31813.3
31813.3
28274.7
28281.3
28278.4
28280.8
28283
28276.4
)
;
    }
    breakwater_right_surface
    {
        type            fixedFluxPressure;
        gradient        uniform 0;
        value           nonuniform List<scalar> 
24
(
-19.1129
-19.123
-19.1302
-19.1071
-19.1139
-19.2139
-47.4871
-47.5298
-47.6126
-47.2957
-47.3282
-48.1437
-62.27
-62.2884
-62.2936
-62.2139
-62.2593
-62.6103
3659.63
3654.38
3694.01
3611.34
3532.74
3777.87
)
;
    }
    water_front_surface
    {
        type            fixedFluxPressure;
        gradient        uniform 0;
        value           nonuniform List<scalar> 
186
(
4794.28
4867.41
5200.97
5771.06
6561.88
7905.66
10285.9
14357.8
18753.9
22360.5
26014.1
28937.1
-13.882
-13.936
-18.8416
-39.8717
13.7003
206.751
903.442
6583.53
16993.9
22350.3
25846.8
29004
1.47259
-0.724606
-7.64132
-43.6223
-72.0071
-50.6147
16.0831
140.986
5094.95
17519.2
28295.3
31812.9
-8.16929
-9.31321
-11.7757
-28.8971
-36.2441
-21.7741
18.9515
37.4392
653.492
13038.5
25240.5
28274.7
20.4166
21.5131
23.83
27.6573
33.5964
42.299
55.2362
83.0423
119.931
64.4757
-6.34077
-19.1129
19.2018
20.1962
22.2681
25.6109
30.6333
37.5547
46.2773
58.284
95.1746
94.1881
-58.4665
-47.4871
16.8105
17.5578
19.0359
21.1595
23.6142
25.2671
22.258
3.06092
-31.1983
352.08
527.775
-62.27
13.594
14.0476
14.8453
15.6918
15.9039
14.1545
7.54847
-15.414
-37.0967
-60.6133
1629.46
3659.63
-4.17259
-3.8535
-3.08347
-4.61635
-3.6924
-2.85331
-6.1265
-3.5067
-2.28962
-10.8233
-3.01877
-1.02142
-9.3053
-0.175479
0.453087
3.7145
5.58792
1.8719
12.0836
3.95459
-0.915316
3.2271
-7.38857
-5.60273
-44.4118
-54.507
-25.1227
-63.136
-64.4257
-25.0316
30.8498
-37.0358
-4.43164
4093.01
-17.4494
-9.66136
19619.1
6.30215
-2.13079
22421.9
7.21172
-0.775276
24267.4
15.6819
-3.58356
24439.7
793.666
-2.7643
24469.5
1487.01
2.75233
22331.8
2.64185
-2.51807
9.90385
5.98263
1.99585
10.1176
6.05878
2.00604
10.4173
6.12456
1.99513
10.5007
5.98645
1.89783
9.7783
5.29752
1.63075
7.41056
3.52775
0.853746
3.96057
2.07673
0.700947
-11.8362
-7.73612
-2.89331
-15.1355
-9.75006
-3.44655
-39.9506
-26.941
-5.60526
-14.5798
13.6762
-3.24029
9232.82
-2.30948
-20.4729
)
;
    }
    water_back_surface
    {
        type            fixedFluxPressure;
        gradient        uniform 0;
        value           nonuniform List<scalar> 
186
(
4794.3
4867.44
5201
5771.11
6561.95
7905.71
10286
14357.8
18753.9
22360.6
26014
28937.1
-13.8819
-13.9356
-18.8407
-39.8698
13.7037
206.76
903.5
6583.32
16994
22350.2
25846.8
29004.2
1.47263
-0.724145
-7.64027
-43.622
-72.0065
-50.6151
16.0738
140.98
5095.55
17519.7
28294.9
31813.3
-8.16976
-9.31319
-11.775
-28.8963
-36.2427
-21.7722
18.9504
37.4412
654.119
13045.5
25251
28276.4
20.4165
21.5132
23.8303
27.6574
33.598
42.3096
55.2861
83.3494
120.959
64.9551
-5.65134
-19.2139
19.2017
20.1962
22.2683
25.611
30.6333
37.5573
46.2758
58.066
95.7922
102.283
-58.2731
-48.1437
16.8105
17.5579
19.0361
21.1594
23.6126
25.2611
22.1833
2.69319
-31.8929
361.16
550.705
-62.6103
13.5941
14.0476
14.8454
15.6916
15.9022
14.1477
7.5353
-15.4101
-36.737
-61.4433
1645.4
3777.87
-4.17351
-3.85409
-3.0834
-4.61667
-3.69219
-2.8531
-6.12581
-3.50603
-2.28982
-10.8222
-3.01877
-1.02162
-9.30331
-0.175263
0.453491
3.7158
5.58758
1.87217
12.0836
3.95322
-0.915995
3.22667
-7.38858
-5.60333
-44.4058
-54.5236
-25.1362
-63.162
-64.4564
-25.0633
30.9207
-37.0514
-4.43474
4091.84
-17.4062
-9.64939
19612.2
6.18489
-2.35414
22439.2
7.26883
-0.737408
24269.3
15.6388
-3.56234
24443.9
778.948
-2.76534
24475.9
1467.77
2.70488
22316.6
2.72547
-2.53314
9.90384
5.9824
1.99566
10.1174
6.0584
2.00586
10.4171
6.12439
1.99514
10.5003
5.98631
1.89781
9.77659
5.29626
1.63018
7.40461
3.52254
0.851455
3.94712
2.05614
0.694877
-11.89
-7.77569
-2.91173
-15.3749
-9.95887
-3.50091
-41.0082
-27.4538
-5.81966
-13.6301
20.1824
-3.14958
9376.23
-1.55818
-20.6522
)
;
    }
    water_left_surface
    {
        type            fixedFluxPressure;
        gradient        uniform 0;
        value           nonuniform List<scalar> 
42
(
4794.28
4794.33
4794.34
4794.35
4794.37
4794.3
-13.882
-13.8819
-13.8819
-13.8818
-13.8818
-13.8819
1.47259
1.47258
1.47259
1.4726
1.47261
1.47263
-8.16929
-8.16927
-8.16941
-8.16952
-8.1696
-8.16976
-4.17259
-4.17274
-4.17297
-4.17321
-4.17341
-4.17351
-3.8535
-3.85361
-3.85376
-3.85395
-3.85409
-3.85409
-3.08347
-3.08351
-3.0835
-3.08353
-3.08356
-3.0834
)
;
    }
    water_right_surface
    {
        type            fixedFluxPressure;
        gradient        uniform 0;
        value           nonuniform List<scalar> 
42
(
20.4166
20.4166
20.4166
20.4165
20.4165
20.4165
19.2018
19.2018
19.2018
19.2017
19.2017
19.2017
16.8105
16.8105
16.8105
16.8105
16.8105
16.8105
13.594
13.5941
13.5941
13.5941
13.5941
13.5941
9.90385
9.90394
9.90397
9.90395
9.90391
9.90384
5.98263
5.98266
5.98265
5.9826
5.98251
5.9824
1.99585
1.99584
1.99581
1.99579
1.99574
1.99566
)
;
    }
    water_top_surface
    {
        type            totalPressure;
        rho             rho;
        psi             none;
        gamma           1;
        p0              uniform 0;
        value           nonuniform List<scalar> 
180
(
-2.932
-2.9323
-2.9322
-2.93218
-2.93222
-2.93185
-2.67357
-2.67381
-2.67371
-2.6737
-2.67379
-2.67355
-1.90347
-1.90375
-1.90375
-1.90382
-1.90398
-1.90387
-0.701226
-0.70152
-0.701572
-0.701614
-0.701653
-0.701463
0
0
0
0
0
0
0
0
0
0
0
0
0
0
0
0
0
0
0
0
0
0
0
0
0
0
0
0
0
0
0
0
0
0
0
0
0
0
0
0
0
0
-18.8574
-18.9145
-18.8886
-18.8975
-18.9376
-18.8425
-10.4357
-10.8109
-10.8275
-10.4189
-10.473
-11.0059
-5.96047
-5.9098
-5.88478
-6.03463
-6.11021
-5.77901
-0.343899
-0.351475
-0.347199
-0.354388
-0.364297
-0.345264
-8.18853
-8.21846
-8.16285
-8.29218
-8.46532
-8.0107
-26.7719
-26.8638
-26.7687
-26.9184
-27.1934
-26.4778
-10.7779
-10.8252
-10.7873
-10.8292
-10.8939
-10.7138
0
0
0
0
0
0
0
0
0
0
0
0
0
0
0
0
0
0
0
0
0
0
0
0
0
0
0
0
0
0
0
0
0
0
0
0
0
0
0
0
0
0
0
0
0
0
0
0
0
0
0
0
0
0
-2.34145
-2.34921
-2.34973
-2.33348
-2.33539
-2.35552
-3.58795
-3.62503
-3.64122
-3.57683
-3.63671
-3.60827
0
0
-0.0409834
0
0
-0.0163426
)
;
    }
}


// ************************************************************************* //
