/*--------------------------------*- C++ -*----------------------------------*\
| =========                 |                                                 |
| \\      /  F ield         | OpenFOAM: The Open Source CFD Toolbox           |
|  \\    /   O peration     | Version:  v1612+                                |
|   \\  /    A nd           | Web:      www.OpenFOAM.com                      |
|    \\/     M anipulation  |                                                 |
\*---------------------------------------------------------------------------*/
FoamFile
{
    version     2.0;
    format      ascii;
    class       surfaceScalarField;
    location    "4.2";
    object      phi;
}
// * * * * * * * * * * * * * * * * * * * * * * * * * * * * * * * * * * * * * //

dimensions      [0 3 -1 0 0 0 0];

internalField   nonuniform List<scalar> 
2916
(
6.57824e-06
0.234694
-0.234701
4.9156e-06
0.234696
-0.234694
-3.048e-06
0.234695
-0.234687
1.09003e-06
0.234696
-0.2347
8.33985e-06
0.234695
-0.234703
0.234694
-0.234686
8.59879e-06
0.434732
-0.200046
5.28127e-06
0.434742
-0.200042
-9.16853e-07
0.434737
-0.200036
3.83571e-06
0.43474
-0.200049
9.7121e-06
0.434741
-0.200051
0.434733
-0.200029
8.41505e-06
0.589449
-0.154725
3.81644e-06
0.589468
-0.154722
4.4327e-07
0.589461
-0.15472
4.35313e-06
0.589463
-0.154727
6.53888e-06
0.589466
-0.154727
0.589451
-0.154712
7.83062e-06
0.712537
-0.123096
2.85802e-06
0.712566
-0.123093
1.52357e-06
0.712556
-0.123094
2.94695e-06
0.712558
-0.123097
9.45247e-07
0.712563
-0.123095
0.712542
-0.12309
6.28483e-06
0.766081
-0.0535501
1.93446e-06
0.766115
-0.0535445
1.37629e-06
0.766104
-0.0535469
8.32262e-07
0.766105
-0.0535464
-3.03144e-06
0.766111
-0.053544
0.766084
-0.0535453
5.06908e-06
0.648247
0.117829
2.56257e-06
0.648283
0.117834
9.33352e-07
0.648273
0.117833
-7.35807e-07
0.648273
0.117834
-4.50024e-06
0.64828
0.117835
0.648245
0.117834
-3.86333e-06
0.257986
0.390265
-3.68245e-07
0.258026
0.390253
-3.58839e-06
0.25802
0.390256
-6.34132e-06
0.25802
0.390256
-6.66049e-06
0.258028
0.390252
0.257985
0.390253
4.02458e-08
-0.293236
0.551222
-1.1333e-06
-0.29321
0.551237
-6.05815e-06
-0.293202
0.551226
-1.02848e-05
-0.293202
0.551226
-1.66783e-05
-0.293195
0.551229
-0.293252
0.55122
1.35681e-05
-0.887254
0.594005
5.8973e-06
-0.887255
0.594053
7.60324e-07
-0.887228
0.594032
-7.07144e-06
-0.88723
0.594036
-2.66331e-05
-0.887225
0.59405
-0.887293
0.594014
4.80945e-05
-1.14812
0.260813
1.61356e-05
-1.14812
0.260895
9.55099e-06
-1.14809
0.260869
-1.9991e-06
-1.14809
0.260872
-3.92637e-05
-1.14808
0.260896
-1.14814
0.26081
7.62605e-05
-0.775683
-0.372509
1.44893e-05
-0.775661
-0.372395
5.18414e-06
-0.775655
-0.372426
-7.9045e-06
-0.775657
-0.372421
-5.58582e-05
-0.775644
-0.372392
-0.775687
-0.37251
7.85469e-06
-0.775691
-1.49865e-05
-0.775638
-1.35299e-05
-0.775657
-9.55885e-06
-0.775661
-9.41911e-06
-0.775644
-0.775696
-4.25021e-05
1.73841
-1.97307
-5.14563e-06
1.73844
-1.97317
1.97097e-05
1.73844
-1.97315
5.29653e-05
1.73844
-1.97317
7.2628e-05
1.73845
-1.97318
1.73843
-1.97304
-5.19499e-05
3.75103
-2.21262
1.18496e-05
3.75107
-2.21274
4.68528e-05
3.75108
-2.21272
8.91237e-05
3.75108
-2.21273
0.000134084
3.7511
-2.21274
3.75111
-2.21257
-6.36769e-05
6.15234
-2.55597
1.26991e-05
6.15236
-2.55609
5.3082e-05
6.15239
-2.55607
9.94207e-05
6.15238
-2.55608
0.000162836
6.1524
-2.55608
6.15246
-2.5559
-2.44591e-05
8.26153
-2.23226
2.55978e-05
8.26159
-2.23238
6.31538e-05
8.26162
-2.23236
9.71593e-05
8.2616
-2.23235
9.66158e-05
8.26163
-2.23233
8.26164
-2.23218
4.11878e-05
7.08198
1.12595
1.52688e-05
7.08209
1.12598
2.93949e-05
7.08209
1.12597
-3.26976e-06
7.08205
1.12603
-0.000105562
7.08211
1.12608
7.08197
1.12602
2.06267e-05
3.70422
3.49557
4.01301e-06
3.70435
3.49559
8.5343e-06
3.70431
3.49561
-2.57592e-05
3.70427
3.49566
-0.000103926
3.70432
3.49571
3.70412
3.49557
-2.43123e-06
1.24957
2.84492
-5.49303e-05
1.24973
2.84493
-4.61396e-05
1.24968
2.84487
-5.22703e-05
1.24967
2.84486
-8.09825e-05
1.24972
2.84488
1.24955
2.84474
3.45958e-05
0.166655
1.6341
-3.88873e-05
0.166733
1.63431
-1.96912e-05
0.166713
1.63417
-1.87467e-05
0.166714
1.63418
-6.84773e-05
0.166739
1.63426
0.166652
1.63406
0.000124315
-0.303863
1.0644
1.22859e-05
-0.303798
1.0647
-1.82949e-06
-0.303799
1.06456
-8.24377e-06
-0.303793
1.06455
-8.4703e-05
-0.303758
1.06462
-0.303877
1.06446
9.5953e-05
-0.466718
0.423572
1.50046e-05
-0.466701
0.423879
1.64456e-05
-0.466678
0.423746
1.04195e-05
-0.466671
0.423756
-2.98709e-05
-0.466655
0.423833
-0.466732
0.423636
0.000123207
-0.367481
-0.471869
3.66777e-05
-0.367332
-0.471678
2.36817e-05
-0.367348
-0.471743
3.37082e-06
-0.367354
-0.471717
-4.56939e-05
-0.367311
-0.471686
-0.367453
-0.471836
-5.41929e-05
-1.14312
-3.34907e-05
-1.14299
-1.82078e-05
-1.14302
5.64209e-06
-1.14304
6.31706e-05
-1.14301
-1.14309
-5.88755e-05
-0.48135
-1.49166
-2.76365e-05
-0.48129
-1.49191
1.86318e-05
-0.481324
-1.49187
2.61101e-05
-0.4813
-1.49188
3.0765e-05
-0.481262
-1.49192
-0.481364
-1.49165
-3.6329e-05
-0.863052
-1.83088
-1.05469e-05
-0.862941
-1.83112
4.71897e-06
-0.862978
-1.83108
1.61199e-05
-0.862967
-1.83108
5.23589e-05
-0.862925
-1.83112
-0.863025
-1.83086
-9.30367e-05
-0.838731
-2.5802
-5.47523e-05
-0.838691
-2.58038
-3.83082e-05
-0.83871
-2.58036
-9.37865e-06
-0.838723
-2.58035
7.32688e-05
-0.838717
-2.58038
-0.838702
-2.58015
-0.0001963
0.327327
-3.39813
-0.000124099
0.327199
-3.39834
-0.000134312
0.327261
-3.39832
-5.45561e-05
0.327169
-3.39832
0.00016427
0.327073
-3.39834
0.327402
-3.39812
-0.000213276
2.09259
-0.639098
-0.000248882
2.09256
-0.639351
-0.000257375
2.09258
-0.639345
-0.000183588
2.09246
-0.639333
-3.74962e-05
2.09236
-0.63936
2.0926
-0.639218
-0.000116147
2.38368
3.20459
-0.000335192
2.38416
3.20421
-0.000321857
2.3839
3.20428
-0.000267837
2.3838
3.20426
-0.000206622
2.38381
3.20421
2.38377
3.2042
0.000758751
1.17077
4.05707
-0.000295276
1.17296
4.05718
-0.000227282
1.17179
4.05692
-0.000132876
1.17174
4.05682
-0.000345302
1.1721
4.05679
1.17154
4.05663
0.000570653
-1.0664
3.8707
-2.54226e-06
-1.06437
3.87221
-3.01426e-05
-1.06543
3.87141
-2.30464e-05
-1.0654
3.87131
-0.000301052
-1.06497
3.87161
-1.06573
3.87102
0.000387389
-0.511136
0.508745
4.6182e-05
-0.51041
0.511078
-7.19415e-05
-0.510756
0.510007
-9.02585e-06
-0.51077
0.509858
-0.000191148
-0.510586
0.510422
-0.510913
0.509446
0.000455425
-0.233515
0.145496
2.65927e-05
-0.232969
0.146867
-2.06914e-05
-0.233198
0.146236
2.56224e-05
-0.23322
0.14616
-0.000236995
-0.233073
0.146583
-0.233354
0.14584
0.000531908
-0.138942
-0.566974
4.01674e-05
-0.138646
-0.565509
-5.54528e-05
-0.138719
-0.566126
1.65529e-05
-0.13876
-0.566249
-0.000188117
-0.138739
-0.565816
-0.138809
-0.566569
-0.000180414
-1.28188
-2.27122e-05
-1.28179
3.26279e-05
-1.28179
3.71099e-05
-1.2818
0.000105253
-1.28182
-1.28179
3.04898e-05
-0.00549407
-1.48619
1.93159e-05
-0.00540627
-1.48649
1.45571e-06
-0.0054131
-1.48644
-1.54312e-05
-0.00541802
-1.48644
-2.85614e-05
-0.00540605
-1.4865
-0.00549345
-1.48619
2.8359e-05
-0.242682
-1.59372
5.72536e-06
-0.242517
-1.59398
-1.0589e-05
-0.242543
-1.59394
-2.54854e-05
-0.242548
-1.59394
-3.72792e-05
-0.242525
-1.59399
-0.24269
-1.5937
-3.11875e-05
-0.948872
-1.87398
-3.08243e-05
-0.948738
-1.87416
-3.37312e-05
-0.948766
-1.87413
-2.81406e-05
-0.94878
-1.87413
-9.4004e-07
-0.948769
-1.87416
-0.948891
-1.87396
-0.000128953
-2.14056
-2.20631
-8.61012e-05
-2.14063
-2.2065
-9.11141e-05
-2.14061
-2.20648
-5.7043e-05
-2.14066
-2.20648
5.34845e-05
-2.14072
-2.20651
-2.14064
-2.20631
-0.000348299
-1.81114
-0.968173
-0.000207594
-1.81161
-0.968508
-0.000208138
-1.81148
-0.968477
-0.000123253
-1.81158
-0.968498
0.000121564
-1.81177
-0.968556
-1.8114
-0.968336
-0.000323612
-0.638921
2.0327
-0.000292286
-0.639293
2.03187
-0.00029215
-0.63924
2.03204
-0.000199815
-0.639344
2.03194
4.37756e-05
-0.639528
2.03172
-0.639171
2.03201
0.00107611
-0.860272
4.27735
-1.42882e-05
-0.857736
4.27672
-6.18095e-05
-0.859081
4.27681
8.37299e-05
-0.859276
4.27661
-0.000184914
-0.858836
4.27637
-0.85937
4.27664
0.000396626
-2.09607
5.1061
0.00021713
-2.09419
5.10884
0.000114149
-2.09522
5.10765
0.000172617
-2.09535
5.10733
0.000136095
-2.09494
5.10776
-2.09547
5.10726
0.000638211
-3.13426
1.5463
0.000178142
-3.13275
1.5501
-7.29634e-05
-3.1333
1.54834
-5.51397e-05
-3.13379
1.54827
-0.000200708
-3.1332
1.54883
-3.13391
1.54769
0.000428295
-1.05777
-1.93142
0.000184562
-1.05598
-1.92966
9.71515e-06
-1.05676
-1.93013
4.66611e-05
-1.05704
-1.93062
-5.42794e-05
-1.05643
-1.93008
-1.05729
-1.93084
-0.0013078
-0.302561
-1.32088
6.31665e-05
-0.301006
-1.32185
0.000298351
-0.301658
-1.32146
3.78056e-05
-0.301842
-1.32119
0.000550831
-0.301476
-1.32129
-0.302016
-1.32129
-0.000752147
-1.58369
-1.70957e-05
-1.58354
0.00015585
-1.58363
4.81191e-05
-1.58354
0.000196747
-1.58345
-1.58361
-4.79984e-06
-0.15747
0.157475
-7.09987e-06
-0.157478
0.157479
-7.69429e-06
-0.157479
0.157479
-6.71964e-06
-0.157481
0.157479
-4.05708e-06
-0.157483
0.15748
-0.15748
0.157475
-7.65555e-06
-0.326587
0.169123
-1.07593e-05
-0.326602
0.169127
-1.15089e-05
-0.326606
0.169127
-1.07503e-05
-0.32661
0.169127
-6.87914e-06
-0.326615
0.169127
-0.326609
0.169122
-1.33903e-05
-0.521296
0.194723
-2.01439e-05
-0.521319
0.194725
-2.04413e-05
-0.521329
0.194723
-2.28092e-05
-0.52133
0.194724
-1.47015e-05
-0.521345
0.194723
-0.521339
0.194716
-1.93924e-05
-0.760453
0.239177
-4.43974e-05
-0.760461
0.239169
-2.75677e-05
-0.760497
0.239153
-5.93081e-05
-0.760457
0.23916
-4.37139e-05
-0.760517
0.239157
-0.760519
0.239137
9.00741e-06
-1.07098
0.310523
-8.53541e-05
-1.07085
0.310489
1.81888e-05
-1.07108
0.310484
-0.000185754
-1.07068
0.310432
-0.00020317
-1.07093
0.310432
-1.07127
0.310551
0.000176808
-1.51249
0.441325
-0.000217279
-1.51169
0.441227
0.000260135
-1.51322
0.441657
-0.000663373
-1.51043
0.44067
-0.000802233
-1.51137
0.440577
-1.51453
0.442457
0.000788553
-2.17573
0.662451
-0.000651333
-2.17293
0.662672
0.00439424
-2.18065
0.662381
-0.00288716
-2.1654
0.662246
-0.00966316
-2.16731
0.662714
-2.18741
0.663216
0.00239565
-2.52196
0.343839
-0.000704426
-2.51717
0.347346
0.0296308
-2.54114
0.330162
-0.00804053
-2.48972
0.36199
-0.0649957
-2.4816
0.371246
-2.56678
0.314375
0.00198241
-0.448492
-2.07545
4.84628e-05
-0.44797
-2.06727
0.0564909
-0.47865
-2.11894
-0.00948887
-0.407839
-2.01589
-0.128093
-0.38288
-1.98011
-0.516523
-2.17835
-0.00217717
2.20752
-2.65383
0.00452247
2.20671
-2.66138
0.0302105
2.19113
-2.69547
-0.00358379
2.22698
-2.60103
-0.0805418
2.24838
-2.55431
2.16552
-2.76258
-0.00201885
1.87052
0.339014
0.00416754
1.87059
0.329939
0.0350248
1.87288
0.287396
-0.00486839
1.86437
0.402496
-0.0943682
1.86567
0.472212
1.8797
0.191457
0.00065141
1.86987
0.002309
1.86894
0.00472992
1.87046
1.65825e-05
1.86908
-0.00738892
1.87307
1.87231
-5.07127e-06
-0.158648
0.316127
-6.56551e-06
-0.158656
0.316136
-6.55351e-06
-0.158658
0.316136
-5.51513e-06
-0.158659
0.316137
-3.27778e-06
-0.158661
0.316137
-0.158657
0.316129
-5.91108e-06
-0.328305
0.338786
-7.82803e-06
-0.328322
0.338794
-7.74573e-06
-0.328326
0.338794
-7.36038e-06
-0.328327
0.338794
-4.53481e-06
-0.328332
0.338795
-0.328324
0.338784
-5.73735e-06
-0.521868
0.388291
-1.18698e-05
-0.521886
0.388297
-8.46023e-06
-0.521898
0.388294
-1.44732e-05
-0.52189
0.388294
-9.5383e-06
-0.521905
0.388293
-0.521896
0.388281
3.81018e-06
-0.75856
0.475867
-2.13396e-05
-0.758546
0.475857
-4.50059e-06
-0.7586
0.475841
-3.92324e-05
-0.758537
0.475844
-2.57041e-05
-0.758606
0.475846
-0.758604
0.475818
6.57964e-05
-1.07668
0.628575
-7.601e-05
-1.07643
0.628517
-2.0856e-05
-1.07673
0.628554
-0.00016569
-1.0764
0.628439
-1.09933e-05
-1.07682
0.628486
-1.07671
0.628647
0.00021868
-1.57346
0.937888
-0.000350322
-1.57221
0.93757
0.000706424
-1.57458
0.938448
-0.000881449
-1.57089
0.93675
-0.00157764
-1.5724
0.93686
-1.57527
0.939441
0.000914186
-2.46898
1.55705
-0.000737544
-2.46456
1.55667
0.00675177
-2.47703
1.55735
-0.00298665
-2.45471
1.5558
-0.0143725
-2.45451
1.5562
-2.48484
1.55841
0.00360585
-3.67161
1.54286
-0.000821018
-3.66172
1.54893
0.00377623
-3.68129
1.52982
-0.00397888
-3.64972
1.56476
-0.0109543
-3.6451
1.56881
-3.69415
1.51273
0.00402373
-3.69047
-2.06061
0.000224719
-3.68222
-2.04297
-0.0271047
-3.70215
-2.07075
0.0012056
-3.66462
-2.02931
0.0588271
-3.65019
-2.03264
-3.72142
-2.09226
-0.0022496
-1.44695
-4.8951
0.000381877
-1.44683
-4.89939
-0.0075345
-1.47831
-4.9114
0.00996557
-1.40814
-4.875
0.0228156
-1.36751
-4.84984
-1.52792
-4.93326
0.000198767
0.836913
-1.94505
0.00539607
0.832822
-1.9549
0.00289807
0.805923
-1.99433
0.0105109
0.871259
-1.88452
0.014487
0.908252
-1.80753
0.754784
-2.07676
0.00346769
2.70332
0.00136152
2.70387
-0.0143044
2.69206
0.00552722
2.72052
0.0369263
2.74993
2.66402
-3.71487e-06
-0.141071
0.457202
-3.74309e-06
-0.141078
0.457215
-3.06879e-06
-0.141079
0.457215
-1.97081e-06
-0.141079
0.457216
-7.56521e-07
-0.141079
0.457216
-0.141074
0.457203
-3.78526e-06
-0.291445
0.489164
-3.95872e-06
-0.29146
0.489177
-2.43926e-06
-0.291462
0.489177
-1.83154e-06
-0.291461
0.489177
-3.30346e-07
-0.291462
0.489177
-0.291451
0.489163
-2.76866e-06
-0.46179
0.558639
-5.88409e-06
-0.461809
0.55865
-3.04743e-07
-0.461821
0.558648
-3.27549e-06
-0.46181
0.558646
-1.18947e-06
-0.461816
0.558646
-0.4618
0.558629
6.47674e-06
-0.664294
0.678367
-1.20967e-05
-0.664298
0.678367
3.64267e-06
-0.664352
0.678358
-8.42071e-06
-0.664309
0.678356
8.27521e-06
-0.664344
0.678358
-0.664307
0.678332
2.06044e-05
-0.908635
0.872897
-8.46731e-05
-0.908544
0.872867
-4.55133e-05
-0.908735
0.872898
-7.22081e-05
-0.908699
0.872854
8.99607e-05
-0.908918
0.872895
-0.908503
0.872932
8.94209e-06
-1.1748
1.20404
-0.000436113
-1.17434
1.20381
3.96975e-05
-1.17513
1.20436
-0.000544588
-1.17496
1.2036
-0.000418883
-1.17604
1.20386
-1.1742
1.20471
0.000721426
-1.41547
1.797
-0.00105735
-1.41226
1.79637
-0.00240948
-1.41362
1.79719
-0.00189029
-1.41685
1.79716
0.00258656
-1.4227
1.79838
-1.40986
1.79666
0.00313936
-2.00359
2.12784
-0.00288686
-1.98846
2.13116
-0.0286231
-1.98292
2.12486
-0.00115062
-2.01726
2.1377
0.0517801
-2.0442
2.13738
-1.96381
2.11847
0.00308122
-3.44729
-0.619993
-0.00366478
-3.42734
-0.597349
-0.0432051
-3.41431
-0.599821
0.00235745
-3.47086
-0.621277
0.0793451
-3.50292
-0.650904
-3.38845
-0.588274
-0.000462881
-3.89499
-4.44693
-0.00337342
-3.88292
-4.4409
-0.0173509
-3.87089
-4.44083
0.00402776
-3.91882
-4.44841
0.0392855
-3.94178
-4.44624
-3.84447
-4.43796
-0.00214998
-1.9744
-3.86349
-0.000934862
-1.97195
-3.86708
-0.0162779
-1.97609
-3.87379
0.000823278
-1.96886
-3.85158
0.0463975
-1.96234
-3.83254
-1.99225
-3.88258
0.000965628
0.727955
0.0025321
0.73033
0.0117269
0.706768
0.00881649
0.754573
-0.00524004
0.801648
0.666527
-2.43155e-06
-0.116174
0.573378
-1.27768e-06
-0.116179
0.573395
-1.00407e-07
-0.116179
0.573395
8.38638e-07
-0.116178
0.573396
1.22739e-06
-0.116177
0.573396
-0.116172
0.573378
-8.18665e-07
-0.23497
0.607963
1.47578e-07
-0.234981
0.607981
1.64275e-06
-0.234982
0.607981
2.28508e-06
-0.23498
0.607981
2.77174e-06
-0.234979
0.60798
-0.234966
0.607961
1.87893e-06
-0.356324
0.679992
1.51025e-06
-0.356339
0.68001
5.34453e-06
-0.356345
0.680008
3.9674e-06
-0.356338
0.680006
5.69717e-06
-0.356339
0.680005
-0.356316
0.679984
9.66889e-06
-0.473352
0.795386
-2.39406e-06
-0.47336
0.7954
5.28711e-06
-0.473393
0.795398
2.66346e-06
-0.473374
0.795394
1.94399e-05
-0.473397
0.795397
-0.473338
0.795371
3.21528e-07
-0.563125
0.96267
-7.26712e-05
-0.563091
0.96267
-6.80462e-05
-0.563198
0.962696
-5.2155e-05
-0.563242
0.962702
8.2922e-05
-0.563377
0.962735
-0.56302
0.962694
-8.81466e-05
-0.549283
1.19029
-0.000313408
-0.549288
1.19023
-0.000277349
-0.54933
1.19045
-0.000292809
-0.549972
1.19034
0.000131731
-0.550506
1.19056
-0.548655
1.19048
-0.000220303
-0.223844
1.47178
-0.000640224
-0.224031
1.47153
-0.00167436
-0.223246
1.47214
-0.000434455
-0.226033
1.47198
0.00217216
-0.227863
1.47313
-0.221393
1.47157
0.000818105
0.16136
1.74181
-0.00161554
0.167167
1.74239
-0.0139665
0.172655
1.74131
0.00176577
0.151527
1.74441
0.0214714
0.143348
1.74646
0.179834
1.73871
-0.00102984
-1.03913
0.581529
-0.00198183
-1.01912
0.589893
-0.0134526
-1.00675
0.59105
0.00269011
-1.0665
0.58061
0.00387225
-1.08261
0.573869
-0.99841
0.59384
-0.0021893
-3.1969
-2.28697
-0.0028714
-3.18042
-2.27893
-0.00856634
-3.17144
-2.27045
-0.00275354
-3.22302
-2.29771
0.00960422
-3.23861
-2.30259
-3.15609
-2.27068
-0.00375144
-3.3114
-3.74524
-0.00352245
-3.30739
-3.74033
-0.0123832
-3.30182
-3.73455
-0.00514694
-3.32369
-3.75815
0.0289981
-3.33486
-3.77043
-3.28515
-3.72451
-0.00506645
-2.57837
-0.00164148
-2.58049
-0.0160804
-2.58061
-0.00884111
-2.57635
0.0304363
-2.57249
-2.58819
4.78452e-05
-1.44443
-0.0418108
1.79832e-05
-1.44463
-0.0418399
2.95654e-06
-1.44459
-0.0418361
-1.32267e-05
-1.44459
-0.0418373
-4.968e-05
-1.44463
-0.0418437
-1.44443
-0.0418122
4.16048e-05
-1.3322
-0.112279
1.45631e-05
-1.33232
-0.11228
5.68519e-07
-1.3323
-0.11228
-1.40959e-05
-1.3323
-0.112281
-4.4545e-05
-1.33232
-0.11228
-1.33219
-0.11228
2.63421e-05
-0.0209217
8.62932e-06
-0.0209205
5.26807e-07
-0.0209208
-8.46135e-06
-0.020921
-2.8629e-05
-0.0209207
-0.0209216
2.98597e-05
-1.47676
-0.158802
9.31821e-06
-1.47695
-0.158858
-3.54669e-06
-1.47692
-0.158849
-1.66828e-05
-1.47691
-0.15885
-3.84388e-05
-1.47695
-0.158862
-1.47676
-0.1588
3.80163e-05
-1.28414
-0.304944
1.09067e-05
-1.28425
-0.304946
-3.42867e-06
-1.28424
-0.304946
-1.81824e-05
-1.28424
-0.304945
-4.79242e-05
-1.28426
-0.304944
-1.28414
-0.304939
2.4995e-05
-0.0529644
7.70563e-06
-0.0529606
-1.53281e-07
-0.0529612
-7.90965e-06
-0.0529612
-2.64046e-05
-0.0529605
-0.0529637
1.15575e-05
-1.45905
-0.573743
5.18393e-06
-1.45922
-0.573797
-4.42458e-06
-1.45919
-0.573784
-1.51028e-05
-1.45919
-0.573779
-2.3349e-05
-1.45923
-0.573788
-1.45905
-0.573731
3.17823e-05
-1.12542
-0.638604
7.29697e-06
-1.12553
-0.638607
-7.14623e-06
-1.12551
-0.638605
-1.91876e-05
-1.12552
-0.638603
-4.128e-05
-1.12554
-0.638605
-1.12543
-0.638593
2.44468e-05
-0.122067
6.92776e-06
-0.122058
-1.64449e-06
-0.122059
-8.61863e-06
-0.122059
-2.40041e-05
-0.122057
-0.122067
1.19757e-05
-1.16725
-1.61281
2.03953e-05
-1.1674
-1.6129
7.90975e-06
-1.16738
-1.61287
-1.37678e-05
-1.16738
-1.61286
-3.58444e-05
-1.16741
-1.61287
-1.16724
-1.61283
2.57967e-05
-0.763973
-1.04191
5.0149e-06
-0.764078
-1.04191
-8.67867e-06
-0.764067
-1.04191
-1.79921e-05
-0.764069
-1.04191
-3.3213e-05
-0.764089
-1.04191
-0.763981
-1.0419
2.05533e-05
-0.24796
4.11678e-06
-0.247944
-4.50632e-06
-0.247946
-1.17325e-05
-0.247945
-2.5376e-05
-0.247943
-0.247959
-4.12514e-05
-0.185462
-2.39549
6.79424e-05
-0.185639
-2.39588
5.28493e-05
-0.185619
-2.39571
2.66596e-05
-0.185619
-2.39571
3.13296e-05
-0.185648
-2.39578
-0.185505
-2.39563
1.70043e-05
0.0612581
-1.28864
1.61272e-05
0.0611293
-1.28868
1.16794e-05
0.0611381
-1.28867
4.91877e-06
0.0611357
-1.28866
-1.12849e-05
0.0611115
-1.28866
0.0612498
-1.28866
2.75852e-05
-0.370075
6.74629e-06
-0.370061
-2.73489e-06
-0.370075
-1.21847e-05
-0.370074
-3.2921e-05
-0.370073
-0.370083
7.25727e-05
1.24456
-1.60742
0.000143155
1.24397
-1.60806
0.000118003
1.24413
-1.60777
8.59778e-05
1.24408
-1.60782
6.53376e-05
1.24394
-1.60797
1.24419
-1.60774
0.000122977
1.04119
-1.08539
6.60063e-05
1.04099
-1.08565
6.93102e-05
1.04103
-1.08557
6.14158e-05
1.04102
-1.08559
-1.81144e-05
1.04098
-1.08562
1.04109
-1.08559
3.66915e-05
-0.30512
1.37019e-06
-0.305166
-4.55908e-06
-0.305174
-2.68935e-06
-0.305186
-1.72466e-05
-0.305193
-0.305196
0.000800716
2.94617
-0.277039
0.000242185
2.94542
-0.276199
0.000229288
2.94574
-0.276688
0.000187027
2.94566
-0.276823
-0.000129407
2.94547
-0.276755
2.9458
-0.27702
0.000348358
1.66755
0.192876
5.9069e-05
1.66723
0.19284
4.62176e-05
1.66744
0.192743
3.64212e-05
1.66745
0.192622
-0.000138562
1.66739
0.192635
1.66753
0.192549
2.0847e-05
0.28207
-8.23184e-05
0.281931
-9.73426e-05
0.281964
-3.86253e-05
0.281861
-1.93885e-05
0.281843
0.281906
-0.00041622
5.33779
-0.508309
0.000382385
5.33956
-0.507717
0.00017682
5.33898
-0.507818
2.13352e-06
5.33873
-0.508054
0.000180725
5.33895
-0.508124
5.33891
-0.508487
-0.00149559
4.07134
1.46082
0.000252424
4.07237
1.45828
0.000206724
4.07225
1.45952
-0.000196458
4.07218
1.45957
4.02474e-05
4.07232
1.45903
4.07235
1.45914
-0.000674555
1.62312
1.43751e-05
1.62218
4.46018e-05
1.62261
-0.000126175
1.62262
-4.5657e-05
1.62239
1.62251
-0.000260879
3.61349
-2.57524
-0.000118332
3.61807
-2.57583
-0.00016743
3.61631
-2.57574
-0.000188593
3.616
-2.57576
-0.000175664
3.61637
-2.57568
3.61546
-2.57643
-2.33369e-05
4.3379
0.736439
-0.000367421
4.3439
0.732787
-0.000169261
4.34152
0.734113
-0.000124657
4.34095
0.734587
-0.000572587
4.34171
0.734129
4.34079
0.73324
2.56235e-05
2.23268
-0.000259048
2.23153
-0.000161111
2.23184
-0.000205725
2.23201
-0.00038469
2.23165
2.23139
-0.00544659
-1.13257
-3.36864
-0.000160456
-1.13699
-3.37379
0.00179892
-1.13547
-3.37237
0.000728061
-1.13445
-3.37086
0.00060159
-1.13462
-3.37102
-1.13454
-3.37213
0.00175168
0.512032
-0.909916
-0.000498658
0.508988
-0.910942
-0.000142586
0.509422
-0.911146
2.89855e-05
0.510216
-0.910257
-0.0010738
0.510119
-0.909509
0.509922
-0.9123
0.000531966
1.88965
-0.000721293
1.88685
-0.00115799
1.88774
-0.000484069
1.88762
0.00262905
1.88493
1.89047
-0.00244797
-2.27489
-2.41218
0.000496244
-2.28465
-2.41394
0.000859687
-2.28046
-2.41373
0.000274161
-2.27877
-2.41269
0.00117075
-2.28114
-2.41206
-2.27798
-2.41427
0.00199123
-1.36002
-1.82678
0.000753611
-1.3686
-1.82576
0.000616235
-1.36482
-1.82665
0.000619272
-1.36375
-1.82528
0.000981226
-1.36764
-1.82337
-1.36021
-1.82909
0.00266853
0.372693
0.000110485
0.369312
-0.000652686
0.370705
0.000503784
0.370151
0.0020081
0.36692
0.373994
-0.00108765
-3.37215
-0.62263
-0.000197292
-3.37613
-0.622232
-0.000296761
-3.37468
-0.622573
-0.000103646
-3.37433
-0.622088
0.00109557
-3.37545
-0.621247
-3.37324
-0.623545
6.84026e-05
-4.01655
-1.18246
2.14879e-05
-4.02009
-1.18176
-8.87261e-05
-4.01851
-1.1827
0.000258178
-4.01924
-1.18072
0.000470065
-4.02153
-1.17751
-4.01528
-1.18659
0.00103472
-0.378114
0.000223893
-0.378412
0.000276027
-0.378395
6.89388e-05
-0.378669
-0.00133175
-0.379689
-0.377063
-0.00101188
-0.945343
-2.03464
2.981
-0.000664744
-0.952812
-2.03458
2.98704
-0.000711333
-0.951058
-2.03358
2.98469
-7.82268e-05
-0.946154
-2.03453
2.98005
0.00340302
-0.948824
-2.03468
2.98003
-0.947595
-2.03131
2.98231
0.00241636
-1.18888
-2.05646
2.29758
0.00302068
-1.21758
-2.04819
2.31235
-8.72378e-05
-1.21702
-2.04901
2.31808
0.006128
-1.18528
-2.05971
2.29262
0.0367342
-1.18922
-2.05639
2.26617
-1.22237
-2.06325
2.37475
-0.00107065
-0.384166
0.714358
0.00290961
-0.373008
0.69524
0.00912233
-0.372722
0.69443
0.00096173
-0.392781
0.732988
-0.00868705
-0.396305
0.738197
-0.3723
0.697992
-0.000427193
-0.593901
-1.44031
-0.000488991
-0.594264
-1.44025
-0.00121802
-0.592599
-1.44026
5.99009e-05
-0.596409
-1.4394
0.00355091
-0.600377
-1.4378
-0.586036
-1.44173
-0.00195289
-0.948274
-1.70014
0.00233019
-0.94404
-1.7027
0.00692059
-0.941064
-1.70514
0.00392965
-0.955236
-1.6979
0.00410882
-0.962932
-1.69401
-0.93081
-1.71437
-0.00371497
-0.181644
0.00305211
-0.181515
0.0119547
-0.182718
0.00180026
-0.183766
-0.0124877
-0.183784
-0.185685
-0.000167129
-0.439716
-1.00043
-0.000181004
-0.439846
-1.00039
-0.000283894
-0.439616
-1.00054
4.75697e-05
-0.439861
-0.999866
0.00106653
-0.439813
-0.999002
-0.439405
-1.00126
-0.000133128
-0.384925
-1.75479
-0.00119398
-0.386998
-1.75449
-0.0053874
-0.386079
-1.75448
0.000291682
-0.387771
-1.75567
0.0138001
-0.390917
-1.75642
-0.385493
-1.75448
0.000809925
-0.249665
0.00109752
-0.248203
0.000191517
-0.248937
0.00145666
-0.250945
0.00324437
-0.250746
-0.249814
-3.09715e-05
-0.398755
-0.601644
-0.000123014
-0.398717
-0.601583
7.50113e-05
-0.399144
-0.601592
-2.08574e-05
-0.398416
-0.601354
-0.0003568
-0.397819
-0.600847
-0.399775
-0.601838
-0.00162312
-1.12976
-1.02217
-0.000901932
-1.13124
-1.02269
-0.00411284
-1.12839
-1.02203
-0.00043257
-1.13521
-1.02255
0.0128998
-1.14434
-1.02323
-1.12029
-1.02106
-0.00105388
-0.0461802
0.000119891
-0.0462379
-8.02113e-05
-0.0467254
-0.000116637
-0.0461782
0.00296321
-0.0455676
-0.0478881
5.85548e-05
-0.3774
-0.224302
-3.25024e-05
-0.377015
-0.224477
0.000392663
-0.377721
-0.224296
-4.21801e-05
-0.376454
-0.224465
-0.00178982
-0.374086
-0.225013
-0.37997
-0.223658
-0.00164177
-1.93427
0.536347
-0.000702936
-1.93644
0.535803
-0.00288586
-1.93419
0.536622
-5.89375e-05
-1.9377
0.535872
0.0110268
-1.94351
0.535105
-1.92761
0.5376
-0.000667718
0.337828
-0.000104261
0.337942
-0.00139914
0.337949
-3.4942e-05
0.338057
0.00611984
0.338522
0.337068
-0.000291466
-0.84664
-4.05884e-05
-0.84696
-9.33588e-05
-0.846816
2.16416e-05
-0.846668
0.000209443
-0.846448
-0.846994
-0.00128774
-1.49146
-0.000703584
-1.49351
-0.00163019
-1.49197
0.000308715
-1.49345
0.0057816
-1.49432
-1.4902
-0.000539267
-0.000109171
-0.000679456
-0.000134897
0.00329196
-1.10601e-06
0.65038
-0.0770001
-6.23451e-09
0.650401
-0.0770033
8.43659e-07
0.650401
-0.0770032
1.45351e-06
0.650401
-0.0770029
1.69923e-06
0.650401
-0.0770026
0.650381
-0.0769991
2.6629e-07
0.697862
-0.0474794
7.65339e-07
0.697885
-0.0474816
1.11874e-06
0.697885
-0.0474815
1.40572e-06
0.697885
-0.0474814
1.68854e-06
0.697884
-0.0474813
0.697862
-0.0474791
4.84537e-07
-0.0171702
4.88085e-07
-0.0171712
4.49737e-07
-0.0171711
4.78132e-07
-0.017171
5.92789e-07
-0.0171709
-0.01717
5.62618e-07
0.684041
-0.153076
1.46653e-06
0.684063
-0.153084
2.14287e-06
0.684063
-0.153084
2.49469e-06
0.684062
-0.153084
2.72759e-06
0.684062
-0.153084
0.68404
-0.153076
1.09585e-06
0.729834
-0.0932713
1.61026e-06
0.729858
-0.0932763
1.6585e-06
0.729858
-0.0932759
1.78581e-06
0.729857
-0.0932763
1.729e-06
0.729857
-0.0932762
0.729833
-0.0932718
5.02298e-07
-0.0338707
6.65944e-07
-0.0338728
6.91759e-07
-0.0338725
6.40618e-07
-0.0338723
2.38482e-07
-0.0338721
-0.0338701
2.31402e-06
0.751899
-0.224984
2.22894e-06
0.751922
-0.224996
2.70494e-06
0.751921
-0.224999
2.55155e-06
0.751921
-0.224999
2.81494e-06
0.75192
-0.225001
0.751895
-0.224987
1.72907e-06
0.792292
-0.133667
2.33862e-06
0.792318
-0.133676
1.58386e-06
0.792318
-0.133673
1.85583e-06
0.792318
-0.133676
2.60616e-07
0.792317
-0.133674
0.792291
-0.133668
7.10529e-07
-0.0488324
1.74643e-06
-0.0488357
1.6691e-06
-0.0488343
1.51507e-06
-0.0488338
1.09181e-07
-0.0488324
-0.0488296
3.03478e-06
0.852891
-0.282492
-1.65032e-06
0.852915
-0.28251
-4.28954e-06
0.852916
-0.282516
-6.5678e-07
0.852915
-0.282526
7.81433e-06
0.852918
-0.282533
0.852888
-0.282499
2.64535e-06
0.880745
-0.161526
4.75336e-06
0.880776
-0.161541
9.87206e-07
0.880775
-0.161531
3.04116e-06
0.880777
-0.161542
-6.9805e-08
0.880776
-0.161532
0.880746
-0.161526
2.4812e-06
-0.0592005
5.91378e-06
-0.0592056
5.20803e-06
-0.0591999
5.08533e-06
-0.0591982
9.17919e-07
-0.0591915
-0.0591902
-8.35433e-06
0.98115
-0.300965
-2.81194e-05
0.981172
-0.300994
-6.63997e-05
0.981186
-0.30097
-2.25792e-05
0.9812
-0.301071
6.43443e-05
0.981218
-0.301106
0.981175
-0.300917
3.53318e-06
0.983833
-0.164214
9.68136e-06
0.983873
-0.164249
-1.1128e-05
0.983866
-0.164191
5.02357e-06
0.98388
-0.16424
3.82394e-06
0.983875
-0.16419
0.983847
-0.164196
8.76076e-06
-0.0610341
1.86788e-05
-0.0610413
1.64863e-05
-0.0610208
1.59374e-05
-0.0610095
4.79985e-06
-0.0609884
-0.0609844
-7.98297e-05
1.11892
-0.229523
-6.88137e-05
1.11895
-0.229731
-0.000177395
1.11903
-0.229437
-0.000110161
1.11906
-0.229859
4.26271e-05
1.11917
-0.229866
1.11905
-0.22944
-9.50817e-07
1.08835
-0.133643
7.09466e-05
1.08841
-0.133785
-3.10401e-06
1.08838
-0.133477
3.7136e-05
1.08842
-0.133643
1.89335e-05
1.08839
-0.1334
1.08838
-0.133516
2.06595e-05
-0.036524
6.64107e-05
-0.0365528
5.60864e-05
-0.036464
6.07211e-05
-0.0364475
-1.55736e-05
-0.0363272
-0.036395
-0.000194294
1.2298
0.0126468
-1.31881e-06
1.22992
0.0116738
6.19357e-05
1.2301
0.0125375
-0.000224897
1.2299
0.012505
-0.00112928
1.2304
0.0137637
1.23006
0.0109309
2.89377e-05
1.14495
-0.0488166
0.000300451
1.14509
-0.0492269
0.000426615
1.14504
-0.0485463
5.15125e-05
1.14498
-0.0483501
-0.000526153
1.14518
-0.0476024
1.14483
-0.0488117
6.28028e-05
-0.0372064
0.000214149
-0.0372949
0.000302049
-0.0370997
0.000144681
-0.0368871
7.33377e-05
-0.036678
-0.0368807
0.000426645
1.40766
0.34637
-0.000102272
1.40803
0.346562
-0.0033176
1.40783
0.34923
0.000758106
1.40822
0.344612
0.00131164
1.4103
0.349377
1.40633
0.344625
0.000510508
1.09031
0.268021
0.00157738
1.0909
0.266835
0.0019244
1.09038
0.268551
0.00105528
1.0903
0.270445
-0.0059324
1.09052
0.279163
1.09024
0.261342
0.000235917
0.172704
0.000676395
0.172523
0.000952809
0.17295
0.000532007
0.173806
-0.00119868
0.176132
0.171946
-0.00169041
1.18643
-0.25684
0.00148333
1.18794
-0.254657
0.00342529
1.1879
-0.249567
0.00322053
1.18824
-0.26281
-0.0148678
1.1887
-0.247367
1.18578
-0.262188
0.000685008
1.26019
0.193569
0.00662413
1.26027
0.188561
0.010059
1.25752
0.195499
0.00594268
1.25942
0.20338
-0.0170242
1.25981
0.231022
1.25427
0.175826
0.000252963
0.166389
0.00297937
0.163551
0.0058609
0.163251
0.00195844
0.171528
-0.00517858
0.176995
0.159605
-0.0135572
-0.582587
-1.94767
-0.000472972
-0.583505
-1.96317
0.0292645
-0.582944
-1.96681
0.00651106
-0.58355
-1.95422
-0.0515571
-0.574218
-1.91767
-0.607372
-1.97705
-0.00618768
-0.799443
0.416612
0.000508232
-0.807897
0.406258
0.0246958
-0.810672
0.39904
0.00371585
-0.787541
0.428349
-0.0529748
-0.773434
0.486928
-0.832588
0.348066
0.00580836
0.494387
-0.00222578
0.498714
-0.0150697
0.500573
0.00399593
0.496209
0.0409547
0.497916
0.504605
-0.00688555
-1.2594
-4.42663
0.0029873
-1.25667
-4.4567
0.0151906
-1.24945
-4.46411
-0.00674166
-1.27291
-4.41752
-0.0218964
-1.28098
-4.39197
-1.25419
-4.46928
-0.0244821
-1.0856
0.267295
0.0131019
-1.08885
0.200852
0.0680278
-1.08673
0.181387
-0.0107872
-1.08716
0.321404
-0.151911
-1.09612
0.443188
-1.08253
0.0244958
-0.00119378
0.836291
-0.00451491
0.846915
-0.00627723
0.852471
-0.00344056
0.830876
0.00157139
0.833667
0.853972
0.00279054
-4.0268
-0.00602038
-4.04134
-0.011612
-4.05444
-0.00265513
-4.02279
0.0107513