/*--------------------------------*- C++ -*----------------------------------*\
| =========                 |                                                 |
| \\      /  F ield         | OpenFOAM: The Open Source CFD Toolbox           |
|  \\    /   O peration     | Version:  v1612+                                |
|   \\  /    A nd           | Web:      www.OpenFOAM.com                      |
|    \\/     M anipulation  |                                                 |
\*---------------------------------------------------------------------------*/
FoamFile
{
    version     2.0;
    format      ascii;
    class       volScalarField;
    location    "1.65";
    object      alpha.water;
}
// * * * * * * * * * * * * * * * * * * * * * * * * * * * * * * * * * * * * * //

dimensions      [0 0 0 0 0 0 0];

internalField   nonuniform List<scalar> 
1116
(
0.999999
0.999999
0.999999
0.999999
0.999999
0.999999
0.999999
0.999999
0.999999
0.999999
0.999999
0.999999
0.999994
0.999994
0.999994
0.999994
0.999994
0.999994
0.999969
0.999969
0.999969
0.999969
0.999969
0.999969
0.999747
0.999747
0.999747
0.999747
0.999747
0.999747
0.996759
0.996759
0.996759
0.996759
0.996759
0.996759
0.956931
0.956925
0.956926
0.956927
0.956927
0.956927
0.882182
0.882167
0.882168
0.882169
0.882169
0.882172
0.811643
0.811625
0.811624
0.811626
0.811627
0.811633
0.813961
0.813961
0.81396
0.813955
0.81395
0.813949
0.578295
0.578326
0.57833
0.578339
0.578338
0.578315
0.0709331
0.0709343
0.0709356
0.0709355
0.0709334
0.0709341
0.999999
0.999999
0.999999
0.999999
0.999999
0.999999
0.999995
0.999995
0.999995
0.999995
0.999995
0.999995
0.999969
0.999969
0.999969
0.999969
0.999969
0.999969
0.968516
0.968518
0.968519
0.968519
0.968519
0.968522
0.833275
0.833274
0.833276
0.833276
0.833276
0.833277
0.583728
0.583718
0.583721
0.583723
0.583724
0.583726
0.277429
0.277414
0.277417
0.27742
0.27742
0.277423
0.0351267
0.0351196
0.03512
0.0351214
0.0351214
0.035122
-4.83922e-08
-4.76216e-08
-4.83417e-08
-4.89008e-08
-4.89031e-08
-4.86951e-08
0.000119113
0.000118974
0.000118808
0.000118866
0.000119127
0.000119211
0.0302249
0.0302205
0.0302215
0.0302211
0.0302174
0.0302197
0.0799819
0.0799808
0.0799825
0.0799819
0.0799785
0.0799822
0.999995
0.999995
0.999995
0.999995
0.999995
0.999995
0.973769
0.973769
0.973769
0.97377
0.973769
0.973771
0.751912
0.751916
0.751919
0.75192
0.751919
0.751925
0.3516
0.351605
0.35161
0.351612
0.351612
0.35162
0.0125983
0.0125982
0.0126001
0.012601
0.0126016
0.0126038
2.63569e-07
2.63569e-07
2.63592e-07
2.63616e-07
2.63632e-07
2.63655e-07
2.99022e-09
2.99314e-09
2.99197e-09
2.98794e-09
2.98162e-09
2.98385e-09
-2.74025e-08
-2.74137e-08
-2.7418e-08
-2.74157e-08
-2.74308e-08
-2.74198e-08
2.90535e-07
2.90662e-07
2.90598e-07
2.90391e-07
2.90048e-07
2.90171e-07
7.94621e-07
7.9486e-07
7.94752e-07
7.94356e-07
7.93695e-07
7.93943e-07
3.49831e-06
3.4974e-06
3.4984e-06
3.49887e-06
3.49666e-06
3.49742e-06
0.0288919
0.0288923
0.0288931
0.0288927
0.0288905
0.0288931
0.993202
0.993202
0.993202
0.993202
0.993202
0.993203
0.355583
0.355583
0.355584
0.355586
0.355586
0.355591
0.00734201
0.00734226
0.00734309
0.00734401
0.00734419
0.00734611
1.10977e-07
1.10992e-07
1.10997e-07
1.11008e-07
1.11005e-07
1.10955e-07
8.16209e-08
8.16166e-08
8.161e-08
8.16032e-08
8.15992e-08
8.15941e-08
-2.20717e-11
-2.20782e-11
-2.20833e-11
-2.2085e-11
-2.20917e-11
-2.20809e-11
1.96868e-10
1.97045e-10
1.96971e-10
1.96896e-10
1.96983e-10
1.96641e-10
1.56173e-09
1.56191e-09
1.56175e-09
1.56159e-09
1.56082e-09
1.56048e-09
3.44961e-07
3.45205e-07
3.45087e-07
3.44665e-07
3.43949e-07
3.44208e-07
1.98159e-05
1.9816e-05
1.9816e-05
1.9816e-05
1.98151e-05
1.98134e-05
8.37159e-06
8.37252e-06
8.37487e-06
8.37415e-06
8.36395e-06
8.3719e-06
5.92314e-05
5.923e-05
5.9242e-05
5.92376e-05
5.92008e-05
5.92124e-05
9.78883e-65
9.80748e-65
9.80726e-65
9.80951e-65
9.81593e-65
9.8021e-65
1.60367e-60
1.60677e-60
1.60679e-60
1.60722e-60
1.60835e-60
1.60627e-60
1.2521e-56
1.25451e-56
1.25456e-56
1.25492e-56
1.25586e-56
1.25435e-56
6.13277e-53
6.14452e-53
6.14498e-53
6.14687e-53
6.15172e-53
6.14486e-53
2.09736e-49
2.10136e-49
2.10158e-49
2.10227e-49
2.10401e-49
2.10187e-49
5.29636e-46
5.30639e-46
5.30705e-46
5.30892e-46
5.3135e-46
5.30862e-46
1.02056e-42
1.02247e-42
1.02261e-42
1.02299e-42
1.0239e-42
1.02306e-42
1.53879e-39
1.5416e-39
1.54181e-39
1.54239e-39
1.54377e-39
1.54264e-39
1.88631e-36
1.88963e-36
1.88984e-36
1.89053e-36
1.89224e-36
1.89099e-36
2.02321e-33
2.02647e-33
2.0266e-33
2.0273e-33
2.02912e-33
2.02796e-33
1.82119e-30
1.82481e-30
1.82499e-30
1.82543e-30
1.82671e-30
1.82528e-30
1.11406e-27
1.11641e-27
1.11645e-27
1.11648e-27
1.11683e-27
1.11534e-27
2.66855e-61
2.67298e-61
2.67277e-61
2.67333e-61
2.67512e-61
2.67149e-61
4.23811e-57
4.24514e-57
4.24491e-57
4.24594e-57
4.24899e-57
4.2437e-57
3.17515e-53
3.18031e-53
3.1802e-53
3.18104e-53
3.18345e-53
3.17977e-53
1.47203e-49
1.47437e-49
1.47435e-49
1.47476e-49
1.47594e-49
1.47436e-49
4.69004e-46
4.69728e-46
4.69726e-46
4.69867e-46
4.70261e-46
4.69808e-46
1.08816e-42
1.08978e-42
1.08978e-42
1.09013e-42
1.09108e-42
1.09016e-42
1.93099e-39
1.93371e-39
1.93371e-39
1.93436e-39
1.93611e-39
1.93469e-39
2.7744e-36
2.77799e-36
2.77795e-36
2.77888e-36
2.78146e-36
2.77972e-36
3.41862e-33
3.42254e-33
3.42235e-33
3.42345e-33
3.42663e-33
3.42482e-33
3.7782e-30
3.78196e-30
3.78158e-30
3.78264e-30
3.78605e-30
3.78431e-30
3.08855e-27
3.09377e-27
3.09377e-27
3.09423e-27
3.09608e-27
3.09354e-27
1.29397e-24
1.29639e-24
1.29635e-24
1.29629e-24
1.29657e-24
1.29477e-24
1.45884e-57
1.46135e-57
1.46121e-57
1.46138e-57
1.46212e-57
1.45977e-57
2.43849e-53
2.44269e-53
2.44248e-53
2.44282e-53
2.44412e-53
2.44039e-53
1.91365e-49
1.91688e-49
1.91674e-49
1.91701e-49
1.91805e-49
1.91522e-49
9.20128e-46
9.2165e-46
9.21583e-46
9.21713e-46
9.22222e-46
9.20912e-46
2.988e-42
2.99282e-42
2.99261e-42
2.99302e-42
2.99467e-42
2.99059e-42
6.84065e-39
6.85135e-39
6.85082e-39
6.85172e-39
6.85547e-39
6.84649e-39
1.11366e-35
1.11534e-35
1.11524e-35
1.11538e-35
1.11597e-35
1.11457e-35
1.27075e-32
1.27258e-32
1.27245e-32
1.27258e-32
1.27323e-32
1.27168e-32
1.02185e-29
1.02327e-29
1.02315e-29
1.02322e-29
1.02371e-29
1.02253e-29
6.11051e-27
6.11862e-27
6.11784e-27
6.11811e-27
6.12085e-27
6.11417e-27
2.95335e-24
2.95783e-24
2.95756e-24
2.95752e-24
2.95849e-24
2.955e-24
6.76505e-22
6.77613e-22
6.77544e-22
6.77463e-22
6.77531e-22
6.76526e-22
6.81604e-55
6.82893e-55
6.82863e-55
6.82937e-55
6.83243e-55
6.82087e-55
1.18926e-50
1.19152e-50
1.19148e-50
1.19163e-50
1.19218e-50
1.19024e-50
9.5355e-47
9.55341e-47
9.5532e-47
9.55437e-47
9.55882e-47
9.54364e-47
4.53788e-43
4.54629e-43
4.54622e-43
4.54676e-43
4.54886e-43
4.54182e-43
1.39739e-39
1.39994e-39
1.39992e-39
1.40008e-39
1.40071e-39
1.3986e-39
2.89843e-36
2.9036e-36
2.90354e-36
2.90383e-36
2.90511e-36
2.90086e-36
4.19658e-33
4.20381e-33
4.20364e-33
4.204e-33
4.20576e-33
4.19979e-33
4.43661e-30
4.44379e-30
4.44348e-30
4.44372e-30
4.44548e-30
4.43943e-30
3.57319e-27
3.5784e-27
3.578e-27
3.57806e-27
3.57939e-27
3.57485e-27
2.30084e-24
2.30365e-24
2.30327e-24
2.30323e-24
2.30404e-24
2.30141e-24
1.14094e-21
1.14248e-21
1.14231e-21
1.14221e-21
1.14242e-21
1.1409e-21
1.38258e-19
1.38448e-19
1.38426e-19
1.38404e-19
1.38409e-19
1.38204e-19
0.595148
0.595148
0.59515
0.59515
0.595149
0.595154
0.158384
0.158386
0.158387
0.158385
0.158385
0.158391
-8.2384e-14
-9.02434e-14
-9.26298e-14
-9.05684e-14
-9.00352e-14
-9.21811e-14
6.6886e-08
6.68616e-08
6.68616e-08
6.68743e-08
6.68696e-08
6.68359e-08
0.000292862
0.0002926
0.000292552
0.000292698
0.000292745
0.000292327
-6.76339e-13
-7.40843e-13
-7.60433e-13
-7.43507e-13
-7.39126e-13
-7.5674e-13
3.34313e-08
3.34303e-08
3.34313e-08
3.34303e-08
3.34179e-08
3.34179e-08
4.70767e-18
5.19077e-18
4.80994e-13
3.98421e-13
4.32425e-13
5.65046e-18
-2.39545e-12
-2.62389e-12
-2.69328e-12
-2.63333e-12
-2.61783e-12
-2.68021e-12
6.66555e-08
6.66315e-08
6.66373e-08
6.66629e-08
6.66786e-08
6.65889e-08
1.01091e-05
1.01092e-05
1.01092e-05
1.01092e-05
1.01092e-05
1.01091e-05
-6.33683e-12
-6.94099e-12
-7.12447e-12
-6.96586e-12
-6.92491e-12
-7.0897e-12
1.83132e-08
1.83031e-08
1.82939e-08
1.82849e-08
1.82766e-08
1.82614e-08
9.55742e-06
9.55724e-06
9.55744e-06
9.55746e-06
9.55737e-06
9.55739e-06
-1.34854e-15
-1.60143e-15
-1.80951e-15
-1.72542e-15
-1.64286e-15
4.08413e-29
-8.77577e-14
-8.78674e-14
-8.78325e-14
-8.77951e-14
-8.78391e-14
-8.76528e-14
-1.25851e-16
-1.26076e-16
-1.26091e-16
-1.26078e-16
-1.26095e-16
-1.26059e-16
1.96774e-17
1.968e-17
1.96802e-17
1.96806e-17
1.96823e-17
1.96787e-17
-6.49473e-13
-6.52669e-13
-6.52083e-13
-6.51231e-13
-6.52777e-13
-6.48904e-13
-6.69814e-14
-6.69968e-14
-6.70095e-14
-6.70196e-14
-6.70127e-14
-6.70425e-14
-8.62922e-19
-8.70877e-19
-8.64465e-19
-8.64291e-19
-8.66621e-19
-8.41226e-19
1.92646e-08
1.92754e-08
1.92687e-08
1.92606e-08
1.92873e-08
1.92368e-08
1.37242e-12
1.37312e-12
1.37312e-12
1.37314e-12
1.3731e-12
1.37284e-12
-4.91764e-15
-4.92257e-15
-4.92258e-15
-4.9228e-15
-4.9224e-15
-4.91919e-15
3.58007e-07
3.58088e-07
3.58094e-07
3.58131e-07
3.577e-07
3.58112e-07
1.19147e-10
1.19181e-10
1.19182e-10
1.19186e-10
1.19182e-10
1.19187e-10
-2.61017e-15
-2.61825e-15
-2.61741e-15
-2.62146e-15
-2.62591e-15
-2.61717e-15
2.97551e-06
2.97647e-06
2.97739e-06
2.97741e-06
2.97169e-06
2.97698e-06
1.27127e-07
1.27135e-07
1.27138e-07
1.27145e-07
1.27137e-07
1.27185e-07
1.38042e-08
1.38083e-08
1.38064e-08
1.38081e-08
1.38206e-08
1.38165e-08
3.63192e-06
3.63287e-06
3.63396e-06
3.63382e-06
3.62743e-06
3.63369e-06
6.17804e-06
6.17795e-06
6.17806e-06
6.17807e-06
6.17789e-06
6.17979e-06
9.51975e-07
9.52207e-07
9.52138e-07
9.52213e-07
9.52746e-07
9.52754e-07
7.92851e-06
7.92956e-06
7.93166e-06
7.93112e-06
7.92178e-06
7.92969e-06
6.28796e-06
6.28794e-06
6.28807e-06
6.28805e-06
6.28772e-06
6.29e-06
1.03669e-06
1.03696e-06
1.03685e-06
1.03695e-06
1.03764e-06
1.03772e-06
1.59131e-16
1.59277e-16
1.59246e-16
1.59224e-16
1.59223e-16
1.59037e-16
5.04719e-16
5.04987e-16
5.04957e-16
5.04909e-16
5.04872e-16
5.04555e-16
2.38307e-15
2.38507e-15
2.38495e-15
2.38474e-15
2.38458e-15
2.3827e-15
6.07516e-14
6.08018e-14
6.08014e-14
6.08027e-14
6.08062e-14
6.07672e-14
7.14211e-14
7.14904e-14
7.14831e-14
7.14744e-14
7.14677e-14
7.1399e-14
1.35816e-13
1.35739e-13
1.35749e-13
1.35738e-13
1.35698e-13
1.35805e-13
1.45413e-11
1.45541e-11
1.45534e-11
1.45524e-11
1.45519e-11
1.45411e-11
9.88022e-12
9.88892e-12
9.88834e-12
9.88771e-12
9.88742e-12
9.88011e-12
9.84458e-13
9.85405e-13
9.85317e-13
9.85249e-13
9.85259e-13
9.84283e-13
1.93566e-09
1.93689e-09
1.93691e-09
1.93692e-09
1.93699e-09
1.93635e-09
1.35017e-09
1.35105e-09
1.35102e-09
1.35101e-09
1.35103e-09
1.3505e-09
6.28179e-10
6.29248e-10
6.28757e-10
6.28434e-10
6.28545e-10
6.23287e-10
4.13306e-10
4.13306e-10
4.13319e-10
4.13336e-10
4.13347e-10
4.1337e-10
2.75469e-06
2.75622e-06
2.75592e-06
2.75576e-06
2.75581e-06
2.75418e-06
1.90777e-07
1.90951e-07
1.90931e-07
1.90923e-07
1.90938e-07
1.90765e-07
0.000100777
0.0001008
0.00010079
0.000100785
0.000100783
0.00010076
3.86894e-05
3.87046e-05
3.87016e-05
3.87002e-05
3.87003e-05
3.86934e-05
3.7201e-07
3.72269e-07
3.72274e-07
3.72288e-07
3.72307e-07
3.72492e-07
1.06379e-51
1.06568e-51
1.06558e-51
1.06563e-51
1.06601e-51
1.06407e-51
1.05934e-53
1.06133e-53
1.06129e-53
1.06135e-53
1.06171e-53
1.05968e-53
4.24066e-57
4.24893e-57
4.24874e-57
4.249e-57
4.25052e-57
4.24212e-57
2.56742e-47
2.57193e-47
2.57167e-47
2.57179e-47
2.57269e-47
2.56811e-47
4.88788e-49
4.8968e-49
4.89667e-49
4.89691e-49
4.89845e-49
4.88946e-49
2.22314e-52
2.22736e-52
2.22728e-52
2.2274e-52
2.22815e-52
2.22389e-52
2.83393e-43
2.83877e-43
2.83846e-43
2.83853e-43
2.83947e-43
2.83448e-43
1.0696e-44
1.07146e-44
1.07143e-44
1.07147e-44
1.07177e-44
1.06987e-44
5.93599e-48
5.9468e-48
5.9466e-48
5.94684e-48
5.94865e-48
5.93767e-48
1.8321e-39
1.83512e-39
1.8349e-39
1.8349e-39
1.83546e-39
1.83228e-39
1.40429e-40
1.40662e-40
1.40658e-40
1.4066e-40
1.40695e-40
1.40457e-40
1.02159e-43
1.02336e-43
1.02333e-43
1.02336e-43
1.02364e-43
1.02183e-43
7.44359e-36
7.45541e-36
7.45436e-36
7.45424e-36
7.45632e-36
7.44364e-36
1.17662e-36
1.17846e-36
1.17843e-36
1.17843e-36
1.17868e-36
1.1768e-36
1.20806e-39
1.21006e-39
1.21002e-39
1.21004e-39
1.21033e-39
1.2083e-39
1.90746e-32
1.91037e-32
1.91007e-32
1.91001e-32
1.91049e-32
1.90731e-32
6.31243e-33
6.32175e-33
6.32157e-33
6.32155e-33
6.32272e-33
6.31316e-33
9.87031e-36
9.88567e-36
9.8854e-36
9.88548e-36
9.8876e-36
9.87185e-36
2.96524e-29
2.96956e-29
2.96905e-29
2.96889e-29
2.96956e-29
2.96472e-29
2.11891e-29
2.12185e-29
2.12179e-29
2.12176e-29
2.12208e-29
2.11907e-29
5.41189e-32
5.41979e-32
5.41966e-32
5.41964e-32
5.42065e-32
5.41255e-32
2.62713e-26
2.63076e-26
2.63027e-26
2.63007e-26
2.63058e-26
2.62639e-26
4.30073e-26
4.30631e-26
4.30619e-26
4.30607e-26
4.30658e-26
4.3009e-26
1.87647e-28
1.87902e-28
1.87898e-28
1.87896e-28
1.87926e-28
1.87665e-28
1.23985e-23
1.24146e-23
1.24122e-23
1.24109e-23
1.24129e-23
1.23936e-23
5.03846e-23
5.04458e-23
5.04442e-23
5.04421e-23
5.04462e-23
5.03847e-23
3.78299e-25
3.78779e-25
3.78771e-25
3.78764e-25
3.78812e-25
3.78324e-25
2.92418e-21
2.92778e-21
2.92717e-21
2.9268e-21
2.92713e-21
2.9227e-21
3.18019e-20
3.18382e-20
3.18369e-20
3.18351e-20
3.18362e-20
3.18001e-20
4.07492e-22
4.07972e-22
4.07963e-22
4.0795e-22
4.07987e-22
4.07499e-22
3.197e-19
3.20072e-19
3.20001e-19
3.19952e-19
3.19971e-19
3.19498e-19
9.88298e-18
9.89372e-18
9.8931e-18
9.89226e-18
9.89207e-18
9.88153e-18
2.21135e-19
2.21379e-19
2.21371e-19
2.21362e-19
2.21374e-19
2.21127e-19
1.46941e-17
1.47102e-17
1.47069e-17
1.47042e-17
1.4704e-17
1.46832e-17
5.25049e-16
5.25581e-16
5.2554e-16
5.2549e-16
5.25474e-16
5.24954e-16
4.65718e-17
4.66202e-17
4.66181e-17
4.66157e-17
4.66174e-17
4.6568e-17
)
;

boundaryField
{
    seabed_topleft_surface
    {
        type            zeroGradient;
    }
    seabed_topright_surface
    {
        type            zeroGradient;
    }
    breakwater_top_surface
    {
        type            zeroGradient;
    }
    breakwater_left_surface
    {
        type            zeroGradient;
    }
    breakwater_right_surface
    {
        type            zeroGradient;
    }
    water_front_surface
    {
        type            zeroGradient;
    }
    water_back_surface
    {
        type            zeroGradient;
    }
    water_left_surface
    {
        type            zeroGradient;
    }
    water_right_surface
    {
        type            zeroGradient;
    }
    water_top_surface
    {
        type            inletOutlet;
        inletValue      uniform 0;
        value           nonuniform List<scalar> 
180
(
-8.2384e-14
-9.02434e-14
-9.26298e-14
-9.05684e-14
-9.00352e-14
-9.21811e-14
0
0
0
0
0
0
0
0
0
0
0
0
0
0
0
0
0
0
0
0
0
0
0
0
0
0
0
0
0
0
0
0
0
0
0
0
0
0
0
0
0
0
0
0
0
0
0
0
1.38042e-08
1.38083e-08
1.38064e-08
1.38081e-08
1.38206e-08
1.38165e-08
9.51975e-07
9.52207e-07
9.52138e-07
9.52213e-07
9.52746e-07
9.52754e-07
1.03669e-06
1.03696e-06
1.03685e-06
1.03695e-06
1.03764e-06
1.03772e-06
2.38307e-15
2.38507e-15
2.38495e-15
2.38474e-15
2.38458e-15
2.3827e-15
1.35816e-13
1.35739e-13
1.35749e-13
1.35738e-13
1.35698e-13
1.35805e-13
9.84458e-13
9.85405e-13
9.85317e-13
9.85249e-13
9.85259e-13
9.84283e-13
6.28179e-10
6.29248e-10
6.28757e-10
6.28434e-10
6.28545e-10
6.23287e-10
1.90777e-07
1.90951e-07
1.90931e-07
1.90923e-07
1.90938e-07
1.90765e-07
3.7201e-07
3.72269e-07
3.72274e-07
3.72288e-07
3.72307e-07
3.72492e-07
4.24066e-57
4.24893e-57
4.24874e-57
4.249e-57
4.25052e-57
4.24212e-57
2.22314e-52
2.22736e-52
2.22728e-52
2.2274e-52
2.22815e-52
2.22389e-52
5.93599e-48
5.9468e-48
5.9466e-48
5.94684e-48
5.94865e-48
5.93767e-48
1.02159e-43
1.02336e-43
1.02333e-43
1.02336e-43
1.02364e-43
1.02183e-43
1.20806e-39
1.21006e-39
1.21002e-39
1.21004e-39
1.21033e-39
1.2083e-39
9.87031e-36
9.88567e-36
9.8854e-36
9.88548e-36
9.8876e-36
9.87185e-36
5.41189e-32
5.41979e-32
5.41966e-32
5.41964e-32
5.42065e-32
5.41255e-32
1.87647e-28
1.87902e-28
1.87898e-28
1.87896e-28
1.87926e-28
1.87665e-28
3.78299e-25
3.78779e-25
3.78771e-25
3.78764e-25
3.78812e-25
3.78324e-25
4.07492e-22
4.07972e-22
4.07963e-22
4.0795e-22
4.07987e-22
4.07499e-22
2.21135e-19
2.21379e-19
2.21371e-19
2.21362e-19
2.21374e-19
2.21127e-19
4.65718e-17
4.66202e-17
4.66181e-17
4.66157e-17
4.66174e-17
4.6568e-17
)
;
    }
}


// ************************************************************************* //
