/*--------------------------------*- C++ -*----------------------------------*\
| =========                 |                                                 |
| \\      /  F ield         | OpenFOAM: The Open Source CFD Toolbox           |
|  \\    /   O peration     | Version:  v1612+                                |
|   \\  /    A nd           | Web:      www.OpenFOAM.com                      |
|    \\/     M anipulation  |                                                 |
\*---------------------------------------------------------------------------*/
FoamFile
{
    version     2.0;
    format      ascii;
    class       volScalarField;
    location    "1.65";
    object      p_rgh;
}
// * * * * * * * * * * * * * * * * * * * * * * * * * * * * * * * * * * * * * //

dimensions      [1 -1 -2 0 0 0 0];

internalField   nonuniform List<scalar> 
1116
(
36744
36744
36744
36744
36744
36744
35610.8
35610.8
35610.8
35610.8
35610.8
35610.8
32162.2
32162.2
32162.2
32162.2
32162.2
32162.2
27927.9
27927.9
27927.9
27927.9
27927.9
27927.9
23361.2
23361.2
23361.2
23361.2
23361.2
23361.3
19077
19077
19077
19077
19077
19077.1
14691
14690.9
14690.9
14691
14691
14691
10360.8
10360.7
10360.7
10360.7
10360.7
10360.7
8240.82
8240.66
8240.67
8240.7
8240.72
8240.79
7868.89
7868.84
7868.84
7868.82
7868.79
7868.78
13417.3
13417.4
13417.4
13417.5
13417.5
13417.4
12987.5
12987.6
12987.7
12987.7
12987.7
12987.7
36629.7
36629.7
36629.7
36629.7
36629.7
36629.7
34618.7
34618.7
34618.7
34618.7
34618.7
34618.7
30423.9
30424
30424
30424
30424
30424
25060.8
25060.9
25060.9
25060.9
25060.9
25061
17537.8
17537.8
17537.8
17537.9
17537.9
17537.9
11469.6
11469.4
11469.4
11469.5
11469.5
11469.5
5417.19
5416.91
5416.97
5417.02
5417.03
5417.07
677.082
676.966
676.975
676.997
676.996
677.007
-27.727
-27.7265
-27.7205
-27.7134
-27.7096
-27.7075
93.7643
93.7634
93.7555
93.7591
93.7771
93.7849
691.941
691.861
691.894
691.932
691.909
691.937
5422.89
5422.92
5422.97
5422.97
5422.91
5422.89
36897.1
36897.1
36897.1
36897.1
36897.2
36897.2
32894.5
32894.6
32894.6
32894.6
32894.6
32894.7
22749.3
22749.5
22749.6
22749.6
22749.6
22749.8
10264.1
10264.2
10264.4
10264.4
10264.4
10264.6
396.345
396.344
396.397
396.422
396.439
396.5
-30.9428
-30.9415
-30.9407
-30.9397
-30.9386
-30.9381
-20.1323
-20.132
-20.1316
-20.1307
-20.1292
-20.1278
-6.54487
-6.545
-6.54453
-6.54431
-6.54413
-6.54376
-25.3089
-25.3097
-25.3099
-25.3093
-25.308
-25.3079
-54.2725
-54.2712
-54.2715
-54.2692
-54.2632
-54.2589
-39.1012
-39.1015
-39.0994
-39.0888
-39.0728
-39.0683
910.464
910.478
910.506
910.508
910.463
910.516
38186.7
38186.7
38186.7
38186.7
38186.7
38186.8
13831.2
13831.2
13831.3
13831.4
13831.4
13831.6
311.279
311.289
311.321
311.357
311.366
311.44
-11.3864
-11.3844
-11.3835
-11.3826
-11.3816
-11.3812
10.5873
10.5865
10.5865
10.5869
10.587
10.5868
0.216929
0.216716
0.216825
0.217074
0.21717
0.21706
-12.1251
-12.1256
-12.1254
-12.125
-12.1243
-12.124
-20.8006
-20.8002
-20.8001
-20.7998
-20.7996
-20.7996
-52.787
-52.7866
-52.7872
-52.7877
-52.7876
-52.7879
-84.3107
-84.3107
-84.3115
-84.3128
-84.3145
-84.3167
-139.655
-139.659
-139.661
-139.662
-139.66
-139.662
-68.2719
-68.2767
-68.2743
-68.2726
-68.2719
-68.274
-0.180511
-0.180517
-0.180516
-0.180508
-0.180499
-0.180492
-0.189361
-0.189346
-0.189336
-0.189324
-0.189313
-0.189305
-0.207412
-0.207384
-0.207373
-0.207368
-0.207366
-0.207368
-0.235498
-0.235475
-0.235475
-0.235484
-0.235498
-0.235514
-0.274613
-0.274612
-0.274627
-0.274648
-0.274671
-0.274693
-0.325561
-0.325583
-0.325605
-0.325623
-0.325637
-0.325647
-0.388644
-0.388677
-0.388686
-0.388681
-0.388669
-0.388655
-0.4639
-0.463918
-0.463903
-0.463871
-0.463833
-0.463798
-0.550046
-0.550041
-0.550009
-0.549965
-0.54992
-0.549884
-0.642404
-0.642385
-0.642353
-0.642318
-0.642288
-0.642268
-0.730917
-0.730891
-0.730869
-0.730848
-0.730833
-0.730826
-0.799258
-0.799241
-0.799229
-0.79922
-0.799215
-0.799215
-0.171834
-0.171838
-0.171835
-0.171823
-0.171809
-0.171797
-0.180663
-0.18065
-0.180639
-0.180627
-0.180615
-0.180606
-0.198743
-0.198723
-0.198717
-0.198715
-0.198717
-0.198724
-0.227075
-0.227062
-0.227069
-0.227083
-0.227101
-0.227125
-0.266984
-0.266988
-0.267006
-0.267027
-0.26705
-0.267073
-0.320101
-0.320113
-0.320126
-0.320135
-0.32014
-0.320143
-0.388244
-0.388247
-0.388236
-0.388216
-0.388192
-0.388168
-0.472239
-0.47222
-0.472184
-0.472142
-0.4721
-0.472064
-0.570428
-0.570394
-0.570353
-0.570312
-0.570278
-0.570255
-0.678853
-0.678824
-0.678794
-0.678767
-0.678746
-0.678736
-0.791078
-0.791053
-0.791033
-0.791016
-0.791004
-0.790998
-0.893696
-0.893677
-0.893663
-0.89365
-0.89364
-0.893636
-0.154718
-0.154722
-0.154719
-0.154706
-0.154691
-0.154678
-0.16314
-0.163131
-0.163122
-0.163111
-0.163099
-0.163089
-0.180469
-0.180457
-0.180454
-0.180454
-0.180457
-0.180462
-0.207843
-0.207838
-0.207846
-0.207859
-0.207875
-0.207893
-0.246824
-0.246826
-0.246838
-0.246853
-0.246868
-0.246884
-0.299191
-0.299186
-0.299184
-0.299183
-0.299181
-0.299179
-0.366418
-0.366392
-0.366367
-0.366343
-0.366321
-0.366303
-0.451662
-0.451617
-0.45158
-0.451549
-0.451525
-0.451514
-0.560804
-0.560763
-0.560736
-0.560717
-0.560708
-0.560711
-0.696065
-0.696039
-0.696024
-0.696012
-0.696006
-0.696004
-0.842888
-0.842857
-0.842831
-0.842806
-0.842788
-0.842777
-0.990758
-0.99072
-0.990682
-0.990647
-0.990623
-0.990621
-0.129831
-0.129836
-0.129831
-0.12982
-0.129805
-0.129791
-0.137368
-0.137362
-0.137355
-0.137345
-0.137333
-0.137321
-0.152978
-0.152973
-0.152972
-0.152972
-0.152971
-0.152971
-0.177972
-0.177972
-0.177978
-0.177986
-0.177994
-0.178003
-0.214469
-0.214466
-0.21447
-0.214475
-0.21448
-0.214487
-0.266017
-0.265996
-0.265985
-0.265976
-0.26597
-0.265968
-0.338406
-0.338361
-0.338334
-0.338316
-0.338308
-0.33831
-0.43814
-0.438084
-0.438061
-0.438053
-0.438061
-0.438084
-0.570477
-0.570439
-0.570431
-0.570439
-0.570457
-0.570485
-0.736451
-0.736431
-0.736421
-0.736414
-0.736409
-0.736409
-0.952679
-0.952631
-0.952586
-0.952544
-0.952516
-0.952517
-1.22671
-1.22665
-1.22657
-1.2265
-1.22645
-1.22646
26173.5
26173.5
26173.6
26173.6
26173.6
26173.8
9200.88
9200.9
9200.92
9200.9
9200.91
9201.05
93.7978
93.7928
93.7906
93.7918
93.7905
93.7831
-58.165
-58.1597
-58.1563
-58.1542
-58.1501
-58.1439
6.03814
6.02635
6.0257
6.03513
6.04025
6.02074
13.9495
13.9473
13.9466
13.9474
13.9471
13.9439
8.0769
8.07867
8.08062
8.08268
8.08509
8.08712
24.1632
24.1712
24.1753
24.1753
24.1779
24.1867
5.00616
5.00682
5.00737
5.0076
5.00796
5.00863
2.31568
2.31677
2.31781
2.31883
2.31957
2.31967
6.63513
6.6362
6.63735
6.63809
6.63888
6.63956
2.03115
2.03111
2.03124
2.03142
2.03164
2.03189
0.147937
0.147845
0.147976
0.148075
0.14797
0.147413
0.606128
0.606118
0.606354
0.606448
0.606498
0.606353
-2.0768
-2.0766
-2.07648
-2.07634
-2.07615
-2.07593
-6.36968
-6.36994
-6.36991
-6.36988
-6.36985
-6.36979
-3.68201
-3.68203
-3.68196
-3.68192
-3.68184
-3.68166
-3.23638
-3.23584
-3.23563
-3.2356
-3.23564
-3.23569
-12.4522
-12.4524
-12.4525
-12.4523
-12.4519
-12.4515
-8.53677
-8.53665
-8.53661
-8.53646
-8.53611
-8.53574
-4.53432
-4.53407
-4.53406
-4.53423
-4.53442
-4.53459
-21.2527
-21.2529
-21.2529
-21.2526
-21.2524
-21.2523
-13.909
-13.909
-13.9091
-13.909
-13.9088
-13.9088
-5.23946
-5.23947
-5.23959
-5.23972
-5.23971
-5.23987
-44.1855
-44.186
-44.1867
-44.1875
-44.1883
-44.1894
-24.2562
-24.2562
-24.2567
-24.257
-24.2572
-24.2578
-5.37969
-5.37949
-5.37943
-5.37927
-5.37897
-5.3792
-71.8408
-71.8416
-71.8425
-71.8433
-71.8443
-71.8472
-39.5165
-39.5172
-39.5188
-39.5195
-39.5213
-39.522
-5.37951
-5.37876
-5.37836
-5.37778
-5.37724
-5.3773
-124.592
-124.594
-124.594
-124.595
-124.6
-124.601
-57.4959
-57.4977
-57.4984
-57.499
-57.5026
-57.5017
-6.49483
-6.49566
-6.49648
-6.49673
-6.4978
-6.49711
-54.3772
-54.3796
-54.3768
-54.3759
-54.3758
-54.3754
-3.94939
-3.94865
-3.95022
-3.95073
-3.95045
-3.94902
6.5585
6.55864
6.55658
6.55628
6.55437
6.55336
-4.25491
-4.25486
-4.2546
-4.25418
-4.25371
-4.2533
-2.11151
-2.11141
-2.1113
-2.1112
-2.11113
-2.1111
-0.208107
-0.208069
-0.20805
-0.208026
-0.207992
-0.207978
-7.624
-7.62402
-7.62377
-7.62337
-7.6229
-7.62237
-2.84261
-2.84249
-2.84237
-2.84224
-2.8422
-2.84224
0.145155
0.145251
0.145278
0.14529
0.145277
0.145192
-7.34794
-7.34756
-7.34766
-7.34806
-7.34867
-7.34949
-3.35854
-3.35841
-3.35848
-3.35859
-3.35885
-3.35924
1.06117
1.06135
1.06136
1.06132
1.06121
1.06095
-17.1185
-17.1185
-17.1182
-17.1179
-17.1178
-17.1179
-5.41302
-5.4132
-5.41356
-5.41387
-5.41426
-5.4147
2.73093
2.73121
2.73107
2.73092
2.73074
2.73028
-21.2107
-21.211
-21.2112
-21.2111
-21.2109
-21.2118
-7.24239
-7.2421
-7.24283
-7.24341
-7.24402
-7.24544
5.11215
5.11268
5.11212
5.1118
5.11146
5.11055
-46.3866
-46.3891
-46.3881
-46.3871
-46.3862
-46.3857
-0.760038
-0.756661
-0.758408
-0.75919
-0.759402
-0.762356
7.64691
7.648
7.64623
7.646
7.64536
7.64363
-0.0982551
-0.0982578
-0.0982526
-0.0982418
-0.0982285
-0.0982155
-0.0614166
-0.061416
-0.0614111
-0.0614029
-0.0613928
-0.0613825
-0.0212005
-0.0211997
-0.0211973
-0.0211941
-0.0211901
-0.0211855
-0.104202
-0.104199
-0.104193
-0.104183
-0.104171
-0.104159
-0.0652132
-0.0652108
-0.0652057
-0.0651983
-0.0651889
-0.0651783
-0.0225364
-0.0225353
-0.0225332
-0.0225305
-0.0225268
-0.0225221
-0.116594
-0.116592
-0.116591
-0.116589
-0.116584
-0.11658
-0.0731642
-0.0731635
-0.0731618
-0.0731583
-0.0731528
-0.0731461
-0.0253462
-0.0253461
-0.0253453
-0.0253438
-0.0253413
-0.0253377
-0.136651
-0.136652
-0.136654
-0.136656
-0.136657
-0.136657
-0.0861439
-0.0861438
-0.0861432
-0.0861412
-0.0861372
-0.0861321
-0.0299581
-0.0299579
-0.0299571
-0.0299557
-0.0299534
-0.02995
-0.166431
-0.166426
-0.166424
-0.166422
-0.16642
-0.166419
-0.105698
-0.105693
-0.105688
-0.105684
-0.105679
-0.105675
-0.0369434
-0.0369409
-0.0369387
-0.0369363
-0.036934
-0.0369321
-0.209382
-0.209359
-0.209346
-0.209338
-0.209335
-0.209337
-0.134612
-0.134596
-0.134588
-0.134584
-0.134585
-0.134591
-0.047274
-0.047269
-0.0472666
-0.0472657
-0.0472671
-0.0472715
-0.271904
-0.271865
-0.271849
-0.271847
-0.271857
-0.271878
-0.178191
-0.178172
-0.17817
-0.178178
-0.178196
-0.178223
-0.0625011
-0.0624984
-0.0625008
-0.0625065
-0.0625164
-0.0625313
-0.36745
-0.367413
-0.367413
-0.36743
-0.367461
-0.367505
-0.246463
-0.246453
-0.246467
-0.246492
-0.246525
-0.246565
-0.0847196
-0.0847236
-0.0847333
-0.084746
-0.0847616
-0.0847798
-0.527335
-0.527316
-0.527328
-0.527352
-0.527385
-0.527423
-0.356374
-0.356374
-0.356392
-0.356414
-0.356439
-0.356468
-0.116128
-0.116135
-0.116144
-0.116153
-0.116163
-0.116176
-0.828117
-0.828087
-0.828085
-0.828089
-0.828101
-0.828129
-0.53356
-0.53355
-0.533548
-0.533548
-0.533556
-0.53358
-0.160262
-0.16026
-0.16026
-0.16026
-0.160266
-0.160285
-1.40009
-1.40005
-1.40002
-1.4
-1.39998
-1.4
-0.778128
-0.778109
-0.77809
-0.778074
-0.778074
-0.778102
-0.214093
-0.214083
-0.214075
-0.21407
-0.214074
-0.214087
-2.50485
-2.50483
-2.50476
-2.50466
-2.50457
-2.50451
-1.2989
-1.29888
-1.29886
-1.29882
-1.2988
-1.29882
-0.286339
-0.286323
-0.2863
-0.286276
-0.286262
-0.286279
)
;

boundaryField
{
    seabed_topleft_surface
    {
        type            fixedFluxPressure;
        gradient        uniform 0;
        value           nonuniform List<scalar> 
72
(
36744
36744
36744
36744
36744
36744
35610.8
35610.8
35610.8
35610.8
35610.8
35610.8
32162.2
32162.2
32162.2
32162.2
32162.2
32162.2
27927.9
27927.9
27927.9
27927.9
27927.9
27927.9
23361.2
23361.2
23361.2
23361.2
23361.2
23361.3
19077
19077
19077
19077
19077
19077.1
14691
14690.9
14690.9
14691
14691
14691
10360.8
10360.7
10360.7
10360.7
10360.7
10360.7
8240.82
8240.66
8240.67
8240.7
8240.72
8240.79
7868.89
7868.84
7868.84
7868.82
7868.79
7868.78
13417.3
13417.4
13417.4
13417.5
13417.5
13417.4
12987.5
12987.6
12987.7
12987.7
12987.7
12987.7
)
;
    }
    seabed_topright_surface
    {
        type            fixedFluxPressure;
        gradient        uniform 0;
        value           nonuniform List<scalar> 
72
(
-0.180511
-0.180517
-0.180516
-0.180508
-0.180499
-0.180492
-0.189361
-0.189346
-0.189336
-0.189324
-0.189313
-0.189305
-0.207412
-0.207384
-0.207373
-0.207368
-0.207366
-0.207368
-0.235498
-0.235475
-0.235475
-0.235484
-0.235498
-0.235514
-0.274613
-0.274612
-0.274627
-0.274648
-0.274671
-0.274693
-0.325561
-0.325583
-0.325605
-0.325623
-0.325637
-0.325647
-0.388644
-0.388677
-0.388686
-0.388681
-0.388669
-0.388655
-0.4639
-0.463918
-0.463903
-0.463871
-0.463833
-0.463798
-0.550046
-0.550041
-0.550009
-0.549965
-0.54992
-0.549884
-0.642404
-0.642385
-0.642353
-0.642318
-0.642288
-0.642268
-0.730917
-0.730891
-0.730869
-0.730848
-0.730833
-0.730826
-0.799258
-0.799241
-0.799229
-0.79922
-0.799215
-0.799215
)
;
    }
    breakwater_top_surface
    {
        type            fixedFluxPressure;
        gradient        uniform 0;
        value           nonuniform List<scalar> 
36
(
-4.25491
-4.25486
-4.2546
-4.25418
-4.25371
-4.2533
-7.624
-7.62402
-7.62377
-7.62337
-7.6229
-7.62237
-7.34794
-7.34756
-7.34766
-7.34806
-7.34867
-7.34949
-17.1185
-17.1185
-17.1182
-17.1179
-17.1178
-17.1179
-21.2107
-21.211
-21.2112
-21.2111
-21.2109
-21.2118
-46.3866
-46.3891
-46.3881
-46.3871
-46.3862
-46.3857
)
;
    }
    breakwater_left_surface
    {
        type            fixedFluxPressure;
        gradient        uniform 0;
        value           nonuniform List<scalar> 
24
(
12987.5
12987.6
12987.7
12987.7
12987.7
12987.7
5422.89
5422.92
5422.97
5422.97
5422.91
5422.89
910.464
910.478
910.506
910.508
910.463
910.516
-68.2719
-68.2767
-68.2743
-68.2726
-68.2719
-68.274
)
;
    }
    breakwater_right_surface
    {
        type            fixedFluxPressure;
        gradient        uniform 0;
        value           nonuniform List<scalar> 
24
(
-0.799258
-0.799241
-0.799229
-0.79922
-0.799215
-0.799215
-0.893696
-0.893677
-0.893663
-0.89365
-0.89364
-0.893636
-0.990758
-0.99072
-0.990682
-0.990647
-0.990623
-0.990621
-1.22671
-1.22665
-1.22657
-1.2265
-1.22645
-1.22646
)
;
    }
    water_front_surface
    {
        type            fixedFluxPressure;
        gradient        uniform 0;
        value           nonuniform List<scalar> 
186
(
36744
35610.8
32162.2
27927.9
23361.2
19077
14691
10360.8
8240.82
7868.89
13417.3
12987.5
36629.7
34618.7
30423.9
25060.8
17537.8
11469.6
5417.19
677.082
-27.727
93.7643
691.941
5422.89
36897.1
32894.5
22749.3
10264.1
396.345
-30.9428
-20.1323
-6.54487
-25.3089
-54.2725
-39.1012
910.464
38186.7
13831.2
311.279
-11.3864
10.5873
0.216929
-12.1251
-20.8006
-52.787
-84.3107
-139.655
-68.2719
-0.180511
-0.189361
-0.207412
-0.235498
-0.274613
-0.325561
-0.388644
-0.4639
-0.550046
-0.642404
-0.730917
-0.799258
-0.171834
-0.180663
-0.198743
-0.227075
-0.266984
-0.320101
-0.388244
-0.472239
-0.570428
-0.678853
-0.791078
-0.893696
-0.154718
-0.16314
-0.180469
-0.207843
-0.246824
-0.299191
-0.366418
-0.451662
-0.560804
-0.696065
-0.842888
-0.990758
-0.129831
-0.137368
-0.152978
-0.177972
-0.214469
-0.266017
-0.338406
-0.43814
-0.570477
-0.736451
-0.952679
-1.22671
26173.5
9200.88
93.7978
-58.165
6.03814
13.9495
8.0769
24.1632
5.00616
2.31568
6.63513
2.03115
0.147937
0.606128
-2.0768
-6.36968
-3.68201
-3.23638
-12.4522
-8.53677
-4.53432
-21.2527
-13.909
-5.23946
-44.1855
-24.2562
-5.37969
-71.8408
-39.5165
-5.37951
-124.592
-57.4959
-6.49483
-54.3772
-3.94939
6.5585
-4.25491
-2.11151
-0.208107
-7.624
-2.84261
0.145155
-7.34794
-3.35854
1.06117
-17.1185
-5.41302
2.73093
-21.2107
-7.24239
5.11215
-46.3866
-0.760038
7.64691
-0.0982551
-0.0614166
-0.0212005
-0.104202
-0.0652132
-0.0225364
-0.116594
-0.0731642
-0.0253462
-0.136651
-0.0861439
-0.0299581
-0.166431
-0.105698
-0.0369434
-0.209382
-0.134612
-0.047274
-0.271904
-0.178191
-0.0625011
-0.36745
-0.246463
-0.0847196
-0.527335
-0.356374
-0.116128
-0.828117
-0.53356
-0.160262
-1.40009
-0.778128
-0.214093
-2.50485
-1.2989
-0.286339
)
;
    }
    water_back_surface
    {
        type            fixedFluxPressure;
        gradient        uniform 0;
        value           nonuniform List<scalar> 
186
(
36744
35610.8
32162.2
27927.9
23361.3
19077.1
14691
10360.7
8240.79
7868.78
13417.4
12987.7
36629.7
34618.7
30424
25061
17537.9
11469.5
5417.07
677.007
-27.7075
93.7849
691.937
5422.89
36897.2
32894.7
22749.8
10264.6
396.5
-30.9381
-20.1278
-6.54376
-25.3079
-54.2589
-39.0683
910.516
38186.8
13831.6
311.44
-11.3812
10.5868
0.21706
-12.124
-20.7996
-52.7879
-84.3167
-139.662
-68.274
-0.180492
-0.189305
-0.207368
-0.235514
-0.274693
-0.325647
-0.388655
-0.463798
-0.549884
-0.642268
-0.730826
-0.799215
-0.171797
-0.180606
-0.198724
-0.227125
-0.267073
-0.320143
-0.388168
-0.472064
-0.570255
-0.678736
-0.790998
-0.893636
-0.154678
-0.163089
-0.180462
-0.207893
-0.246884
-0.299179
-0.366303
-0.451514
-0.560711
-0.696004
-0.842777
-0.990621
-0.129791
-0.137321
-0.152971
-0.178003
-0.214487
-0.265968
-0.33831
-0.438084
-0.570485
-0.736409
-0.952517
-1.22646
26173.8
9201.05
93.7831
-58.1439
6.02074
13.9439
8.08712
24.1867
5.00863
2.31967
6.63956
2.03189
0.147413
0.606353
-2.07593
-6.36979
-3.68166
-3.23569
-12.4515
-8.53574
-4.53459
-21.2523
-13.9088
-5.23987
-44.1894
-24.2578
-5.3792
-71.8472
-39.522
-5.3773
-124.601
-57.5017
-6.49711
-54.3754
-3.94902
6.55336
-4.2533
-2.1111
-0.207978
-7.62237
-2.84224
0.145192
-7.34949
-3.35924
1.06095
-17.1179
-5.4147
2.73028
-21.2118
-7.24544
5.11055
-46.3857
-0.762356
7.64363
-0.0982155
-0.0613825
-0.0211855
-0.104159
-0.0651783
-0.0225221
-0.11658
-0.0731461
-0.0253377
-0.136657
-0.0861321
-0.02995
-0.166419
-0.105675
-0.0369321
-0.209337
-0.134591
-0.0472715
-0.271878
-0.178223
-0.0625313
-0.367505
-0.246565
-0.0847798
-0.527423
-0.356468
-0.116176
-0.828129
-0.53358
-0.160285
-1.4
-0.778102
-0.214087
-2.50451
-1.29882
-0.286279
)
;
    }
    water_left_surface
    {
        type            fixedFluxPressure;
        gradient        uniform 0;
        value           nonuniform List<scalar> 
42
(
36744
36744
36744
36744
36744
36744
36629.7
36629.7
36629.7
36629.7
36629.7
36629.7
36897.1
36897.1
36897.1
36897.1
36897.2
36897.2
38186.7
38186.7
38186.7
38186.7
38186.7
38186.8
26173.5
26173.5
26173.6
26173.6
26173.6
26173.8
9200.88
9200.9
9200.92
9200.9
9200.91
9201.05
93.7978
93.7928
93.7906
93.7918
93.7905
93.7831
)
;
    }
    water_right_surface
    {
        type            fixedFluxPressure;
        gradient        uniform 0;
        value           nonuniform List<scalar> 
42
(
-0.180511
-0.180517
-0.180516
-0.180508
-0.180499
-0.180492
-0.171834
-0.171838
-0.171835
-0.171823
-0.171809
-0.171797
-0.154718
-0.154722
-0.154719
-0.154706
-0.154691
-0.154678
-0.129831
-0.129836
-0.129831
-0.12982
-0.129805
-0.129791
-0.0982551
-0.0982578
-0.0982526
-0.0982418
-0.0982285
-0.0982155
-0.0614166
-0.061416
-0.0614111
-0.0614029
-0.0613928
-0.0613825
-0.0212005
-0.0211997
-0.0211973
-0.0211941
-0.0211901
-0.0211855
)
;
    }
    water_top_surface
    {
        type            totalPressure;
        rho             rho;
        psi             none;
        gamma           1;
        p0              uniform 0;
        value           nonuniform List<scalar> 
180
(
0
0
0
0
0
0
-21.5951
-21.5957
-21.5956
-21.5956
-21.5961
-21.5956
-5.12585
-5.12617
-5.12635
-5.12688
-5.12737
-5.12723
-2.8252
-2.82562
-2.82569
-2.82581
-2.82583
-2.82556
-4.50492
-4.50533
-4.5053
-4.50521
-4.50499
-4.50436
-3.69565
-3.69551
-3.69529
-3.69515
-3.69508
-3.69488
-3.69237
-3.69187
-3.69178
-3.69196
-3.69232
-3.69275
-2.44095
-2.44052
-2.44062
-2.4409
-2.44123
-2.44171
-1.06974
-1.06939
-1.06937
-1.06938
-1.06936
-1.06979
0
0
0
0
0
0
0
0
0
0
0
0
0
0
0
0
0
0
0
0
0
0
0
0
0
0
0
0
0
0
0
0
0
0
0
0
0
0
0
0
0
0
0
0
0
0
0
0
0
0
0
0
0
0
0
0
0
0
0
0
0
0
0
0
0
0
0
0
0
0
0
0
0
0
0
0
0
0
0
0
0
0
0
0
0
0
0
0
0
0
0
0
0
0
0
0
0
0
0
0
0
0
0
0
0
0
0
0
0
0
0
0
0
0
0
0
0
0
0
0
0
0
0
0
0
0
)
;
    }
}


// ************************************************************************* //
