/*--------------------------------*- C++ -*----------------------------------*\
| =========                 |                                                 |
| \\      /  F ield         | OpenFOAM: The Open Source CFD Toolbox           |
|  \\    /   O peration     | Version:  v1612+                                |
|   \\  /    A nd           | Web:      www.OpenFOAM.com                      |
|    \\/     M anipulation  |                                                 |
\*---------------------------------------------------------------------------*/
FoamFile
{
    version     2.0;
    format      ascii;
    class       volVectorField;
    location    "1.65";
    object      U;
}
// * * * * * * * * * * * * * * * * * * * * * * * * * * * * * * * * * * * * * //

dimensions      [0 1 -1 0 0 0 0];

internalField   nonuniform List<vector> 
1116
(
(0.471469 -5.88673e-07 -0.451526)
(0.47147 -7.26481e-07 -0.451529)
(0.47147 -3.61203e-07 -0.451529)
(0.47147 -1.63252e-08 -0.451529)
(0.471471 5.68272e-07 -0.451529)
(0.47147 5.10634e-07 -0.451526)
(1.41459 -7.60747e-07 -0.603199)
(1.41459 -6.98519e-07 -0.603203)
(1.41459 6.66918e-07 -0.603202)
(1.41459 -6.52084e-08 -0.603202)
(1.41459 1.22903e-06 -0.603201)
(1.41459 1.05855e-06 -0.603196)
(2.50605 -8.97374e-07 -0.572716)
(2.50606 1.1384e-06 -0.572721)
(2.50606 1.01185e-06 -0.572719)
(2.50606 -1.40275e-06 -0.572718)
(2.50606 -4.12344e-07 -0.572718)
(2.50605 1.20628e-06 -0.572712)
(3.55831 -4.05183e-06 -0.553415)
(3.55832 -5.53352e-07 -0.55342)
(3.55832 -1.36542e-06 -0.553415)
(3.55832 -5.63208e-06 -0.553415)
(3.55831 -5.42129e-06 -0.553419)
(3.55829 -5.61149e-07 -0.553418)
(4.51764 -1.22058e-05 -0.452963)
(4.51765 -1.13173e-05 -0.452974)
(4.51765 -9.17333e-06 -0.452969)
(4.51765 -1.22898e-05 -0.452971)
(4.51765 -1.15304e-05 -0.452979)
(4.51762 -2.81152e-06 -0.452985)
(5.5125 -2.12978e-05 -0.467949)
(5.51252 -2.30946e-05 -0.467992)
(5.51251 -1.41341e-05 -0.467989)
(5.51251 -1.60702e-05 -0.46799)
(5.51251 -1.26345e-05 -0.467999)
(5.51248 -2.58031e-06 -0.468007)
(6.61483 -2.54715e-05 -0.428368)
(6.61486 -2.87964e-05 -0.428435)
(6.61486 -1.6013e-05 -0.428437)
(6.61485 -1.64124e-05 -0.428436)
(6.61486 -9.83173e-06 -0.42844)
(6.61483 -1.34445e-06 -0.428443)
(7.49689 -1.69728e-05 -0.508455)
(7.49696 -2.01582e-05 -0.508523)
(7.49696 -1.42313e-05 -0.508525)
(7.49696 -1.27268e-05 -0.508521)
(7.49697 -5.69318e-06 -0.508521)
(7.49694 -1.62294e-06 -0.508518)
(8.11339 1.67753e-06 -0.808291)
(8.11348 -4.0631e-06 -0.808338)
(8.11348 -1.30766e-05 -0.808336)
(8.11349 -8.7871e-06 -0.808331)
(8.11349 -7.42132e-06 -0.808335)
(8.11346 -7.43571e-06 -0.808326)
(8.83134 -1.86068e-08 -1.24828)
(8.83144 -5.92417e-06 -1.24831)
(8.83143 -1.61391e-05 -1.2483)
(8.83143 -1.79194e-05 -1.24829)
(8.83147 -1.86215e-05 -1.2483)
(8.83142 -9.96668e-06 -1.24827)
(8.65616 -2.83977e-05 -1.03808)
(8.65637 -3.54286e-05 -1.03815)
(8.65636 -2.59286e-05 -1.03814)
(8.65639 -2.47634e-05 -1.03814)
(8.65642 -4.7511e-06 -1.03816)
(8.65634 1.15097e-05 -1.03809)
(6.32029 -0.000149121 1.56274)
(6.32063 -0.000205972 1.56262)
(6.32064 -9.34866e-05 1.56262)
(6.32066 -6.51598e-06 1.56261)
(6.32064 7.64712e-05 1.56261)
(6.32053 6.20536e-05 1.56258)
(0.583093 2.75467e-08 -1.38499)
(0.583095 1.19551e-06 -1.385)
(0.583092 9.183e-07 -1.385)
(0.58309 -4.31232e-07 -1.385)
(0.58309 2.81406e-08 -1.385)
(0.583087 4.2161e-07 -1.38499)
(1.58046 -3.22759e-06 -1.6749)
(1.58047 5.54902e-06 -1.67491)
(1.58046 -1.8916e-06 -1.67491)
(1.58046 1.29918e-07 -1.6749)
(1.58046 -4.15747e-06 -1.6749)
(1.58045 5.9009e-06 -1.67489)
(2.46983 -4.06406e-06 -1.49461)
(2.46986 2.98838e-06 -1.49463)
(2.46986 -4.54546e-06 -1.49461)
(2.46986 -3.35066e-06 -1.49462)
(2.46985 -8.09648e-06 -1.49462)
(2.46984 3.78396e-06 -1.4946)
(3.49784 -4.38865e-06 -1.6148)
(3.49788 -4.24275e-06 -1.61482)
(3.49788 -2.28571e-06 -1.61481)
(3.49787 -2.77578e-06 -1.61481)
(3.49786 -3.61946e-06 -1.61482)
(3.49783 4.84108e-07 -1.61481)
(4.55629 -6.1968e-06 -1.64714)
(4.55635 -1.97264e-05 -1.64719)
(4.55634 -7.57083e-06 -1.64718)
(4.55633 -7.5545e-06 -1.64718)
(4.55632 -7.96935e-06 -1.6472)
(4.55629 -1.09119e-05 -1.64719)
(5.50439 9.45776e-06 -1.93638)
(5.50449 -1.08289e-05 -1.93648)
(5.50448 7.88953e-06 -1.93648)
(5.50448 2.22474e-06 -1.93647)
(5.50447 5.72637e-06 -1.93648)
(5.50443 -1.31345e-05 -1.93648)
(6.82454 4.64843e-05 -1.87719)
(6.82473 1.62608e-05 -1.87734)
(6.82469 1.18602e-05 -1.87734)
(6.82469 -3.73298e-07 -1.87734)
(6.82469 7.55744e-06 -1.87735)
(6.82462 -2.22995e-05 -1.87734)
(8.65627 8.37578e-05 -1.24784)
(8.65655 4.5476e-05 -1.24792)
(8.65647 3.32153e-06 -1.24796)
(8.65646 -1.63448e-05 -1.24797)
(8.65648 -7.84269e-06 -1.24797)
(8.65637 -3.81371e-05 -1.24797)
(10.7594 8.86789e-05 -1.70627)
(10.7597 3.20337e-05 -1.70622)
(10.7596 -2.43079e-06 -1.70625)
(10.7596 3.74123e-05 -1.70628)
(10.7597 7.1194e-05 -1.70629)
(10.7596 -1.46733e-05 -1.70629)
(13.2266 0.000271909 0.907772)
(13.227 0.00020679 0.907836)
(13.2269 1.68088e-05 0.907791)
(13.2269 -0.000150551 0.907691)
(13.2269 -0.000220005 0.907641)
(13.2268 -0.000193295 0.90758)
(13.4253 0.000138195 3.16999)
(13.4257 0.000177483 3.16981)
(13.4256 -1.94212e-05 3.16977)
(13.4256 -0.000236939 3.16972)
(13.426 -0.000326124 3.16971)
(13.4255 -0.00019422 3.16978)
(11.2333 -0.000219818 8.79452)
(11.2345 -0.000309013 8.79411)
(11.2345 -0.000157213 8.79405)
(11.2346 -0.000110751 8.79408)
(11.2349 0.000150712 8.79424)
(11.2342 0.000226472 8.79453)
(0.563408 2.4558e-06 -2.59539)
(0.563415 3.23876e-06 -2.59541)
(0.563414 1.67657e-06 -2.5954)
(0.563413 -2.35092e-07 -2.59539)
(0.563413 -7.14405e-07 -2.5954)
(0.563415 1.56386e-07 -2.59538)
(1.45345 -7.01554e-06 -2.5107)
(1.45346 7.45412e-06 -2.51072)
(1.45346 -7.32156e-06 -2.51071)
(1.45346 2.40204e-06 -2.51071)
(1.45345 -1.51765e-05 -2.51072)
(1.45346 3.43228e-06 -2.51069)
(2.51448 -7.36838e-06 -2.47313)
(2.51451 -2.40353e-05 -2.47316)
(2.51451 -1.03805e-05 -2.47314)
(2.5145 -1.01077e-05 -2.47314)
(2.5145 -1.49734e-05 -2.47315)
(2.51447 -1.85233e-05 -2.47312)
(3.54331 -4.79776e-06 -3.03866)
(3.54334 -4.12224e-05 -3.03872)
(3.54333 8.66203e-06 -3.03869)
(3.54333 -2.62633e-06 -3.03869)
(3.54333 1.95581e-06 -3.03869)
(3.54331 -3.10832e-05 -3.03866)
(5.53077 2.83773e-05 -2.47815)
(5.53075 -3.75581e-06 -2.47827)
(5.53071 5.93336e-05 -2.47829)
(5.53073 2.10431e-05 -2.47826)
(5.53074 2.16797e-05 -2.47826)
(5.53068 -4.15645e-05 -2.4783)
(6.55844 6.20719e-05 -2.90008)
(6.55847 2.89784e-05 -2.90022)
(6.55846 9.91569e-05 -2.90022)
(6.55851 5.00177e-05 -2.90017)
(6.55853 5.52684e-05 -2.90014)
(6.55842 -3.86629e-05 -2.90016)
(8.29525 4.46584e-05 -3.62921)
(8.29521 1.9485e-05 -3.62921)
(8.29517 0.000115526 -3.62923)
(8.29524 4.83914e-05 -3.62919)
(8.29528 3.35391e-05 -3.62916)
(8.29508 -6.96618e-05 -3.62919)
(9.10615 3.70109e-05 -2.69622)
(9.10621 -2.93155e-05 -2.69577)
(9.10617 -2.26076e-05 -2.6958)
(9.10625 -2.93873e-05 -2.69592)
(9.1064 -3.9808e-05 -2.69598)
(9.10607 -0.000110906 -2.69606)
(7.08614 0.000184207 -4.61301)
(7.08663 0.000233476 -4.61289)
(7.08638 0.000161612 -4.61292)
(7.0865 0.000281039 -4.61302)
(7.08705 0.000278555 -4.61307)
(7.08669 5.22801e-05 -4.61304)
(9.19509 -1.74931e-05 0.604276)
(9.19566 7.85996e-05 0.604844)
(9.19566 0.000356814 0.605147)
(9.19577 0.000817582 0.605071)
(9.19604 0.000841513 0.604418)
(9.19707 0.000290496 0.604265)
(7.28688 9.7176e-05 6.48212)
(7.28686 0.000102713 6.48252)
(7.28607 -0.000215432 6.48302)
(7.28657 -0.000587082 6.48287)
(7.2895 -0.000642911 6.48161)
(7.28879 -0.000308177 6.48109)
(12.2213 -4.56212e-05 18.7342)
(12.2223 -0.000163506 18.7337)
(12.2222 -0.000290222 18.7337)
(12.2222 -0.000515039 18.7338)
(12.2226 -0.000218996 18.7339)
(12.2213 0.000183123 18.7347)
(-0.0557044 -5.10313e-07 -3.34388)
(-0.0556961 -2.20138e-07 -3.3439)
(-0.0556867 2.87814e-06 -3.34389)
(-0.0556853 2.19346e-07 -3.34389)
(-0.0556898 -3.29528e-06 -3.34389)
(-0.0556798 -2.56174e-06 -3.34389)
(0.558042 3.0379e-05 -3.46414)
(0.558036 -4.29477e-05 -3.46418)
(0.55804 1.73277e-05 -3.46417)
(0.558042 -1.63822e-05 -3.46416)
(0.558039 2.18407e-05 -3.46417)
(0.558059 -5.74125e-05 -3.46414)
(3.89674 1.84932e-05 -3.68655)
(3.89668 -7.61424e-05 -3.68666)
(3.89662 4.84922e-05 -3.68668)
(3.89659 -1.76761e-05 -3.68665)
(3.89663 6.73755e-05 -3.68663)
(3.89651 -5.7486e-05 -3.6867)
(3.74457 3.48143e-05 -4.3976)
(3.74447 -5.28965e-05 -4.39775)
(3.74446 5.74917e-05 -4.39774)
(3.74446 -2.63906e-05 -4.39767)
(3.74453 5.50305e-05 -4.39763)
(3.74455 -6.04686e-05 -4.3977)
(3.5991 6.32131e-05 -2.26342)
(3.59905 0.00011242 -2.26354)
(3.59909 0.000204387 -2.26366)
(3.59918 8.00883e-05 -2.26363)
(3.59926 0.000106408 -2.26362)
(3.59926 2.45706e-06 -2.26388)
(1.54144 6.1099e-05 -3.79015)
(1.54169 7.178e-05 -3.79023)
(1.54193 8.59461e-05 -3.79014)
(1.54207 5.07789e-05 -3.79004)
(1.54212 6.28574e-05 -3.78999)
(1.54208 9.93709e-06 -3.78993)
(-0.0694968 -5.86464e-05 -2.91865)
(-0.0694677 -6.29644e-05 -2.91859)
(-0.0693962 -5.62611e-05 -2.9185)
(-0.0692745 9.4411e-06 -2.91843)
(-0.0690356 3.88328e-05 -2.91855)
(-0.0688155 4.47049e-06 -2.91877)
(0.748066 -1.82468e-05 -3.06889)
(0.74788 1.896e-05 -3.06868)
(0.747967 1.57553e-05 -3.06873)
(0.748065 0.000101288 -3.06883)
(0.748329 2.54922e-05 -3.06905)
(0.748485 -6.81664e-05 -3.0694)
(1.05138 0.00014307 -3.03749)
(1.05115 0.000215025 -3.03734)
(1.05107 0.000148341 -3.03747)
(1.05121 0.000298213 -3.03755)
(1.05168 0.000144467 -3.03772)
(1.05161 -5.94348e-05 -3.0379)
(3.91758 7.96374e-05 0.999023)
(3.91795 0.000104957 0.999463)
(3.91796 0.000196829 0.999904)
(3.91828 0.000692727 0.999969)
(3.91867 0.000607514 0.999113)
(3.91919 0.00014254 1.00035)
(2.37685 0.000116075 10.7833)
(2.37682 0.000134914 10.784)
(2.3762 -1.90635e-05 10.7849)
(2.37639 -7.60344e-05 10.7846)
(2.37811 0.000267494 10.782)
(2.37796 0.000366098 10.7842)
(10.0694 0.000134572 23.0702)
(10.0702 -3.64358e-05 23.0707)
(10.0697 -0.000484983 23.0701)
(10.0698 -0.000952692 23.0702)
(10.0707 -0.000629072 23.0712)
(10.0686 0.000107921 23.0713)
(0.000726614 -3.71385e-07 0.000738276)
(0.000726692 -3.88931e-07 0.000738392)
(0.000726698 -9.84301e-08 0.000738409)
(0.000726686 -7.68249e-08 0.000738422)
(0.000726669 2.11527e-08 0.000738425)
(0.000726562 1.80962e-08 0.000738386)
(0.00220442 -3.90155e-07 0.000763369)
(0.00220467 -3.95248e-07 0.000763471)
(0.00220466 -7.51801e-08 0.000763481)
(0.00220462 -5.91985e-09 0.000763493)
(0.00220456 1.44329e-07 0.000763498)
(0.00220428 1.17552e-07 0.000763455)
(0.00375414 -4.37641e-07 0.000810236)
(0.00375451 -3.91155e-07 0.000810354)
(0.00375443 3.35372e-08 0.000810371)
(0.00375436 1.41996e-07 0.000810394)
(0.00375425 3.06704e-07 0.000810416)
(0.00375382 1.91391e-07 0.000810399)
(0.00541716 -3.69424e-07 0.000873443)
(0.00541755 -1.98987e-07 0.000873607)
(0.00541739 2.54624e-07 0.000873637)
(0.00541728 3.81136e-07 0.000873686)
(0.00541717 5.21169e-07 0.00087373)
(0.00541657 2.66827e-07 0.000873738)
(0.00722574 -1.65489e-07 0.00094902)
(0.00722616 1.9734e-07 0.00094933)
(0.00722597 5.57351e-07 0.000949402)
(0.00722586 5.70015e-07 0.000949493)
(0.00722584 6.31368e-07 0.000949554)
(0.00722512 3.01722e-07 0.00094957)
(0.00920349 1.44783e-07 0.0010496)
(0.00920398 6.41359e-07 0.00105022)
(0.00920388 7.31359e-07 0.0010504)
(0.0092039 5.26131e-07 0.00105052)
(0.0092041 4.45521e-07 0.00105055)
(0.00920339 2.03163e-07 0.00105049)
(0.01132 4.57163e-07 0.00126383)
(0.0113206 9.16498e-07 0.00126497)
(0.0113207 5.26394e-07 0.0012653)
(0.011321 1.18194e-08 0.00126538)
(0.0113215 -2.26297e-07 0.00126528)
(0.011321 -1.18962e-07 0.00126498)
(0.0133713 6.66068e-07 0.00175082)
(0.0133722 9.5464e-07 0.00175267)
(0.0133724 1.20035e-08 0.00175309)
(0.013373 -8.5975e-07 0.00175304)
(0.0133739 -1.22474e-06 0.00175266)
(0.0133738 -5.8595e-07 0.00175193)
(0.014891 8.49279e-07 0.00254103)
(0.0148921 8.69009e-07 0.00254355)
(0.0148926 -6.6749e-07 0.00254401)
(0.0148935 -1.78881e-06 0.00254375)
(0.0148949 -2.23739e-06 0.00254302)
(0.0148953 -1.08228e-06 0.00254183)
(0.0146218 3.98453e-07 0.00316756)
(0.0146232 -9.3153e-08 0.00317049)
(0.0146241 -1.64306e-06 0.00317084)
(0.0146254 -2.6226e-06 0.00317021)
(0.0146272 -2.90391e-06 0.00316892)
(0.0146286 -1.37497e-06 0.003167)
(0.0130672 -6.52813e-07 0.002504)
(0.0130687 -1.86261e-06 0.00250342)
(0.0130696 -2.75312e-06 0.0025028)
(0.0130707 -3.27034e-06 0.00250169)
(0.0130726 -3.28279e-06 0.00250003)
(0.0130749 -1.57097e-06 0.00249766)
(0.00629084 -1.36905e-06 0.000398337)
(0.00629181 -2.22117e-06 0.00039579)
(0.00629218 -1.60125e-06 0.000395088)
(0.00629258 -9.63285e-07 0.000394519)
(0.00629338 -2.37676e-07 0.000393864)
(0.00629465 1.70637e-07 0.000393071)
(0.000721045 -2.62108e-07 0.00216784)
(0.000721123 -2.58396e-07 0.00216813)
(0.000721127 -2.99848e-08 0.00216815)
(0.000721111 -3.60693e-08 0.00216818)
(0.000721089 1.03581e-07 0.00216818)
(0.00072098 7.32717e-08 0.00216801)
(0.0021917 -2.77446e-07 0.00224593)
(0.00219194 -2.55011e-07 0.0022462)
(0.00219192 1.14573e-08 0.00224621)
(0.00219188 5.85151e-08 0.00224623)
(0.00219181 2.48712e-07 0.00224623)
(0.00219152 1.80391e-07 0.00224604)
(0.00374488 -2.92681e-07 0.00239281)
(0.00374523 -2.11267e-07 0.00239312)
(0.00374516 1.38353e-07 0.00239314)
(0.00374509 2.29209e-07 0.00239318)
(0.00374499 4.4373e-07 0.0023932)
(0.00374455 2.72346e-07 0.00239304)
(0.00542167 -2.18318e-07 0.0025854)
(0.00542207 -4.89533e-08 0.00258581)
(0.00542196 3.14913e-07 0.00258586)
(0.00542188 4.33944e-07 0.00258595)
(0.00542181 6.29279e-07 0.00258601)
(0.00542123 3.40985e-07 0.00258588)
(0.00722904 -9.00412e-08 0.00277393)
(0.00722949 1.53952e-07 0.00277465)
(0.00722938 4.34757e-07 0.00277482)
(0.00722936 4.70786e-07 0.00277498)
(0.00722942 6.1422e-07 0.00277508)
(0.00722875 3.32341e-07 0.00277494)
(0.00907773 6.5616e-09 0.00285132)
(0.0090782 2.22068e-07 0.00285273)
(0.00907814 3.02616e-07 0.00285311)
(0.00907826 1.66149e-07 0.00285333)
(0.00907854 2.4418e-07 0.00285338)
(0.00907793 1.58504e-07 0.00285305)
(0.0107574 3.8837e-08 0.00256331)
(0.0107577 8.44824e-08 0.00256586)
(0.0107577 -1.21084e-07 0.00256652)
(0.010758 -4.58545e-07 0.00256668)
(0.0107587 -4.2848e-07 0.00256644)
(0.0107583 -1.52608e-07 0.00256556)
(0.0121068 6.49753e-08 0.00135267)
(0.0121067 -1.11551e-07 0.00135679)
(0.0121067 -6.02006e-07 0.00135775)
(0.0121073 -1.11243e-06 0.00135767)
(0.0121084 -1.13095e-06 0.00135683)
(0.0121087 -4.7146e-07 0.00135508)
(0.0132456 2.03062e-07 -0.00144597)
(0.0132441 -6.38331e-08 -0.00144019)
(0.0132439 -8.55919e-07 -0.0014389)
(0.0132449 -1.47016e-06 -0.00143932)
(0.0132469 -1.55149e-06 -0.00144092)
(0.0132484 -7.0543e-07 -0.00144359)
(0.014242 7.00561e-07 -0.0065406)
(0.0142391 4.01757e-07 -0.00653478)
(0.0142389 -1.20107e-06 -0.00653383)
(0.0142405 -2.27907e-06 -0.00653485)
(0.0142435 -2.7655e-06 -0.00653731)
(0.0142468 -1.43377e-06 -0.00654081)
(0.0145337 -5.33382e-07 -0.0130186)
(0.0145311 -1.54416e-06 -0.0130201)
(0.0145311 -2.25508e-06 -0.0130213)
(0.0145329 -2.79847e-06 -0.0130235)
(0.0145368 -3.06535e-06 -0.0130272)
(0.0145422 -1.62623e-06 -0.0130322)
(0.0107664 -1.80921e-06 -0.0225014)
(0.010766 -2.57617e-06 -0.0225077)
(0.010766 -1.06669e-06 -0.0225092)
(0.0107669 2.05943e-07 -0.0225104)
(0.0107688 1.16354e-06 -0.022512)
(0.0107718 8.038e-07 -0.0225133)
(0.000686746 -1.83433e-07 0.00353706)
(0.000686819 -1.60053e-07 0.00353747)
(0.000686818 1.61912e-08 0.00353747)
(0.000686801 1.6048e-09 0.00353749)
(0.000686776 1.22933e-07 0.00353749)
(0.000686672 8.41321e-08 0.00353714)
(0.00209647 -2.00293e-07 0.00368075)
(0.00209669 -1.5519e-07 0.00368116)
(0.00209666 5.96273e-08 0.00368116)
(0.00209662 9.25594e-08 0.00368116)
(0.00209655 2.53807e-07 0.00368115)
(0.00209627 1.77088e-07 0.00368077)
(0.00361759 -1.99882e-07 0.00395753)
(0.00361791 -1.0526e-07 0.00395798)
(0.00361785 1.72535e-07 0.00395799)
(0.00361779 2.41097e-07 0.003958)
(0.00361771 4.16078e-07 0.003958)
(0.00361729 2.54225e-07 0.00395761)
(0.00533264 -1.42334e-07 0.00433965)
(0.00533304 3.7614e-09 0.00434023)
(0.00533298 2.85019e-07 0.00434028)
(0.00533294 3.61991e-07 0.00434033)
(0.00533293 5.23249e-07 0.00434035)
(0.00533239 3.01523e-07 0.00433996)
(0.00734794 -9.5261e-08 0.0047624)
(0.00734844 5.78458e-08 0.00476334)
(0.00734841 2.62695e-07 0.00476351)
(0.00734846 2.72976e-07 0.00476363)
(0.00734859 4.18654e-07 0.00476369)
(0.00734801 2.57061e-07 0.00476324)
(0.00986459 -1.14593e-07 0.00511806)
(0.00986511 -7.49179e-08 0.00511974)
(0.00986515 -1.10537e-08 0.00512012)
(0.00986533 -9.77643e-08 0.00512029)
(0.00986568 4.28534e-08 0.00512027)
(0.00986513 9.52755e-08 0.00511955)
(0.0132576 -1.52329e-07 0.00528535)
(0.0132579 -3.02334e-07 0.00528827)
(0.0132579 -3.9854e-07 0.00528888)
(0.0132582 -5.51023e-07 0.00528894)
(0.0132589 -4.10676e-07 0.00528857)
(0.0132584 -9.05304e-08 0.00528717)
(0.0177084 -3.34383e-08 0.00516978)
(0.0177079 -1.81257e-07 0.00517456)
(0.0177076 -4.63508e-07 0.00517551)
(0.0177081 -7.18134e-07 0.0051753)
(0.0177091 -6.44435e-07 0.00517428)
(0.0177089 -2.02145e-07 0.00517189)
(0.0227955 4.13871e-07 0.00463609)
(0.0227934 5.44012e-07 0.00464336)
(0.0227927 -5.37534e-08 0.00464488)
(0.0227933 -5.58844e-07 0.00464438)
(0.0227949 -7.49396e-07 0.00464248)
(0.0227952 -3.35952e-07 0.00463882)
(0.0257967 1.41504e-07 0.00336481)
(0.0257919 2.58764e-07 0.00337296)
(0.0257907 -1.27813e-08 0.00337425)
(0.0257918 -3.67556e-07 0.00337303)
(0.0257945 -6.13761e-07 0.00336987)
(0.0257966 -3.15364e-07 0.00336436)
(0.0273193 -7.4754e-07 -0.00146123)
(0.0273152 -1.11502e-06 -0.00146235)
(0.0273144 -7.69388e-07 -0.00146366)
(0.0273159 -6.28177e-07 -0.0014663)
(0.0273199 -7.9126e-07 -0.00147129)
(0.0273253 -4.15714e-07 -0.00147987)
(0.0136516 -3.08314e-06 -0.00494151)
(0.0136511 -3.25916e-06 -0.00494827)
(0.013651 8.9627e-08 -0.00494975)
(0.0136518 2.74149e-06 -0.00495118)
(0.0136539 4.14671e-06 -0.00495385)
(0.0136573 2.66225e-06 -0.00495769)
(0.000617742 -1.21755e-07 0.00479172)
(0.000617806 -9.66143e-08 0.00479224)
(0.000617803 2.8474e-08 0.00479224)
(0.000617787 1.22502e-08 0.00479224)
(0.000617766 1.06083e-07 0.00479224)
(0.000617677 7.16261e-08 0.00479175)
(0.00189692 -1.35089e-07 0.00502134)
(0.00189711 -8.62564e-08 0.00502188)
(0.00189709 7.03837e-08 0.00502187)
(0.00189705 8.55319e-08 0.00502186)
(0.001897 2.06097e-07 0.00502184)
(0.00189676 1.44073e-07 0.00502131)
(0.00331172 -1.31358e-07 0.00547348)
(0.00331203 -4.79805e-08 0.00547408)
(0.003312 1.49814e-07 0.00547407)
(0.00331196 1.86553e-07 0.00547407)
(0.00331192 3.15913e-07 0.00547405)
(0.00331154 1.9836e-07 0.00547348)
(0.00496649 -1.26401e-07 0.00612627)
(0.00496697 -2.65523e-08 0.00612701)
(0.00496698 1.77494e-07 0.00612704)
(0.00496699 2.09767e-07 0.00612706)
(0.00496701 3.51787e-07 0.00612706)
(0.00496654 2.22911e-07 0.00612645)
(0.00695444 -1.94759e-07 0.00691528)
(0.00695517 -1.70734e-07 0.00691635)
(0.00695529 2.64842e-08 0.00691648)
(0.00695541 5.10535e-08 0.00691657)
(0.00695556 2.27919e-07 0.0069166)
(0.00695501 1.8169e-07 0.00691589)
(0.00925324 -3.66599e-07 0.00767359)
(0.00925429 -5.50561e-07 0.00767531)
(0.00925456 -3.37997e-07 0.0076756)
(0.00925484 -2.52286e-07 0.00767574)
(0.00925514 4.23341e-09 0.00767573)
(0.00925454 9.7166e-08 0.00767474)
(0.0116399 -5.97708e-07 0.00802841)
(0.0116413 -1.02517e-06 0.00803113)
(0.0116418 -6.93622e-07 0.00803162)
(0.0116422 -4.52419e-07 0.00803166)
(0.0116427 -7.99492e-08 0.00803139)
(0.0116421 7.7815e-08 0.00802982)
(0.0138931 -7.87875e-07 0.00722774)
(0.0138945 -1.30635e-06 0.007232)
(0.0138949 -7.39428e-07 0.00723279)
(0.0138956 -3.14696e-07 0.00723264)
(0.0138965 1.49677e-07 0.00723187)
(0.013896 1.7325e-07 0.00722958)
(0.0160776 -8.14901e-07 0.00360055)
(0.0160783 -1.21542e-06 0.00360694)
(0.0160785 -4.80836e-07 0.00360827)
(0.0160795 -2.94961e-08 0.00360793)
(0.0160811 3.72227e-07 0.00360645)
(0.0160815 2.26125e-07 0.00360323)
(0.0196975 -7.2897e-07 -0.00581003)
(0.0196968 -1.0584e-06 -0.00580275)
(0.0196967 -3.27697e-07 -0.00580134)
(0.0196981 5.14524e-08 -0.00580226)
(0.019701 1.73023e-07 -0.00580518)
(0.0197035 -4.7812e-09 -0.00581006)
(0.0202227 -6.22979e-07 -0.0299091)
(0.0202255 -5.28087e-07 -0.0299133)
(0.0202269 9.22496e-07 -0.0299147)
(0.0202287 1.74128e-06 -0.0299167)
(0.020233 1.90661e-06 -0.029921)
(0.0202399 7.70825e-07 -0.0299274)
(0.023237 -9.73052e-08 -0.0526659)
(0.0232458 1.14849e-06 -0.0526897)
(0.0232481 3.30547e-06 -0.0526943)
(0.0232488 5.12562e-06 -0.0526943)
(0.0232503 6.20161e-06 -0.0526932)
(0.023252 3.20926e-06 -0.0526867)
(-1.80552 2.29846e-06 -3.06818)
(-1.80553 -1.78762e-06 -3.0682)
(-1.80551 2.83555e-06 -3.0682)
(-1.80551 7.27344e-07 -3.06819)
(-1.80552 6.70624e-06 -3.06818)
(-1.8055 3.35148e-06 -3.06822)
(-4.07663 3.48984e-05 -0.869006)
(-4.07669 4.03687e-05 -0.86896)
(-4.07665 1.17259e-05 -0.868952)
(-4.07666 7.77427e-06 -0.868985)
(-4.07667 6.64506e-05 -0.86899)
(-4.07663 5.59489e-05 -0.86889)
(-4.88081 0.00011308 -1.5312)
(-4.88096 0.000158531 -1.53143)
(-4.88089 5.01576e-05 -1.5315)
(-4.88093 2.81893e-05 -1.5314)
(-4.88097 0.000230284 -1.53137)
(-4.88089 0.000186129 -1.53171)
(-0.786445 9.52774e-05 -6.62829)
(-0.786526 -0.00029133 -6.62836)
(-0.786555 6.35116e-05 -6.62838)
(-0.786479 -0.00012578 -6.62829)
(-0.786438 0.000117442 -6.62821)
(-0.786626 -0.000248975 -6.62827)
(2.52623 -1.76943e-05 -4.2431)
(2.52703 -7.59255e-05 -4.24351)
(2.52713 -3.38074e-05 -4.24359)
(2.52669 -5.82447e-05 -4.24332)
(2.52653 -4.79864e-06 -4.24319)
(2.52777 -6.65846e-06 -4.2437)
(-2.93726 1.74206e-05 -6.57362)
(-2.9373 2.32339e-05 -6.57375)
(-2.93734 -1.1767e-05 -6.57371)
(-2.93735 -1.16184e-05 -6.57368)
(-2.93736 -3.63601e-06 -6.57374)
(-2.93742 1.22701e-05 -6.57369)
(1.16763 8.89321e-06 -4.12863)
(1.16751 -3.14424e-05 -4.12881)
(1.16749 7.9959e-05 -4.12888)
(1.16753 -8.48362e-06 -4.12885)
(1.16766 0.000136852 -4.12881)
(1.16773 4.82839e-05 -4.12901)
(-1.21624 -1.73326e-05 -2.202)
(-1.21656 7.7896e-06 -2.20207)
(-1.21656 1.7371e-05 -2.20204)
(-1.21654 4.50337e-05 -2.20205)
(-1.21648 7.4892e-06 -2.20211)
(-1.21631 3.24874e-05 -2.20205)
(-0.89085 -7.74329e-06 -3.20331)
(-0.890864 -2.24631e-05 -3.20335)
(-0.890881 -9.85581e-06 -3.20329)
(-0.890879 -4.25771e-06 -3.20328)
(-0.890863 2.39477e-06 -3.2033)
(-0.890875 -5.11532e-06 -3.20319)
(-2.64357 7.93438e-05 -2.74517)
(-2.64382 0.000116679 -2.74539)
(-2.64368 8.4339e-05 -2.74534)
(-2.64361 6.47587e-05 -2.74531)
(-2.64351 6.65287e-05 -2.7453)
(-2.64316 5.014e-05 -2.74534)
(-3.29749 5.24245e-05 -1.67591)
(-3.29783 4.24123e-05 -1.67594)
(-3.29781 -8.5108e-06 -1.67588)
(-3.29785 -6.96416e-06 -1.67586)
(-3.29786 -1.90615e-07 -1.67586)
(-3.29766 1.63776e-05 -1.67583)
(-1.26541 -1.422e-05 -2.37746)
(-1.26544 -2.0298e-05 -2.37751)
(-1.26549 -1.94915e-05 -2.37746)
(-1.2655 -1.93674e-05 -2.37745)
(-1.26551 -4.41798e-06 -2.37744)
(-1.26552 6.97703e-06 -2.37734)
(-1.43731 1.29938e-05 -1.20157)
(-1.43733 -1.13881e-06 -1.20165)
(-1.43721 -5.67106e-06 -1.20159)
(-1.43714 -7.4731e-07 -1.20153)
(-1.43709 1.54517e-05 -1.20155)
(-1.43684 4.94758e-06 -1.2016)
(-1.35568 2.17176e-06 -2.31241)
(-1.35592 -1.67217e-05 -2.3124)
(-1.35595 -3.64021e-05 -2.31236)
(-1.35601 -1.8716e-05 -2.31231)
(-1.35604 1.31658e-05 -2.31226)
(-1.35589 2.16659e-05 -2.31222)
(-0.345689 -1.10566e-05 -3.00168)
(-0.345729 -1.44822e-05 -3.00175)
(-0.345751 -1.4611e-05 -3.00172)
(-0.345767 -2.12157e-05 -3.00171)
(-0.345778 -5.42724e-06 -3.00171)
(-0.345773 5.87857e-06 -3.00162)
(-2.15564 -5.69893e-05 -1.66468)
(-2.15604 -3.60707e-05 -1.66463)
(-2.15604 3.12324e-06 -1.66452)
(-2.156 2.69781e-05 -1.6644)
(-2.15597 5.38606e-05 -1.66441)
(-2.15573 2.98655e-05 -1.66455)
(-1.25045 -2.34239e-05 -2.73351)
(-1.25063 -3.52794e-05 -2.73353)
(-1.25067 -2.95529e-05 -2.73349)
(-1.25071 -7.87838e-06 -2.73344)
(-1.25073 3.14794e-05 -2.7334)
(-1.25058 3.50403e-05 -2.73334)
(-0.331057 -6.59897e-06 -2.71983)
(-0.331097 -1.19503e-05 -2.71989)
(-0.33111 -8.61387e-06 -2.71987)
(-0.331122 -6.08582e-06 -2.71986)
(-0.331129 2.16612e-06 -2.71987)
(-0.3311 4.2911e-06 -2.71983)
(-1.13313 -5.81518e-07 -3.06795)
(-1.13364 5.33669e-05 -3.06792)
(-1.1335 0.000107106 -3.06786)
(-1.13339 0.000112338 -3.06783)
(-1.13329 0.000122822 -3.06786)
(-1.13289 5.42299e-05 -3.06799)
(-0.960146 -2.23611e-05 -2.8538)
(-0.960352 -2.85925e-05 -2.85375)
(-0.960359 7.82239e-06 -2.85372)
(-0.960344 2.16294e-05 -2.85373)
(-0.960344 5.87304e-05 -2.85376)
(-0.960133 4.64461e-05 -2.85381)
(-0.437164 -1.6563e-05 -2.72043)
(-0.437222 -2.29063e-05 -2.72042)
(-0.437229 -3.59874e-06 -2.72041)
(-0.437225 8.27585e-06 -2.72042)
(-0.437218 2.18137e-05 -2.72044)
(-0.437156 1.53657e-05 -2.72045)
(-1.60462 4.50386e-05 -3.73845)
(-1.60523 0.000108098 -3.7383)
(-1.605 0.000128632 -3.73833)
(-1.60486 0.000149302 -3.73837)
(-1.60471 0.000105433 -3.73838)
(-1.6043 2.55699e-05 -3.7387)
(-1.52859 -2.50022e-05 -2.74657)
(-1.52898 -1.75577e-05 -2.74639)
(-1.52896 2.18759e-05 -2.74639)
(-1.52895 5.00097e-06 -2.74644)
(-1.52897 5.73645e-05 -2.74651)
(-1.52855 6.53188e-05 -2.7467)
(-0.626868 -2.92287e-05 -2.2139)
(-0.626996 -4.13293e-05 -2.21377)
(-0.627018 -1.42753e-05 -2.21376)
(-0.627028 -8.92383e-06 -2.21378)
(-0.627042 2.66325e-05 -2.2138)
(-0.626927 3.26189e-05 -2.2139)
(-2.24065 0.000140722 -3.95941)
(-2.2411 0.0002043 -3.9591)
(-2.24088 0.000117259 -3.9592)
(-2.24074 0.000205611 -3.95916)
(-2.24047 7.28091e-05 -3.95908)
(-2.24023 -6.68933e-05 -3.95937)
(-2.94198 1.19127e-05 -2.8935)
(-2.94242 9.98809e-06 -2.89321)
(-2.94237 -2.91127e-05 -2.89325)
(-2.94241 -5.1514e-05 -2.89322)
(-2.94252 -3.9939e-05 -2.89308)
(-2.94204 -1.56421e-05 -2.89355)
(-1.26945 -4.13822e-05 -1.46838)
(-1.26971 -7.30507e-05 -1.46814)
(-1.26974 -6.5375e-05 -1.46812)
(-1.26978 -9.49802e-05 -1.46811)
(-1.26987 -1.61935e-05 -1.46809)
(-1.26962 4.37487e-05 -1.46833)
(-1.88052 0.00019073 -0.09408)
(-1.88046 0.000243502 -0.0935117)
(-1.88034 0.000117596 -0.093434)
(-1.88003 0.000416965 -0.0933264)
(-1.87951 9.38971e-05 -0.0937964)
(-1.87926 -0.000215673 -0.0924388)
(-4.50863 8.00913e-05 -0.736845)
(-4.50884 9.83428e-05 -0.736198)
(-4.50882 -4.32467e-05 -0.736113)
(-4.50888 0.00011 -0.735798)
(-4.50899 -0.000218431 -0.735325)
(-4.50864 -0.000374991 -0.735466)
(-2.42888 -4.40174e-05 0.196358)
(-2.42919 -0.000119232 0.196779)
(-2.42923 -0.000177006 0.196872)
(-2.42935 -0.000211954 0.197039)
(-2.42959 -0.00019978 0.197307)
(-2.42925 -9.1983e-05 0.196864)
(-1.70797 0.000256876 8.3927)
(-1.70779 0.00033581 8.3936)
(-1.70788 0.000269273 8.39405)
(-1.70785 0.000654544 8.39379)
(-1.7078 0.000207581 8.3918)
(-1.70785 -0.00017923 8.39633)
(-4.2225 0.000233208 5.73581)
(-4.22235 0.000350138 5.73718)
(-4.22229 0.000207613 5.73736)
(-4.22224 0.000595218 5.73764)
(-4.22238 -0.000272748 5.73782)
(-4.22206 -0.000729481 5.74002)
(-2.97442 1.1693e-05 3.51408)
(-2.9746 -6.39011e-06 3.51512)
(-2.97461 -0.000105226 3.5153)
(-2.97468 -3.55305e-05 3.51571)
(-2.97488 -0.000384449 3.51646)
(-2.97467 -0.00042957 3.51616)
(5.98923 0.000483974 21.5251)
(5.99038 0.000710283 21.5271)
(5.9897 0.000493271 21.5257)
(5.9896 0.000375116 21.5254)
(5.98997 0.000438349 21.5254)
(5.98773 0.00043393 21.5259)
(1.83918 0.000297691 16.9319)
(1.84042 0.000578099 16.9354)
(1.84006 0.000544386 16.9346)
(1.83999 0.000578899 16.9345)
(1.8402 0.000162053 16.935)
(1.83923 -7.0824e-05 16.9373)
(0.104991 -2.987e-05 10.6173)
(0.105392 8.29226e-05 10.62)
(0.105319 0.000111737 10.6199)
(0.105306 0.000111018 10.6202)
(0.105362 -0.000291365 10.6212)
(0.105162 -0.000372315 10.6216)
(0.108873 1.80915e-06 -0.0882337)
(0.108905 7.33616e-06 -0.0882321)
(0.108897 1.12206e-05 -0.0882337)
(0.108883 1.36631e-05 -0.0882349)
(0.108868 1.00303e-05 -0.0882355)
(0.108825 4.88211e-06 -0.0882389)
(0.429769 -2.76905e-06 0.0319513)
(0.429812 -4.55309e-07 0.0319655)
(0.429812 7.22793e-06 0.031963)
(0.429805 1.14703e-05 0.0319597)
(0.429797 1.31453e-05 0.031957)
(0.429754 7.62423e-06 0.0319393)
(0.271562 -2.13425e-06 0.458266)
(0.271582 -2.20152e-06 0.458302)
(0.271583 1.55724e-06 0.458302)
(0.271581 3.54987e-06 0.458298)
(0.271579 5.482e-06 0.458294)
(0.271559 3.49059e-06 0.458257)
(0.212791 4.17657e-06 -0.225837)
(0.212833 1.85232e-05 -0.225844)
(0.212828 3.62685e-05 -0.22585)
(0.212815 4.57373e-05 -0.225857)
(0.212799 4.15343e-05 -0.225862)
(0.212748 1.92307e-05 -0.225866)
(0.676998 -5.55875e-06 -0.0713722)
(0.677069 -1.94151e-06 -0.0713685)
(0.677067 1.31842e-05 -0.0713783)
(0.677053 2.13566e-05 -0.0713893)
(0.677034 2.62736e-05 -0.0714001)
(0.676958 1.56391e-05 -0.0714202)
(0.469032 -4.21782e-06 0.696772)
(0.469072 -5.35034e-06 0.696829)
(0.469076 1.68629e-06 0.696828)
(0.469072 6.33515e-06 0.69682)
(0.469066 1.15821e-05 0.69681)
(0.469025 7.96158e-06 0.696752)
(-0.358556 4.63193e-06 -0.40549)
(-0.358529 1.84872e-05 -0.405523)
(-0.358555 3.75377e-05 -0.405526)
(-0.35859 4.98632e-05 -0.405525)
(-0.358628 4.63607e-05 -0.405522)
(-0.358706 2.18449e-05 -0.405499)
(1.01272 -8.13386e-06 -0.310126)
(1.01283 -3.21086e-06 -0.31018)
(1.01283 1.9687e-05 -0.3102)
(1.0128 3.18406e-05 -0.310218)
(1.01276 4.31833e-05 -0.310239)
(1.01262 2.84998e-05 -0.310233)
(0.827117 -1.32279e-05 1.07169)
(0.827201 -1.88934e-05 1.07177)
(0.827207 -3.02682e-06 1.07177)
(0.827201 5.45215e-06 1.07175)
(0.827193 2.19279e-05 1.07173)
(0.827101 1.88193e-05 1.07163)
(-0.00531427 5.53205e-05 -1.14186)
(-0.00528327 0.000100651 -1.14193)
(-0.00533695 0.000111312 -1.14194)
(-0.00539459 0.000126942 -1.14195)
(-0.00545456 0.000110389 -1.14195)
(-0.00557692 4.41303e-05 -1.14192)
(1.76796 5.07526e-06 -0.779062)
(1.76824 2.68471e-05 -0.77904)
(1.76823 4.66747e-05 -0.779081)
(1.7682 5.51534e-05 -0.779107)
(1.76815 6.72938e-05 -0.779119)
(1.76785 4.48148e-05 -0.779278)
(1.48022 -4.05025e-05 1.60182)
(1.48044 -5.57596e-05 1.60195)
(1.48045 -2.04403e-05 1.60194)
(1.48045 -1.32879e-05 1.60191)
(1.48045 3.69906e-05 1.60187)
(1.48025 4.5044e-05 1.60168)
(-2.73103 8.462e-05 -0.421617)
(-2.73126 0.000217614 -0.421516)
(-2.73132 0.000251257 -0.421612)
(-2.73142 0.000264794 -0.421661)
(-2.7316 0.000275389 -0.421685)
(-2.73189 0.00015343 -0.421981)
(3.08955 -1.99308e-05 1.49322)
(3.0899 8.63967e-05 1.49424)
(3.08986 0.000190679 1.4941)
(3.08981 0.000188005 1.49409)
(3.08971 0.000192421 1.49428)
(3.0893 0.000105816 1.49339)
(2.55188 -9.75756e-05 2.80552)