/*--------------------------------*- C++ -*----------------------------------*\
| =========                 |                                                 |
| \\      /  F ield         | OpenFOAM: The Open Source CFD Toolbox           |
|  \\    /   O peration     | Version:  v1612+                                |
|   \\  /    A nd           | Web:      www.OpenFOAM.com                      |
|    \\/     M anipulation  |                                                 |
\*---------------------------------------------------------------------------*/
FoamFile
{
    version     2.0;
    format      ascii;
    class       volScalarField;
    location    "2";
    object      alpha.water;
}
// * * * * * * * * * * * * * * * * * * * * * * * * * * * * * * * * * * * * * //

dimensions      [0 0 0 0 0 0 0];

internalField   nonuniform List<scalar> 
1116
(
0.999945
0.999945
0.999945
0.999945
0.999945
0.999945
0.999945
0.999945
0.999945
0.999945
0.999945
0.999945
0.999869
0.999869
0.999869
0.999869
0.999869
0.999869
0.999678
0.999678
0.999678
0.999678
0.999678
0.999678
0.999222
0.999222
0.999222
0.999222
0.999222
0.999222
0.998254
0.998254
0.998254
0.998254
0.998253
0.998254
0.9863
0.986298
0.986298
0.986298
0.986298
0.986298
0.946839
0.946835
0.946834
0.946835
0.946834
0.946833
0.863399
0.863379
0.863387
0.863386
0.863383
0.863386
0.865307
0.865298
0.865295
0.865295
0.865293
0.865295
0.864069
0.864055
0.864057
0.864056
0.864054
0.864056
0.803602
0.803613
0.803611
0.803614
0.803615
0.803607
0.999945
0.999945
0.999945
0.999945
0.999945
0.999945
0.997706
0.997705
0.997706
0.997706
0.997706
0.997706
0.973265
0.973263
0.973264
0.973264
0.973264
0.973265
0.897763
0.89776
0.897762
0.897763
0.897762
0.897765
0.806831
0.806828
0.806829
0.806828
0.806826
0.806828
0.650616
0.65061
0.65061
0.650609
0.650607
0.650605
0.430833
0.430822
0.430822
0.430822
0.43082
0.430815
0.22185
0.221841
0.22184
0.22184
0.221839
0.221835
0.0603115
0.0603102
0.0603098
0.060309
0.0603084
0.0603072
0.0727229
0.0727183
0.0727204
0.0727194
0.0727193
0.0727161
0.134346
0.134337
0.134336
0.134334
0.134323
0.134335
0.636644
0.636646
0.636647
0.636647
0.63664
0.636655
0.995504
0.995504
0.995504
0.995504
0.995504
0.995505
0.543288
0.543283
0.543285
0.543287
0.543287
0.543294
0.331493
0.331487
0.331488
0.33149
0.331489
0.331495
0.148282
0.148276
0.148278
0.14828
0.14828
0.148282
0.00336477
0.0033627
0.0033631
0.00336365
0.00336363
0.0033638
3.77204e-10
3.77224e-10
3.77346e-10
3.77414e-10
3.77457e-10
3.77557e-10
1.18651e-11
1.18637e-11
1.186e-11
1.18569e-11
1.18534e-11
1.18515e-11
6.07693e-11
6.08022e-11
6.07879e-11
6.07768e-11
6.07762e-11
6.07151e-11
6.25969e-10
6.26004e-10
6.2648e-10
6.26327e-10
6.25792e-10
6.24733e-10
2.96174e-07
2.96099e-07
2.96103e-07
2.96128e-07
2.9604e-07
2.96433e-07
0.0002524
0.000252404
0.000252403
0.0002524
0.000252306
0.000252422
0.426823
0.426819
0.42682
0.426827
0.426845
0.42679
0.48358
0.483581
0.483586
0.483582
0.483583
0.4836
7.96689e-06
7.96622e-06
7.96543e-06
7.9648e-06
7.96626e-06
7.96901e-06
5.65841e-07
5.65716e-07
5.65726e-07
5.65611e-07
5.65534e-07
5.65795e-07
3.22073e-08
3.22039e-08
3.22072e-08
3.22083e-08
3.22101e-08
3.22177e-08
4.02813e-10
4.02832e-10
4.02948e-10
4.03005e-10
4.03031e-10
4.03129e-10
1.62739e-13
1.62995e-13
1.62904e-13
1.62843e-13
1.62892e-13
1.62551e-13
1.00854e-11
1.0083e-11
1.00799e-11
1.00772e-11
1.00736e-11
1.00736e-11
1.21154e-11
1.21142e-11
1.21105e-11
1.21074e-11
1.21039e-11
1.21019e-11
8.38226e-11
8.38318e-11
8.37618e-11
8.3716e-11
8.37158e-11
8.39096e-11
-2.0215e-07
-2.02217e-07
-2.02224e-07
-2.02216e-07
-2.02013e-07
-2.02371e-07
1.57547e-05
1.57573e-05
1.5758e-05
1.57578e-05
1.57365e-05
1.57737e-05
0.104397
0.104381
0.104383
0.104392
0.104447
0.104296
3.51321e-63
3.51963e-63
3.51948e-63
3.52004e-63
3.52207e-63
3.51648e-63
6.236e-59
6.24758e-59
6.24739e-59
6.2486e-59
6.25235e-59
6.24309e-59
5.77375e-55
5.78391e-55
5.78366e-55
5.7846e-55
5.78787e-55
5.7793e-55
3.63748e-51
3.64304e-51
3.64263e-51
3.64296e-51
3.64476e-51
3.63938e-51
1.66803e-47
1.6698e-47
1.66934e-47
1.66929e-47
1.66998e-47
1.66758e-47
5.21427e-44
5.21601e-44
5.21336e-44
5.21279e-44
5.21497e-44
5.20863e-44
9.47914e-41
9.47347e-41
9.46683e-41
9.46656e-41
9.47309e-41
9.46721e-41
8.11065e-38
8.09701e-38
8.09066e-38
8.09301e-38
8.10355e-38
8.10652e-38
2.71427e-35
2.70583e-35
2.70374e-35
2.70631e-35
2.71299e-35
2.71843e-35
5.00256e-33
5.0049e-33
5.00436e-33
5.0073e-33
5.01472e-33
5.01635e-33
4.14894e-30
4.15701e-30
4.15788e-30
4.16024e-30
4.16564e-30
4.16635e-30
1.97918e-27
1.984e-27
1.98423e-27
1.9844e-27
1.98515e-27
1.9827e-27
1.21771e-59
1.21993e-59
1.21984e-59
1.21998e-59
1.2206e-59
1.21848e-59
2.23848e-55
2.24261e-55
2.24249e-55
2.24279e-55
2.24394e-55
2.24026e-55
2.14e-51
2.14378e-51
2.14364e-51
2.14386e-51
2.14487e-51
2.14138e-51
1.38283e-47
1.38504e-47
1.38487e-47
1.38493e-47
1.38549e-47
1.38326e-47
6.38155e-44
6.38987e-44
6.38843e-44
6.38821e-44
6.39034e-44
6.38036e-44
1.95653e-40
1.95828e-40
1.95758e-40
1.95741e-40
1.95805e-40
1.95528e-40
3.35675e-37
3.35786e-37
3.35627e-37
3.35612e-37
3.35774e-37
3.35428e-37
2.6936e-34
2.69283e-34
2.69147e-34
2.69184e-34
2.69405e-34
2.69285e-34
9.07207e-32
9.06169e-32
9.05692e-32
9.06121e-32
9.07426e-32
9.07875e-32
7.92281e-30
7.91403e-30
7.91031e-30
7.91459e-30
7.92748e-30
7.93429e-30
6.17515e-27
6.18475e-27
6.18528e-27
6.18798e-27
6.19514e-27
6.19581e-27
1.92467e-24
1.92868e-24
1.9287e-24
1.92868e-24
1.92921e-24
1.92672e-24
1.71278e-56
1.716e-56
1.71587e-56
1.71602e-56
1.71678e-56
1.71361e-56
3.34646e-52
3.35277e-52
3.35256e-52
3.35288e-52
3.35435e-52
3.34843e-52
3.34297e-48
3.34904e-48
3.34878e-48
3.349e-48
3.35032e-48
3.34445e-48
2.19187e-44
2.19554e-44
2.19528e-44
2.19531e-44
2.19605e-44
2.19227e-44
9.89728e-41
9.91199e-41
9.91016e-41
9.90977e-41
9.91256e-41
9.89598e-41
2.92213e-37
2.92584e-37
2.9251e-37
2.92489e-37
2.92566e-37
2.92104e-37
5.0465e-34
5.05152e-34
5.04999e-34
5.04969e-34
5.05131e-34
5.04436e-34
4.481e-31
4.48415e-31
4.48269e-31
4.48268e-31
4.48464e-31
4.47959e-31
1.8924e-28
1.89308e-28
1.8924e-28
1.89254e-28
1.89367e-28
1.89215e-28
2.21716e-26
2.21612e-26
2.21526e-26
2.21613e-26
2.21901e-26
2.21994e-26
6.08409e-24
6.09319e-24
6.09307e-24
6.09409e-24
6.09845e-24
6.09568e-24
9.20035e-22
9.21715e-22
9.21652e-22
9.21541e-22
9.21628e-22
9.20261e-22
1.14025e-53
1.14246e-53
1.14237e-53
1.14243e-53
1.14285e-53
1.14061e-53
2.50484e-49
2.50964e-49
2.50945e-49
2.50959e-49
2.51051e-49
2.50578e-49
2.6805e-45
2.68545e-45
2.6852e-45
2.68528e-45
2.68616e-45
2.68116e-45
1.7743e-41
1.77738e-41
1.77716e-41
1.77714e-41
1.77765e-41
1.77442e-41
7.64075e-38
7.65311e-38
7.65189e-38
7.65155e-38
7.65342e-38
7.63984e-38
2.06963e-34
2.07274e-34
2.07234e-34
2.0722e-34
2.07265e-34
2.06909e-34
3.1976e-31
3.20188e-31
3.20117e-31
3.20091e-31
3.20161e-31
3.19645e-31
2.51014e-28
2.51307e-28
2.51245e-28
2.51226e-28
2.51286e-28
2.50912e-28
9.9209e-26
9.93049e-26
9.92784e-26
9.9272e-26
9.92982e-26
9.91666e-26
1.68108e-23
1.6822e-23
1.6817e-23
1.68169e-23
1.6824e-23
1.68085e-23
1.99449e-21
1.99737e-21
1.9972e-21
1.99719e-21
1.9979e-21
1.99596e-21
1.73267e-19
1.73531e-19
1.73512e-19
1.73485e-19
1.73487e-19
1.73227e-19
2.37817e-07
2.37701e-07
2.37606e-07
2.37631e-07
2.37631e-07
2.37652e-07
2.20015e-07
2.19813e-07
2.19622e-07
2.19673e-07
2.19914e-07
2.19956e-07
-7.93059e-14
-8.68707e-14
-8.91678e-14
-8.71846e-14
-8.66718e-14
-8.87359e-14
3.36331e-07
3.34288e-07
3.32334e-07
3.32371e-07
3.35282e-07
3.38179e-07
0.000283241
0.000283248
0.000283261
0.000283277
0.000283291
0.000283296
-2.78391e-13
-3.04931e-13
-3.13005e-13
-3.06042e-13
-3.04236e-13
-3.11496e-13
8.55193e-07
8.55069e-07
8.5506e-07
8.55036e-07
8.5501e-07
8.55009e-07
7.83701e-06
7.83151e-06
7.83332e-06
7.82076e-06
7.81195e-06
7.84119e-06
-1.69986e-12
-1.86193e-12
-1.91121e-12
-1.86868e-12
-1.85768e-12
-1.90199e-12
8.61407e-07
8.61262e-07
8.61255e-07
8.61213e-07
8.61175e-07
8.61223e-07
2.50832e-06
2.50827e-06
2.50813e-06
2.50861e-06
2.50905e-06
2.50805e-06
-2.34395e-12
-2.56737e-12
-2.63524e-12
-2.57656e-12
-2.5614e-12
-2.62235e-12
8.52991e-07
8.52856e-07
8.52847e-07
8.52824e-07
8.52801e-07
8.52807e-07
2.25886e-06
2.25821e-06
2.2583e-06
2.25818e-06
2.25801e-06
2.25837e-06
-5.03349e-16
-5.9803e-16
-6.75951e-16
-6.44456e-16
-6.13525e-16
5.25573e-30
5.62788e-18
5.58863e-18
5.59749e-18
5.61762e-18
5.66899e-18
5.65286e-18
2.5002e-17
2.50105e-17
2.50214e-17
2.50267e-17
2.50291e-17
2.50219e-17
2.5002e-17
2.50189e-17
2.50239e-17
2.50294e-17
2.50363e-17
2.50219e-17
2.50982e-15
2.50302e-15
2.50111e-15
2.50482e-15
2.52531e-15
2.50919e-15
4.04748e-17
4.04685e-17
4.04704e-17
4.04912e-17
4.05541e-17
4.04784e-17
1.91367e-17
1.91455e-17
1.9146e-17
1.91515e-17
1.91538e-17
1.91326e-17
1.54941e-09
1.55113e-09
1.55022e-09
1.54966e-09
1.55028e-09
1.54759e-09
2.48265e-15
2.47585e-15
2.47396e-15
2.47765e-15
2.49802e-15
2.48202e-15
5.89623e-18
5.88416e-18
5.8845e-18
5.87627e-18
5.86868e-18
5.90702e-18
8.10555e-08
8.10546e-08
8.1052e-08
8.10492e-08
8.10507e-08
8.10399e-08
4.96309e-13
4.94789e-13
4.94376e-13
4.95106e-13
4.99184e-13
4.96159e-13
9.33427e-11
9.39064e-11
9.38961e-11
9.42221e-11
9.43151e-11
9.25977e-11
7.98587e-09
7.91466e-09
7.9067e-09
7.91601e-09
8.01783e-09
7.97671e-09
2.13549e-08
2.12241e-08
2.1197e-08
2.12321e-08
2.14933e-08
2.13061e-08
6.93704e-08
6.93883e-08
6.9434e-08
6.9485e-08
6.95111e-08
6.95164e-08
5.48379e-07
5.48567e-07
5.48718e-07
5.48746e-07
5.46694e-07
5.50833e-07
1.34763e-08
1.34143e-08
1.34063e-08
1.34182e-08
1.35299e-08
1.34609e-08
2.68782e-08
2.67972e-08
2.68043e-08
2.681e-08
2.66383e-08
2.74224e-08
1.6321e-05
1.63241e-05
1.63247e-05
1.63246e-05
1.63015e-05
1.6342e-05
5.54358e-07
5.54554e-07
5.54713e-07
5.54736e-07
5.52666e-07
5.57075e-07
2.75619e-08
2.7484e-08
2.74963e-08
2.74988e-08
2.73204e-08
2.81158e-08
8.31382e-14
8.32414e-14
8.32259e-14
8.31705e-14
8.35778e-14
8.26098e-14
5.22887e-12
5.23415e-12
5.23394e-12
5.23021e-12
5.26447e-12
5.18826e-12
2.50881e-17
2.50881e-17
2.5088e-17
2.50877e-17
2.50877e-17
2.50879e-17
3.21815e-12
3.2282e-12
3.22851e-12
3.22086e-12
3.27509e-12
3.15548e-12
6.12339e-10
6.13862e-10
6.13862e-10
6.12761e-10
6.22247e-10
6.01373e-10
1.97941e-17
1.94471e-17
1.88739e-17
1.91155e-17
1.38274e-17
1.97857e-17
7.23253e-12
7.24718e-12
7.24576e-12
7.23768e-12
7.33244e-12
7.12348e-12
3.16794e-10
3.17003e-10
3.16871e-10
3.16945e-10
3.19785e-10
3.13618e-10
2.58465e-08
2.58628e-08
2.58515e-08
2.58588e-08
2.60755e-08
2.56013e-08
7.60727e-08
7.59051e-08
7.59025e-08
7.60048e-08
7.76367e-08
7.42945e-08
2.61565e-08
2.61721e-08
2.61605e-08
2.61692e-08
2.63949e-08
2.59071e-08
8.43311e-05
8.43974e-05
8.43573e-05
8.43692e-05
8.49506e-05
8.36811e-05
1.14478e-07
1.14376e-07
1.14371e-07
1.14442e-07
1.14466e-07
1.12333e-07
0.000901944
0.00090203
0.000901873
0.000902062
0.000905552
0.000897954
0.000604013
0.000604213
0.000604076
0.00060417
0.00060664
0.000601234
0.00536176
0.00536183
0.00536129
0.00536203
0.00537501
0.00534638
0.00380802
0.00380839
0.00380794
0.00380855
0.00381754
0.00379765
0.000213059
0.000213133
0.000213113
0.000213155
0.000213486
0.000212749
4.69361e-51
4.7027e-51
4.70224e-51
4.70241e-51
4.70402e-51
4.69441e-51
8.0946e-53
8.11118e-53
8.11106e-53
8.11138e-53
8.11365e-53
8.09645e-53
3.2377e-56
3.2447e-56
3.24461e-56
3.24475e-56
3.24572e-56
3.23857e-56
1.06338e-46
1.06543e-46
1.06533e-46
1.06537e-46
1.06573e-46
1.06364e-46
3.70516e-48
3.71256e-48
3.71255e-48
3.71269e-48
3.71364e-48
3.70621e-48
1.70267e-51
1.70624e-51
1.7062e-51
1.70626e-51
1.70673e-51
1.70313e-51
1.09988e-42
1.10194e-42
1.10183e-42
1.10184e-42
1.10218e-42
1.10005e-42
7.99474e-44
8.00994e-44
8.00986e-44
8.00998e-44
8.01172e-44
7.99636e-44
4.58931e-47
4.59852e-47
4.59841e-47
4.59849e-47
4.59959e-47
4.59025e-47
6.64149e-39
6.65344e-39
6.65261e-39
6.65254e-39
6.65437e-39
6.64175e-39
1.02766e-39
1.02951e-39
1.02949e-39
1.02949e-39
1.02968e-39
1.0278e-39
8.1137e-43
8.12913e-43
8.12895e-43
8.12901e-43
8.1307e-43
8.11508e-43
2.50446e-35
2.50876e-35
2.50841e-35
2.50831e-35
2.50892e-35
2.50428e-35
8.3462e-36
8.36044e-36
8.36026e-36
8.36012e-36
8.36132e-36
8.34695e-36
1.03878e-38
1.04066e-38
1.04063e-38
1.04063e-38
1.04081e-38
1.03891e-38
5.84496e-32
5.85452e-32
5.85358e-32
5.85325e-32
5.85448e-32
5.84394e-32
4.3086e-32
4.31571e-32
4.31559e-32
4.31545e-32
4.3159e-32
4.30878e-32
1.05288e-34
1.05475e-34
1.05473e-34
1.05471e-34
1.05485e-34
1.05298e-34
7.96164e-29
7.97395e-29
7.97253e-29
7.9719e-29
7.97334e-29
7.9594e-29
1.40962e-28
1.41181e-28
1.41175e-28
1.41166e-28
1.41174e-28
1.40953e-28
9.02287e-31
9.03887e-31
9.03816e-31
9.03752e-31
9.03808e-31
9.02163e-31
5.95262e-26
5.96125e-26
5.96009e-26
5.95947e-26
5.96033e-26
5.95027e-26
2.95119e-25
2.95558e-25
2.95537e-25
2.95509e-25
2.95507e-25
2.9506e-25
8.67737e-27
8.69661e-27
8.69372e-27
8.69176e-27
8.69196e-27
8.66945e-27
2.52829e-23
2.53168e-23
2.53116e-23
2.53084e-23
2.53108e-23
2.52704e-23
3.7148e-22
3.72007e-22
3.7196e-22
3.71905e-22
3.71893e-22
3.71313e-22
1.18376e-21
1.18627e-21
1.1857e-21
1.18467e-21
1.1902e-21
1.17554e-21
7.92695e-21
7.93706e-21
7.93541e-21
7.93408e-21
7.93446e-21
7.9218e-21
2.54823e-19
2.55181e-19
2.55129e-19
2.55066e-19
2.55178e-19
2.54504e-19
4.51133e-18
4.51877e-18
4.51738e-18
4.50473e-18
4.5465e-18
4.47043e-18
2.06911e-18
2.07188e-18
2.0714e-18
2.07087e-18
2.07158e-18
2.06656e-18
8.24145e-17
8.25285e-17
8.25086e-17
8.24136e-17
8.26812e-17
8.21115e-17
2.49926e-16
2.49846e-16
2.49841e-16
2.50047e-16
2.48024e-16
2.52253e-16
2.86625e-16
2.86717e-16
2.86872e-16
2.86946e-16
2.84353e-16
2.85612e-16
2.49717e-14
2.49586e-14
2.49837e-14
2.49967e-14
2.46898e-14
2.48142e-14
1.70491e-17
1.70611e-17
1.706e-17
1.69793e-17
1.71337e-17
1.68815e-17
)
;

boundaryField
{
    seabed_topleft_surface
    {
        type            zeroGradient;
    }
    seabed_topright_surface
    {
        type            zeroGradient;
    }
    breakwater_top_surface
    {
        type            zeroGradient;
    }
    breakwater_left_surface
    {
        type            zeroGradient;
    }
    breakwater_right_surface
    {
        type            zeroGradient;
    }
    water_front_surface
    {
        type            zeroGradient;
    }
    water_back_surface
    {
        type            zeroGradient;
    }
    water_left_surface
    {
        type            zeroGradient;
    }
    water_right_surface
    {
        type            zeroGradient;
    }
    water_top_surface
    {
        type            inletOutlet;
        inletValue      uniform 0;
        value           nonuniform List<scalar> 
180
(
0
0
0
0
0
0
0
0
0
0
0
0
0
0
0
0
0
0
0
0
0
0
0
0
0
0
0
0
0
0
0
0
0
0
0
0
0
0
0
0
0
0
0
0
0
0
0
0
0
0
0
0
0
0
0
0
0
0
0
0
0
0
0
0
0
0
2.75619e-08
2.7484e-08
2.74963e-08
2.74988e-08
2.73204e-08
2.81158e-08
0
0
0
0
0
0
0
0
0
0
0
0
2.58465e-08
2.58628e-08
2.58515e-08
2.58588e-08
2.60755e-08
2.56013e-08
8.43311e-05
8.43974e-05
8.43573e-05
8.43692e-05
8.49506e-05
8.36811e-05
0.000604013
0.000604213
0.000604076
0.00060417
0.00060664
0.000601234
0.000213059
0.000213133
0.000213113
0.000213155
0.000213486
0.000212749
0
0
0
0
0
0
0
0
0
0
0
0
0
0
0
0
0
0
0
0
0
0
0
0
0
0
0
0
0
0
0
0
0
0
0
0
0
0
0
0
0
0
0
0
0
0
0
0
0
0
0
0
0
0
0
0
0
0
0
0
0
0
0
0
0
0
0
0
0
0
0
0
)
;
    }
}


// ************************************************************************* //
