/*--------------------------------*- C++ -*----------------------------------*\
| =========                 |                                                 |
| \\      /  F ield         | OpenFOAM: The Open Source CFD Toolbox           |
|  \\    /   O peration     | Version:  v1612+                                |
|   \\  /    A nd           | Web:      www.OpenFOAM.com                      |
|    \\/     M anipulation  |                                                 |
\*---------------------------------------------------------------------------*/
FoamFile
{
    version     2.0;
    format      ascii;
    class       surfaceScalarField;
    location    "2";
    object      alphaPhi;
}
// * * * * * * * * * * * * * * * * * * * * * * * * * * * * * * * * * * * * * //

dimensions      [0 3 -1 0 0 0 0];

internalField   nonuniform List<scalar> 
2916
(
-1.79566e-06
0.575456
-0.575165
1.54374e-07
0.575458
-0.575171
1.12637e-06
0.575458
-0.575169
1.14254e-06
0.575458
-0.575169
1.42397e-06
0.575458
-0.575169
0.575457
-0.575166
-3.72286e-06
1.234
-0.658248
-2.52002e-07
1.234
-0.658259
2.8647e-11
1.234
-0.658255
7.70969e-08
1.234
-0.658254
2.86299e-06
1.234
-0.658256
1.234
-0.658247
-2.88304e-06
1.71159
-0.476981
-1.07191e-06
1.7116
-0.476988
-3.07275e-06
1.7116
-0.476984
-3.13077e-06
1.71159
-0.476985
1.94074e-06
1.71159
-0.476989
1.71158
-0.476978
-5.95842e-06
2.10426
-0.391421
-5.36379e-06
2.10427
-0.391429
-7.95834e-06
2.10427
-0.391426
-6.83025e-06
2.10427
-0.39143
-5.02842e-07
2.10427
-0.391436
2.10425
-0.391425
-9.23539e-06
2.41711
-0.311197
-8.81769e-06
2.41712
-0.311208
-1.14823e-05
2.41712
-0.311205
-1.00435e-05
2.41712
-0.311209
-4.19465e-06
2.41712
-0.311217
2.4171
-0.311208
-1.19557e-05
2.72315
-0.30498
-1.22111e-05
2.72316
-0.304994
-1.42818e-05
2.72316
-0.304992
-1.28698e-05
2.72316
-0.304996
-6.03668e-06
2.72316
-0.305003
2.72314
-0.304998
-1.09723e-05
3.00833
-0.306249
-1.16116e-05
3.00835
-0.306264
-1.28023e-05
3.00834
-0.306262
-1.10574e-05
3.00834
-0.306265
-3.19394e-06
3.00835
-0.306271
3.00832
-0.306265
-1.13849e-05
3.16678
-0.221483
-9.02815e-06
3.16678
-0.221496
-1.07196e-05
3.16679
-0.221494
-9.25987e-06
3.16679
-0.221496
-6.69103e-07
3.16679
-0.2215
3.16676
-0.221492
-7.84542e-06
3.04687
-0.0160964
-3.81925e-06
3.04688
-0.0161037
-6.26343e-06
3.04687
-0.0161006
-6.29426e-06
3.04687
-0.0161021
8.91582e-07
3.04687
-0.0161062
3.04685
-0.0160998
-2.11608e-06
2.49832
0.414785
-4.82245e-08
2.49835
0.41477
-2.05112e-06
2.49834
0.414766
-3.32857e-06
2.49834
0.414764
-3.47046e-06
2.49835
0.414755
2.49832
0.414759
1.24006e-05
1.51438
0.849986
7.62084e-06
1.51443
0.849971
-1.24295e-06
1.51441
0.849981
-1.14266e-05
1.51441
0.849979
-1.70741e-05
1.51443
0.849973
1.51439
0.849958
-7.28964e-05
1.08479
-3.82925e-05
1.08478
-3.28276e-05
1.08478
-1.40076e-05
1.08478
3.47959e-05
1.08478
1.0848
-2.32768e-06
0.745434
-1.3203
-6.45194e-07
0.745438
-1.32032
-1.17675e-06
0.745437
-1.32031
-3.3538e-06
0.745436
-1.32031
-4.34271e-06
0.745436
-1.32031
0.745434
-1.32031
-5.51189e-07
1.35669
-1.2268
-2.40286e-06
1.3567
-1.22681
-5.29813e-06
1.35669
-1.22681
-6.07975e-06
1.35669
-1.22681
-4.93817e-06
1.35669
-1.22681
1.35668
-1.22681
-2.95578e-07
1.7084
-0.703954
-5.45882e-06
1.70842
-0.703956
-9.02876e-06
1.70842
-0.703954
-9.65857e-06
1.70841
-0.703958
-7.98205e-06
1.70841
-0.703963
1.7084
-0.703957
-8.40472e-06
1.91314
-0.449488
-1.1464e-05
1.91315
-0.449492
-1.01451e-05
1.91315
-0.449493
-8.05112e-06
1.91315
-0.449498
-7.44578e-06
1.91315
-0.449502
1.91313
-0.4495
-2.55345e-06
1.81441
-0.145034
-1.15225e-05
1.81443
-0.145034
-1.04014e-05
1.81442
-0.145037
-5.80538e-06
1.81442
-0.14504
-8.07623e-06
1.81442
-0.145041
1.81439
-0.145041
3.94188e-06
1.47487
-0.029898
-5.33463e-06
1.47487
-0.0298947
-6.10493e-06
1.47487
-0.0298959
-3.40068e-06
1.47486
-0.0298974
-5.5248e-06
1.47486
-0.0298975
1.47483
-0.029898
9.82545e-06
0.973788
-0.00295821
-2.93238e-06
0.973784
-0.00295791
-6.27844e-06
0.973775
-0.00295804
-4.36256e-06
0.973775
-0.00295819
-4.57509e-06
0.973775
-0.0029582
0.973743
-0.00295822
1.23898e-05
0.519351
-0.000309425
2.41723e-07
0.519356
-0.000309397
-5.93643e-06
0.519344
-0.000309409
-5.06757e-06
0.519342
-0.000309422
-3.75555e-06
0.519343
-0.000309424
0.519322
-0.000309416
6.37558e-06
0.353621
-2.99692e-05
3.27579e-06
0.353629
-2.99658e-05
-4.25489e-07
0.353619
-2.99662e-05
-1.32573e-06
0.353614
-2.99674e-05
-9.07802e-07
0.353612
-2.99682e-05
0.353598
-2.99652e-05
2.66836e-06
0.599558
0.011113
1.57853e-06
0.59956
0.011114
-6.68e-07
0.599543
0.0111126
-2.68917e-06
0.599536
0.0111125
-4.6354e-06
0.599528
0.011112
0.599512
0.0111121
3.44521e-06
0.976234
0.160093
1.42202e-06
0.976242
0.160097
-5.83935e-06
0.976234
0.160094
-1.36601e-05
0.976229
0.160091
2.87216e-06
0.97618
0.160115
0.97624
0.16006
-4.14257e-05
1.47503
-1.01027e-05
1.47501
6.4509e-06
1.47502
2.8377e-05
1.47502
8.9524e-06
1.47505
1.47501
-3.16734e-07
0.588672
-1.79179
5.65161e-07
0.588671
-1.7918
-5.6629e-07
0.588674
-1.7918
-1.9313e-06
0.588675
-1.7918
-3.52455e-06
0.588674
-1.7918
0.58867
-1.79182
6.31349e-06
0.427924
-0.184201
-8.97938e-07
0.427918
-0.184198
-4.72818e-07
0.42792
-0.184207
1.83037e-06
0.427922
-0.184202
-3.89674e-06
0.427924
-0.184204
0.427929
-0.184237
1.58135e-06
0.367521
-0.00363111
-1.42335e-06
0.367514
-0.00363097
5.92988e-07
0.367516
-0.00363117
1.83892e-06
0.367518
-0.00363111
-3.80824e-06
0.367519
-0.00363125
0.367522
-0.00363206
4.73494e-06
0.170893
-0.000121087
2.94536e-06
0.170888
-0.000121077
3.33315e-06
0.170891
-0.000121085
2.83034e-06
0.170894
-0.000121086
-1.99945e-06
0.170895
-0.000121093
0.170896
-0.000121122
8.44958e-07
0.0331999
-3.4562e-06
8.0123e-07
0.0331962
-3.45582e-06
7.11155e-07
0.0331975
-3.45617e-06
5.48076e-07
0.0331991
-3.45628e-06
1.43493e-07
0.0331992
-3.45647e-06
0.0331998
-3.45729e-06
7.75536e-08
0.00330186
-4.58998e-08
8.84566e-08
0.00330154
-4.59019e-08
6.8162e-08
0.00330168
-4.5915e-08
3.89279e-08
0.00330184
-4.59216e-08
-1.77543e-09
0.00330186
-4.59246e-08
0.00330188
-4.59357e-08
-7.96929e-09
0.000343662
-4.27086e-11
-8.09373e-09
0.000343631
-4.28073e-11
-8.00866e-09
0.000343644
-4.27756e-11
-8.34349e-09
0.000343659
-4.27566e-11
-9.82909e-09
0.000343662
-4.27702e-11
0.000343651
-4.26615e-11
-1.56178e-09
3.42456e-05
-7.81942e-09
-2.33589e-09
3.42422e-05
-7.82341e-09
-2.04524e-09
3.42426e-05
-7.82247e-09
-1.71281e-09
3.42438e-05
-7.82155e-09
-1.70504e-09
3.42448e-05
-7.82172e-09
3.4241e-05
-7.81529e-09
3.48241e-11
4.01179e-06
2.51737e-07
-1.27039e-10
4.01184e-06
2.51855e-07
-1.124e-10
4.01172e-06
2.51869e-07
-8.99674e-11
4.01171e-06
2.51886e-07
-6.29718e-11
4.01181e-06
2.51901e-07
4.01108e-06
2.51871e-07
4.33185e-07
0.0107971
0.000319559
4.12485e-07
0.0107985
0.00031963
2.83645e-07
0.0107973
0.000319602
8.51175e-08
0.0107971
0.000319587
3.68627e-08
0.0107966
0.000319506
0.0107964
0.000319751
1.01218e-06
0.151757
0.0183206
1.92003e-06
0.151762
0.0183214
5.45626e-07
0.15176
0.0183213
-2.70357e-07
0.151757
0.0183208
8.76836e-07
0.151776
0.0183233
0.15173
0.0183161
-1.95137e-05
0.766999
2.33651e-06
0.76697
2.2821e-05
0.76697
-4.3425e-06
0.767017
-0.000126493
0.767246
0.766685
3.64153e-06
0.186556
-2.48621e-06
2.11692e-06
0.186553
-2.48748e-06
4.22617e-06
0.186563
-2.49082e-06
5.33369e-06
0.186557
-2.49727e-06
-2.85542e-07
0.186559
-2.49767e-06
0.186593
-2.47411e-06
-5.77835e-08
0.00373728
-0.0013125
-4.09617e-08
0.00373714
-0.00131245
8.23878e-08
0.00373735
-0.00131237
6.62114e-08
0.0037373
-0.00131231
-4.99513e-08
0.00373746
-0.0013125
0.00373827
-0.00131287
-2.99341e-09
0.000119949
-1.25133e-05
8.40768e-10
0.000119939
-1.25068e-05
3.05972e-09
0.000119948
-1.25082e-05
3.41702e-09
0.000119949
-1.24957e-05
2.90506e-09
0.000119956
-1.24877e-05
0.000119985
-1.25173e-05
2.04665e-10
3.22468e-06
-3.6164e-06
3.9619e-10
3.22438e-06
-3.61632e-06
3.63696e-10
3.22476e-06
-3.61629e-06
2.19884e-10
3.2249e-06
-3.61597e-06
1.24554e-10
3.22513e-06
-3.61584e-06
3.22596e-06
-3.61658e-06
1.28179e-11
4.5897e-08
-2.66708e-07
1.86714e-11
4.58991e-08
-2.66635e-07
1.71579e-11
4.59123e-08
-2.66607e-07
1.15495e-11
4.59188e-08
-2.66572e-07
6.62783e-12
4.59218e-08
-2.6653e-07
4.59329e-08
-2.66539e-07
-3.8457e-14
-3.91131e-12
-5.6369e-13
-2.37456e-14
-3.9096e-12
-5.64489e-13
-1.61455e-14
-3.90684e-12
-5.64226e-13
1.02148e-14
-3.90515e-12
-5.64045e-13
4.91284e-14
-3.90384e-12
-5.64212e-13
-3.90296e-12
-5.63186e-13
-1.39855e-15
-8.49391e-11
-2.59898e-11
-1.35435e-15
-8.49767e-11
-2.60133e-11
-9.96983e-16
-8.49543e-11
-2.60023e-11
-1.36766e-16
-8.49402e-11
-2.59951e-11
6.60773e-16
-8.49373e-11
-2.5999e-11
-8.48602e-11
-2.59659e-11
-1.65902e-14
-5.45919e-09
-2.52595e-09
-9.14631e-15
-5.46078e-09
-2.52838e-09
9.02189e-16
-5.46075e-09
-2.52744e-09
7.69438e-15
-5.46035e-09
-2.52691e-09
-1.72025e-15
-5.4596e-09
-2.5278e-09
-5.45644e-09
-2.52446e-09
2.98851e-13
2.72627e-07
-2.68927e-08
3.87635e-13
2.72736e-07
-2.68859e-08
1.3681e-12
2.72742e-07
-2.68786e-08
1.50802e-12
2.72756e-07
-2.68737e-08
9.73942e-13
2.7276e-07
-2.6861e-08
2.72766e-07
-2.68942e-08
1.86648e-08
0.000298621
2.14869e-05
2.23409e-08
0.0002987
2.14944e-05
3.08198e-08
0.000298665
2.14966e-05
3.62638e-08
0.000298654
2.1496e-05
3.07551e-08
0.000298598
2.14818e-05
0.000298846
2.1504e-05
2.84013e-07
0.0174311
0.00113273
3.50719e-07
0.017432
0.00113293
2.16641e-07
0.017432
0.00113295
1.53329e-07
0.0174315
0.00113296
9.74487e-07
0.0174336
0.00113238
0.0174276
0.00113319
1.54036e-06
0.0382702
1.86716e-06
0.0382723
4.62381e-06
0.0382691
-2.29733e-05
0.0382728
-4.31938e-05
0.0383292
0.0382029
3.61161e-69
5.82355e-66
-2.01974e-62
8.32556e-70
5.83344e-66
-2.0235e-62
-3.81895e-70
5.83302e-66
-2.02341e-62
-8.35242e-70
5.83373e-66
-2.0237e-62
-8.46087e-70
5.83695e-66
-2.02477e-62
5.82748e-66
-2.02145e-62
3.30175e-65
2.10784e-61
-3.8601e-58
-3.23935e-66
2.11161e-61
-3.86731e-58
-1.89577e-65
2.11154e-61
-3.86716e-58
-2.80527e-65
2.11193e-61
-3.86779e-58
-3.42799e-65
2.1132e-61
-3.86987e-58
2.11012e-61
-3.86383e-58
1.18375e-61
3.01728e-57
-3.95262e-54
-8.07616e-62
3.02243e-57
-3.9595e-54
-1.78491e-61
3.02232e-57
-3.95923e-54
-2.3979e-61
3.02282e-57
-3.95969e-54
-2.77147e-61
3.02453e-57
-3.96162e-54
3.02014e-57
-3.95536e-54
9.44682e-59
2.63305e-53
-2.78434e-50
-2.61871e-58
2.63697e-53
-2.7884e-50
-6.79858e-58
2.63669e-53
-2.78796e-50
-1.04586e-57
2.63692e-53
-2.78805e-50
-1.19023e-57
2.63822e-53
-2.78918e-50
2.63439e-53
-2.78479e-50
2.25252e-54
1.57513e-49
-1.40696e-46
2.34656e-54
1.57675e-49
-1.40828e-46
-7.27116e-55
1.5763e-49
-1.40781e-46
-3.92143e-54
1.57624e-49
-1.40768e-46
-4.43774e-54
1.57685e-49
-1.40814e-46
1.57459e-49
-1.40601e-46
2.37048e-50
6.17006e-46
-4.67646e-43
1.07831e-50
6.17183e-46
-4.67734e-43
-1.75109e-50
6.16846e-46
-4.67465e-43
-3.84856e-50
6.16753e-46
-4.6739e-43
-3.5269e-50
6.16979e-46
-4.67559e-43
6.16208e-46
-4.66969e-43
4.63989e-47
1.3672e-42
-8.69465e-40
-5.38628e-47
1.36627e-42
-8.68881e-40
-1.69918e-46
1.36521e-42
-8.68244e-40
-2.33684e-46
1.36506e-42
-8.68201e-40
-1.92091e-46
1.36588e-42
-8.68781e-40
1.36491e-42
-8.68243e-40
-2.35819e-44
1.38028e-39
-6.98741e-37
-2.16156e-43
1.37775e-39
-6.97707e-37
-3.79658e-43
1.37651e-39
-6.97238e-37
-4.47355e-43
1.37676e-39
-6.97484e-37
-3.52478e-43
1.37839e-39
-6.98415e-37
1.3787e-39
-6.9872e-37
-5.92985e-41
5.11802e-37
-1.66525e-34
-1.55565e-40
5.10093e-37
-1.66129e-34
-2.19991e-40
5.09628e-37
-1.66089e-34
-2.36402e-40
5.10057e-37
-1.66314e-34
-1.80222e-40
5.11252e-37
-1.66781e-34
5.12189e-37
-1.67196e-34
-2.14428e-38
8.99453e-35
4.40208e-36
-3.83866e-38
8.99574e-35
4.40121e-36
-4.59406e-38
8.99339e-35
4.39326e-36
-4.49219e-38
8.99768e-35
4.38708e-36
-3.27001e-38
9.00985e-35
4.38286e-36
9.01079e-35
4.37001e-36
-2.41095e-35
5.7148e-32
1.74698e-32
-3.31627e-35
5.72375e-32
1.74803e-32
-3.42831e-35
5.72418e-32
1.74738e-32
-3.07261e-35
5.72694e-32
1.74765e-32
-2.11551e-35
5.73367e-32
1.74914e-32
5.73325e-32
1.74835e-32
-7.05429e-34
2.72601e-29
-1.01729e-33
2.73154e-29
-7.91124e-34
2.73149e-29
1.88039e-34
2.73144e-29
1.17344e-33
2.73218e-29
2.72845e-29
8.7571e-66
2.02617e-62
-5.69444e-59
2.52248e-67
2.02965e-62
-5.70512e-59
-3.45684e-66
2.02948e-62
-5.70471e-59
-5.5501e-66
2.02964e-62
-5.70524e-59
-7.0749e-66
2.03063e-62
-5.70778e-59
2.02704e-62
-5.69743e-59
6.75431e-62
7.62805e-58
-1.16146e-54
-5.04715e-62
7.64165e-58
-1.16363e-54
-9.7332e-62
7.64123e-58
-1.16356e-54
-1.37423e-61
7.64221e-58
-1.16368e-54
-1.78012e-61
7.6461e-58
-1.16419e-54
7.63376e-58
-1.16217e-54
5.27798e-59
1.13722e-53
-1.25528e-50
-6.59639e-58
1.13917e-53
-1.2575e-50
-9.6037e-58
1.1391e-53
-1.2574e-50
-1.20858e-57
1.13921e-53
-1.25748e-50
-1.41686e-57
1.13975e-53
-1.25798e-50
1.13792e-53
-1.2558e-50
-2.7793e-54
1.03219e-49
-9.12739e-47
-4.6019e-54
1.03379e-49
-9.14175e-47
-5.67318e-54
1.03366e-49
-9.14039e-47
-6.35158e-54
1.0337e-49
-9.1404e-47
-6.20533e-54
1.03411e-49
-9.14343e-47
1.03247e-49
-9.12792e-47
-2.43017e-50
6.32557e-46
-4.6044e-43
-2.85156e-50
6.33357e-46
-4.6102e-43
-3.46786e-50
6.33202e-46
-4.60901e-43
-3.54493e-50
6.33165e-46
-4.60865e-43
-2.47331e-50
6.33358e-46
-4.60991e-43
6.32368e-46
-4.6024e-43
-1.29736e-46
2.46284e-42
-1.47984e-39
-1.94873e-46
2.4649e-42
-1.4811e-39
-2.5069e-46
2.4639e-42
-1.48052e-39
-2.53193e-46
2.46356e-42
-1.48034e-39
-1.65738e-46
2.46422e-42
-1.48077e-39
2.46064e-42
-1.47862e-39
-5.05355e-43
5.0634e-39
-2.5658e-36
-8.30898e-43
5.06453e-39
-2.56677e-36
-1.01266e-42
5.06169e-39
-2.56558e-36
-9.93569e-43
5.061e-39
-2.56543e-36
-6.7454e-43
5.06294e-39
-2.56662e-36
5.05724e-39
-2.56395e-36
-8.55816e-40
4.56003e-36
-1.9875e-33
-1.29749e-39
4.55786e-36
-1.98761e-33
-1.45299e-39
4.55493e-36
-1.98686e-33
-1.35045e-39
4.55498e-36
-1.98723e-33
-9.25446e-40
4.55809e-36
-1.9889e-33
4.55532e-36
-1.98804e-33
-4.63553e-37
1.63809e-33
-5.59818e-31
-6.02496e-37
1.63567e-33
-5.59823e-31
-5.92029e-37
1.63449e-33
-5.5979e-31
-5.01493e-37
1.635e-33
-5.60165e-31
-3.34131e-37
1.63707e-33
-5.60992e-31
1.63752e-33
-5.61264e-31
-4.22514e-35
1.46721e-31
3.34164e-33
-4.57546e-35
1.46484e-31
3.31914e-33
-3.90111e-35
1.46383e-31
3.30088e-33
-3.03203e-35
1.46441e-31
3.28628e-33
-2.03343e-35
1.46658e-31
3.27182e-33
1.46755e-31
3.24615e-33
-1.98213e-32
9.65064e-29
4.38617e-29
-1.25634e-32
9.65995e-29
4.38674e-29
-2.67329e-33
9.65865e-29
4.3852e-29
1.79589e-33
9.66162e-29
4.38632e-29
1.67645e-33
9.67157e-29
4.39045e-29
9.6711e-29
4.38903e-29
7.94569e-30
5.65778e-26
8.55948e-30
5.66756e-26
7.72809e-30
5.6668e-26
6.55794e-30
5.66616e-26
4.55448e-30
5.66716e-26
5.65932e-26
9.53961e-63
2.73317e-59
-5.6126e-56
-1.30781e-63
2.73799e-59
-5.62331e-56
-5.90756e-63
2.73774e-59
-5.62286e-56
-8.44221e-63
2.73791e-59
-5.62317e-56
-1.02329e-62
2.73909e-59
-5.62525e-56
2.73409e-59
-5.61443e-56
6.62496e-59
1.09934e-54
-1.29305e-51
-9.15481e-59
1.10133e-54
-1.29549e-51
-1.55037e-58
1.10126e-54
-1.2954e-51
-2.05987e-58
1.10136e-54
-1.29547e-51
-2.55998e-58
1.10185e-54
-1.29594e-51
1.09998e-54
-1.29354e-51
-7.76246e-56
1.72444e-50
-1.50902e-47
-1.12403e-54
1.72747e-50
-1.51175e-47
-1.57833e-54
1.72734e-50
-1.5116e-47
-1.90031e-54
1.72745e-50
-1.51164e-47
-2.13438e-54
1.72814e-50
-1.51213e-47
1.72521e-50
-1.50935e-47
-5.07336e-51
1.59882e-46
-1.11791e-43
-8.93684e-51
1.60144e-46
-1.11976e-43
-1.09177e-50
1.60124e-46
-1.1196e-43
-1.15398e-50
1.60126e-46
-1.11958e-43
-1.07128e-50
1.60179e-46
-1.11989e-43
1.59908e-46
-1.11788e-43
-4.86034e-47
9.69546e-43
-5.46568e-40
-6.23102e-47
9.70956e-43
-5.47371e-40
-6.92633e-47
9.70761e-43
-5.47257e-40
-6.34667e-47
9.70702e-43
-5.47219e-40
-4.18424e-47
9.70953e-43
-5.47351e-40
9.69339e-43
-5.46405e-40
-2.79173e-43
3.7571e-39
-1.68137e-36
-3.71148e-43
3.76171e-39
-1.68349e-36
-4.01482e-43
3.76064e-39
-1.68304e-36
-3.50078e-43
3.76021e-39
-1.68288e-36
-1.98761e-43
3.76104e-39
-1.68329e-36
3.75503e-39
-1.68057e-36
-9.02026e-40
8.59365e-36
-2.95887e-33
-1.20722e-39
8.60161e-36
-2.962e-33
-1.24241e-39
8.59854e-36
-2.96113e-33
-1.04539e-39
8.59754e-36
-2.96094e-33
-6.07051e-40
8.5998e-36
-2.96187e-33
8.58766e-36
-2.95773e-33
-1.28203e-36
1.02373e-32
-2.57272e-30
-1.49691e-36
1.02431e-32
-2.57516e-30
-1.32136e-36
1.0239e-32
-2.57453e-30
-9.74209e-37
1.02385e-32
-2.5746e-30
-5.37538e-37
1.02425e-32
-2.57572e-30
1.02308e-32
-2.57275e-30
-5.44308e-34
5.62937e-30
-9.77898e-28
-3.9418e-34
5.63035e-30
-9.78848e-28
-1.65293e-34
5.628e-30
-9.78707e-28
1.8551e-37
5.62832e-30
-9.78843e-28
4.36101e-35
5.63167e-30
-9.79387e-28
5.62734e-30
-9.7851e-28
-2.78822e-32
7.24831e-28
-4.24014e-26
6.39754e-32
7.24312e-28
-4.25035e-26
1.42033e-31
7.2401e-28
-4.25266e-26
1.6913e-31
7.24327e-28
-4.25535e-26
1.28377e-31
7.25332e-28
-4.26041e-26
7.25729e-28
-4.26124e-26
2.68729e-29
1.83486e-25
5.86003e-26
5.85164e-29
1.83699e-25
5.86404e-26
8.10807e-29
1.83686e-25
5.86325e-26
8.52276e-29
1.83728e-25
5.86507e-26
6.36602e-29
1.83884e-25
5.87024e-26
1.8384e-25
5.86826e-26
-6.52959e-28
5.47929e-23
-1.67113e-27
5.48747e-23
-1.79254e-27
5.48647e-23
-1.46414e-27
5.48565e-23
-1.05758e-27
5.48623e-23
5.47837e-23
3.81489e-60
1.6479e-56
-2.98933e-53
-1.84676e-60
1.65093e-56
-2.99506e-53
-4.06236e-60
1.65078e-56
-2.99477e-53
-5.18283e-60
1.65085e-56
-2.99487e-53
-5.82077e-60
1.65145e-56
-2.99589e-53
1.64822e-56
-2.98984e-53
2.08089e-56
7.52624e-52
-7.14953e-49
-7.57293e-56
7.54021e-52
-7.16317e-49
-1.1316e-55
7.53962e-52
-7.1625e-49
-1.41096e-55
7.54003e-52
-7.16276e-49
-1.67941e-55
7.54282e-52
-7.16517e-49
7.52894e-52
-7.15124e-49
-3.35913e-52
1.29006e-47
-8.18171e-45
-1.04309e-51
1.29236e-47
-8.19676e-45
-1.29714e-51
1.29223e-47
-8.19586e-45
-1.4426e-51
1.29227e-47
-8.19595e-45
-1.53613e-51
1.29269e-47
-8.19846e-45
1.29035e-47
-8.18278e-45
-7.28076e-48
1.25089e-43
-5.6705e-41
-1.0086e-47
1.25297e-43
-5.68038e-41
-1.02156e-47
1.2528e-43
-5.6796e-41
-9.22435e-48
1.25277e-43
-5.67948e-41
-7.4969e-48
1.25312e-43
-5.68101e-41
1.2509e-43
-5.6704e-41
-5.41319e-44
7.57328e-40
-2.50803e-37
-6.44203e-44
7.58501e-40
-2.51213e-37
-6.01466e-44
7.5836e-40
-2.5117e-37
-4.7014e-44
7.58312e-40
-2.51157e-37
-2.92346e-44
7.58486e-40
-2.51217e-37
7.57154e-40
-2.5076e-37
-2.79929e-40
2.79629e-36
-6.85122e-34
-2.9956e-40
2.80024e-36
-6.86169e-34
-2.39861e-40
2.7996e-36
-6.86035e-34
-1.44182e-40
2.79932e-36
-6.85986e-34
-4.26021e-41
2.79987e-36
-6.86136e-34
2.79507e-36
-6.84939e-34
-5.72541e-37
5.60627e-33
-1.05674e-30
-5.41605e-37
5.61309e-33
-1.05825e-30
-3.39278e-37
5.61157e-33
-1.05804e-30
-1.02714e-37
5.61095e-33
-1.05796e-30
5.52617e-38
5.61205e-33
-1.0582e-30
5.60301e-33
-1.05647e-30
-4.61546e-34
5.3235e-30
-8.28759e-28
-1.92845e-34
5.32876e-30
-8.299e-28
1.73517e-34
5.32721e-30
-8.29759e-28
4.38349e-34
5.32676e-30
-8.29727e-28
4.36363e-34
5.32806e-30
-8.29935e-28
5.3203e-30
-8.2867e-28
-2.09275e-32
2.41559e-27
-3.2861e-25
2.90271e-31
2.41737e-27
-3.2907e-25
5.61322e-31
2.41669e-27
-3.29038e-25
6.65289e-31
2.41666e-27
-3.29038e-25
5.16827e-31
2.41749e-27
-3.29121e-25
2.41455e-27
-3.28656e-25
4.81607e-29
4.73612e-25
-5.03306e-23
1.55502e-28
4.73764e-25
-5.04154e-23
2.38187e-28
4.73631e-25
-5.04163e-23
2.57369e-28
4.73704e-25
-5.0417e-23
1.88625e-28
4.74012e-25
-5.04286e-23
4.73695e-25
-5.03551e-23
1.05643e-26
5.25131e-23
2.28796e-23
2.06133e-26
5.2571e-23
2.28979e-23
2.72455e-26
5.25697e-23
2.28939e-23
2.73393e-26
5.25834e-23
2.28978e-23
1.98648e-26
5.26215e-23
2.29095e-23
5.25923e-23
2.28927e-23
-2.41283e-24
1.55889e-20
-3.39287e-24
1.56062e-20
-3.43673e-24
1.56028e-20
-2.92592e-24
1.5601e-20
-1.70594e-24
1.55962e-20
1.55781e-20
-4.54649e-12
-2.08948e-06
8.5204e-09
-4.14185e-13
-2.08905e-06
8.52087e-09
9.67009e-12
-2.08892e-06
8.52022e-09
3.31514e-12
-2.08977e-06
8.52249e-09
-1.57135e-11
-2.08982e-06
8.52304e-09
-2.08748e-06
8.51273e-09
1.00766e-11
1.85442e-13
-1.4007e-05
1.19829e-11
2.03135e-13
-1.39956e-05
-9.43085e-13
2.08507e-13
-1.39851e-05
1.88802e-11
2.03867e-13
-1.39888e-05
5.87131e-11
2.02668e-13
-1.40019e-05
2.07499e-13
-1.40018e-05
2.05704e-18
4.46321e-14
1.66013e-18
4.88917e-14
1.20408e-18
5.01863e-14
1.23266e-18
4.90692e-14
3.22667e-19
4.8781e-14
4.9948e-14
-1.2394e-09
-0.00126908
1.64865e-06
-6.57558e-10
-0.00126901
1.6478e-06
-1.19588e-11
-0.00126894
1.64747e-06
6.45032e-11
-0.001269
1.64759e-06
1.33795e-10
-0.00126925
1.64818e-06
-0.00126946
1.64857e-06
-1.73262e-08
7.58943e-13
-3.69217e-05
-3.58177e-09
8.31312e-13
-3.69384e-05
6.56956e-09
8.53312e-13
-3.69542e-05
7.71153e-09
8.34321e-13
-3.69551e-05
7.29646e-09
8.29405e-13
-3.69345e-05
8.49175e-13
-3.69159e-05
1.08885e-18
5.37054e-13
8.46001e-18
5.88263e-13
1.0801e-17
6.03844e-13
7.74534e-18
5.90406e-13
6.68642e-18
5.86926e-13
6.00935e-13
-4.75818e-11
-7.80951e-06
-1.06709e-06
1.81523e-11
-7.80463e-06
-1.06711e-06
2.49823e-11
-7.80622e-06
-1.06708e-06
4.73596e-11
-7.79438e-06
-1.06694e-06
1.017e-10
-7.78622e-06
-1.06683e-06
-7.81358e-06
-1.06692e-06
-1.15207e-10
9.58453e-13
-4.6714e-06
-1.11389e-10
1.04985e-12
-4.67079e-06
-1.21666e-10
1.07759e-12
-4.67121e-06
-1.10472e-10
1.05359e-12
-4.66845e-06
-2.8583e-11
1.04741e-12
-4.66662e-06
1.07232e-12
-4.67305e-06
-1.08264e-17
4.35894e-13
-6.05019e-18
4.77421e-13
-9.64084e-18
4.90069e-13
-1.33125e-17
4.79163e-13
-6.35012e-18
4.76343e-13
4.87716e-13
3.71713e-11
-3.15018e-06
-1.48181e-06
-1.83327e-11
-3.14997e-06
-1.48175e-06
-6.31229e-11
-3.14984e-06
-1.48174e-06
-6.31356e-11
-3.14975e-06
-1.48162e-06
-1.09651e-11
-3.14987e-06
-1.48153e-06
-3.15016e-06
-1.48161e-06
-6.75574e-11
3.32776e-12
-2.38475e-06
-1.75616e-10
3.64513e-12
-2.38474e-06
-1.88648e-10
3.74147e-12
-2.38483e-06
-1.63288e-10
3.65818e-12
-2.38511e-06
-1.1062e-10
3.63668e-12
-2.38534e-06
3.72302e-12
-2.38502e-06
-2.73742e-17
5.10137e-17
-5.47677e-18
6.06077e-17
1.55539e-17
6.85099e-17
3.55466e-17
6.53202e-17
5.28777e-17
6.21869e-17
-1.11653e-21
-4.49323e-11
-1.44814e-06
-1.9756e-11
-3.32844e-11
-1.44795e-06
-1.97845e-11
-1.68724e-11
-1.44789e-06
-1.97748e-11
-3.75416e-12
-1.44783e-06
-1.97685e-11
2.59738e-11
-1.4478e-06
-1.97741e-11
-1.4477e-06
-1.97364e-11
-6.08746e-11
5.87126e-16
-7.68668e-16
-1.52578e-10
6.97612e-16
-7.66787e-16
-1.714e-10
7.88509e-16
-7.66246e-16
-1.24593e-10
7.51771e-16
-7.67354e-16
-5.81302e-11
7.15696e-16
-7.73483e-16
-6.0946e-19
-7.68489e-16
2.63181e-21
-6.09989e-19
1.06864e-20
-6.10398e-19
1.64657e-20
-6.10553e-19
1.79237e-20
-6.10696e-19
-2.53359e-25
-6.10859e-19
-6.10577e-19
-3.67214e-17
-4.86584e-17
-2.032e-11
-2.80685e-17
-4.86285e-17
-2.03494e-11
-1.15666e-17
-4.86287e-17
-2.03395e-11
4.0547e-18
-4.86597e-17
-2.0333e-11
1.67436e-17
-4.88031e-17
-2.03388e-11
-4.86767e-17
-2.03e-11
-6.02347e-22
-3.25489e-17
-7.55539e-16
-1.42746e-21
-3.25725e-17
-7.53602e-16
-1.59355e-21
-3.25789e-17
-7.53051e-16
-1.24501e-21
-3.25861e-17
-7.54184e-16
-5.3752e-22
-3.25953e-17
-7.60427e-16
-3.25749e-17
-7.5531e-16
-1.76333e-22
-3.92038e-18
-4.49553e-22
-3.94165e-18
-6.13038e-22
-3.94223e-18
-6.79071e-22
-3.9547e-18
-5.87891e-22
-3.95862e-18
-3.90465e-18
2.94566e-16
-2.67958e-14
-4.6286e-11
2.1861e-15
-2.67884e-14
-4.63404e-11
2.89651e-15
-2.67652e-14
-4.63182e-11
3.20772e-15
-2.67771e-14
-4.63041e-11
3.35659e-15
-2.68952e-14
-4.63139e-11
-2.6766e-14
-4.62384e-11
-1.21301e-19
-1.07121e-16
-2.74571e-14
-7.74738e-20
-1.07699e-16
-2.74471e-14
-1.03271e-20
-1.07716e-16
-2.74231e-14
6.12172e-20
-1.08062e-16
-2.7436e-14
1.92497e-19
-1.08177e-16
-2.75614e-14
-1.06705e-16
-2.7427e-14
-1.33727e-21
-1.14555e-16
-1.1892e-21
-1.15241e-16
-8.46266e-22
-1.15247e-16
-4.41681e-22
-1.15659e-16
-8.35803e-23
-1.15826e-16
-1.13937e-16
1.27562e-13
-1.18492e-11
-5.89932e-09
1.72453e-13
-1.18571e-11
-5.90495e-09
1.47688e-13
-1.18455e-11
-5.90441e-09
1.28109e-13
-1.18456e-11
-5.90333e-09
1.67125e-13
-1.18788e-11
-5.89746e-09
-1.18322e-11
-5.89821e-09
-1.61926e-17
-1.21811e-13
-1.17573e-11
-1.78523e-17
-1.22511e-13
-1.17644e-11
-1.79488e-17
-1.22475e-13
-1.17528e-11
-4.03794e-18
-1.22874e-13
-1.17525e-11
3.57676e-17
-1.23126e-13
-1.1786e-11
-1.21181e-13
-1.17408e-11
-8.28525e-19
-1.2191e-13
-6.51075e-19
-1.22612e-13
-4.74208e-19
-1.22577e-13
1.00865e-19
-1.22976e-13
1.09814e-18
-1.23229e-13
-1.2128e-13
1.23293e-11
-2.70933e-09
1.27545e-07
1.25701e-11
-2.697e-09
1.27575e-07
1.24558e-11
-2.69362e-09
1.27628e-07
1.24695e-11
-2.6984e-09
1.27648e-07
2.62273e-12
-2.73236e-09
1.27624e-07
-2.69834e-09
1.27752e-07
-1.40774e-14
-2.5479e-10
-2.46537e-09
-1.368e-14
-2.54867e-10
-2.45297e-09
-2.31874e-14
-2.54722e-10
-2.44969e-09
-1.09091e-14
-2.55233e-10
-2.45398e-09
-4.74051e-15
-2.56381e-10
-2.48689e-09
-2.54073e-10
-2.45508e-09
-9.29545e-15
-6.09293e-10
-1.05845e-14
-6.15156e-10
-1.33762e-14
-6.15124e-10
-9.50234e-15
-6.20039e-10
-6.61616e-15
-6.18529e-10
-6.21216e-10
4.00137e-10
-5.12343e-08
2.18722e-05
6.25829e-10
-5.10051e-08
2.18796e-05
7.5295e-10
-5.08854e-08
2.18823e-05
1.02536e-09
-5.0763e-08
2.18814e-05
1.35163e-09
-5.06219e-08
2.18664e-05
-5.08005e-08
2.18907e-05
8.63118e-13
-1.26371e-07
3.26811e-07
1.79685e-12
-1.25834e-07
3.26739e-07
-1.83733e-12
-1.2535e-07
3.26958e-07
1.76973e-12
-1.25781e-07
3.26841e-07
2.61527e-11
-1.26527e-07
3.25818e-07
-1.26576e-07
3.2859e-07
-7.56401e-12
2.7892e-08
-7.44534e-12
2.76061e-08
-1.1601e-11
2.73562e-08
-9.9969e-12
2.75343e-08
-3.84033e-12
2.78176e-08
2.80794e-08
1.30305e-08
4.17512e-05
0.00111112
2.1009e-08
4.17775e-05
0.00111131
1.77188e-08
4.17892e-05
0.00111133
1.47054e-08
4.17897e-05
0.00111134
2.93895e-08
4.16445e-05
0.00111088
4.19286e-05
0.00111146
6.50833e-11
-3.63836e-08
4.22661e-05
5.52087e-11
-3.62536e-08
4.22923e-05
2.37184e-10
-3.62559e-08
4.23044e-05
1.35277e-10
-3.62467e-08
4.2305e-05
-2.07691e-09
-3.61917e-08
4.21599e-05
-3.68681e-08
4.24443e-05
2.412e-12
1.6521e-06
2.63739e-12
1.64747e-06
5.59112e-12
1.64822e-06
5.69055e-12
1.64835e-06
-5.28554e-11
1.63785e-06
1.68502e-06
-9.82184e-08
0.00950276
0.0298192
1.94266e-06
0.0095039
0.0298182
7.22481e-07
0.00950366
0.0298186
1.53204e-06
0.00950424
0.0298196
-1.5038e-05
0.0095293
0.0298679
0.0094761
0.0297638
2.55323e-07
0.000726789
0.00881623
2.10157e-07
0.00072698
0.00881751
3.85342e-07
0.000727027
0.00881702
3.01366e-07
0.000727131
0.00881775
-4.91194e-06
0.000727745
0.00884719
0.000726404
0.00878548
2.03781e-08
0.000559898
9.03111e-09
0.000560083
3.73534e-08
0.000560062
2.53836e-08
0.000560147
-3.87937e-07
0.000561644
0.000558529
-1.05074e-18
-5.32376e-13
1.19957e-13
-1.65555e-16
-1.45528e-18
-5.32916e-13
1.20161e-13
-1.65608e-16
-7.76006e-19
-5.32922e-13
1.20116e-13
-1.65691e-16
-1.35297e-18
-5.32505e-13
1.20032e-13
-1.65735e-16
-3.76444e-19
-5.36373e-13
1.21349e-13
-1.64242e-16
-5.27852e-13
1.18399e-13
-1.64978e-16
4.00083e-17
-7.71017e-11
5.40358e-11
-5.09707e-14
-3.00251e-17
-7.72115e-11
5.41388e-11
-5.10842e-14
6.03408e-17
-7.71881e-11
5.41061e-11
-5.10733e-14
-3.96473e-17
-7.71476e-11
5.40837e-11
-5.10232e-14
4.72011e-16
-7.81278e-11
5.48653e-11
-5.17589e-14
-7.5996e-11
5.31399e-11
-4.99291e-14
-2.38267e-15
-7.75349e-11
4.35569e-13
7.50581e-16
-7.76508e-11
4.36234e-13
1.39015e-14
-7.76373e-11
4.36075e-13
8.69486e-15
-7.75784e-11
4.35975e-13
5.8107e-14
-7.86207e-11
4.43451e-13
-7.63707e-11
4.32569e-13
-1.87836e-18
-2.00062e-10
1.80855e-10
-8.07867e-17
-2.00362e-10
1.81086e-10
-1.15471e-16
-2.00312e-10
1.81035e-10
-1.93479e-16
-2.00181e-10
1.80953e-10
-8.21434e-16
-2.02704e-10
1.82944e-10
-1.97193e-10
1.78567e-10
4.02074e-14
-1.37775e-08
1.05267e-08
-3.79222e-15
-1.37967e-08
1.05368e-08
-1.41845e-14
-1.37902e-08
1.05299e-08
-2.18857e-14
-1.37876e-08
1.05341e-08
1.73908e-13
-1.39555e-08
1.0618e-08
-1.35904e-08
1.04315e-08
-1.72402e-12
-1.38533e-08
-1.55091e-13
-1.38759e-08
1.491e-12
-1.38694e-08
1.74165e-12
-1.38655e-08
3.12527e-11
-1.40636e-08
-1.36356e-08
-6.97853e-15
-6.06195e-09
6.20224e-09
-1.11359e-14
-6.06046e-09
6.20089e-09
-2.00635e-14
-6.0604e-09
6.20079e-09
-2.24778e-14
-6.06153e-09
6.20188e-09
-6.02259e-14
-6.1069e-09
6.24847e-09
-5.99951e-09
6.13834e-09
9.60597e-12
-1.59551e-06
1.59864e-06
1.43964e-12
-1.59632e-06
1.59949e-06
-2.59798e-12
-1.59567e-06
1.59883e-06
-7.00705e-15
-1.59621e-06
1.59936e-06
1.63415e-12
-1.60907e-06
1.61224e-06
-1.58129e-06
1.58442e-06
-4.62756e-11
-1.83995e-06
6.4481e-11
-1.84199e-06
-5.92472e-10
-1.84029e-06
-8.37627e-11
-1.84168e-06
7.68184e-09
-1.86801e-06
-1.81114e-06
1.53641e-11
-1.05151e-06
1.02227e-06
2.10006e-11
-1.05049e-06
1.02185e-06
3.84932e-11
-1.05023e-06
1.02176e-06
1.88012e-11
-1.05149e-06
1.02227e-06
-5.6876e-10
-1.06549e-06
1.03248e-06
-1.03531e-06
1.00978e-06
1.08428e-08
2.2677e-05
-2.22628e-05
1.33458e-09
2.27066e-05
-2.22702e-05
-1.0199e-08
2.26803e-05
-2.22421e-05
-3.87808e-09
2.27004e-05
-2.22809e-05
3.06317e-08
2.31355e-05
-2.27466e-05
2.21866e-05
-2.17277e-05
2.23235e-08
-0.000686682
-5.6658e-09
-0.000687179
-5.90593e-08
-0.000686788
-2.787e-08
-0.000687069
3.10686e-07
-0.000693529
-0.000679606
8.41624e-13
3.522e-07
5.10166e-07
1.28004e-11
3.5198e-07
5.10343e-07
1.74855e-11
3.51516e-07
5.10817e-07
5.36751e-11
3.52512e-07
5.09829e-07
-8.86555e-11
3.64339e-07
5.07884e-07
3.41952e-07
5.12539e-07
6.45328e-08
0.00472766
-0.00784928
-1.31894e-07
0.00472905
-0.00785022
-1.72401e-07
0.00472769
-0.00784847
-3.94631e-07
0.00472908
-0.00785093
-1.35902e-06
0.00475813
-0.00789196
0.00469607
-0.00780408
8.53423e-08
-0.00188541
-1.89882e-07
-0.00188634
-3.42257e-07
-0.00188577
-5.19512e-07
-0.00188635
-1.76634e-07
-0.00189728
-0.00187415
3.34408e-07
0.0132195
-1.47287e-07
0.0132196
1.52745e-06
0.013219
-1.38334e-06
0.0132207
-1.91213e-05
0.0132584
0.0131795
-8.80171e-08
0.00375244
-3.59999e-07
0.00375353
1.68058e-06
0.00375303
-8.9768e-07
0.00375403
-1.62086e-05
0.00376814
0.00373865
4.46222e-08
-6.14442e-08
8.12775e-08
-9.29527e-08
-1.89398e-06
8.14089e-58
-5.99919e-55
4.88736e-54
-8.6084e-58
-6.01139e-55
4.89643e-54
-1.49827e-57
-6.01129e-55
4.8959e-54
-1.82545e-57
-6.01151e-55
4.896e-54
-2.01015e-57
-6.01317e-55
4.89763e-54
-6.00053e-55
4.88766e-54
5.58598e-60
-2.6147e-58
5.37196e-56
-1.11563e-59
-2.62029e-58
5.38263e-56
-1.86487e-59
-2.62021e-58
5.38252e-56
-2.36952e-59
-2.62031e-58
5.38267e-56
-2.78004e-59
-2.62109e-58
5.38414e-56
-2.61536e-58
5.37274e-56
-5.91884e-64
7.47725e-60
-2.38623e-63
7.49306e-60
-3.26384e-63
7.49283e-60
-4.1857e-63
7.49311e-60
-5.36972e-63
7.49532e-60
7.47884e-60
-1.81044e-54
-2.91013e-50
2.30841e-49
-3.0231e-53
-2.9159e-50
2.31275e-49
-4.07082e-53