/*--------------------------------*- C++ -*----------------------------------*\
| =========                 |                                                 |
| \\      /  F ield         | OpenFOAM: The Open Source CFD Toolbox           |
|  \\    /   O peration     | Version:  v1612+                                |
|   \\  /    A nd           | Web:      www.OpenFOAM.com                      |
|    \\/     M anipulation  |                                                 |
\*---------------------------------------------------------------------------*/
FoamFile
{
    version     2.0;
    format      ascii;
    class       volVectorField;
    location    "2";
    object      U;
}
// * * * * * * * * * * * * * * * * * * * * * * * * * * * * * * * * * * * * * //

dimensions      [0 1 -1 0 0 0 0];

internalField   nonuniform List<vector> 
1116
(
(0.591193 -1.84117e-06 -0.485056)
(0.591195 -1.34333e-06 -0.485062)
(0.591195 1.08055e-06 -0.485062)
(0.591195 9.39477e-07 -0.485062)
(0.591196 1.39938e-06 -0.485062)
(0.591195 6.69218e-07 -0.485058)
(1.7972 -5.18687e-06 -0.656692)
(1.7972 -7.98003e-07 -0.656702)
(1.7972 -2.37726e-07 -0.6567)
(1.7972 1.97426e-08 -0.656699)
(1.7972 -8.02051e-10 -0.6567)
(1.7972 4.04219e-06 -0.65669)
(2.92936 -5.03104e-06 -0.527735)
(2.92937 2.8095e-07 -0.527743)
(2.92937 -2.95749e-06 -0.527739)
(2.92937 -2.82188e-06 -0.52774)
(2.92937 -2.41826e-06 -0.527742)
(2.92935 5.10038e-06 -0.527731)
(3.82077 -7.18018e-06 -0.410963)
(3.82078 -3.72084e-06 -0.410971)
(3.82078 -7.75663e-06 -0.410967)
(3.82078 -7.31243e-06 -0.410971)
(3.82077 -5.47161e-06 -0.410976)
(3.82075 4.19007e-06 -0.410966)
(4.52899 -9.61499e-06 -0.256085)
(4.52901 -7.66416e-06 -0.256093)
(4.52901 -1.11853e-05 -0.256088)
(4.52901 -1.0954e-05 -0.256094)
(4.52901 -9.28875e-06 -0.256103)
(4.52897 1.33332e-06 -0.256093)
(5.13009 -1.18223e-05 -0.186628)
(5.13011 -1.14905e-05 -0.18664)
(5.13011 -1.37522e-05 -0.186634)
(5.1301 -1.36246e-05 -0.186641)
(5.13011 -1.14222e-05 -0.186654)
(5.13006 -2.92362e-07 -0.186647)
(5.72035 -1.05115e-05 -0.197951)
(5.72039 -1.12607e-05 -0.197973)
(5.72038 -1.22207e-05 -0.19797)
(5.72038 -1.24414e-05 -0.197977)
(5.72039 -8.10528e-06 -0.19799)
(5.72034 1.05619e-06 -0.197987)
(6.41331 -1.05534e-05 -0.226972)
(6.41337 -1.10125e-05 -0.227012)
(6.41336 -8.91113e-06 -0.22701)
(6.41336 -1.21826e-05 -0.227015)
(6.41337 -4.64334e-06 -0.227026)
(6.41332 2.91493e-06 -0.227022)
(7.02269 -9.85797e-06 -0.160368)
(7.02276 -6.98822e-06 -0.160418)
(7.02276 -3.65685e-06 -0.160422)
(7.02276 -1.05084e-05 -0.160423)
(7.02277 -1.60774e-06 -0.16043)
(7.02271 3.77245e-06 -0.16043)
(6.61288 -4.48754e-06 -0.0902364)
(6.61297 -5.15463e-07 -0.0902899)
(6.61296 2.17644e-07 -0.0902939)
(6.61297 -4.22757e-06 -0.0902954)
(6.61299 -2.61922e-06 -0.0903009)
(6.61291 -1.34189e-06 -0.0903112)
(4.89671 1.39581e-05 0.118945)
(4.89683 1.62917e-05 0.118914)
(4.89678 6.80649e-07 0.118914)
(4.89679 1.1656e-06 0.118913)
(4.89684 -1.66022e-05 0.118889)
(4.89676 -1.69831e-05 0.118908)
(2.91553 -6.83396e-05 0.940443)
(2.91568 -7.80464e-05 0.940357)
(2.91564 -3.14092e-05 0.940386)
(2.91565 -4.11757e-05 0.94037)
(2.91568 2.10801e-05 0.940363)
(2.91558 4.61338e-05 0.940369)
(0.802939 -2.39319e-06 -1.86439)
(0.802945 -1.78509e-06 -1.86441)
(0.802942 2.43562e-08 -1.8644)
(0.802943 -2.78534e-06 -1.8644)
(0.802944 -4.9106e-06 -1.8644)
(0.802938 -2.77456e-06 -1.86439)
(2.09658 -9.25443e-07 -1.88242)
(2.09659 6.71244e-07 -1.88245)
(2.09659 -5.71867e-06 -1.88243)
(2.09659 -4.40697e-06 -1.88243)
(2.09658 -7.88531e-06 -1.88244)
(2.09658 -2.80682e-06 -1.88242)
(3.12413 -2.44343e-06 -1.38856)
(3.12416 1.92463e-06 -1.38858)
(3.12416 -1.15509e-05 -1.38857)
(3.12415 -6.12307e-06 -1.38857)
(3.12415 -1.38703e-05 -1.38859)
(3.12412 -3.30244e-06 -1.38855)
(3.9966 -7.84204e-06 -1.22708)
(3.99665 -1.07945e-05 -1.22711)
(3.99664 -1.34015e-05 -1.2271)
(3.99663 -7.48464e-06 -1.22711)
(3.99663 -1.11915e-05 -1.22713)
(3.99658 -5.71846e-06 -1.22709)
(4.78199 2.63177e-06 -1.12288)
(4.78205 -1.01957e-05 -1.12292)
(4.78204 -1.26806e-05 -1.12291)
(4.78203 -9.5194e-06 -1.12293)
(4.78203 -6.65639e-06 -1.12295)
(4.78198 -1.07627e-05 -1.12292)
(5.38334 1.49893e-05 -1.16556)
(5.38341 -4.95949e-06 -1.16561)
(5.3834 -6.92919e-06 -1.16561)
(5.38339 -9.15931e-06 -1.16562)
(5.38341 -1.71844e-06 -1.16564)
(5.38334 -1.5038e-05 -1.16562)
(6.24886 3.39292e-05 -1.32536)
(6.249 6.52643e-07 -1.32543)
(6.24898 -9.98366e-06 -1.32543)
(6.24897 -1.63138e-05 -1.32544)
(6.249 -1.81797e-06 -1.32545)
(6.24892 -2.19511e-05 -1.32544)
(7.63037 6.67461e-05 -1.35772)
(7.63067 2.03585e-05 -1.3578)
(7.63059 -1.86799e-05 -1.35779)
(7.63059 -3.17247e-05 -1.35781)
(7.63063 -7.70701e-06 -1.35783)
(7.6305 -3.17718e-05 -1.3578)
(8.67953 0.000106121 -0.222816)
(8.67998 7.1906e-05 -0.222857)
(8.6798 1.11694e-05 -0.222824)
(8.6798 -2.95256e-05 -0.22284)
(8.67985 -2.89347e-06 -0.222877)
(8.67968 -2.63197e-05 -0.22281)
(10.1372 5.28759e-05 1.66283)
(10.1376 3.31835e-05 1.66278)
(10.1374 3.17151e-06 1.66285)
(10.1374 -2.15279e-05 1.66284)
(10.1375 -3.95678e-05 1.66281)
(10.1373 -5.81487e-05 1.66283)
(7.78727 4.32868e-05 3.19515)
(7.7875 2.77084e-05 3.19519)
(7.78736 -5.80191e-06 3.19522)
(7.78734 -7.76693e-05 3.19522)
(7.78735 -1.93819e-05 3.19522)
(7.78729 3.78865e-05 3.19514)
(6.38507 -5.54592e-05 4.98273)
(6.38552 -4.84606e-05 4.9826)
(6.38547 3.90958e-06 4.98261)
(6.38552 2.56144e-05 4.98259)
(6.38552 4.14629e-05 4.98252)
(6.38556 1.03833e-05 4.98275)
(0.0588395 -1.30134e-06 -3.33962)
(0.0588221 9.35264e-07 -3.33965)
(0.0588337 1.04188e-08 -3.33964)
(0.0588439 -1.23258e-06 -3.33963)
(0.0588392 -4.44605e-06 -3.33963)
(0.0588227 -9.68107e-07 -3.33964)
(2.1137 2.20659e-05 -3.43589)
(2.11371 -4.60144e-06 -3.43593)
(2.11371 3.17245e-06 -3.43592)
(2.11371 -4.57492e-06 -3.43591)
(2.11371 7.3522e-06 -3.43591)
(2.1137 -2.00191e-05 -3.43589)
(3.39318 2.3048e-05 -2.45549)
(3.39321 -1.63396e-05 -2.45552)
(3.3932 1.16623e-05 -2.45552)
(3.39319 -6.99354e-06 -2.45552)
(3.39321 1.50807e-05 -2.45553)
(3.39317 -3.2026e-05 -2.4555)
(4.44313 5.17772e-05 -2.43127)
(4.44317 -4.97913e-07 -2.43135)
(4.44317 4.63212e-05 -2.43135)
(4.44318 6.65019e-07 -2.43135)
(4.4432 3.07144e-05 -2.43136)
(4.44317 -5.10912e-05 -2.43134)
(6.0897 0.000117666 -1.69758)
(6.08986 8.22283e-05 -1.69762)
(6.08986 0.000141255 -1.69765)
(6.08988 5.14371e-05 -1.69767)
(6.08991 8.85006e-05 -1.69765)
(6.08989 -5.05368e-05 -1.69768)
(7.7314 0.000138057 -2.34505)
(7.7319 0.000112967 -2.34508)
(7.73191 0.000162518 -2.34508)
(7.73187 3.66738e-05 -2.34508)
(7.73187 7.32605e-05 -2.34506)
(7.73189 -6.69937e-05 -2.34508)
(11.1294 -1.10216e-05 -3.10516)
(11.1297 -0.000170218 -3.10519)
(11.1297 -0.000103463 -3.10519)
(11.1296 -0.000187217 -3.10523)
(11.1296 -0.000143697 -3.10525)
(11.1294 -0.000180445 -3.10522)
(12.9156 -0.00011038 -2.55525)
(12.9156 -0.000404361 -2.55516)
(12.9155 -0.000362838 -2.55515)
(12.9153 -0.0003621 -2.55525)
(12.9154 -0.00030652 -2.5553)
(12.9147 -0.000286936 -2.5552)
(11.1818 0.000132643 -0.771654)
(11.1816 -0.000137787 -0.771288)
(11.1811 -0.000259708 -0.771149)
(11.1809 -0.000209712 -0.771258)
(11.1813 -0.000122326 -0.771369)
(11.1801 -0.000129231 -0.771271)
(6.79254 0.000256534 2.53541)
(6.79358 0.00033107 2.53574)
(6.79235 0.00024966 2.53578)
(6.79235 0.000115481 2.53572)
(6.79212 2.27822e-05 2.53574)
(6.79261 -4.70656e-05 2.53515)
(4.61594 0.000176352 5.89661)
(4.61616 0.000253697 5.8968)
(4.61578 0.000220165 5.89681)
(4.6156 -3.33973e-05 5.89681)
(4.61619 1.33765e-05 5.89639)
(4.61544 9.33541e-05 5.89666)
(9.34934 -4.47873e-05 10.7824)
(9.35015 -1.05266e-05 10.7825)
(9.35012 1.13097e-05 10.7824)
(9.35017 0.000128714 10.7824)
(9.3511 -0.000145803 10.7827)
(9.34915 -0.000299633 10.7825)
(-1.97984 1.10169e-05 -4.09392)
(-1.97991 2.79483e-06 -4.09395)
(-1.97986 6.67323e-06 -4.09394)
(-1.97987 6.45166e-06 -4.09394)
(-1.97988 6.91901e-06 -4.09394)
(-1.97981 -5.02844e-06 -4.09393)
(1.38672 4.63237e-06 -5.54179)
(1.38671 -1.52803e-05 -5.54179)
(1.38666 7.59597e-06 -5.54181)
(1.38671 2.58414e-05 -5.5418)
(1.3867 2.40404e-05 -5.54179)
(1.38645 4.72782e-07 -5.54185)
(4.64559 2.93015e-06 -4.14789)
(4.6456 -3.12529e-05 -4.14789)
(4.64552 6.64491e-05 -4.14793)
(4.64556 6.58454e-05 -4.14793)
(4.64565 9.38704e-05 -4.14788)
(4.64559 2.2131e-05 -4.14793)
(3.31866 0.000112377 -3.98907)
(3.31834 0.000103343 -3.98917)
(3.31847 0.000229939 -3.98918)
(3.31858 0.000103374 -3.98916)
(3.31865 0.000125713 -3.98909)
(3.31879 -2.87641e-05 -3.98924)
(2.76138 0.000153496 -1.3924)
(2.76171 0.000226585 -1.39216)
(2.76185 0.000336769 -1.39222)
(2.76199 0.000173484 -1.39226)
(2.76203 0.000175988 -1.39214)
(2.76197 1.64311e-07 -1.39227)
(-0.281944 -4.93996e-05 -4.43422)
(-0.281745 -5.56506e-05 -4.43406)
(-0.281327 -1.66577e-05 -4.43385)
(-0.281124 -2.13797e-05 -4.43372)
(-0.281115 4.48981e-05 -4.43368)
(-0.281047 4.35992e-05 -4.43365)
(-2.50677 -0.000108383 -3.85024)
(-2.50676 -0.000119042 -3.85038)
(-2.5065 -9.21219e-05 -3.8504)
(-2.5064 -5.12062e-05 -3.85042)
(-2.50641 3.27232e-05 -3.85052)
(-2.50612 5.86302e-05 -3.85059)
(-2.13191 -7.58208e-05 -0.823555)
(-2.1321 -7.32346e-05 -0.823736)
(-2.13192 -3.55987e-05 -0.823914)
(-2.1319 4.97967e-05 -0.824058)
(-2.13187 2.09658e-05 -0.824205)
(-2.13147 -3.23715e-05 -0.824475)
(-1.79611 7.1863e-05 2.32922)
(-1.79606 7.8257e-05 2.32952)
(-1.79587 0.000111948 2.32953)
(-1.7958 0.000281777 2.3295)
(-1.79542 0.000238019 2.32964)
(-1.79549 5.37075e-05 2.32871)
(4.35486 0.000211073 7.24153)
(4.3558 0.000333656 7.24234)
(4.35523 0.000373252 7.24244)
(4.3555 0.000645267 7.2424)
(4.35512 0.000684425 7.24252)
(4.35664 0.000261754 7.24046)
(1.55868 0.000472514 10.2781)
(1.55928 0.000674578 10.2792)
(1.55902 0.000597573 10.279)
(1.55846 -7.15113e-05 10.2791)
(1.55754 0.00124167 10.2764)
(1.56237 0.00155869 10.2808)
(10.7117 -2.76257e-05 14.1138)
(10.7126 5.74985e-05 14.1138)
(10.7125 -1.88261e-05 14.1137)
(10.7126 9.77286e-05 14.1138)
(10.7157 -0.000305581 14.1167)
(10.7091 -0.000491027 14.111)
(-0.00166255 7.5993e-07 -0.00168261)
(-0.00166233 6.29766e-07 -0.00168268)
(-0.00166227 -1.69021e-07 -0.00168273)
(-0.00166221 -1.60631e-07 -0.00168277)
(-0.00166217 -2.8523e-07 -0.00168281)
(-0.0016621 -1.6296e-07 -0.00168296)
(-0.00505196 4.28687e-07 -0.00174905)
(-0.00505149 2.13308e-07 -0.00174909)
(-0.00505144 -3.64153e-07 -0.00174911)
(-0.00505136 -3.27453e-07 -0.00174916)
(-0.00505132 -5.45333e-07 -0.0017492)
(-0.00505134 -3.42559e-07 -0.00174934)
(-0.00862817 1.85809e-07 -0.00187212)
(-0.00862766 2.49048e-08 -0.00187205)
(-0.0086277 -3.23399e-07 -0.00187204)
(-0.00862768 -3.05997e-07 -0.00187207)
(-0.0086277 -4.56606e-07 -0.00187209)
(-0.00862793 -2.87427e-07 -0.00187218)
(-0.0124922 5.03619e-08 -0.00202722)
(-0.0124917 2.33799e-08 -0.00202688)
(-0.0124917 -1.47065e-07 -0.00202678)
(-0.0124917 -1.83129e-07 -0.00202675)
(-0.0124917 -2.99596e-07 -0.00202675)
(-0.012492 -2.0846e-07 -0.00202682)
(-0.0167155 1.36069e-07 -0.00215387)
(-0.016715 2.71355e-07 -0.00215291)
(-0.0167149 2.84084e-08 -0.00215262)
(-0.0167147 -1.89987e-07 -0.00215249)
(-0.0167144 -3.29884e-07 -0.00215248)
(-0.0167145 -2.15048e-07 -0.00215258)
(-0.0213297 4.05143e-07 -0.00216238)
(-0.021329 4.87046e-07 -0.00216035)
(-0.0213283 -2.57535e-07 -0.00215973)
(-0.0213276 -7.93894e-07 -0.00215953)
(-0.0213266 -1.01449e-06 -0.00215963)
(-0.021326 -5.22592e-07 -0.00216005)
(-0.0263621 5.50905e-07 -0.00201437)
(-0.0263604 -1.94494e-08 -0.00201114)
(-0.0263586 -1.7608e-06 -0.00201031)
(-0.0263568 -2.66254e-06 -0.0020103)
(-0.0263546 -2.89195e-06 -0.00201087)
(-0.0263525 -1.37388e-06 -0.00201213)
(-0.0316333 2.77436e-07 -0.00198496)
(-0.0316295 -1.63354e-06 -0.00198136)
(-0.0316261 -4.64527e-06 -0.00198096)
(-0.0316228 -5.83693e-06 -0.00198172)
(-0.031619 -5.90193e-06 -0.00198332)
(-0.0316147 -2.74094e-06 -0.00198598)
(-0.0362683 -7.13766e-07 -0.00249558)
(-0.036261 -4.35709e-06 -0.00249331)
(-0.0362559 -8.05365e-06 -0.00249414)
(-0.0362516 -9.00803e-06 -0.00249611)
(-0.0362467 -8.64682e-06 -0.00249891)
(-0.0362404 -3.97958e-06 -0.00250293)
(-0.0371474 -1.96483e-06 -0.00271656)
(-0.0371356 -6.2907e-06 -0.00271729)
(-0.0371292 -8.90458e-06 -0.00272018)
(-0.0371243 -8.93602e-06 -0.00272362)
(-0.0371187 -8.12657e-06 -0.00272762)
(-0.0371104 -3.6948e-06 -0.00273278)
(-0.034839 -3.13194e-06 -0.000159021)
(-0.0348243 -6.97927e-06 -0.000167464)
(-0.0348182 -7.65849e-06 -0.000171588)
(-0.0348142 -7.1078e-06 -0.000174806)
(-0.034809 -6.15472e-06 -0.000178123)
(-0.0347999 -2.81239e-06 -0.000182556)
(-0.0191056 -3.42381e-07 0.0103203)
(-0.0190978 -1.78625e-07 0.0103132)
(-0.0190953 4.60326e-08 0.0103111)
(-0.0190938 1.23979e-07 0.0103095)
(-0.0190915 7.51953e-07 0.0103077)
(-0.0190868 6.66782e-07 0.0103051)
(-0.00163354 5.52748e-07 -0.00491899)
(-0.00163334 3.25292e-07 -0.00491904)
(-0.00163331 -3.3587e-07 -0.00491909)
(-0.00163326 -3.13732e-07 -0.00491915)
(-0.00163323 -5.51708e-07 -0.0049192)
(-0.0016332 -3.67931e-07 -0.00491943)
(-0.00497528 2.64236e-07 -0.00512788)
(-0.00497484 2.31281e-08 -0.00512787)
(-0.00497481 -4.47144e-07 -0.00512789)
(-0.00497473 -4.48844e-07 -0.00512794)
(-0.0049747 -7.20039e-07 -0.00512799)
(-0.00497478 -4.76758e-07 -0.00512821)
(-0.00854295 6.28752e-08 -0.00552915)
(-0.00854245 -1.41862e-07 -0.00552891)
(-0.00854243 -4.24757e-07 -0.00552886)
(-0.00854239 -4.24697e-07 -0.00552886)
(-0.00854239 -5.86067e-07 -0.00552888)
(-0.00854266 -3.81418e-07 -0.00552905)
(-0.0124911 -7.52355e-08 -0.006094)
(-0.0124906 -2.40552e-07 -0.00609319)
(-0.0124905 -3.77156e-07 -0.00609296)
(-0.0124904 -3.80023e-07 -0.00609285)
(-0.0124903 -4.28968e-07 -0.00609283)
(-0.0124906 -2.62221e-07 -0.006093)
(-0.0169512 -1.61332e-07 -0.00676457)
(-0.0169506 -3.90913e-07 -0.00676253)
(-0.0169503 -5.47078e-07 -0.00676186)
(-0.0169499 -6.01019e-07 -0.00676154)
(-0.0169495 -5.36271e-07 -0.0067615)
(-0.0169496 -2.56945e-07 -0.00676183)
(-0.0219072 -2.895e-07 -0.00742613)
(-0.0219063 -8.91723e-07 -0.00742203)
(-0.0219055 -1.35418e-06 -0.00742071)
(-0.0219045 -1.51308e-06 -0.00742026)
(-0.0219034 -1.30836e-06 -0.0074205)
(-0.0219026 -5.55463e-07 -0.0074216)
(-0.0269426 -7.2526e-07 -0.00773605)
(-0.0269406 -2.22088e-06 -0.00772986)
(-0.0269385 -3.16725e-06 -0.00772822)
(-0.0269364 -3.33891e-06 -0.00772824)
(-0.0269338 -2.89132e-06 -0.00772961)
(-0.0269312 -1.23546e-06 -0.00773265)
(-0.0313108 -1.62816e-06 -0.00674331)
(-0.0313058 -4.38625e-06 -0.00673701)
(-0.0313018 -5.54565e-06 -0.00673645)
(-0.0312979 -5.42573e-06 -0.00673812)
(-0.0312935 -4.60328e-06 -0.00674167)
(-0.0312883 -1.97614e-06 -0.00674769)
(-0.0349891 -2.74134e-06 -0.00268473)
(-0.0349786 -6.23604e-06 -0.00268183)
(-0.0349718 -6.59908e-06 -0.00268379)
(-0.034966 -5.70309e-06 -0.00268777)
(-0.0349597 -4.5678e-06 -0.00269363)
(-0.0349517 -1.97202e-06 -0.00270192)
(-0.0384201 -2.75062e-06 0.00821068)
(-0.0384017 -5.68368e-06 0.00820652)
(-0.0383924 -4.92788e-06 0.00820152)
(-0.0383858 -3.39732e-06 0.00819632)
(-0.0383791 -2.83444e-06 0.0081902)
(-0.0383705 -1.4477e-06 0.00818229)
(-0.0429793 -1.7914e-06 0.0219591)
(-0.0429542 -2.28601e-06 0.0219425)
(-0.0429447 -8.96812e-08 0.0219364)
(-0.0429392 1.37686e-06 0.0219326)
(-0.0429339 1.4384e-06 0.0219287)
(-0.0429268 4.70255e-07 0.0219232)
(-0.0327731 2.23875e-06 0.0542159)
(-0.0327583 5.01298e-06 0.0541993)
(-0.032753 4.62052e-06 0.054193)
(-0.0327499 3.48397e-06 0.0541883)
(-0.0327469 2.78778e-06 0.0541835)
(-0.0327431 1.25187e-06 0.0541789)
(-0.0015323 4.17388e-07 -0.00797188)
(-0.00153214 1.95514e-07 -0.00797183)
(-0.00153213 -3.54968e-07 -0.00797181)
(-0.0015321 -3.4736e-07 -0.00797183)
(-0.00153208 -5.43752e-07 -0.00797183)
(-0.00153209 -3.49495e-07 -0.007972)
(-0.00468084 1.81711e-07 -0.0083423)
(-0.0046805 -3.52626e-08 -0.00834216)
(-0.00468049 -4.24551e-07 -0.00834214)
(-0.00468046 -4.38899e-07 -0.00834215)
(-0.00468046 -6.55109e-07 -0.00834215)
(-0.0046806 -4.23104e-07 -0.00834234)
(-0.00808186 4.33238e-08 -0.00906624)
(-0.0080815 -1.41706e-07 -0.00906586)
(-0.0080815 -3.96721e-07 -0.00906578)
(-0.00808149 -4.111e-07 -0.00906574)
(-0.00808152 -5.40008e-07 -0.00906572)
(-0.00808184 -3.39555e-07 -0.00906591)
(-0.0118948 -5.5975e-08 -0.0101112)
(-0.0118944 -2.42796e-07 -0.0101103)
(-0.0118943 -4.18443e-07 -0.01011)
(-0.0118943 -4.32553e-07 -0.0101099)
(-0.0118942 -4.70272e-07 -0.0101098)
(-0.0118946 -2.67232e-07 -0.0101101)
(-0.0162823 -1.98821e-07 -0.0113738)
(-0.0162818 -4.98602e-07 -0.0113716)
(-0.0162816 -6.67514e-07 -0.0113708)
(-0.0162813 -6.8657e-07 -0.0113705)
(-0.0162811 -5.70904e-07 -0.0113705)
(-0.0162813 -2.47554e-07 -0.0113711)
(-0.0215403 -4.56318e-07 -0.0126418)
(-0.0215397 -1.13673e-06 -0.0126378)
(-0.0215391 -1.42091e-06 -0.0126365)
(-0.0215383 -1.3889e-06 -0.0126361)
(-0.0215375 -1.05424e-06 -0.0126365)
(-0.0215372 -3.96528e-07 -0.0126382)
(-0.0284483 -9.20411e-07 -0.0134596)
(-0.0284467 -2.22087e-06 -0.0134541)
(-0.0284453 -2.55405e-06 -0.0134528)
(-0.0284437 -2.33525e-06 -0.0134532)
(-0.0284419 -1.75936e-06 -0.013455)
(-0.0284407 -6.61372e-07 -0.0134591)
(-0.038149 -1.50786e-06 -0.0134354)
(-0.0381445 -3.32274e-06 -0.0134311)
(-0.0381417 -3.17507e-06 -0.0134314)
(-0.0381392 -2.3401e-06 -0.0134336)
(-0.0381366 -1.62643e-06 -0.0134378)
(-0.0381347 -6.3228e-07 -0.0134448)
(-0.0518016 -1.61423e-06 -0.0125715)
(-0.0517915 -2.643e-06 -0.0125722)
(-0.0517873 -1.05684e-06 -0.0125749)
(-0.051785 4.22891e-07 -0.012579)
(-0.0517835 8.8416e-07 -0.0125846)
(-0.0517833 4.40267e-07 -0.0125927)
(-0.0612563 -1.26931e-06 -0.00879871)
(-0.0612398 3.50448e-07 -0.00880681)
(-0.0612362 5.38088e-06 -0.00881053)
(-0.061237 8.13969e-06 -0.00881292)
(-0.0612402 7.62023e-06 -0.00881525)
(-0.0612462 3.21294e-06 -0.00881914)
(-0.0702818 2.17421e-06 -0.00351391)
(-0.070257 7.26338e-06 -0.00353155)
(-0.0702536 1.16597e-05 -0.0035349)
(-0.0702581 1.36119e-05 -0.0035336)
(-0.0702668 1.24426e-05 -0.00353175)
(-0.0702801 5.45707e-06 -0.00353166)
(-0.0497691 -9.08763e-07 0.038844)
(-0.0497521 -1.84938e-06 0.0388241)
(-0.0497483 -2.6598e-06 0.0388158)
(-0.0497497 -3.31678e-06 0.0388109)
(-0.0497538 -2.71827e-06 0.0388069)
(-0.049761 -9.89212e-07 0.0388047)
(-0.00135124 2.38223e-07 -0.0107048)
(-0.00135112 5.60993e-08 -0.0107047)
(-0.00135111 -3.21079e-07 -0.0107046)
(-0.0013511 -3.27877e-07 -0.0107046)
(-0.00135109 -4.32191e-07 -0.0107046)
(-0.0013511 -2.60731e-07 -0.0107048)
(-0.00415024 9.71904e-08 -0.0112678)
(-0.00414997 -8.64164e-08 -0.0112676)
(-0.00414996 -3.72121e-07 -0.0112675)
(-0.00414995 -3.85983e-07 -0.0112675)
(-0.00414996 -5.34875e-07 -0.0112675)
(-0.00415009 -3.36675e-07 -0.0112677)
(-0.00725797 -1.55237e-08 -0.0123916)
(-0.00725758 -1.91463e-07 -0.0123911)
(-0.00725755 -3.74578e-07 -0.0123911)
(-0.00725754 -3.82793e-07 -0.012391)
(-0.00725757 -4.62915e-07 -0.012391)
(-0.00725788 -2.78034e-07 -0.0123912)
(-0.0109459 -1.68582e-07 -0.0140709)
(-0.0109454 -3.9617e-07 -0.0140701)
(-0.0109452 -4.79497e-07 -0.0140698)
(-0.0109452 -4.56183e-07 -0.0140697)
(-0.0109451 -4.04045e-07 -0.0140696)
(-0.0109455 -1.99717e-07 -0.0140699)
(-0.0155573 -2.95346e-07 -0.0162358)
(-0.0155564 -6.84941e-07 -0.0162339)
(-0.0155561 -7.56208e-07 -0.0162333)
(-0.0155558 -6.48192e-07 -0.016233)
(-0.0155557 -4.93774e-07 -0.016233)
(-0.015556 -2.15604e-07 -0.0162336)
(-0.0214902 -7.07342e-07 -0.0186715)
(-0.0214886 -1.37024e-06 -0.0186684)
(-0.0214879 -1.19554e-06 -0.0186674)
(-0.0214874 -8.82468e-07 -0.0186671)
(-0.021487 -4.11779e-07 -0.0186674)
(-0.0214871 -7.40002e-08 -0.018669)
(-0.0285778 -9.93362e-07 -0.020909)
(-0.0285746 -1.73079e-06 -0.0209052)
(-0.0285734 -1.13372e-06 -0.0209044)
(-0.0285725 -5.0399e-07 -0.0209049)
(-0.0285718 1.24961e-07 -0.0209065)
(-0.0285716 2.11111e-07 -0.0209101)
(-0.0358516 -1.16474e-06 -0.0212635)
(-0.0358454 -1.26374e-06 -0.0212614)
(-0.0358435 5.26195e-07 -0.0212622)
(-0.0358426 1.70974e-06 -0.0212645)
(-0.0358422 2.23765e-06 -0.0212682)
(-0.0358427 1.12282e-06 -0.021274)
(-0.0434856 -5.89367e-07 -0.0176171)
(-0.0434748 1.52949e-06 -0.0176198)
(-0.0434731 5.2552e-06 -0.017623)
(-0.0434743 6.79333e-06 -0.0176269)
(-0.043477 6.65484e-06 -0.0176317)
(-0.0434812 3.00668e-06 -0.0176375)
(-0.0519612 4.29544e-07 0.00437742)
(-0.0519456 5.75348e-06 0.00436921)
(-0.0519464 1.2399e-05 0.0043658)
(-0.0519531 1.48278e-05 0.00436365)
(-0.0519625 1.36747e-05 0.00436171)
(-0.0519745 5.89554e-06 0.00436029)
(-0.0773384 1.81278e-06 0.0533346)
(-0.0773154 6.75371e-06 0.053319)
(-0.0773174 1.0989e-05 0.0533172)
(-0.0773316 1.2275e-05 0.0533218)
(-0.077351 1.06368e-05 0.0533267)
(-0.0773722 4.56302e-06 0.0533323)
(-0.0859096 -9.34528e-06 0.229175)
(-0.0858825 -1.87317e-05 0.229113)
(-0.0858789 -2.03349e-05 0.229094)
(-0.0858872 -2.02588e-05 0.229094)
(-0.0859008 -1.43178e-05 0.229103)
(-0.0859166 -4.3339e-06 0.229117)
(-3.08888 3.43433e-05 -4.87522)
(-3.08886 -5.91874e-05 -4.87524)
(-3.08875 1.55443e-05 -4.87528)
(-3.08892 -1.93123e-05 -4.87522)
(-3.08894 -3.40483e-05 -4.87514)
(-3.08838 -0.000106665 -4.87521)
(-1.2993 3.28391e-05 -4.32916)
(-1.29925 1.13502e-05 -4.32922)
(-1.29918 1.51073e-05 -4.32926)
(-1.29931 -1.68741e-05 -4.32915)
(-1.29933 0.000123304 -4.32904)
(-1.29888 6.95498e-05 -4.32924)
(-0.142367 -2.0482e-05 -4.01332)
(-0.142414 -2.86611e-05 -4.01344)
(-0.14241 -1.15301e-05 -4.01345)
(-0.142396 -1.6757e-05 -4.01338)
(-0.142408 -1.63634e-05 -4.01338)
(-0.142443 -6.45726e-06 -4.01347)
(3.03602 -4.51522e-05 -3.65567)
(3.03611 -7.51157e-05 -3.65566)
(3.03603 -1.58898e-05 -3.65572)
(3.03611 2.64285e-05 -3.6557)
(3.03614 3.42731e-06 -3.65574)
(3.03584 -5.25701e-07 -3.6558)
(0.820546 -4.3507e-05 -4.91241)
(0.820601 -3.77857e-05 -4.9125)
(0.820579 8.1359e-06 -4.91243)
(0.820568 3.37441e-05 -4.91237)
(0.820598 1.57833e-05 -4.91241)
(0.820674 1.26171e-05 -4.91225)
(-0.531927 3.90492e-06 -4.70923)
(-0.531945 -1.27337e-05 -4.70932)
(-0.531947 -3.27529e-05 -4.70926)
(-0.531949 -2.79304e-05 -4.70924)
(-0.531951 -2.40253e-05 -4.70928)
(-0.53195 -1.54208e-05 -4.70917)
(-2.167 -4.55406e-05 -2.49963)
(-2.16751 -1.02963e-05 -2.49975)
(-2.16752 3.16144e-05 -2.49975)
(-2.16746 2.62999e-05 -2.49975)
(-2.16731 6.61057e-05 -2.49977)
(-2.16702 9.13295e-05 -2.49974)
(-1.76194 -1.38422e-05 -1.15553)
(-1.76218 -3.22604e-06 -1.15554)
(-1.76219 -2.33251e-05 -1.15549)
(-1.76224 -6.50678e-06 -1.15548)
(-1.76224 -2.35483e-05 -1.15551)
(-1.76197 1.29405e-05 -1.15547)
(-0.594439 8.47435e-06 -1.29335)
(-0.594423 2.15942e-06 -1.29337)
(-0.594446 4.10701e-06 -1.29332)
(-0.594447 5.03109e-06 -1.2933)
(-0.594438 7.31905e-06 -1.2933)
(-0.594466 -2.13783e-06 -1.29321)
(-2.71473 6.52198e-05 -1.99612)
(-2.71512 3.31151e-05 -1.99624)
(-2.71509 -8.02811e-05 -1.99612)
(-2.7151 -5.88955e-05 -1.99606)
(-2.71512 -5.52577e-05 -1.99608)
(-2.71486 1.30682e-05 -1.99606)
(-0.817163 -2.02505e-06 -2.71646)
(-0.817291 -4.77062e-05 -2.7166)
(-0.81736 -7.20936e-05 -2.71658)
(-0.817411 -6.28432e-05 -2.71659)
(-0.81745 -5.90232e-05 -2.71661)
(-0.817428 -3.16191e-05 -2.71643)
(-0.246554 8.49053e-06 -2.77627)
(-0.246539 8.95405e-06 -2.77635)
(-0.246557 -2.72465e-06 -2.77634)
(-0.246564 -9.83169e-06 -2.77635)
(-0.24657 -1.87855e-05 -2.77637)
(-0.246597 -1.16275e-05 -2.77627)
(-2.12394 -4.77563e-05 -0.179143)
(-2.12415 -5.46554e-05 -0.179204)
(-2.12415 -2.12986e-05 -0.179031)
(-2.12417 -1.33265e-05 -0.178885)
(-2.12417 1.62192e-05 -0.178847)
(-2.12398 2.65619e-05 -0.178747)
(-0.854969 -1.61604e-05 -2.44628)
(-0.855046 -4.49371e-05 -2.44644)
(-0.85508 -7.16747e-05 -2.44643)
(-0.855121 -6.30848e-05 -2.44642)
(-0.855146 -4.3931e-05 -2.44642)
(-0.855111 -1.05369e-05 -2.44624)
(-0.0831701 1.72073e-07 -2.25325)
(-0.0831685 -7.21337e-06 -2.25339)
(-0.083176 -1.86436e-05 -2.2534)
(-0.0831813 -2.75087e-05 -2.25342)
(-0.0831849 -2.60219e-05 -2.25346)
(-0.0831981 -1.20453e-05 -2.25338)
(-1.23996 -9.68571e-05 -1.09174)
(-1.24028 -0.000113195 -1.09186)
(-1.24031 -3.72484e-05 -1.09178)
(-1.24032 -1.71361e-05 -1.09171)
(-1.24029 3.83896e-05 -1.09171)
(-1.24006 3.4117e-05 -1.09159)
(-0.148012 -1.0142e-05 -2.8029)
(-0.14805 -2.61914e-05 -2.80301)
(-0.14806 -3.70062e-05 -2.80299)
(-0.14807 -3.57032e-05 -2.80298)
(-0.148077 -2.34401e-05 -2.80297)
(-0.14801 -1.85408e-06 -2.80281)
(-0.0524067 -6.31405e-07 -2.32298)
(-0.0524101 -1.07023e-05 -2.3231)
(-0.0524103 -2.02537e-05 -2.3231)
(-0.0524078 -2.43241e-05 -2.32312)
(-0.0524032 -2.49716e-05 -2.32315)
(-0.0524019 -1.3569e-05 -2.32307)
(-1.37053 -1.81183e-05 -2.48342)
(-1.37089 2.47317e-05 -2.48359)
(-1.37082 0.000106356 -2.48357)
(-1.37074 8.82628e-05 -2.48358)
(-1.37068 0.000134787 -2.48359)
(-1.37034 9.22442e-05 -2.48348)
(-0.472422 -2.81738e-05 -2.47971)
(-0.47248 -3.28117e-05 -2.47974)
(-0.472497 -1.41278e-06 -2.47974)
(-0.472489 -4.7804e-06 -2.47976)
(-0.472488 3.87961e-05 -2.4798)
(-0.472374 4.76704e-05 -2.47976)
(-0.141451 -8.45013e-06 -2.35781)
(-0.141453 -1.60966e-05 -2.35789)
(-0.141449 -1.29392e-05 -2.35789)
(-0.141443 -7.0761e-06 -2.35789)
(-0.141434 -3.34885e-06 -2.35789)
(-0.141428 -1.59604e-06 -2.35782)
(-1.49091 4.38835e-05 -2.62578)
(-1.49155 9.37503e-05 -2.6261)
(-1.49144 0.000100636 -2.62604)
(-1.49138 7.21012e-05 -2.62602)
(-1.49138 9.52733e-05 -2.62596)
(-1.49077 7.59335e-05 -2.62584)
(-0.579599 -2.43226e-05 -1.89044)
(-0.579853 -3.21448e-05 -1.89047)
(-0.57989 -1.23651e-05 -1.89049)
(-0.579925 -4.15992e-05 -1.89053)
(-0.579989 3.49055e-05 -1.89057)
(-0.579695 7.11616e-05 -1.8906)
(-0.0362883 -7.79468e-06 -2.00427)
(-0.0363192 -1.15782e-05 -2.0043)
(-0.036335 -6.04966e-06 -2.00428)
(-0.0363546 -4.14856e-06 -2.00427)
(-0.0363658 9.65441e-06 -2.00425)
(-0.0363757 1.24876e-05 -2.00422)
(-1.58665 0.000103122 -2.71581)
(-1.58718 0.000171548 -2.71588)
(-1.58713 0.000128354 -2.71567)
(-1.58714 0.0001731 -2.71552)
(-1.58732 9.22562e-05 -2.7152)
(-1.58655 -1.75637e-05 -2.71559)
(-1.03126 -6.60223e-05 -2.06074)
(-1.03172 -8.70014e-05 -2.06071)
(-1.03171 -7.89415e-05 -2.06069)
(-1.0318 -0.000139137 -2.06066)
(-1.03211 -4.67291e-05 -2.06044)
(-1.03127 3.23443e-05 -2.06082)
(-0.19153 -5.58517e-05 -2.1917)
(-0.191647 -9.5368e-05 -2.19168)
(-0.191677 -9.65388e-05 -2.19166)
(-0.191744 -0.000115883 -2.19164)
(-0.191806 -7.42841e-05 -2.19166)
(-0.191687 -1.63511e-05 -2.19171)
(2.84891 0.000155638 1.27296)
(2.84935 0.000323858 1.2739)
(2.84962 0.00038925 1.27435)
(2.84977 0.000432257 1.27482)
(2.85043 0.000823783 1.2758)
(2.85003 0.00066096 1.27357)
(-0.0357298 4.00325e-05 -1.15819)
(-0.0363041 0.000105078 -1.15778)
(-0.0359275 0.000123514 -1.15751)
(-0.0364368 -0.000304932 -1.15724)
(-0.0358061 0.000628619 -1.15684)
(-0.036481 0.00101027 -1.15694)
(0.259073 -6.61616e-05 -2.28852)
(0.258774 -9.37208e-05 -2.28848)
(0.25885 -0.000141932 -2.28839)
(0.258568 -0.000126853 -2.28833)
(0.258854 -7.05788e-05 -2.28809)
(0.258402 -5.40807e-05 -2.28846)
(4.63905 0.000214197 6.63187)
(4.63953 0.000723497 6.63346)
(4.63987 0.000673925 6.63404)
(4.63942 0.000321182 6.634)
(4.63984 0.00107697 6.62381)
(4.64065 0.000868553 6.64448)
(3.00413 -0.000110657 0.891986)
(3.00446 0.000346993 0.893196)
(3.00532 -0.000354144 0.894322)
(3.00479 0.00113322 0.894692)
(3.00111 -0.000897013 0.883897)
(3.00968 -0.00280798 0.907102)
(0.691039 2.71123e-05 -4.29272)
(0.690877 0.000194647 -4.29229)
(0.691281 -0.000202878 -4.29233)
(0.691007 0.000768116 -4.29146)
(0.691083 -0.00069484 -4.2942)
(0.691391 -0.00182183 -4.28773)
(10.9604 -9.99879e-05 13.6253)
(10.9612 0.000138185 13.6261)
(10.9613 0.000270534 13.626)
(10.961 -3.09565e-05 13.6261)
(10.9659 -0.000170381 13.628)
(10.9564 -8.06888e-05 13.6251)
(9.25582 4.47471e-05 10.3988)
(9.25657 0.000482132 10.3999)
(9.2573 -0.00017473 10.4006)
(9.25623 0.00134473 10.4007)
(9.25771 -0.00157063 10.3919)
(9.25617 -0.00351294 10.4108)
(5.73571 3.6224e-05 4.86256)
(5.73625 0.000754861 4.8633)
(5.73687 -0.000681077 4.86376)
(5.73629 0.00248198 4.86481)
(5.73653 -0.00249295 4.85153)
(5.73731 -0.00634434 4.88053)
(-1.07035 -7.6804e-06 -0.257312)
(-1.07034 -2.96616e-05 -0.257323)
(-1.07031 -1.19326e-05 -0.25734)
(-1.07032 -2.25833e-05 -0.257325)
(-1.07033 -2.52628e-05 -0.257351)
(-1.07024 8.82658e-06 -0.257302)
(-0.537322 1.90314e-05 -0.90184)
(-0.537333 -1.54848e-05 -0.901853)
(-0.537267 1.81945e-05 -0.901857)
(-0.537343 -2.46004e-05 -0.901826)
(-0.537194 2.30931e-05 -0.901858)
(-0.537396 0.000100395 -0.901727)
(0.494923 -1.02417e-05 -0.313832)
(0.494978 -3.01931e-05 -0.313843)
(0.495039 5.83799e-05 -0.313805)
(0.49489 -1.05528e-06 -0.313863)
(0.495181 0.000165459 -0.313862)
(0.494498 0.000246056 -0.313873)
(-0.995538 2.03461e-05 -0.582862)
(-0.995513 -1.88746e-05 -0.582867)
(-0.995452 -2.13937e-05 -0.582908)
(-0.995511 -2.16406e-06 -0.582856)
(-0.995433 -0.000136397 -0.582972)
(-0.995428 -0.000128768 -0.582749)
(-0.626615 7.69755e-05 -1.55684)
(-0.626757 -1.5729e-05 -1.55692)
(-0.626618 3.78605e-05 -1.55695)
(-0.626742 -0.000111779 -1.55685)
(-0.626535 4.81674e-05 -1.55708)
(-0.626712 0.000287182 -1.55643)
(0.778564 -4.75041e-05 -0.597323)
(0.778598 -0.00012427 -0.597457)
(0.778793 0.0001634 -0.597321)
(0.778471 -0.000223638 -0.597488)
(0.779328 0.000605662 -0.597613)
(0.777615 0.00106984 -0.597276)
(-3.00579 2.49121e-05 -0.730469)
(-3.00581 -6.50669e-05 -0.730468)
(-3.0059 2.71775e-06 -0.730509)
(-3.0057 -5.21857e-05 -0.730443)
(-3.00679 -0.00016556 -0.73063)
(-3.00436 -1.67561e-05 -0.730133)
(-1.06706 0.000326469 -2.26454)
(-1.06732 0.00012918 -2.26467)
(-1.06702 3.67423e-05 -2.26468)
(-1.0673 -0.000169637 -2.26456)
(-1.0662 -8.56401e-05 -2.26519)
(-1.06817 0.000319718 -2.26366)
(1.402 9.37682e-05 0.219424)
(1.40239 -0.000167881 0.221174)
(1.40256 0.000299201 0.220791)
(1.40204 -0.00126295 0.220099)
(1.40547 0.00171273 0.227289)
(1.39792 0.0035479 0.211183)
(-0.97563 0.000108881 -1.33269)
(-0.975699 0.000189295 -1.33261)
(-0.975512 -0.00012785 -1.33287)
(-0.97577 0.00106133 -1.3325)
(-0.975288 -0.00187853 -1.33296)
(-0.975887 -0.00317771 -1.3326)
(-0.598942 0.000730239 -1.39863)
(-0.599628 0.000331347 -1.39889)
(-0.599625 -5.27677e-05 -1.39958)
(-0.599093 -0.00135615 -1.39852)
(-0.595754 0.000660963 -1.38478)
(-0.604113 0.0023928 -1.41547)
(3.63622 0.000493429 8.3653)
(3.6379 8.27846e-06 8.37163)
(3.63675 -9.63746e-05 8.36888)
(3.63759 -0.00245386 8.36897)
(3.65308 0.00213615 8.40364)
(3.61903 0.00507578 8.32807)
(-7.76264 8.65997e-05 -3.03693)