/*--------------------------------*- C++ -*----------------------------------*\
| =========                 |                                                 |
| \\      /  F ield         | OpenFOAM: The Open Source CFD Toolbox           |
|  \\    /   O peration     | Version:  v1612+                                |
|   \\  /    A nd           | Web:      www.OpenFOAM.com                      |
|    \\/     M anipulation  |                                                 |
\*---------------------------------------------------------------------------*/
FoamFile
{
    version     2.0;
    format      ascii;
    class       volVectorField;
    location    "0.5";
    object      U;
}
// * * * * * * * * * * * * * * * * * * * * * * * * * * * * * * * * * * * * * //

dimensions      [0 1 -1 0 0 0 0];

internalField   nonuniform List<vector> 
320
(
(3.08746e-07 -3.07111e-07 8.1417e-07)
(1.31733e-07 1.01582e-07 9.58905e-07)
(5.89721e-08 -8.08133e-07 -2.4166e-06)
(4.66593e-07 -3.55532e-07 -2.5898e-07)
(3.2574e-05 4.88865e-06 -2.99803e-05)
(2.00784e-05 1.87872e-05 -2.53036e-06)
(-2.73313e-05 3.72001e-06 -7.76622e-06)
(-1.80431e-05 -1.71082e-06 3.02236e-05)
(-5.46592e-05 -0.000120669 4.81884e-05)
(-6.96581e-05 -6.40796e-05 -8.12526e-05)
(-9.95532e-05 -6.41967e-05 2.38908e-05)
(1.04447e-05 -1.12739e-06 2.12982e-05)
(-1.17539e-05 3.28708e-05 -1.13481e-05)
(-1.27184e-05 -3.3776e-05 -5.30717e-05)
(1.21115e-05 -1.69041e-05 4.54704e-05)
(6.35758e-06 5.38843e-05 9.27592e-06)
(-3.79599e-06 -9.11103e-07 -1.65347e-06)
(3.24336e-06 -6.78572e-07 -1.6101e-06)
(4.82091e-06 -2.91037e-07 -1.03084e-06)
(6.32638e-07 -9.35462e-07 8.30666e-07)
(1.90522e-06 -2.65213e-06 2.91696e-07)
(-1.46626e-06 5.24675e-07 -4.0686e-07)
(2.13152e-06 3.57179e-07 7.13959e-07)
(2.53288e-06 5.62993e-07 -8.37804e-07)
(-4.48357e-06 -1.52367e-06 -1.36519e-06)
(-6.07752e-06 1.53064e-07 -6.56952e-07)
(-8.00515e-07 -1.02381e-06 1.44429e-07)
(-3.77698e-06 -2.66601e-06 -4.1112e-08)
(-2.4562e-07 -2.84809e-07 -2.1537e-06)
(2.7186e-07 -2.0133e-07 -1.87312e-06)
(4.9236e-07 -1.14386e-07 -1.17698e-06)
(3.55314e-08 -1.12377e-07 1.34589e-06)
(1.59676e-07 -9.29577e-07 1.65562e-07)
(-3.2653e-07 -5.39618e-07 -6.87097e-07)
(1.02874e-08 -4.4819e-07 1.1476e-06)
(5.56719e-07 -2.03407e-07 -1.02254e-06)
(-5.95321e-07 -3.47081e-07 -1.47351e-06)
(-9.16433e-07 -6.03508e-07 -7.96383e-07)
(-1.55633e-07 -2.03009e-07 1.76402e-07)
(-2.59535e-07 -1.48299e-07 -3.38313e-09)
(3.55835e-07 -3.00717e-07 2.71341e-07)
(1.08097e-07 -7.23569e-08 3.28737e-07)
(-1.5351e-07 -7.63184e-07 -3.75353e-07)
(2.41221e-07 -3.1663e-07 1.7216e-09)
(-2.38221e-07 -2.74146e-07 -3.12669e-07)
(3.14897e-07 -2.20157e-07 -2.48697e-07)
(4.46271e-07 -1.62048e-07 -1.89814e-07)
(6.17809e-08 -3.74393e-07 3.81514e-07)
(2.88685e-07 -6.24262e-07 -2.10434e-08)
(-1.31979e-07 -1.82628e-07 -1.55628e-07)
(2.47019e-07 -1.66338e-07 2.35176e-07)
(2.84079e-07 -1.86285e-07 -5.72583e-08)
(-6.34131e-07 -4.13069e-07 -2.23778e-07)
(-7.51552e-07 -2.44874e-07 -1.20359e-07)
(-1.55823e-07 -1.57068e-07 1.61391e-07)
(-3.02685e-07 -3.89026e-07 -6.87608e-08)
(3.60735e-05 -1.74178e-05 -8.23244e-06)
(3.56437e-05 -5.38548e-05 2.49912e-05)
(-5.10698e-06 -9.96714e-06 1.84035e-05)
(-2.9124e-05 -4.10245e-05 2.35354e-05)
(-5.55329e-05 -2.08853e-05 -1.24336e-05)
(2.13038e-05 2.98553e-05 -1.38542e-05)
(-2.53173e-05 -1.44169e-05 3.87483e-05)
(-5.62797e-05 -7.55613e-05 -4.65891e-06)
(4.63744e-06 -3.97019e-05 -2.39804e-05)
(2.99882e-05 6.86421e-06 -3.41431e-05)
(-3.01318e-05 1.63539e-05 -4.23914e-05)
(-5.79964e-05 -2.2736e-05 -3.3479e-05)
(-3.46746e-05 -2.20306e-05 -1.86795e-05)
(-1.35547e-05 1.51583e-08 3.0177e-05)
(-2.04521e-05 -1.24523e-05 -4.31032e-06)
(-2.33245e-05 -2.83094e-07 -2.67798e-05)
(-4.46773e-05 -3.52544e-06 1.85589e-05)
(4.53715e-05 3.24953e-05 1.76318e-05)
(6.90973e-05 2.88464e-05 -1.39715e-05)
(2.18824e-05 -2.17898e-05 2.91962e-08)
(3.23869e-08 -1.79911e-06 2.4687e-07)
(1.06721e-06 -6.25128e-06 9.28967e-07)
(5.17444e-08 -5.46906e-06 9.6598e-07)
(-1.0435e-06 -2.94082e-06 1.00213e-06)
(-4.80346e-06 2.57073e-06 3.18956e-07)
(2.50581e-06 9.97571e-07 6.24184e-07)
(-4.40451e-07 -9.74068e-07 9.516e-07)
(2.1749e-06 -2.4676e-06 -2.33115e-09)
(-2.96693e-06 -3.95767e-06 -5.1502e-07)
(2.60101e-06 1.49567e-06 -8.15443e-07)
(-2.40965e-06 -2.39568e-06 -8.47233e-07)
(2.35336e-06 -1.87127e-07 -8.63096e-07)
(1.05029e-06 -7.90288e-07 -1.2664e-06)
(-4.07193e-06 -1.45772e-06 -5.22963e-07)
(1.69541e-07 2.51001e-08 1.50625e-07)
(-3.41687e-06 -1.44262e-06 9.77035e-07)
(-2.53834e-06 -4.28745e-07 1.09867e-06)
(-2.70726e-06 2.21672e-06 1.03162e-06)
(3.64904e-06 -7.81843e-08 -5.73318e-07)
(3.46798e-06 -1.31872e-06 1.20222e-06)
(1.67108e-07 -5.35767e-07 4.26473e-07)
(3.61778e-07 -1.04029e-06 1.38094e-06)
(-3.8693e-08 -8.57454e-07 1.34224e-06)
(-3.48515e-07 -7.92253e-07 1.45343e-06)
(-7.63813e-07 3.78733e-08 5.0049e-07)
(4.76969e-07 1.82715e-07 8.41547e-07)
(-2.14696e-07 -2.31101e-07 1.51007e-06)
(2.49698e-07 -7.17595e-07 4.47805e-08)
(-1.01971e-08 -4.68707e-07 -5.47285e-07)
(8.34961e-07 2.19928e-07 -1.64132e-06)
(1.3916e-07 -4.03139e-07 -1.13192e-06)
(1.30387e-07 -2.34402e-07 -1.10467e-06)
(-4.21318e-08 -5.43125e-07 -1.87347e-06)
(-7.3485e-07 -1.94547e-07 -8.28167e-07)
(-2.43181e-07 -1.01812e-07 2.2088e-07)
(-8.23676e-07 -3.84988e-07 1.26696e-06)
(-4.81508e-07 -3.68451e-07 1.5065e-06)
(-6.09741e-08 3.49787e-07 1.39251e-06)
(3.93366e-07 3.79306e-08 -6.22131e-07)
(5.04144e-07 -4.53772e-07 1.5124e-06)
(1.12057e-07 -4.01825e-07 7.38284e-08)
(1.86966e-07 -8.03792e-07 3.44064e-07)
(-4.00088e-09 -6.87775e-07 3.37176e-07)
(-1.85654e-07 -4.88429e-07 3.20875e-07)
(-5.30256e-07 1.40609e-07 8.14694e-08)
(2.44912e-07 2.72775e-08 7.76616e-08)
(-1.29006e-07 -2.29942e-07 3.27764e-07)
(3.90158e-07 -5.1039e-07 9.58647e-09)
(-1.03864e-07 -4.50257e-07 -6.77111e-08)
(4.78491e-07 4.54978e-08 -2.06163e-07)
(4.76671e-09 -3.62932e-07 -3.7066e-07)
(2.44878e-07 -1.8128e-07 -2.67934e-07)
(9.32206e-08 -2.81663e-07 -3.80441e-07)
(-6.9014e-07 -2.42028e-07 -2.07039e-07)
(-2.38817e-07 -1.10007e-07 -7.81968e-09)
(-5.38583e-07 -2.47696e-07 2.22505e-07)
(-3.15417e-07 -2.84876e-07 1.95584e-07)
(-2.73774e-07 1.4815e-07 3.44072e-07)
(2.88935e-07 -6.26579e-09 -1.70595e-07)
(4.17624e-07 -3.15321e-07 2.46915e-07)
(1.39637e-07 -2.42292e-07 1.05233e-07)
(5.16455e-08 -1.39226e-07 1.30295e-07)
(-4.8026e-08 -4.68403e-07 -2.88917e-07)
(8.78174e-08 -3.04001e-07 -1.37799e-07)
(-4.40882e-08 -1.95568e-07 -2.32546e-07)
(1.26898e-07 -1.6234e-07 -2.09496e-07)
(1.52661e-07 -1.53033e-07 -5.65206e-08)
(7.10068e-09 -2.81372e-07 1.72745e-07)
(1.01506e-07 -4.40493e-07 -1.53845e-07)
(-4.00774e-08 -2.4003e-07 -3.66522e-08)
(7.95553e-08 -2.34664e-07 9.0697e-08)
(9.19267e-08 -2.38065e-07 -1.89137e-07)
(-3.01472e-07 -2.84882e-07 -9.56842e-08)
(-3.20421e-07 -2.56291e-07 -3.93312e-08)
(-7.601e-08 -1.35289e-07 -8.82649e-08)
(-6.53921e-08 -1.7829e-07 -2.81445e-08)
(1.00531e-07 -2.27985e-07 9.01747e-08)
(1.23686e-07 -3.90921e-07 1.69576e-07)
(9.11034e-09 -3.29984e-07 1.69193e-07)
(-9.79246e-08 -2.71883e-07 1.70671e-07)
(-2.43826e-07 -1.88083e-08 7.95791e-08)
(7.4171e-08 -5.73142e-08 7.82074e-08)
(-8.12944e-08 -1.90381e-07 1.65407e-07)
(1.59557e-07 -3.51179e-07 2.19207e-08)
(1.85913e-08 -2.77151e-07 -1.07934e-08)
(2.62702e-07 -5.90064e-08 -1.64609e-07)
(5.90187e-08 -2.29793e-07 -1.22708e-07)
(8.58515e-08 -1.62624e-07 -9.85472e-08)
(2.1918e-09 -2.3246e-07 -2.61702e-07)
(-3.57126e-07 -1.79716e-07 -1.81045e-07)
(-1.71612e-07 -1.19772e-07 6.99859e-08)
(-2.68858e-07 -2.0136e-07 1.38292e-07)
(-1.3611e-07 -2.42941e-07 1.26473e-07)
(-7.92754e-08 1.27372e-08 1.75433e-07)
(1.42099e-07 -1.9027e-08 -2.76317e-08)
(1.84921e-07 -1.95061e-07 1.40384e-07)
(6.20786e-06 1.80379e-05 -7.02763e-06)
(3.84098e-05 2.14056e-06 1.65566e-05)
(2.51456e-05 1.5702e-05 2.95358e-05)
(7.27847e-06 1.26367e-05 1.67201e-05)
(-1.641e-05 3.31602e-06 3.5509e-05)
(-0.000107799 -9.87006e-08 2.45868e-05)
(-8.02169e-05 5.55525e-05 -0.000110693)
(-2.45655e-05 8.80118e-05 -1.8987e-05)
(2.86853e-05 3.39574e-05 4.55621e-05)
(-2.05638e-05 -7.93314e-05 4.33057e-05)
(-3.61729e-05 -9.06033e-05 -6.82189e-05)
(-3.56275e-05 2.21772e-05 -3.80175e-05)
(2.56456e-05 2.79839e-05 2.14388e-05)
(-1.45464e-05 -4.10897e-06 1.7802e-05)
(1.6257e-05 3.60826e-05 7.67965e-06)
(-4.01102e-05 9.65474e-06 -1.42473e-05)
(-6.11213e-05 4.60842e-05 1.98242e-05)
(-1.22897e-05 1.27129e-05 -1.38461e-05)
(-2.13088e-05 2.36426e-05 -1.70932e-05)
(-3.2138e-06 2.04893e-05 2.72885e-05)
(-3.98165e-06 6.42317e-06 8.69111e-06)
(-1.80696e-05 -2.01218e-05 1.7276e-05)
(-1.1661e-05 8.65355e-06 4.32595e-05)
(-9.1233e-06 3.49054e-05 4.16421e-05)
(2.6764e-05 9.68769e-05 -1.0166e-05)
(5.51629e-05 3.03585e-05 -8.46147e-05)
(2.829e-05 -8.02762e-05 -3.45251e-05)
(-3.31371e-06 -1.35742e-05 2.39484e-05)
(5.21147e-06 1.13638e-06 1.63854e-07)
(1.15558e-06 -1.04221e-06 1.02257e-06)
(-1.26065e-07 1.3182e-08 9.02388e-07)
(-6.71425e-08 1.51068e-07 8.54e-07)
(-3.21888e-06 1.32069e-07 8.77001e-07)
(-4.30555e-06 2.32647e-06 -3.70108e-07)
(-9.53948e-07 -3.6592e-07 -1.08475e-06)
(-3.64636e-06 3.87058e-06 -1.17963e-06)
(3.4583e-07 4.07198e-06 8.14346e-07)
(-5.7187e-07 -1.26637e-06 6.3069e-07)
(5.35093e-08 -5.17857e-06 2.18231e-07)
(-3.28287e-06 9.5074e-07 -8.74782e-07)
(4.96196e-06 5.09203e-06 9.50704e-07)
(3.13538e-07 6.46776e-08 9.08518e-07)
(4.52079e-06 4.7131e-06 9.31676e-07)
(2.16528e-07 -1.85515e-06 -1.12918e-06)
(5.26132e-07 2.08689e-06 8.57073e-07)
(3.80344e-06 -2.7889e-08 -1.59742e-06)
(-5.29898e-06 -6.66241e-07 -1.34864e-06)
(-4.5516e-06 1.19917e-06 1.04705e-06)
(3.39619e-08 4.0549e-06 9.76763e-07)
(2.8897e-06 -3.22992e-07 -1.06294e-06)
(-3.14115e-07 -4.23155e-06 1.01173e-06)
(1.00749e-07 8.627e-07 9.38077e-07)
(9.7733e-07 5.16358e-06 4.40598e-07)
(3.04769e-06 3.50926e-06 -9.58845e-07)
(4.56478e-06 -2.36729e-07 -1.49317e-06)
(4.1297e-06 7.01307e-07 -6.261e-07)
(4.52529e-07 2.0668e-07 2.97704e-07)
(3.26983e-07 -1.76417e-07 1.37921e-06)
(7.60717e-08 4.6805e-08 1.34739e-06)
(2.38244e-08 1.09289e-07 1.21797e-06)
(-4.02968e-07 -1.57125e-08 1.39767e-06)
(-8.42908e-07 1.63742e-07 -3.74867e-07)
(-3.17092e-07 6.33869e-08 -1.74326e-06)
(-4.17447e-07 5.27624e-07 -1.67448e-06)
(1.72661e-07 4.3473e-07 1.37754e-06)
(-1.65434e-07 -3.39648e-07 1.18015e-06)
(6.41136e-08 -7.25084e-07 2.23225e-07)
(-1.72919e-07 4.56499e-08 -1.81855e-06)
(5.78469e-07 5.00474e-07 1.28969e-06)
(1.07623e-07 3.98791e-08 1.34861e-06)
(8.93415e-07 5.10725e-07 1.17358e-06)
(1.27802e-07 -1.85728e-08 -1.66472e-06)
(1.50276e-07 5.22085e-07 1.10297e-06)
(5.16866e-07 -3.84638e-08 -2.10198e-06)
(-1.03663e-06 -3.69161e-08 -1.66726e-06)
(-8.10326e-07 2.6332e-07 1.41594e-06)
(-6.50928e-08 5.3023e-07 1.29406e-06)
(2.01817e-07 -2.07896e-07 -1.30475e-06)
(-1.71178e-07 -5.85408e-07 1.5561e-06)
(1.39755e-09 1.59193e-07 1.49401e-06)
(3.56467e-07 6.71865e-07 6.43261e-07)
(3.23472e-07 4.16817e-07 -2.05486e-06)
(7.35354e-07 -4.766e-07 -1.92532e-06)
(3.00638e-07 -2.28035e-07 -1.07518e-06)
(6.05536e-07 8.59264e-08 6.42805e-08)
(1.85787e-07 -8.03033e-08 1.78485e-07)
(4.77286e-08 1.21964e-08 2.9293e-07)
(-4.66253e-10 5.89336e-08 2.44093e-07)
(-3.82114e-07 8.66156e-09 3.21345e-07)
(-5.35583e-07 2.55394e-07 1.54649e-09)
(-8.3262e-08 1.39884e-08 -2.69077e-07)
(-3.24667e-07 2.92065e-07 -2.10787e-07)
(6.81941e-08 2.39202e-07 2.02151e-07)
(-1.12743e-07 -2.29147e-07 2.03109e-07)
(6.8989e-08 -5.99119e-07 4.07229e-08)
(-2.01473e-07 -9.42948e-08 -2.04401e-07)
(4.24951e-07 3.47042e-07 1.99611e-07)
(1.00072e-07 3.24898e-08 2.38615e-07)
(6.0611e-07 3.57369e-07 1.84296e-07)
(9.47984e-08 -9.51291e-08 -3.49263e-07)
(1.6575e-07 2.67337e-07 1.51163e-07)
(3.44828e-07 -1.60015e-08 -4.01391e-07)
(-8.05786e-07 1.57303e-08 -2.50672e-07)
(-6.24875e-07 9.96448e-08 2.25077e-07)
(-5.12498e-08 4.01788e-07 2.31108e-07)
(2.50893e-07 -1.55737e-07 -1.46848e-07)
(-9.69796e-08 -4.8967e-07 3.27131e-07)
(8.91981e-09 1.99345e-08 1.93496e-07)
(2.07831e-07 4.47284e-07 8.96471e-08)
(3.08054e-07 3.02371e-07 -3.6265e-07)
(5.16468e-07 -8.52237e-08 -2.73377e-07)
(5.3815e-07 1.07609e-07 -1.58273e-08)
(2.52555e-07 2.8383e-08 8.06821e-08)
(1.30468e-07 -4.08157e-08 1.15879e-07)
(5.79111e-08 -1.55445e-09 1.57551e-07)
(7.859e-09 2.4959e-08 1.31299e-07)
(-1.58516e-07 -3.03233e-10 1.53709e-07)
(-2.61988e-07 8.555e-08 -9.24335e-08)
(-5.48379e-08 1.78586e-08 -1.24901e-07)
(-1.22529e-07 6.42762e-08 -1.2238e-07)
(2.82467e-08 9.49836e-09 1.07015e-07)
(-5.57164e-08 -1.95986e-07 1.00716e-07)
(2.26421e-08 -3.40607e-07 6.28621e-08)
(-4.51444e-08 -1.36886e-07 -1.7043e-07)
(1.62908e-07 5.85708e-08 9.38949e-08)
(7.24329e-08 1.39161e-08 1.20985e-07)
(3.06955e-07 1.04391e-07 8.25957e-08)
(6.35398e-08 -3.03367e-08 -1.78085e-07)
(8.22223e-08 9.98698e-08 6.8551e-08)
(1.09019e-07 -2.67077e-08 -2.54495e-07)
(-4.1416e-07 -6.95792e-09 -1.65294e-07)
(-3.25335e-07 3.03264e-08 1.39501e-07)
(-5.53604e-08 1.46765e-07 1.33549e-07)
(6.10779e-08 -1.2324e-07 -1.18408e-07)
(-5.88282e-08 -2.4938e-07 1.71563e-07)
(1.30576e-08 -6.67082e-08 1.2217e-07)
(1.17405e-07 1.42921e-07 7.6628e-08)
(1.43241e-07 8.59061e-08 -1.97604e-07)
(2.22338e-07 -1.1753e-07 -1.54837e-07)
(2.20772e-07 2.68177e-08 -2.31384e-07)
(5.25757e-07 1.3402e-05 1.09131e-05)
(-6.25568e-06 1.28642e-05 1.73469e-05)
(6.23619e-05 -2.73386e-05 1.38039e-06)
(4.9794e-06 -2.38856e-05 4.35723e-05)
(3.05466e-06 -8.38175e-08 5.24245e-07)
(6.7179e-07 1.94164e-06 5.58927e-07)
(-8.30555e-07 -4.11186e-06 -1.73922e-06)
(2.3917e-06 -3.6873e-07 -3.42308e-07)
)
;

boundaryField
{
    top_fluid_surface
    {
        type            pressureInletOutletVelocity;
        value           nonuniform List<vector> 
64
(
(0 0 -2.99803e-05)
(2.00784e-05 1.87872e-05 -2.53036e-06)
(0 0 -7.76622e-06)
(-1.80431e-05 -1.71082e-06 3.02236e-05)
(-5.46592e-05 -0.000120669 4.81884e-05)
(0 0 -8.12526e-05)
(-9.95532e-05 -6.41967e-05 2.38908e-05)
(1.04447e-05 -1.12739e-06 2.12982e-05)
(0 0 -1.13481e-05)
(0 0 -5.30717e-05)
(1.21115e-05 -1.69041e-05 4.54704e-05)
(6.35758e-06 5.38843e-05 9.27592e-06)
(0 0 -8.23244e-06)
(3.56437e-05 -5.38548e-05 2.49912e-05)
(-5.10698e-06 -9.96714e-06 1.84035e-05)
(-2.9124e-05 -4.10245e-05 2.35354e-05)
(0 0 -1.24336e-05)
(0 0 -1.38542e-05)
(-2.53173e-05 -1.44169e-05 3.87483e-05)
(0 0 -4.65891e-06)
(0 0 -2.39804e-05)
(0 0 -3.41431e-05)
(0 0 -4.23914e-05)
(0 0 -3.3479e-05)
(-3.46746e-05 -2.20306e-05 -1.86795e-05)
(-1.35547e-05 1.51583e-08 3.0177e-05)
(0 0 -4.31032e-06)
(-2.33245e-05 -2.83094e-07 -2.67798e-05)
(-4.46773e-05 -3.52544e-06 1.85589e-05)
(4.53715e-05 3.24953e-05 1.76318e-05)
(0 0 -1.39715e-05)
(0 0 2.91962e-08)
(0 0 -7.02763e-06)
(3.84098e-05 2.14056e-06 1.65566e-05)
(2.51456e-05 1.5702e-05 2.95358e-05)
(7.27847e-06 1.26367e-05 1.67201e-05)
(-1.641e-05 3.31602e-06 3.5509e-05)
(-0.000107799 -9.87006e-08 2.45868e-05)
(0 0 -0.000110693)
(0 0 -1.8987e-05)
(2.86853e-05 3.39574e-05 4.55621e-05)
(-2.05638e-05 -7.93314e-05 4.33057e-05)
(0 0 -6.82189e-05)
(0 0 -3.80175e-05)
(2.56456e-05 2.79839e-05 2.14388e-05)
(-1.45464e-05 -4.10897e-06 1.7802e-05)
(1.6257e-05 3.60826e-05 7.67965e-06)
(0 0 -1.42473e-05)
(-6.11213e-05 4.60842e-05 1.98242e-05)
(-1.22897e-05 1.27129e-05 -1.38461e-05)
(-2.13088e-05 2.36426e-05 -1.70932e-05)
(-3.2138e-06 2.04893e-05 2.72885e-05)
(-3.98165e-06 6.42317e-06 8.69111e-06)
(-1.80696e-05 -2.01218e-05 1.7276e-05)
(-1.1661e-05 8.65355e-06 4.32595e-05)
(-9.1233e-06 3.49054e-05 4.16421e-05)
(0 0 -1.0166e-05)
(0 0 -8.46147e-05)
(0 0 -3.45251e-05)
(-3.31371e-06 -1.35742e-05 2.39484e-05)
(5.25757e-07 1.3402e-05 1.09131e-05)
(-6.25568e-06 1.28642e-05 1.73469e-05)
(6.23619e-05 -2.73386e-05 1.38039e-06)
(4.9794e-06 -2.38856e-05 4.35723e-05)
)
;
    }
    bottom_fluid_surface
    {
        type            noSlip;
    }
    lateral_surface_1
    {
        type            noSlip;
    }
    lateral_surface_2
    {
        type            noSlip;
    }
    lateral_surface_3
    {
        type            noSlip;
    }
    lateral_surface_4
    {
        type            noSlip;
    }
}


// ************************************************************************* //
