/*--------------------------------*- C++ -*----------------------------------*\
| =========                 |                                                 |
| \\      /  F ield         | OpenFOAM: The Open Source CFD Toolbox           |
|  \\    /   O peration     | Version:  v1612+                                |
|   \\  /    A nd           | Web:      www.OpenFOAM.com                      |
|    \\/     M anipulation  |                                                 |
\*---------------------------------------------------------------------------*/
FoamFile
{
    version     2.0;
    format      ascii;
    class       surfaceScalarField;
    location    "4.05";
    object      alphaPhi;
}
// * * * * * * * * * * * * * * * * * * * * * * * * * * * * * * * * * * * * * //

dimensions      [0 3 -1 0 0 0 0];

internalField   nonuniform List<scalar> 
2916
(
7.95645e-06
0.145695
-3.40367e-07
6.04564e-06
0.145696
-3.40324e-07
7.41354e-07
0.145696
-3.40349e-07
3.92107e-08
0.145697
-3.4036e-07
-1.67123e-06
0.145697
-3.40323e-07
0.145695
-3.40424e-07
8.27021e-06
0.285642
-1.1194e-06
6.01079e-06
0.285648
-1.11946e-06
1.50469e-06
0.285646
-1.11946e-06
1.4907e-06
0.285648
-1.11945e-06
-4.57812e-07
0.285649
-1.11943e-06
0.285643
-1.11948e-06
7.91227e-06
0.432515
-1.33558e-07
4.67798e-06
0.432528
-1.33554e-07
1.3598e-06
0.432525
-1.33551e-07
2.06742e-06
0.432526
-1.33532e-07
2.32281e-07
0.432528
-1.33529e-07
0.432519
-1.33575e-07
7.51268e-06
0.583537
-2.78478e-08
3.56974e-06
0.583559
-2.78361e-08
1.54138e-06
0.583553
-2.78315e-08
1.91525e-06
0.583554
-2.78284e-08
-3.21352e-07
0.583558
-2.78278e-08
0.583544
-2.78403e-08
7.56841e-06
0.716926
-1.17574e-08
3.04707e-06
0.716955
-1.1749e-08
1.55346e-06
0.716947
-1.17451e-08
1.35921e-06
0.716948
-1.1745e-08
-1.4161e-06
0.716953
-1.17439e-08
0.716932
-1.17507e-08
6.58751e-06
0.746403
0.0249876
2.93711e-06
0.746433
0.0249938
6.80378e-07
0.746424
0.0249929
-6.29745e-08
0.746425
0.0249923
-2.81847e-06
0.74643
0.0249934
0.746402
0.0249926
1.75264e-06
0.535377
0.168129
1.12197e-06
0.535409
0.168129
-2.56309e-06
0.535403
0.168128
-4.77417e-06
0.535403
0.168128
-4.05069e-06
0.535408
0.168125
0.535375
0.168128
-1.05471e-06
0.110074
0.425341
8.74889e-07
0.110104
0.42534
-4.01517e-06
0.110106
0.425339
-7.18872e-06
0.110104
0.425339
-9.93696e-06
0.110111
0.425338
0.110064
0.425338
1.67515e-05
-0.484683
0.594788
2.38475e-06
-0.484671
0.594836
-3.07534e-06
-0.484653
0.594812
-8.44712e-06
-0.484656
0.594813
-2.60906e-05
-0.484648
0.594823
-0.484718
0.594803
4.29641e-05
-0.870684
0.386005
9.95506e-06
-0.870678
0.386087
4.63689e-06
-0.870657
0.386056
-3.46831e-06
-0.870658
0.386057
-3.48764e-05
-0.870647
0.386078
-0.870719
0.386013
6.86863e-05
-0.688644
-0.182069
9.83148e-06
-0.688625
-0.181954
1.09773e-06
-0.688619
-0.18199
-5.60166e-06
-0.68862
-0.181992
-4.49962e-05
-0.688607
-0.181961
-0.688654
-0.18207
1.04947e-05
-0.689598
-1.34655e-05
-0.689544
-1.20199e-05
-0.689564
-8.68924e-06
-0.689567
-8.51432e-06
-0.689551
-0.689606
8.29765e-13
3.7454e-08
-3.85411e-07
1.11687e-12
3.74518e-08
-3.85377e-07
4.08282e-13
3.74538e-08
-3.85408e-07
9.81994e-13
3.74527e-08
-3.85428e-07
1.05649e-12
3.74515e-08
-3.85392e-07
3.74579e-08
-3.85482e-07
-5.12797e-13
1.18069e-07
-1.19453e-06
1.17981e-12
1.18074e-07
-1.19461e-06
1.6213e-12
1.18075e-07
-1.19462e-06
2.42726e-12
1.18071e-07
-1.19461e-06
3.30552e-12
1.1807e-07
-1.19459e-06
1.18076e-07
-1.19461e-06
-4.3626e-13
5.22936e-08
-5.98398e-08
1.33609e-13
5.22911e-08
-5.9842e-08
3.44648e-13
5.22909e-08
-5.98441e-08
6.62987e-13
5.22867e-08
-5.98256e-08
1.12053e-12
5.22863e-08
-5.98235e-08
5.22964e-08
-5.98603e-08
-2.51616e-13
4.69202e-08
-1.46346e-08
-1.00792e-13
4.69169e-08
-1.46312e-08
-1.22642e-13
4.69163e-08
-1.46292e-08
5.53823e-14
4.69152e-08
-1.46294e-08
4.44273e-13
4.6915e-08
-1.46298e-08
4.69181e-08
-1.46297e-08
-1.62194e-12
4.10607e-08
2.34337e-09
-1.31139e-12
4.10558e-08
2.34318e-09
-1.25358e-12
4.10551e-08
2.34314e-09
-1.11399e-12
4.10545e-08
2.34309e-09
-1.38742e-13
4.10537e-08
2.34305e-09
4.10562e-08
2.34335e-09
-2.16125e-07
0.0255312
0.000462194
-2.20211e-07
0.0255396
0.000462246
-1.83021e-07
0.0255391
0.000462259
-1.47888e-07
0.0255392
0.00046222
-4.21531e-08
0.0255418
0.000462205
0.0255384
0.000462252
-2.7686e-07
0.20562
0.00597237
-1.87869e-06
0.205625
0.00597258
-1.41171e-06
0.205626
0.00597248
-9.05087e-07
0.205626
0.00597226
-1.18996e-06
0.205626
0.00597189
0.205623
0.00597248
6.00904e-06
0.316384
0.0170775
-1.50027e-06
0.316442
0.0171457
-1.74907e-06
0.316421
0.0171105
-1.33345e-06
0.316419
0.0171081
-8.96169e-06
0.316433
0.0171177
0.316392
0.0171017
7.91305e-05
0.115665
0.25645
-2.48407e-06
0.115748
0.256521
-6.14023e-06
0.115727
0.256482
-5.92965e-06
0.11573
0.256478
-5.01785e-05
0.115763
0.25649
0.115667
0.256469
0.000127084
-0.133069
0.51685
1.63284e-05
-0.132976
0.517121
7.58832e-06
-0.132989
0.516997
2.61049e-06
-0.132985
0.516993
-6.14424e-05
-0.13295
0.517057
-0.133058
0.516909
0.000160448
-0.204927
-0.110346
3.82637e-05
-0.204761
-0.110021
2.58923e-05
-0.204793
-0.110149
2.11605e-06
-0.204794
-0.110133
-6.81293e-05
-0.204738
-0.110077
-0.204897
-0.110273
-4.12931e-05
-0.894114
-2.45188e-05
-0.893952
-1.02569e-05
-0.894001
3.34498e-06
-0.894005
4.05755e-05
-0.893956
-0.894093
-1.62467e-11
-2.09436e-07
-4.43483e-07
-8.77839e-12
-2.09424e-07
-4.43353e-07
1.73523e-12
-2.09448e-07
-4.43409e-07
5.32926e-12
-2.09436e-07
-4.43451e-07
9.59888e-12
-2.09414e-07
-4.43422e-07
-2.09466e-07
-4.43571e-07
-3.32667e-11
-1.30718e-07
-1.94212e-06
-8.65812e-12
-1.3072e-07
-1.94235e-06
4.34251e-12
-1.3073e-07
-1.94233e-06
1.72378e-11
-1.30709e-07
-1.94233e-06
4.70194e-11
-1.30698e-07
-1.94235e-06
-1.30749e-07
-1.94213e-06
-1.71374e-12
-1.01066e-08
-2.58589e-07
-6.76671e-13
-1.01045e-08
-2.58777e-07
-3.95081e-13
-1.01027e-08
-2.58755e-07
3.30688e-13
-1.01009e-08
-2.58745e-07
2.2225e-12
-1.01013e-08
-2.58818e-07
-1.01047e-08
-2.58707e-07
-9.9857e-13
-2.23231e-09
-1.33045e-08
-5.49088e-13
-2.23406e-09
-1.33062e-08
-6.27846e-13
-2.23372e-09
-1.33059e-08
-2.08761e-13
-2.23428e-09
-1.33044e-08
9.7986e-13
-2.23507e-09
-1.33049e-08
-2.23251e-09
-1.33049e-08
-1.95372e-12
4.35599e-08
-2.82783e-08
-1.31128e-12
4.35791e-08
-2.83114e-08
-1.45091e-12
4.35646e-08
-2.83016e-08
-9.45796e-13
4.35684e-08
-2.83074e-08
8.53153e-13
4.35821e-08
-2.83226e-08
4.35551e-08
-2.8281e-08
-1.35857e-08
0.000467494
-5.23351e-06
-1.43198e-08
0.000467536
-5.2354e-06
-1.42853e-08
0.00046755
-5.23684e-06
-1.05445e-08
0.000467507
-5.23758e-06
-3.10129e-09
0.00046749
-5.23972e-06
0.000467541
-5.23864e-06
5.23624e-07
0.00640284
1.39489e-05
-8.53746e-08
0.00640426
1.39485e-05
-2.56174e-08
0.00640353
1.39474e-05
5.03402e-09
0.00640331
1.39429e-05
-2.47818e-07
0.00640324
1.39424e-05
0.00640333
1.39417e-05
6.02335e-06
0.0219599
-5.29395e-05
-4.2965e-07
0.0220297
-5.25322e-05
2.63165e-07
0.0219929
-5.28449e-05
3.80254e-07
0.0219929
-5.28942e-05
-2.16523e-06
0.0220021
-5.27815e-05
0.0219843
-5.28731e-05
7.44253e-05
-0.00572456
-0.00930514
-4.47031e-06
-0.00562201
-0.00931522
-6.8926e-06
-0.00567123
-0.00930993
1.41233e-06
-0.00567032
-0.00930907
-2.08709e-05
-0.00564794
-0.00930807
-0.00569179
-0.00930879
0.000261952
0.0153103
0.0747045
1.67798e-05
0.0156638
0.0750128
-1.36616e-05
0.0155219
0.0748749
1.15863e-05
0.0155177
0.0748476
-0.000113914
0.0156036
0.074931
0.0154127
0.0747912
0.000439942
-0.0770643
-0.0143922
1.62984e-05
-0.0767978
-0.012993
-2.235e-05
-0.0768783
-0.0136209
2.94969e-05
-0.0768777
-0.0137097
-0.000181847
-0.0768194
-0.0133266
-0.0769924
-0.0139944
-0.000112728
-0.970528
-2.59172e-05
-0.970299
-8.21886e-06
-0.970359
2.15592e-05
-0.970375
0.00011997
-0.970337
-0.970428
5.23232e-12
-1.89741e-07
-1.08652e-07
3.28456e-12
-1.8965e-07
-1.08579e-07
8.00761e-13
-1.89662e-07
-1.08609e-07
-3.62039e-12
-1.89663e-07
-1.08623e-07
-6.75499e-12
-1.89643e-07
-1.08595e-07
-1.89747e-07
-1.08688e-07
3.36541e-11
-1.15648e-07
-1.50253e-06
1.1402e-11
-1.15602e-07
-1.50267e-06
-1.73185e-12
-1.15611e-07
-1.50265e-06
-1.61384e-11
-1.15606e-07
-1.50265e-06
-3.33234e-11
-1.15604e-07
-1.50265e-06
-1.15681e-07
-1.5025e-06
-2.06229e-12
-8.45784e-08
-4.08766e-07
-4.91547e-12
-8.4573e-08
-4.08611e-07
-4.5832e-12
-8.45769e-08
-4.08652e-07
-4.1652e-12
-8.45731e-08
-4.08638e-07
-2.7013e-12
-8.4576e-08
-4.08587e-07
-8.46025e-08
-4.08839e-07
-6.61926e-13
-9.56897e-08
-2.48535e-09
-5.78631e-13
-9.56896e-08
-2.48587e-09
-5.3107e-13
-9.56944e-08
-2.48543e-09
-3.14932e-13
-9.5693e-08
-2.48359e-09
1.70666e-13
-9.56963e-08
-2.4829e-09
-9.57193e-08
-2.48206e-09
-1.69192e-11
-8.47517e-08
-2.35058e-08
-1.19248e-11
-8.48527e-08
-2.3475e-08
-8.24666e-12
-8.49512e-08
-2.33845e-08
-2.59849e-12
-8.49976e-08
-2.33357e-08
5.89936e-12
-8.48317e-08
-2.34645e-08
-8.47067e-08
-2.34983e-08
-3.14511e-10
-5.72573e-06
-7.10674e-08
-1.56908e-10
-5.72855e-06
-7.09378e-08
-6.00501e-11
-5.72976e-06
-7.10354e-08
3.98286e-11
-5.73044e-06
-7.10533e-08
1.95899e-10
-5.73247e-06
-7.10657e-08
-5.73087e-06
-7.10663e-08
2.61439e-08
-1.39058e-06
-8.9824e-08
3.27181e-09
-1.35726e-06
-8.50365e-08
5.48273e-09
-1.37797e-06
-8.73482e-08
7.85138e-09
-1.38063e-06
-8.78597e-08
1.05045e-09
-1.37658e-06
-8.70576e-08
-1.37853e-06
-8.81569e-08
-1.22449e-08
-0.000146
-1.92015e-05
1.53694e-07
-0.000146445
-1.9269e-05
8.53402e-08
-0.00014615
-1.92539e-05
3.76385e-08
-0.000146154
-1.92691e-05
2.17566e-08
-0.000146207
-1.92676e-05
-0.000146122
-1.92823e-05
3.70176e-05
-0.0111024
1.92652e-05
-4.82773e-06
-0.0110562
2.92702e-05
-5.42732e-06
-0.0110809
2.45054e-05
-1.38949e-06
-0.0110818
2.35605e-05
-6.7512e-06
-0.0110761
2.5322e-05
-0.0110835
2.28309e-05
0.000304875
-0.351657
-0.0945154
2.57555e-05
-0.351638
-0.094735
-3.20335e-05
-0.351657
-0.0946484
7.00806e-06
-0.351631
-0.0946197
-9.90928e-05
-0.351629
-0.094651
-0.351643
-0.0946061
0.000366278
-0.0809661
-0.303218
4.0425e-05
-0.0802173
-0.302834
-6.17496e-05
-0.0805269
-0.302986
1.07178e-05
-0.0806134
-0.303065
-4.62674e-05
-0.0804417
-0.302876
-0.0807148
-0.303134
-0.000284292
-0.661628
1.40111e-05
-0.661586
9.84341e-05
-0.661585
4.25422e-05
-0.661661
9.69382e-05
-0.661685
-0.661547
-1.66749e-29
-1.63112e-22
3.954e-25
-1.57649e-29
-1.61871e-22
3.92656e-25
-1.13472e-29
-1.72032e-22
4.15064e-25
-8.9268e-30
-1.47643e-22
3.58654e-25
-6.9203e-30
-1.48503e-22
3.61066e-25
-1.82511e-22
4.39153e-25
-9.06309e-27
-6.72021e-20
1.71005e-22
-8.93491e-27
-6.66477e-20
1.69698e-22
-6.34671e-27
-7.12085e-20
1.80347e-22
-4.83885e-27
-6.07251e-20
1.54778e-22
-3.4978e-27
-6.10228e-20
1.55679e-22
-7.57253e-20
1.91328e-22
-2.99286e-24
-1.35217e-17
3.76909e-20
-2.90868e-24
-1.34026e-17
3.73777e-20
-1.89181e-24
-1.43794e-17
3.99347e-20
-1.22263e-24
-1.22032e-17
3.40551e-20
-7.31176e-25
-1.22527e-17
3.42217e-20
-1.53208e-17
4.24664e-20
-6.90224e-22
-5.54974e-17
5.51232e-18
-5.74615e-22
-6.01407e-17
5.46299e-18
-2.73102e-22
-3.73008e-17
5.86075e-18
-7.3428e-23
-1.07945e-16
4.97356e-18
3.38832e-23
-1.05349e-16
4.99358e-18
-3.97612e-17
6.24385e-18
-6.6214e-20
-2.86486e-15
5.8494e-16
-1.09857e-20
-2.84405e-15
5.79383e-16
5.4668e-20
-3.07696e-15
6.22635e-16
7.55455e-20
-2.65617e-15
5.27298e-16
7.26056e-20
-2.65881e-15
5.29033e-16
-3.26862e-15
6.64291e-16
1.23586e-18
-1.17008e-13
4.7451e-14
8.37193e-18
-1.15474e-13
4.69039e-14
1.63742e-17
-1.26507e-13
5.03921e-14
1.08516e-17
-1.02947e-13
4.29017e-14
7.39129e-18
-1.03108e-13
4.29e-14
-1.37651e-13
5.38109e-14
1.5461e-15
-2.73618e-11
1.90491e-11
1.71246e-15
-2.70637e-11
1.88317e-11
4.46662e-15
-2.82255e-11
1.939e-11
-2.95757e-16
-2.57745e-11
1.82882e-11
-2.29163e-15
-2.57132e-11
1.82011e-11
-2.9447e-11
2.00096e-11
2.38199e-13
-3.84815e-08
1.93285e-09
-3.90103e-14
-3.82323e-08
1.91351e-09
5.58705e-13
-4.09355e-08
1.94348e-09
-7.10067e-13
-3.4987e-08
1.89286e-09
-1.54266e-12
-3.49907e-08
1.88093e-09
-4.35749e-08
1.98725e-09
5.52249e-11
-1.92495e-06
-9.75381e-07
-4.07725e-11
-1.91027e-06
-9.61542e-07
4.10284e-10
-2.03353e-06
-1.06015e-06
-2.78415e-10
-1.77348e-06
-8.56985e-07
-9.98341e-10
-1.7542e-06
-8.63834e-07
-2.16326e-06
-1.14426e-06
1.64188e-09
9.57389e-07
-6.39177e-06
-4.05772e-09
9.46186e-07
-6.3269e-06
6.56165e-08
1.05519e-06
-6.88083e-06
-2.19931e-08
8.46698e-07
-5.73607e-06
-1.43491e-07
8.45028e-07
-5.65295e-06
1.11563e-06
-7.39686e-06
6.4526e-11
2.1402e-06
-4.14865e-06
9.77592e-10
2.1336e-06
-4.1247e-06
1.684e-08
2.16272e-06
-4.14026e-06
-3.01081e-09
2.05533e-06
-3.93594e-06
-4.62238e-08
2.00238e-06
-3.84517e-06
2.23653e-06
-4.02987e-06
2.31164e-11
1.90145e-07
2.28695e-11
2.07527e-07
6.62539e-11
2.63167e-07
-4.49733e-11
1.66089e-07
-3.61913e-10
1.13314e-07
3.46952e-07
-6.18382e-28
-8.43581e-21
4.24484e-23
-6.15496e-28
-8.38724e-21
4.22372e-23
-4.50057e-28
-8.93017e-21
4.49309e-23
-3.61605e-28
-7.78189e-21
3.92977e-23
-2.79948e-28
-7.78347e-21
3.93918e-23
-9.42375e-21
4.73009e-23
-2.34616e-25
-3.29381e-18
1.75365e-20
-2.19398e-25
-3.272e-18
1.7435e-20
-1.48376e-25
-3.48677e-18
1.85633e-20
-1.0814e-25
-3.02873e-18
1.61762e-20
-7.51473e-26
-3.02342e-18
1.61794e-20
-3.68771e-18
1.95888e-20
-3.79286e-23
-4.24443e-16
3.64036e-18
-8.43142e-24
-4.21988e-16
3.61607e-18
1.94152e-23
-4.41854e-16
3.85335e-18
2.75389e-23
-3.98567e-16
3.34712e-18
2.22498e-23
-3.97299e-16
3.34122e-18
-4.60651e-16
4.07532e-18
6.39139e-21
-1.32953e-15
2.51819e-16
1.66223e-20
-1.32115e-15
2.4991e-16
2.3102e-20
-1.39643e-15
2.66389e-16
1.89133e-20
-1.226e-15
2.3115e-16
1.27466e-20
-1.22186e-15
2.30366e-16
-1.47694e-15
2.82177e-16
3.79411e-18
-8.68441e-14
4.14389e-14
5.94184e-18
-8.61171e-14
4.11155e-14
7.23653e-18
-9.19595e-14
4.37045e-14
4.37942e-18
-7.95539e-14
3.81966e-14
2.65902e-18
-7.92041e-14
3.80542e-14
-9.76489e-14
4.61973e-14
9.4048e-16
-1.04219e-11
4.00676e-12
7.38162e-16
-1.03504e-11
3.98392e-12
1.40983e-15
-1.10345e-11
4.2852e-12
-2.23646e-16
-9.55997e-12
3.62841e-12
-9.15614e-16
-9.53022e-12
3.62027e-12
-1.16893e-11
4.57486e-12
2.30218e-13
-9.29837e-10
3.39592e-10
-5.85953e-14
-9.23368e-10
3.3744e-10
1.83402e-13
-9.93363e-10
3.73032e-10
-5.74194e-13
-8.41287e-10
2.9512e-10
-8.95927e-13
-8.36886e-10
2.95283e-10
-1.06277e-09
4.06801e-10
5.73734e-11
-8.23137e-08
3.87581e-08
-7.58522e-11
-8.14543e-08
3.84741e-08
4.36274e-10
-8.88634e-08
4.20119e-08
-3.48252e-10
-7.26259e-08
3.4356e-08
-1.07359e-09
-7.27435e-08
3.43497e-08
-9.61044e-08
4.54177e-08
3.66624e-09
-0.000302196
-6.60632e-07
-1.39084e-08
-0.000299699
-5.66506e-07
2.03148e-07
-0.000319433
-1.15568e-06
-6.27076e-08
-0.000278083
-2.65801e-08
-4.1473e-07
-0.000276811
-6.13954e-08
-0.000337739
-1.51249e-06
-9.37872e-08
2.32707e-05
-0.00481019
-1.45568e-07
2.36223e-05
-0.00478551
7.61543e-06
1.70696e-05
-0.00496366
-1.30537e-06
3.05188e-05
-0.00458607
-1.57165e-05
3.21564e-05
-0.00451804
1.13977e-05
-0.00517679
1.07954e-08
0.000163163
-0.000148329
1.2277e-06
0.000163073
-0.000149107
-1.45048e-06
0.000165288
-0.000154067
1.22115e-06
0.000160099
-0.000140269
1.35027e-06
0.000156604
-0.000132028
0.000170262
-0.000166467
1.71828e-08
5.57616e-05
1.93799e-08
5.57196e-05
-1.52887e-08
5.65904e-05
2.53361e-08
5.46398e-05
-7.57634e-08
5.39782e-05
5.78757e-05
-5.7337e-27
-1.5373e-19
1.54029e-21
-3.09899e-27
-1.5272e-19
1.532e-21
-9.21431e-28
-1.58547e-19
1.59275e-21
-1.03189e-29
-1.46548e-19
1.46323e-21
7.91795e-30
-1.46153e-19
1.46321e-21
-1.64117e-19
1.64804e-21
-9.79327e-25
-4.51513e-17
5.02515e-19
8.8097e-25
-4.47848e-17
4.99205e-19
2.41948e-24
-4.63878e-17
5.18247e-19
2.83968e-24
-4.32257e-17
4.79024e-19
2.53477e-24
-4.30004e-17
4.77734e-19
-4.80016e-17
5.36455e-19
2.42442e-22
-1.23146e-16
7.88613e-17
1.13263e-21
-1.21183e-16
7.82181e-17
1.85149e-21
-1.08185e-16
8.10171e-17
1.88092e-21
-1.25299e-16
7.54943e-17
1.45354e-21
-1.2437e-16
7.5101e-17
-1.04117e-16
8.38366e-17
2.20072e-19
-1.27091e-14
6.28849e-15
4.57782e-19
-1.27048e-14
6.23391e-15
5.99904e-19
-1.27196e-14
6.44834e-15
4.9435e-19
-1.2656e-14
6.02141e-15
3.39096e-19
-1.26474e-14
5.98939e-15
-1.26988e-14
6.66508e-15
1.04166e-16
-2.3347e-12
1.48226e-12
1.19015e-16
-2.31328e-12
1.46893e-12
1.69014e-16
-2.39125e-12
1.52041e-12
5.76252e-17
-2.23739e-12
1.41784e-12
1.1424e-17
-2.22386e-12
1.4097e-12
-2.47135e-12
1.57292e-12
2.40153e-14
-2.83034e-10
2.04952e-10
-3.46891e-15
-2.80186e-10
2.03261e-10
7.13621e-15
-2.91731e-10
2.11014e-10
-4.01006e-14
-2.68721e-10
1.95076e-10
-4.22793e-14
-2.66534e-10
1.93578e-10
-3.04013e-10
2.19188e-10
3.56887e-12
-2.85978e-08
2.03848e-08
-9.68728e-12
-2.83259e-08
2.01987e-08
3.59482e-12
-2.93584e-08
2.0945e-08
-2.16155e-11
-2.7299e-08
1.9461e-08
-3.15052e-11
-2.7123e-08
1.93681e-08
-3.04294e-08
2.17053e-08
6.37294e-10
-2.24185e-06
1.97267e-06
-1.37568e-09
-2.22136e-06
1.96067e-06
8.35394e-09
-2.31556e-06
2.03878e-06
-5.36694e-09
-2.12208e-06
1.86594e-06
-1.87729e-08
-2.10281e-06
1.8405e-06
-2.41365e-06
2.12629e-06
1.36134e-07
-0.000106532
7.66169e-05
-4.48638e-08
-0.000105541
7.63035e-05
9.70333e-07
-0.000110167
7.82891e-05
-4.62286e-07
-0.000100365
7.37953e-05
-2.17277e-06
-9.86267e-05
7.26424e-05
-0.0001153
8.09391e-05
3.1984e-06
-0.0294497
-0.00205604
1.18752e-06
-0.0292902
-0.00203756
-2.7482e-05
-0.0298232
-0.00209715
1.1702e-05
-0.0287804
-0.00198599
6.48494e-05
-0.0284451
-0.00197385
-0.0305791
-0.00216218
-4.23515e-06
-4.60582e-06
-0.0904611
1.67205e-05
-4.5802e-06
-0.090176
-0.000115598
-4.70308e-06
-0.0910727
7.01613e-05
-4.43045e-06
-0.089304
0.000341532
-4.33272e-06
-0.0880248
-4.90125e-06
-0.093036
8.86742e-10
2.13053e-05
6.04485e-09
2.1425e-05
2.78857e-08
2.23198e-05
5.59609e-09
2.07463e-05
-7.55907e-08
2.02412e-05
2.34135e-05
-7.88119e-28
-3.5269e-20
6.85127e-22
8.8802e-28
-3.49608e-20
6.79881e-22
1.84421e-27
-3.56076e-20
6.93218e-22
1.88753e-27
-3.45918e-20
6.70318e-22
1.37631e-27
-3.49907e-20
6.7852e-22
-3.58948e-20
6.98869e-22
9.35194e-25
-6.14942e-18
1.68269e-19
1.3088e-24
-6.08763e-18
1.66797e-19
1.45194e-24
-6.19805e-18
1.69883e-19
1.34082e-24
-6.04106e-18
1.65037e-19
1.06515e-24
-6.10505e-18
1.66941e-19
-6.25434e-18
1.71257e-19
2.18403e-22
-1.45561e-17
1.57609e-17
3.19661e-22
-1.4406e-17
1.56022e-17
3.68946e-22
-1.46749e-17
1.58852e-17
3.30072e-22
-1.42934e-17
1.54829e-17
2.30571e-22
-1.44319e-17
1.56471e-17
-1.48349e-17
1.603e-17
4.64675e-20
-1.6811e-15
1.3617e-16
6.20504e-20
-1.68752e-15
1.34342e-16
6.95769e-20
-1.74166e-15
1.35168e-16
4.95549e-20
-1.60182e-15
1.36513e-16
2.9829e-20
-1.57395e-15
1.38715e-16
-1.81687e-15
1.34923e-16
6.46827e-18
6.31069e-13
1.75758e-14
2.6544e-18
6.07522e-13
1.7399e-14
3.11357e-18
6.25724e-13
1.87075e-14
-3.39081e-18
6.22963e-13
1.60946e-14
-3.03716e-18
6.46154e-13
1.59483e-14
6.27522e-13
2.0494e-14
6.17143e-17
1.94959e-10
7.07435e-12
-3.68861e-15
1.93307e-10
6.93646e-12
-2.98642e-15
2.00676e-10
7.04885e-12
-5.35682e-15
1.85671e-10
7.02857e-12
-2.46352e-15
1.84439e-10
7.12667e-12
2.08348e-10
7.13422e-12
-1.46966e-13
2.25225e-08
9.90761e-10
-1.71785e-12
2.2356e-08
9.76334e-10
-1.20272e-12
2.32115e-08
9.87558e-10
-1.96443e-12
2.13773e-08
9.88274e-10
-3.2231e-13
2.11592e-08
1.0004e-09
2.41294e-08
9.96993e-10
7.58186e-11
1.9125e-06
6.91742e-08
-3.84225e-10
1.90202e-06
6.8219e-08
-6.48066e-10
1.98149e-06
6.76434e-08
-5.62355e-10
1.80466e-06
7.0999e-08
7.65759e-10
1.7785e-06
7.22656e-08
2.07001e-06
6.75386e-08
4.06219e-08
7.36133e-05
3.67277e-06
-4.0956e-08
7.34912e-05
3.6032e-06
-3.51442e-07
7.59024e-05
3.52749e-06
-5.37561e-09
7.00936e-05
3.87791e-06
6.18988e-07
6.85528e-05
3.89735e-06
7.89571e-05
3.57503e-06
1.82773e-06
-0.00204125
2.95276e-05
-4.00624e-06
-0.00201366
2.946e-05
-3.74175e-05
-0.00204069
2.77496e-05
4.46452e-06
-0.00202045
3.24418e-05
6.62896e-05
-0.00203087
3.15626e-05
-0.00206694
2.60965e-05
-3.68809e-05
-0.167865
-0.0216793
-3.78111e-05
-0.167172
-0.0215048
-0.000262147
-0.167852
-0.0216045
4.56457e-05
-0.167394
-0.0216982
0.000859363
-0.165943
-0.0217169
-0.17003
-0.0218508
-0.000329258
-0.375076
4.11121e-05
-0.374463
-4.42543e-06
-0.376304
-3.35801e-05
-0.372924
0.00102176
-0.368457
-0.382377
8.18889e-13
-1.56389e-08
-3.6344e-08
3.4114e-13
-1.55944e-08
-3.6355e-08
7.36001e-14
-1.56098e-08
-3.63529e-08
-2.30685e-13
-1.56062e-08
-3.63544e-08
-8.53191e-13
-1.55743e-08
-3.63589e-08
-1.56467e-08
-3.63445e-08
1.62594e-13
3.66086e-16
-3.21162e-09
6.20632e-14
4.00938e-16
-3.15616e-09
7.964e-15
4.11554e-16
-3.1752e-09
-4.83583e-14
4.02404e-16
-3.17251e-09
-1.6547e-13
4.00026e-16
-3.13657e-09
4.09634e-16
-3.22276e-09
-7.31553e-21
3.9708e-17
-3.03031e-21
4.34813e-17
-5.90138e-22
4.46371e-17
2.27303e-21
4.36456e-17
8.50813e-21
4.3387e-17
4.44387e-17
3.16774e-11
-7.74215e-07
-1.3875e-07
1.01176e-11
-7.7253e-07
-1.38709e-07
-3.92031e-12
-7.73125e-07
-1.38722e-07
-1.82607e-11
-7.73038e-07
-1.38722e-07
-3.89212e-11
-7.71903e-07
-1.38701e-07
-7.74564e-07
-1.38768e-07
1.12074e-12
2.06939e-15
-8.38271e-14
3.37296e-13
2.26631e-15
-7.63949e-14
-8.78234e-14
2.32644e-15
-7.76801e-14
-5.141e-13
2.2747e-15
-7.50133e-14
-1.38283e-12
2.26126e-15
-7.19127e-14
2.31574e-15
-8.16806e-14
-3.84285e-20
6.48376e-16
-1.25079e-20
7.10036e-16
1.02579e-21
7.28888e-16
1.5407e-20
7.1267e-16
4.96941e-20
7.08446e-16
7.25561e-16
4.07416e-12
-1.11687e-11
-2.35237e-08
1.15593e-13
-1.02506e-11
-2.35154e-08
-3.21271e-12
-1.03976e-11
-2.35076e-08
-5.79173e-12
-1.00441e-11
-2.34964e-08
-7.77938e-12
-9.67392e-12
-2.34952e-08
-1.0868e-11
-2.35078e-08
7.32678e-18
1.17823e-14
-1.12643e-11
1.17804e-18
1.29047e-14
-1.03399e-11
-1.73268e-18
1.32469e-14
-1.04885e-11
-4.12407e-18
1.2952e-14
-1.01321e-11
-9.9435e-18
1.28756e-14
-9.7587e-12
1.31848e-14
-1.09629e-11
-2.38727e-19
7.86765e-16
-5.2055e-20
8.72942e-16
4.17049e-20
8.99189e-16
1.16852e-19
8.76487e-16
3.05314e-19
8.70602e-16
8.94382e-16
8.58876e-15
-4.25983e-11
-2.59284e-08
1.42192e-15
-3.97123e-11
-2.59217e-08
-2.0761e-15
-4.01802e-11
-2.59154e-08
-8.36416e-15
-3.90527e-11
-2.59056e-08
-1.90717e-14
-3.78738e-11
-2.59024e-08
-4.16399e-11
-2.59118e-08
7.88164e-16
5.32262e-15
-8.00957e-12
1.79979e-16
5.90681e-15
-7.35101e-12
-9.74626e-17
6.08421e-15
-7.45681e-12
-3.1919e-16
5.93062e-15
-7.20304e-12
-8.6831e-16
5.89102e-15
-6.93742e-12
6.05073e-15
-7.79464e-12
-1.396e-19
-1.84128e-14
-1.52641e-20
-1.84e-14
4.20959e-20
-1.84049e-14
8.10248e-20
-1.84026e-14
1.82717e-19
-1.83996e-14
-1.84109e-14
7.84407e-13
-1.23052e-10
5.91682e-09
6.90467e-13
-1.24164e-10
5.87496e-09
8.49804e-13
-1.23954e-10
5.85569e-09
2.09262e-13
-1.23937e-10
5.842e-09
-1.2556e-12
-1.24173e-10
5.88327e-09
-1.23044e-10
5.91284e-09
1.01773e-15
-4.68713e-13
-1.31321e-10
2.12545e-16
-4.70117e-13
-1.31772e-10
-9.57065e-17
-4.69835e-13
-1.31668e-10
-4.33082e-16
-4.70017e-13
-1.31396e-10
-1.14053e-15
-4.7043e-13
-1.31367e-10
-4.68773e-13
-1.31098e-10
8.27499e-19
-4.87131e-13
2.64109e-20
-4.88523e-13
-2.14683e-19
-4.88246e-13
-5.25457e-19
-4.88425e-13
-1.06245e-18
-4.88835e-13
-4.87191e-13
2.92475e-12
6.97717e-10
-9.86632e-08
3.71478e-12
6.9972e-10
-9.8583e-08
5.60021e-12
6.99698e-10
-9.86391e-08
3.8813e-12
6.9959e-10
-9.86316e-08
-2.33615e-12
6.99674e-10
-9.86443e-08
6.98066e-10
-9.86567e-08
-5.74022e-14
8.66503e-11
-2.49481e-09
-5.85252e-14
8.69039e-11
-2.4941e-09
-3.07831e-14
8.68346e-11
-2.49549e-09
-3.09069e-14
8.68343e-11
-2.49555e-09
-3.83688e-14
8.68599e-11
-2.49565e-09
8.6819e-11
-2.49483e-09
4.12881e-16
-2.10355e-11
6.40012e-17
-2.10645e-11
-8.48014e-17
-2.10622e-11
-2.63782e-16
-2.10618e-11
-4.98634e-16
-2.10665e-11
-2.10571e-11
1.22093e-10
1.0997e-07
-5.93969e-07
7.54629e-11
1.10358e-07
-5.89914e-07
1.45187e-10
1.10216e-07
-5.91957e-07
1.32842e-10
1.10185e-07
-5.92281e-07
1.69544e-11
1.10242e-07
-5.9156e-07
1.10105e-07
-5.92504e-07
-1.03335e-11
1.08162e-08
-6.29773e-08
-5.23876e-12
1.08528e-08
-6.28811e-08
-4.10643e-12
1.08406e-08
-6.29703e-08
-1.74217e-12
1.08403e-08
-6.29961e-08
1.06629e-12
1.0844e-08
-6.29749e-08
1.08366e-08
-6.29617e-08
-6.83656e-14
-4.03521e-10
-5.15086e-14
-4.07646e-10
-4.22537e-14
-4.06744e-10
-3.17309e-14
-4.0672e-10
3.38568e-14
-4.07757e-10
-4.05892e-10
-8.21291e-10
4.85245e-06
-3.73354e-05
7.36402e-09
4.86952e-06
-3.74177e-05
4.03442e-09
4.86107e-06
-3.73872e-05
2.22341e-09
4.85752e-06
-3.74022e-05
-2.01263e-09
4.85782e-06
-3.73964e-05
4.85543e-06
-3.74194e-05
4.46391e-10
4.55898e-07
3.71516e-06
5.20288e-11
4.5707e-07
3.72949e-06
3.02e-11
4.5643e-07
3.72228e-06
5.2724e-11
4.55453e-07
3.71967e-06
-3.93511e-10
4.5469e-07
3.72085e-06
4.55354e-07
3.71724e-06
1.39421e-11
4.04145e-07
6.34552e-13
4.05318e-07
1.46051e-12
4.04654e-07
1.45324e-12
4.0369e-07
-5.24374e-12
4.02919e-07
4.03582e-07
-1.1986e-06
0.000112332
-0.000336988
-6.28869e-08
0.000113325
-0.000336423
-4.7198e-08
0.000112815
-0.000336651
-5.49829e-08
0.000112667
-0.000336669
2.03031e-07
0.000112805
-0.000336465
0.000112579
-0.000336918
-1.80525e-07
3.58452e-05
7.00625e-05
-9.77834e-09
3.6072e-05
7.04419e-05
1.83801e-08
3.59518e-05
7.02166e-05
-1.19557e-08
3.58884e-05
7.01948e-05
1.10183e-08
3.59047e-05
7.0252e-05
3.58739e-05
7.00991e-05
-7.22145e-09
1.90816e-05
-6.45726e-10
1.91656e-05
3.24935e-10
1.91088e-05
-1.13842e-09
1.90562e-05
-8.53678e-11
1.90485e-05
1.90489e-05
-7.34928e-06
-7.16036e-05
-0.0947637
-5.6962e-07
-7.29477e-05
-0.0949905
1.29055e-06
-7.29505e-05
-0.0949011
4.25854e-07
-7.39938e-05
-0.0948685
4.46858e-06
-7.4517e-05
-0.0949027
-7.38337e-05
-0.0948518
2.72523e-10
1.22813e-05
-9.30969e-06
-4.78252e-10
1.23147e-05
-9.39602e-06
-1.41373e-09
1.22353e-05
-9.36482e-06
-1.07659e-09
1.21208e-05
-9.3534e-06
4.98032e-09
1.21868e-05
-9.37638e-06
1.21183e-05
-9.30451e-06
-8.59748e-09
2.27781e-05
-1.01599e-09
2.36686e-05
-1.89697e-09
2.44153e-05
1.51697e-09
2.47348e-05
2.19659e-08
2.52982e-05
2.47563e-05
-0.00018494
-0.000977971
-0.0911976
3.82798e-05
-0.000987437
-0.0913535
4.2455e-05
-0.00098282
-0.0912865
5.80642e-06
-0.000984478
-0.0912953
0.000103465
-0.000991856
-0.0913229
-0.00097612
-0.0912523
3.56007e-08
-0.000636955
-0.000341513
1.64341e-08
-0.000639513
-0.000343761
2.5078e-08
-0.000638484
-0.000342283
1.8187e-08
-0.000638535
-0.000344162
-9.11849e-10
-0.00064013
-0.000348916
-0.000636921
-0.000337499
3.09251e-07
1.67303e-22
1.03908e-07
-6.01965e-17
6.41589e-08
-5.94284e-17
1.65934e-07
-5.99568e-17
6.2515e-07
-6.26626e-17
-5.68358e-17
-0.00027449
-0.0100056
-0.03425
5.27211e-06
-0.0100692
-0.0339445
8.36368e-05
-0.0100242
-0.0340742
1.435e-05
-0.0100857
-0.0340843
-6.74889e-05
-0.0102278
-0.0338706
-0.00988045
-0.0343576
-6.19776e-08
5.96589e-17
-0.0103471
-3.41607e-08
6.02268e-17
-0.010413
4.54511e-08
5.94538e-17
-0.0103665
6.28936e-08
5.99778e-17
-0.0104299
-1.19831e-07
6.26663e-17
-0.0105765
5.6854e-17
-0.0102181
-2.68586e-25
4.94788e-23
-9.28837e-26
6.24909e-23
3.79733e-25
6.75324e-23
3.47046e-26
6.91563e-23
-5.71026e-26
6.69076e-23
4.76803e-23
-0.000410426
-0.000469548
-0.618702
0.564586
-0.000375342
-0.000460258
-0.618932
0.563572
-0.000454249
-0.000457556
-0.619097
0.564339
-0.000311807
-0.000481052
-0.619296
0.56462
0.000935281
-0.000481584
-0.619869
0.562363
-0.000438842
-0.61789
0.567399
-1.36657e-07
-0.000243624
-0.000259978
7.20967e-05
-5.60807e-09
-0.000235296
-0.000259028
7.17574e-05
1.17581e-07
-0.000232446
-0.000259079
7.17412e-05
-1.42831e-07
-0.000254691
-0.000260846
7.25789e-05
3.32841e-08
-0.000253822
-0.000261658
7.07945e-05
-0.000212649
-0.00025906
6.99755e-05
-5.23094e-07
1.17965e-23
0.000104808
3.43923e-09
4.56308e-24
9.23867e-05
7.11296e-07
2.13946e-23
9.20445e-05
-6.20197e-07
9.20051e-24
0.000121198
-1.22792e-06
4.87332e-24
0.000140592
7.97789e-24
8.29229e-05
-0.000137922
-0.00293652
-0.684717
-0.000247806
-0.0029382
-0.685103
-0.000962427
-0.00293923
-0.685175
-9.54946e-05
-0.00294542
-0.684507
0.00220165
-0.0029636
-0.684934
-0.00293067
-0.68412
-2.32415e-07
2.22588e-23
-0.00319627
-1.88128e-08
8.84021e-24
-0.00319745
2.87572e-07
4.15101e-23
-0.00319861
5.2316e-08
1.72759e-23
-0.00320603
2.10063e-07
9.1836e-24
-0.00322541
1.5477e-23
-0.00318952
4.75039e-26
1.34914e-23
-4.08475e-27
3.58273e-24
-3.66552e-25
4.18212e-23
9.41974e-27
1.39122e-24
1.98342e-25
8.58127e-24
1.44332e-23
-0.00011427
-0.0390375
-0.611661
-0.000118796
-0.0390739
-0.611712
-0.000260551
-0.0390637
-0.611745
3.76982e-05
-0.0391647
-0.611355
0.000986881
-0.0394205
-0.610948
-0.0388817
-0.612035
-1.66288e-06
1.55095e-23
-0.0422321
-1.60898e-06
4.15358e-24
-0.0422714
-3.96766e-06
4.83867e-23
-0.04226
-3.87239e-07
5.56635e-23
-0.0423743
1.01711e-05
9.94834e-24
-0.0426565
1.66286e-23
-0.042061
7.4413e-27
3.91457e-23
2.56181e-26
4.9194e-23
5.62564e-28
5.32126e-23
4.24266e-27
5.44967e-23
-4.53727e-27
5.21846e-23
3.80108e-23
-1.68627e-05
-0.0702181
-0.392682
-1.99023e-05
-0.0703068
-0.392664
3.52193e-05
-0.070427
-0.392646
3.79471e-05
-0.0700797
-0.392568
0.000119677
-0.0700079
-0.392319
-0.0704695
-0.392724
-3.58873e-05
8.68909e-23
-0.078045
-1.96128e-05
1.0978e-22
-0.0781561
-4.38612e-05
1.18575e-22
-0.0780994
-4.62213e-06
1.21303e-22
-0.0782275
0.000180686
1.17175e-22
-0.0785692
8.41451e-23
-0.0777294
1.07096e-25
2.70648e-23
3.37251e-26
3.40829e-23
2.50096e-26
3.68643e-23
5.79044e-26
3.76442e-23
-1.37783e-25
3.60705e-23
2.62943e-23
6.70788e-05
-0.0176727
-0.226338
1.4386e-05
-0.0175618
-0.226323
0.000158167
-0.0177126
-0.226367
-4.40132e-05
-0.0174227
-0.22624
-0.000748272
-0.0168227
-0.22609
-0.0182964
-0.226474
-7.49794e-05
1.67567e-22
-0.00450778
-2.04724e-05
2.11695e-22
-0.00456551
-7.55577e-05
2.28715e-22
-0.00451751
3.54204e-06
2.33741e-22
-0.00457033
0.000347798
2.25547e-22
-0.00464755
1.62028e-22
-0.004438
1.30931e-25
-1.14589e-23
4.04775e-26
-1.44927e-23
1.03954e-25
-1.56656e-23
6.70635e-27
-1.60203e-23
-5.65859e-25
-1.55188e-23
-1.10865e-23
-3.29593e-05
-0.0997649
2.86055e-05
-0.0997528
0.000196375
-0.0997778
4.61996e-05
-0.0997436
-0.000683012
-0.0996311
-0.099885
-1.61656e-05
2.41306e-22
-1.94257e-06
3.05006e-22
-1.02294e-05
3.29299e-22
-8.04347e-07
3.37216e-22
4.39179e-05
3.26113e-22
2.3263e-22
1.66541e-25
3.93527e-26
1.3736e-25
5.63831e-26
-4.987e-25
-3.70509e-28
6.16379e-22
-1.34885e-20
1.23284e-27
6.15665e-22
-1.34602e-20
1.59582e-27
6.16265e-22
-1.3468e-20
1.53735e-27
6.1232e-22
-1.34217e-20
1.27501e-27
6.00961e-22
-1.31845e-20
6.31172e-22
-1.37819e-20
-3.23827e-32
6.43904e-23
-1.07823e-21
1.44727e-28
6.43665e-23
-1.07737e-21
1.74637e-28
6.44322e-23
-1.07765e-21
1.82319e-28
6.39163e-23
-1.07186e-21
1.79137e-28
6.26637e-23
-1.04848e-21
6.59998e-23