/*--------------------------------*- C++ -*----------------------------------*\
| =========                 |                                                 |
| \\      /  F ield         | OpenFOAM: The Open Source CFD Toolbox           |
|  \\    /   O peration     | Version:  v1612+                                |
|   \\  /    A nd           | Web:      www.OpenFOAM.com                      |
|    \\/     M anipulation  |                                                 |
\*---------------------------------------------------------------------------*/
FoamFile
{
    version     2.0;
    format      ascii;
    class       volScalarField;
    location    "4.05";
    object      alpha.water;
}
// * * * * * * * * * * * * * * * * * * * * * * * * * * * * * * * * * * * * * //

dimensions      [0 0 0 0 0 0 0];

internalField   nonuniform List<scalar> 
1116
(
0.525222
0.525225
0.525225
0.525228
0.52523
0.525222
0.529502
0.529505
0.529505
0.529508
0.52951
0.529503
0.565307
0.565309
0.56531
0.565311
0.565312
0.565309
0.629808
0.629809
0.629811
0.629811
0.629812
0.629811
0.710998
0.711001
0.711003
0.711003
0.711004
0.711004
0.804838
0.804838
0.80484
0.80484
0.80484
0.804841
0.910819
0.910815
0.910816
0.910816
0.910813
0.910818
0.972994
0.972994
0.972994
0.972994
0.972994
0.972994
0.972995
0.972995
0.972995
0.972995
0.972995
0.972995
0.972995
0.972995
0.972995
0.972995
0.972995
0.972995
0.972962
0.972962
0.972962
0.972962
0.972962
0.972962
0.971546
0.971546
0.971546
0.971546
0.971546
0.971546
1.32572e-08
1.3257e-08
1.32569e-08
1.32565e-08
1.32565e-08
1.32572e-08
6.55958e-09
6.55913e-09
6.55901e-09
6.5587e-09
6.55867e-09
6.55953e-09
5.23172e-09
5.2313e-09
5.23117e-09
5.23114e-09
5.23115e-09
5.23137e-09
5.01654e-09
5.01627e-09
5.0162e-09
5.0162e-09
5.01622e-09
5.01629e-09
5.18998e-09
5.1897e-09
5.18963e-09
5.18963e-09
5.18965e-09
5.18971e-09
0.00061956
0.000620427
0.000620301
0.0006203
0.000620583
0.000620243
0.0309435
0.0309477
0.030948
0.030949
0.0309506
0.0309482
0.203741
0.203729
0.203736
0.203737
0.203732
0.203743
0.632363
0.632355
0.632357
0.632357
0.63235
0.632365
0.962119
0.962123
0.962121
0.962121
0.96212
0.962122
0.97295
0.97295
0.97295
0.97295
0.97295
0.97295
0.972895
0.972895
0.972895
0.972895
0.972895
0.972895
1.47861e-07
1.47825e-07
1.47843e-07
1.47853e-07
1.47839e-07
1.47893e-07
4.58497e-07
4.58509e-07
4.58515e-07
4.58511e-07
4.58505e-07
4.58528e-07
1.40553e-08
1.40596e-08
1.40607e-08
1.4051e-08
1.40511e-08
1.40675e-08
4.69306e-09
4.69271e-09
4.69265e-09
4.69268e-09
4.69266e-09
4.69271e-09
4.47534e-09
4.47433e-09
4.47438e-09
4.47429e-09
4.47404e-09
4.47489e-09
1.63432e-09
1.66163e-09
1.65738e-09
1.65928e-09
1.66247e-09
1.65273e-09
3.29493e-05
3.29747e-05
3.29713e-05
3.29711e-05
3.2979e-05
3.29692e-05
0.000305894
0.000306002
0.000305956
0.000305947
0.000305957
0.000305898
0.0586014
0.0585769
0.058587
0.0585855
0.058577
0.0585953
0.45324
0.453279
0.453258
0.453249
0.453253
0.453254
0.877911
0.877933
0.877918
0.877913
0.877909
0.877921
0.972877
0.972877
0.972877
0.972877
0.972877
0.972877
2.76418e-07
2.76271e-07
2.76322e-07
2.76352e-07
2.76322e-07
2.76486e-07
9.29933e-07
9.29934e-07
9.29934e-07
9.29934e-07
9.29934e-07
9.29934e-07
1.83829e-07
1.83813e-07
1.83823e-07
1.83816e-07
1.83819e-07
1.83891e-07
2.47032e-10
2.45702e-10
2.45874e-10
2.45177e-10
2.44554e-10
2.46244e-10
3.18125e-09
3.17993e-09
3.17816e-09
3.17699e-09
3.17926e-09
3.18057e-09
5.85847e-08
5.85712e-08
5.85775e-08
5.85725e-08
5.85666e-08
5.85784e-08
1.18873e-06
1.18828e-06
1.18848e-06
1.18841e-06
1.18824e-06
1.18841e-06
2.40886e-05
2.41135e-05
2.41073e-05
2.41069e-05
2.4107e-05
2.41045e-05
0.000303704
0.000303798
0.000303758
0.000303751
0.000303758
0.000303703
0.205887
0.206042
0.205992
0.205953
0.206009
0.205916
0.713371
0.713859
0.71365
0.713572
0.713735
0.713499
0.904713
0.904832
0.904781
0.904796
0.904823
0.904749
4.99252e-24
4.95773e-24
5.24064e-24
4.52839e-24
4.55884e-24
5.54495e-24
2.05962e-21
2.04385e-21
2.17212e-21
1.86416e-21
1.87501e-21
2.30445e-21
4.14273e-19
4.10835e-19
4.38943e-19
3.74318e-19
3.7615e-19
4.66789e-19
1.99715e-17
1.99079e-17
2.07551e-17
1.91884e-17
1.92283e-17
2.20632e-17
8.29814e-17
8.23661e-17
8.58387e-17
7.59102e-17
7.62496e-17
9.04951e-17
3.63119e-15
3.60462e-15
3.82219e-15
3.33164e-15
3.34175e-15
4.02341e-15
2.62137e-13
2.5968e-13
2.79244e-13
2.36435e-13
2.37279e-13
2.97933e-13
1.16674e-09
1.15894e-09
1.24749e-09
1.04459e-09
1.05542e-09
1.33042e-09
9.96767e-08
9.87348e-08
1.06595e-07
8.9729e-08
9.00208e-08
1.13833e-07
1.32358e-07
1.31212e-07
1.40796e-07
1.20148e-07
1.19933e-07
1.50129e-07
1.5508e-07
1.5348e-07
1.5749e-07
1.44982e-07
1.44088e-07
1.577e-07
1.59764e-07
1.5749e-07
1.54797e-07
1.53996e-07
1.53996e-07
1.53996e-07
2.6645e-22
2.65117e-22
2.82025e-22
2.46665e-22
2.47256e-22
2.96909e-22
1.05305e-19
1.04693e-19
1.11469e-19
9.71348e-20
9.71538e-20
1.17631e-19
1.63152e-17
1.62241e-17
1.71265e-17
1.51869e-17
1.51675e-17
1.79573e-17
3.60109e-17
3.59015e-17
3.70516e-17
3.44603e-17
3.44304e-17
3.83012e-17
1.6401e-15
1.62888e-15
1.73085e-15
1.51192e-15
1.50814e-15
1.82692e-15
2.23847e-13
2.22318e-13
2.36228e-13
2.06354e-13
2.05846e-13
2.49302e-13
2.02528e-11
2.00965e-11
2.14432e-11
1.85684e-11
1.85043e-11
2.27373e-11
1.47603e-09
1.46272e-09
1.57378e-09
1.33041e-09
1.33369e-09
1.68077e-09
1.24466e-05
1.23578e-05
1.31935e-05
1.14255e-05
1.14054e-05
1.39408e-05
0.000269097
0.000267915
0.000279128
0.000254953
0.000252235
0.000291283
1.56321e-06
1.56139e-06
1.60622e-06
1.4981e-06
1.44122e-06
1.69439e-06
1.26673e-05
1.26552e-05
1.29134e-05
1.23288e-05
1.2088e-05
1.33549e-05
6.55132e-21
6.51586e-21
6.77424e-21
6.22339e-21
6.22329e-21
7.00963e-21
2.02814e-18
2.01473e-18
2.09159e-18
1.93329e-18
1.92809e-18
2.16515e-18
1.94098e-17
1.94179e-17
1.96617e-17
1.92785e-17
1.9283e-17
2.00669e-17
4.38506e-16
4.38688e-16
4.42456e-16
4.32305e-16
4.32464e-16
4.44579e-16
4.03965e-14
4.00485e-14
4.15252e-14
3.85499e-14
3.83568e-14
4.2999e-14
4.09411e-12
4.05727e-12
4.20442e-12
3.91068e-12
3.88881e-12
4.35351e-12
4.1416e-10
4.1084e-10
4.26586e-10
3.94068e-10
3.90558e-10
4.43177e-10
2.32129e-08
2.28649e-08
2.34878e-08
2.26581e-08
2.29088e-08
2.39276e-08
1.66869e-06
1.6551e-06
1.71283e-06
1.59283e-06
1.57948e-06
1.77321e-06
0.00236691
0.00235609
0.00241059
0.00229751
0.00227884
0.00247522
0.00900369
0.0089823
0.00910411
0.00884454
0.00873171
0.0093195
2.40508e-06
2.38964e-06
2.37154e-06
2.36715e-06
2.36715e-06
2.36715e-06
2.27057e-21
2.25311e-21
2.29731e-21
2.22142e-21
2.2486e-21
2.31611e-21
5.29316e-19
5.24669e-19
5.34376e-19
5.19135e-19
5.25126e-19
5.38717e-19
3.02638e-17
2.99975e-17
3.05396e-17
2.96994e-17
3.00213e-17
3.07933e-17
3.35174e-16
3.36941e-16
3.4401e-16
3.24821e-16
3.23673e-16
3.5495e-16
2.4543e-14
2.50966e-14
2.61982e-14
2.25136e-14
2.12519e-14
2.80444e-14
1.71307e-13
1.71863e-13
1.79894e-13
1.59499e-13
1.52201e-13
1.9076e-13
-5.41752e-11
-5.54179e-11
-6.04013e-11
-4.52588e-11
-4.02262e-11
-6.79019e-11
3.59352e-09
3.53939e-09
3.56938e-09
3.51439e-09
3.51813e-09
3.57581e-09
2.76947e-07
2.72282e-07
2.74378e-07
2.77238e-07
2.8225e-07
2.73345e-07
1.64211e-05
1.61663e-05
1.62143e-05
1.65089e-05
1.67473e-05
1.61531e-05
0.0256753
0.0255657
0.0257247
0.0255223
0.0253619
0.026078
0.0664972
0.066354
0.0668837
0.0657979
0.0648672
0.0682736
1.85924e-08
1.85739e-08
1.85804e-08
1.85796e-08
1.85676e-08
1.85956e-08
3.72091e-09
3.7055e-09
3.71066e-09
3.70914e-09
3.69799e-09
3.72321e-09
-2.65449e-16
-2.90694e-16
-2.98395e-16
-2.91761e-16
-2.90033e-16
-2.97026e-16
9.27377e-07
9.2731e-07
9.27333e-07
9.2733e-07
9.27287e-07
9.27393e-07
2.07625e-08
2.02947e-08
2.04548e-08
2.04321e-08
2.01297e-08
2.08557e-08
-1.56104e-15
-1.70943e-15
-1.75481e-15
-1.71578e-15
-1.70561e-15
-1.74687e-15
2.5182e-07
2.51677e-07
2.5171e-07
2.51703e-07
2.51661e-07
2.51865e-07
1.34326e-21
1.23321e-21
1.25085e-21
1.20835e-21
1.16374e-21
1.30672e-21
-1.05443e-14
-1.15476e-14
-1.18539e-14
-1.15901e-14
-1.15215e-14
-1.17994e-14
1.81918e-11
1.70935e-11
1.73436e-11
1.67441e-11
1.61161e-11
1.74488e-11
1.82459e-11
1.67008e-11
1.69492e-11
1.63537e-11
1.57299e-11
1.77426e-11
-7.08032e-15
-7.8563e-15
-8.09242e-15
-7.88812e-15
-7.83525e-15
-8.04885e-15
2.12648e-08
2.12638e-08
2.12596e-08
2.1252e-08
2.12469e-08
2.1248e-08
5.18624e-14
5.18288e-14
5.1842e-14
5.18359e-14
5.18278e-14
5.18573e-14
1.32499e-17
1.32144e-17
1.32214e-17
1.32127e-17
1.32005e-17
1.32439e-17
1.34589e-09
1.34409e-09
1.34356e-09
1.34285e-09
1.3427e-09
1.34467e-09
1.06286e-11
1.06221e-11
1.06245e-11
1.06234e-11
1.06216e-11
1.06275e-11
5.18576e-14
5.18241e-14
5.18373e-14
5.18312e-14
5.18231e-14
5.18526e-14
3.12929e-08
3.13042e-08
3.13041e-08
3.13024e-08
3.13009e-08
3.13009e-08
4.30335e-10
4.30284e-10
4.30407e-10
4.30371e-10
4.30366e-10
4.3037e-10
1.06305e-11
1.0624e-11
1.06264e-11
1.06253e-11
1.06235e-11
1.06293e-11
1.41287e-06
1.41169e-06
1.4123e-06
1.4123e-06
1.41196e-06
1.41251e-06
3.12952e-08
3.13049e-08
3.13063e-08
3.13049e-08
3.13031e-08
3.13032e-08
4.30337e-10
4.30286e-10
4.3041e-10
4.30373e-10
4.30368e-10
4.30372e-10
3.32017e-05
3.31099e-05
3.31598e-05
3.31745e-05
3.31534e-05
3.31728e-05
1.323e-06
1.32411e-06
1.3238e-06
1.32372e-06
1.32375e-06
1.32354e-06
4.75861e-08
4.76196e-08
4.76177e-08
4.76123e-08
4.76139e-08
4.76088e-08
6.95892e-06
6.94829e-06
6.95503e-06
6.93056e-06
6.87505e-06
6.92906e-06
5.32954e-06
5.30087e-06
5.31176e-06
5.27796e-06
5.21439e-06
5.28034e-06
6.29513e-06
6.25529e-06
6.24795e-06
6.20527e-06
6.13105e-06
6.20542e-06
0.0823383
0.0827591
0.0825772
0.0825346
0.0826109
0.0824963
3.91289e-06
3.91471e-06
3.91709e-06
3.90983e-06
3.88526e-06
3.90823e-06
0.000336648
0.00033668
0.000336759
0.000336789
0.000336806
0.00033692
0.234286
0.234424
0.23436
0.23443
0.234496
0.234295
-4.77953e-12
-4.82311e-12
-4.76396e-12
-4.7872e-12
-4.97197e-12
-4.62442e-12
1.10097e-18
-6.58913e-22
-6.35362e-22
-5.15676e-22
-6.11887e-23
-5.30928e-22
0.371041
0.370931
0.371087
0.371279
0.37138
0.371195
1.04435e-05
1.0426e-05
1.0443e-05
1.04265e-05
1.00787e-05
1.00787e-05
9.58822e-05
8.92985e-05
8.78335e-05
0.000101472
0.000100677
7.92644e-05
0.430764
0.431194
0.43116
0.431111
0.432084
0.430009
3.38409e-19
3.38407e-19
-4.13388e-18
-2.29249e-18
3.38219e-19
3.47079e-19
-1.4194e-23
-5.65801e-24
-2.66406e-23
-1.0961e-23
-5.80744e-24
-1.00278e-23
0.53929
0.539328
0.539377
0.539347
0.539524
0.539111
-7.82707e-17
-1.93116e-12
-1.93639e-12
-4.28148e-12
-1.15102e-11
5.41234e-18
-2.37457e-23
-6.35068e-24
-7.40986e-23
-8.26026e-25
-1.51444e-23
-2.55775e-23
0.569946
0.569971
0.569994
0.570021
0.570035
0.570001
0.0242842
0.0243145
0.0243057
0.0243847
0.0245873
0.0241619
-7.56477e-23
-9.54559e-23
-1.0318e-22
-1.05363e-22
-1.01244e-22
-7.35861e-23
0.569971
0.569994
0.570021
0.570035
0.570035
0.570035
0.0581468
0.0582313
0.0581979
0.0582914
0.058605
0.0578648
-1.15837e-22
-1.46252e-22
-1.58096e-22
-1.6146e-22
-1.55585e-22
-1.12183e-22
0.569258
0.569306
0.569302
0.56937
0.569461
0.569219
0.00817451
0.00826501
0.00819605
0.00828235
0.00846118
0.00801726
-1.436e-22
-1.81264e-22
-1.9588e-22
-2.00483e-22
-1.93742e-22
-1.38502e-22
1.75986e-21
1.75776e-21
1.75947e-21
1.74821e-21
1.71578e-21
1.80209e-21
1.68963e-22
1.68894e-22
1.69067e-22
1.67713e-22
1.64426e-22
1.73185e-22
7.16163e-24
7.16164e-24
7.1728e-24
7.10262e-24
6.97164e-24
7.34353e-24
2.78109e-19
2.77518e-19
2.77679e-19
2.76725e-19
2.71836e-19
2.84165e-19
3.49537e-20
3.49252e-20
3.4934e-20
3.47466e-20
3.39886e-20
3.57964e-20
1.93646e-21
1.93593e-21
1.93783e-21
1.9235e-21
1.88449e-21
1.98456e-21
1.39434e-17
1.38868e-17
1.3898e-17
1.39056e-17
1.3722e-17
1.41731e-17
2.64843e-18
2.64518e-18
2.64296e-18
2.63814e-18
2.56777e-18
2.70935e-18
2.18931e-19
2.18826e-19
2.1889e-19
2.18106e-19
2.12766e-19
2.24228e-19
5.25328e-17
5.22236e-17
5.22284e-17
5.27205e-17
5.33768e-17
5.17593e-17
4.12303e-17
4.11595e-17
4.11263e-17
4.11244e-17
4.02271e-17
4.20531e-17
1.40209e-17
1.4021e-17
1.4014e-17
1.40359e-17
1.35653e-17
1.43486e-17
2.06518e-16
2.03194e-16
1.59387e-16
2.84903e-16
3.47299e-16
1.28137e-16
1.7349e-14
1.73625e-14
1.72867e-14
1.73524e-14
1.63893e-14
1.78444e-14
1.37247e-15
1.37893e-15
1.37649e-15
1.37172e-15
1.28925e-15
1.42633e-15
1.15571e-14
1.1377e-14
1.13611e-14
1.17285e-14
1.193e-14
1.13349e-14
7.01616e-13
7.02687e-13
6.97641e-13
7.03517e-13
6.81075e-13
7.19356e-13
7.71591e-14
7.72619e-14
7.6998e-14
7.69374e-14
7.4874e-14
7.90929e-14
1.47347e-12
1.45058e-12
1.45598e-12
1.48433e-12
1.48974e-12
1.46383e-12
1.15214e-13
1.13607e-13
1.12123e-13
1.14957e-13
1.09459e-13
1.1325e-13
7.74119e-14
7.75044e-14
7.72375e-14
7.71921e-14
7.51228e-14
7.93265e-14
1.48101e-10
1.45788e-10
1.46044e-10
1.49602e-10
1.50922e-10
1.47134e-10
2.7899e-12
2.70093e-12
2.63954e-12
2.80433e-12
2.63692e-12
2.62375e-12
1.15212e-13
1.13604e-13
1.12121e-13
1.14955e-13
1.09457e-13
1.13248e-13
1.17533e-08
1.16496e-08
1.17346e-08
1.14224e-08
1.14873e-08
1.19695e-08
3.98468e-10
3.81311e-10
3.67898e-10
3.98087e-10
3.59547e-10
3.59823e-10
2.06319e-08
1.97673e-08
1.98553e-08
2.03029e-08
2.00749e-08
1.84859e-08
6.63518e-07
6.52684e-07
6.51229e-07
6.69986e-07
6.73281e-07
6.56961e-07
3.48872e-05
3.19271e-05
3.06338e-05
3.60251e-05
3.22897e-05
2.59253e-05
6.1752e-06
5.99297e-06
5.89066e-06
6.26876e-06
5.96649e-06
5.73636e-06
5.18508e-05
5.1432e-05
6.36974e-05
5.37751e-05
5.42088e-05
6.34159e-05
0.00146407
0.00159535
0.00164625
0.00134498
0.00118624
0.00187065
4.62972e-20
-2.67372e-20
9.86959e-11
4.9183e-20
5.19443e-20
3.50698e-20
0.162524
0.162032
0.162917
0.161606
0.159569
0.165709
0.0012238
0.00134686
0.00145884
0.000908293
0.000557889
0.00141754
4.59395e-07
3.50118e-08
3.45085e-08
3.62352e-05
8.51586e-05
3.33908e-08
)
;

boundaryField
{
    seabed_topleft_surface
    {
        type            zeroGradient;
    }
    seabed_topright_surface
    {
        type            zeroGradient;
    }
    breakwater_top_surface
    {
        type            zeroGradient;
    }
    breakwater_left_surface
    {
        type            zeroGradient;
    }
    breakwater_right_surface
    {
        type            zeroGradient;
    }
    water_front_surface
    {
        type            zeroGradient;
    }
    water_back_surface
    {
        type            zeroGradient;
    }
    water_left_surface
    {
        type            zeroGradient;
    }
    water_right_surface
    {
        type            zeroGradient;
    }
    water_top_surface
    {
        type            inletOutlet;
        inletValue      uniform 0;
        value           nonuniform List<scalar> 
180
(
0
0
0
0
0
0
0
0
0
0
0
0
0
0
0
0
0
0
0
0
0
0
0
0
0
0
0
0
0
0
5.18576e-14
5.18241e-14
5.18373e-14
5.18312e-14
5.18231e-14
5.18526e-14
1.06305e-11
1.0624e-11
1.06264e-11
1.06253e-11
1.06235e-11
1.06293e-11
4.30337e-10
4.30286e-10
4.3041e-10
4.30373e-10
4.30368e-10
4.30372e-10
4.75861e-08
4.76196e-08
4.76177e-08
4.76123e-08
4.76139e-08
4.76088e-08
6.29513e-06
6.25529e-06
6.24795e-06
6.20527e-06
6.13105e-06
6.20542e-06
0.000336648
0.00033668
0.000336759
0.000336789
0.000336806
0.00033692
0
0
0
0
0
0
0
0
0
0
0
0
0
0
0
0
0
0
0
0
0
0
0
0
0
0
0
0
0
0
0
0
0
0
0
0
0
0
0
0
0
0
7.16163e-24
7.16164e-24
7.1728e-24
7.10262e-24
6.97164e-24
7.34353e-24
1.93646e-21
1.93593e-21
1.93783e-21
1.9235e-21
1.88449e-21
1.98456e-21
2.18931e-19
2.18826e-19
2.1889e-19
2.18106e-19
2.12766e-19
2.24228e-19
1.40209e-17
1.4021e-17
1.4014e-17
1.40359e-17
1.35653e-17
1.43486e-17
1.37247e-15
1.37893e-15
1.37649e-15
1.37172e-15
1.28925e-15
1.42633e-15
7.71591e-14
7.72619e-14
7.6998e-14
7.69374e-14
7.4874e-14
7.90929e-14
7.74119e-14
7.75044e-14
7.72375e-14
7.71921e-14
7.51228e-14
7.93265e-14
1.15212e-13
1.13604e-13
1.12121e-13
1.14955e-13
1.09457e-13
1.13248e-13
2.06319e-08
1.97673e-08
1.98553e-08
2.03029e-08
2.00749e-08
1.84859e-08
0
0
0
0
0
0
0
0
0
0
0
0
4.59395e-07
3.50118e-08
3.45085e-08
3.62352e-05
8.51586e-05
3.33908e-08
)
;
    }
}


// ************************************************************************* //
