/*--------------------------------*- C++ -*----------------------------------*\
| =========                 |                                                 |
| \\      /  F ield         | OpenFOAM: The Open Source CFD Toolbox           |
|  \\    /   O peration     | Version:  v1612+                                |
|   \\  /    A nd           | Web:      www.OpenFOAM.com                      |
|    \\/     M anipulation  |                                                 |
\*---------------------------------------------------------------------------*/
FoamFile
{
    version     2.0;
    format      ascii;
    class       volScalarField;
    location    "7.7";
    object      alpha.water;
}
// * * * * * * * * * * * * * * * * * * * * * * * * * * * * * * * * * * * * * //

dimensions      [0 0 0 0 0 0 0];

internalField   nonuniform List<scalar> 
1116
(
0.704572
0.704571
0.704571
0.704571
0.70457
0.70457
0.87369
0.873977
0.873798
0.873799
0.873918
0.873711
0.974107
0.974107
0.974107
0.974107
0.974107
0.974107
0.974115
0.974115
0.974115
0.974115
0.974115
0.974115
0.974115
0.974115
0.974115
0.974115
0.974115
0.974115
0.938756
0.938343
0.938438
0.938675
0.938517
0.938597
0.851043
0.851715
0.851879
0.850674
0.849445
0.852896
0.789163
0.790148
0.790469
0.788658
0.787962
0.791194
0.762756
0.762272
0.762715
0.762258
0.763062
0.761842
0.761004
0.759502
0.759847
0.760805
0.762243
0.758704
0.759048
0.75622
0.756356
0.759521
0.76089
0.756192
0.747412
0.746859
0.746914
0.747496
0.748057
0.747987
0.798075
0.798813
0.798399
0.798423
0.798714
0.798053
0.875322
0.875099
0.874975
0.875262
0.875487
0.874962
0.888546
0.888408
0.888403
0.888464
0.888464
0.888499
0.913567
0.912959
0.913099
0.913365
0.913447
0.913114
0.827783
0.827978
0.828019
0.827671
0.827607
0.828264
0.535974
0.538375
0.537848
0.536486
0.535496
0.5382
0.255789
0.257753
0.257382
0.256424
0.255632
0.258287
0.116965
0.118286
0.118211
0.116918
0.116408
0.11876
0.120736
0.12215
0.122247
0.12005
0.11988
0.121124
0.133091
0.132042
0.132738
0.131975
0.132394
0.131047
0.102422
0.0994186
0.099804
0.101709
0.103202
0.0998765
0.138623
0.138894
0.139417
0.138531
0.138746
0.140583
0.727534
0.725239
0.726268
0.726655
0.726594
0.72729
0.363591
0.361146
0.360242
0.363213
0.365778
0.359973
0.335894
0.332197
0.331093
0.335389
0.338
0.330471
0.354214
0.353337
0.352711
0.354235
0.354345
0.353416
0.268456
0.266693
0.266437
0.268336
0.268969
0.266525
0.133777
0.128058
0.12793
0.133108
0.136689
0.124154
0.042536
0.0434234
0.0426668
0.0422156
0.0440273
0.0413102
0.0272192
0.0253769
0.0251989
0.0277594
0.0292489
0.0216638
0.0176336
0.0179441
0.0176757
0.0181479
0.017764
0.0189102
0.0147561
0.0154789
0.0153213
0.0149126
0.014179
0.0157805
0.027236
0.0267149
0.026811
0.0274432
0.0271629
0.0263419
0.03306
0.0292846
0.0295165
0.0334427
0.0353924
0.0287355
0.186381
0.18052
0.183257
0.183874
0.18334
0.185961
9.33479e-05
9.21787e-05
8.252e-05
7.60041e-05
7.67934e-05
7.68536e-05
6.68057e-05
6.54493e-05
5.52881e-05
5.16466e-05
4.79111e-05
4.87172e-05
4.08361e-05
4.10023e-05
3.40418e-05
2.59646e-05
2.11221e-05
1.94244e-05
2.35642e-05
1.32414e-05
5.4562e-06
1.86156e-06
9.50768e-07
7.73966e-07
1.32414e-05
5.4562e-06
1.86156e-06
9.50768e-07
4.57326e-07
4.00013e-07
1.54945e-05
9.70465e-06
4.7596e-06
1.83396e-06
9.19054e-07
7.5912e-07
3.88425e-05
3.97099e-05
3.89176e-05
3.78231e-05
3.47948e-05
3.51863e-05
9.42053e-06
1.10525e-05
1.09146e-05
9.6528e-06
9.22632e-06
1.34966e-05
1.26124e-06
1.51159e-06
1.46435e-06
1.2272e-06
1.05339e-06
1.68599e-06
6.59593e-05
7.38626e-05
8.31149e-05
9.32751e-05
0.000344067
0.000224738
0.00760767
0.00688354
0.00715859
0.00779249
0.00880309
0.00721769
0.0924632
0.0924605
0.0924499
0.0923955
0.092357
0.0923476
0.0924627
0.0924699
0.0924411
0.0924024
0.0923711
0.0923483
0.0924656
0.0907195
0.0924025
0.0923737
0.0923631
0.0923535
0.0461479
0.0550636
0.0381738
0.040194
0.0777288
0.0758484
0.0554031
0.0457276
0.022282
0.00321181
0.0254617
0.0119393
0.0597078
0.0529912
0.0439214
0.0198699
0.0216169
0.0379756
0.0597578
0.0596575
0.0594601
0.0593612
0.0447586
0.0500277
0.0597677
0.0597302
0.0594237
0.0584986
0.0486893
0.0502289
0.0556123
0.0596613
0.0581371
0.0340467
0.0330997
0.0517139
0.0340701
0.0576763
0.0579871
0.0311615
0.02969
0.0583666
0.0334371
0.0484948
0.0577211
0.0477326
0.0470706
0.0583742
0.0390107
0.0390177
0.0574308
0.0576926
0.0582839
0.0583742
0.0924611
0.0924571
0.0924461
0.0924264
0.0923935
0.0923597
0.0924725
0.0724395
0.0814351
0.0923942
0.0910142
0.092349
0.0436778
0.0243818
0.0198498
0.0219548
0.0317439
0.0552395
0.0100462
0.00481125
0.00506915
0.00771133
0.0114199
0.0131381
0.000736545
0.00110677
0.00306964
0.00318485
0.0042391
0.00416368
9.50094e-07
4.8427e-07
0.00201772
0.00301481
0.00207241
0.00108898
6.2693e-08
7.32359e-08
5.96821e-08
0.000277709
0.000587681
2.33799e-08
6.82465e-07
4.61158e-08
5.68924e-08
5.09877e-08
4.06673e-08
2.90403e-08
4.07082e-05
5.53347e-08
5.10312e-08
8.41647e-08
5.09066e-08
4.06674e-08
0.00181087
0.00174189
8.41832e-08
5.6721e-08
1.11108e-06
3.99504e-07
0.00416133
0.00326451
2.91041e-05
6.24348e-06
2.36796e-05
0.00181806
0.00784841
0.00425189
0.0036958
0.00691454
0.00730815
0.00210161
0.0924651
0.0924456
0.0924264
0.0923951
0.0923654
0.0923516
0.0924728
0.0793976
0.0923951
0.0833777
0.0748859
0.0923451
0.0635245
0.0147041
0.0181845
0.00698659
0.0328896
0.0631351
0.00269573
2.1893e-05
2.39738e-05
0.000163703
0.00158552
0.00661088
2.4563e-06
9.66467e-07
9.97695e-07
0.000293592
4.05271e-06
2.02612e-06
5.61056e-08
6.8843e-08
5.27754e-08
1.82747e-05
7.22714e-08
8.61638e-08
8.18287e-09
3.89631e-08
1.6253e-08
2.03281e-09
1.13323e-09
8.94032e-09
1.48007e-08
4.43415e-08
5.52438e-08
4.67029e-08
6.35812e-08
3.5007e-08
1.56556e-08
3.37996e-08
6.31879e-08
5.72848e-08
5.76226e-07
8.97195e-05
7.99117e-07
5.45135e-08
1.2477e-07
0.000371537
0.00162075
0.000295948
1.86658e-05
0.00105356
0.00188177
0.00413933
0.00458926
2.67612e-05
0.00484302
0.00795393
0.00968687
0.00558563
0.0044729
0.0041134
0.0924489
0.0924219
0.0923952
0.0684901
0.0810489
0.0923378
0.0623036
0.0868259
0.0859075
0.048061
0.0466926
0.0166777
0.0353125
0.0187654
0.0167645
0.00701374
0.00682354
3.00519e-06
0.00107493
1.98746e-05
1.18636e-05
7.95131e-06
2.94226e-06
1.05313e-07
6.47581e-07
6.07395e-07
3.11811e-07
1.65882e-07
4.47673e-08
2.23649e-08
-2.59224e-10
2.07462e-08
8.51602e-09
1.02988e-09
5.41056e-11
7.24698e-08
2.76775e-09
7.80597e-08
2.03658e-09
1.25266e-10
5.26489e-12
2.71941e-10
3.06617e-08
5.80343e-07
1.24862e-06
2.03689e-09
1.58898e-10
1.22816e-07
2.94834e-08
6.44322e-07
4.46402e-06
5.67604e-08
1.04452e-07
3.31236e-05
5.68536e-08
3.5125e-07
3.2947e-06
3.85771e-06
2.7334e-06
7.49348e-05
3.24734e-05
2.80239e-06
3.80035e-06
0.0042717
0.00570134
3.65041e-06
0.0123136
0.0122842
0.0102276
0.0119698
0.0119698
0.0119391
0.000103567
0.000101728
0.00010144
0.000102926
0.000105389
0.000104842
0.00016265
0.000134856
0.000142178
0.000158742
0.000199796
0.000145661
0.000388136
0.000247766
0.000226388
0.000366713
0.000442513
0.000226629
9.78859e-05
9.87171e-05
9.8254e-05
9.64493e-05
0.000103538
0.000102251
0.00056767
0.00016212
0.000143997
0.000559341
0.000643418
0.000263387
0.000562727
0.000547481
0.000534549
0.000637361
0.000646903
0.000497207
0.000390645
9.95741e-05
0.000115111
0.000388514
0.000655833
0.000111983
0.000641712
0.000520781
0.000471876
0.000637184
0.000650775
0.000626249
0.000433942
0.000490906
0.000472003
0.000338155
0.000206331
0.000578779
0.00068981
0.00043688
0.000536417
0.000731004
0.00073151
0.000424763
0.000590966
0.000579723
0.000569541
0.000426735
0.000361564
0.000378358
7.06107e-18
7.80337e-05
8.35839e-05
2.71451e-25
2.30787e-25
0.000243239
0.000682083
0.000660908
0.000657345
0.000667092
0.000616843
0.000535679
4.23355e-05
6.68427e-05
0.000116282
4.12361e-12
5.86813e-12
1.339e-12
8.89733e-23
2.0459e-23
1.43839e-23
1.83334e-18
1.12951e-18
7.02509e-24
0.000105286
6.40013e-05
7.88487e-05
4.53786e-05
8.33811e-08
1.31184e-08
2.69276e-10
1.32484e-10
1.21546e-10
4.96717e-09
9.05191e-08
8.87114e-11
5.66203e-18
4.89856e-18
5.2731e-18
-1.14725e-16
-6.97938e-13
-9.58542e-16
1.05485e-06
6.42096e-07
6.18964e-07
1.0291e-06
1.35134e-06
4.6137e-07
1.86595e-08
9.49837e-09
8.82324e-09
4.21107e-08
6.83298e-08
6.47627e-09
2.62494e-10
1.31809e-10
1.21024e-10
2.45463e-10
3.73703e-10
-7.07127e-11
1.87048e-06
1.88041e-06
1.81076e-06
1.80823e-06
1.67112e-06
1.7745e-06
8.18186e-08
6.96335e-08
6.5715e-08
7.8387e-08
7.68675e-08
5.11027e-08
2.9384e-08
1.4067e-08
1.30091e-08
2.84444e-08
4.12631e-08
9.60627e-09
2.83841e-07
3.50828e-07
3.4639e-07
2.89438e-07
2.41832e-07
4.09427e-07
1.97214e-08
2.40613e-08
2.26165e-08
1.90776e-08
1.58321e-08
2.55592e-08
7.23502e-08
7.20701e-08
7.09777e-08
7.03808e-08
7.02379e-08
7.00201e-08
1.7581e-08
2.0757e-08
1.97798e-08
1.79433e-08
1.6434e-08
2.31329e-08
8.53463e-10
8.92881e-10
8.9118e-10
8.65818e-10
8.3169e-10
9.39306e-10
2.3238e-07
2.3238e-07
2.32379e-07
2.32373e-07
2.32358e-07
2.32358e-07
3.26272e-10
3.37137e-10
3.31673e-10
3.28877e-10
3.17987e-10
3.68289e-10
1.14487e-11
1.22478e-11
1.20169e-11
1.14514e-11
1.09151e-11
1.27681e-11
4.58523e-08
4.57476e-08
4.55553e-08
4.58758e-08
4.50676e-08
4.58548e-08
0.00554266
0.00586955
0.00577983
0.00543588
0.00514908
0.00576969
1.18148e-13
1.22888e-13
1.20899e-13
1.19437e-13
1.16335e-13
1.26967e-13
-1.08062e-16
-1.27542e-16
-1.50375e-16
-1.57089e-16
-1.2604e-16
7.30437e-18
0.039351
0.0390525
0.0386722
0.0384759
0.038224
0.0388921
6.96722e-28
4.07936e-28
1.08042e-28
3.64517e-28
1.11879e-27
4.80132e-28
6.40326e-13
3.5115e-13
1.01127e-13
3.52609e-13
1.02769e-12
4.847e-13
0.0413228
0.0415911
0.0417069
0.0413195
0.0410039
0.0414673
-3.17901e-16
-2.48529e-16
-2.87249e-16
-1.05239e-16
-1.78161e-15
-1.31838e-16
-5.50699e-27
-4.6961e-27
-6.30919e-27
-4.95859e-27
-8.13378e-27
-3.52448e-27
0.0426885
0.0426853
0.0426995
0.0427179
0.0427211
0.0427259
-8.18689e-16
-6.9652e-16
-1.08504e-15
-2.73845e-16
-7.28426e-15
-4.60414e-16
-8.18896e-27
-7.78773e-27
-8.44066e-27
-7.57632e-27
-1.36132e-26
-5.06772e-27
0.0421653
0.0421421
0.0421651
0.0421861
0.0422517
0.0422707
-5.70296e-16
-4.67508e-16
-7.93165e-16
-1.23261e-16
-5.03925e-15
-2.73727e-16
-6.9632e-27
-7.99364e-27
-8.74665e-27
-8.31208e-27
-9.22832e-27
-6.32298e-27
0.0418897
0.0418626
0.0418851
0.041898
0.0419591
0.0419781
-1.1435e-16
-1.04838e-16
-3.05326e-16
4.34662e-30
-2.33366e-15
-6.08488e-17
-5.27266e-27
-6.13436e-27
-6.70619e-27
-6.47561e-27
-7.10859e-27
-4.9917e-27
0.0382193
0.0382671
0.0382357
0.0381154
0.0380647
0.0382214
-5.23499e-21
-4.80937e-21
-1.39147e-20
4.22041e-17
-1.07063e-19
-2.81179e-21
1.0021e-17
9.64227e-18
9.50998e-18
9.85862e-18
1.06966e-17
1.06831e-17
0.0748285
0.0273121
0.0859779
0.0810765
0.0404706
0.066345
0.0129663
6.20443e-07
0.0165991
0.0414575
9.87808e-07
0.00405843
0.000166749
6.71012e-19
0.00265162
0.00517109
3.35758e-19
9.87808e-07
1.22454e-05
0.0482088
0.016673
0.0242748
0.0179187
1.75943e-06
5.48381e-07
0.00951269
6.1425e-08
7.82829e-07
0.00568645
3.04451e-06
5.2538e-07
-3.10821e-16
-1.65997e-13
-8.46663e-14
9.69107e-05
2.99732e-06
2.36506e-05
0.0132141
0.0045204
0.00139525
0.000110814
1.05314e-07
0.000397698
0.00218466
3.92261e-05
1.51727e-05
0.000356927
9.70402e-05
1.82833e-05
-3.96318e-13
2.26203e-08
-1.18345e-12
5.0208e-05
2.34302e-05
0.000124254
2.2159e-06
2.73626e-05
4.26132e-07
3.97726e-08
1.80171e-09
2.38065e-08
3.49339e-06
5.92082e-06
7.43354e-07
6.89821e-10
1.09063e-11
4.50494e-10
1.22619e-07
6.31766e-10
1.09523e-08
1.09063e-11
4.13835e-21
1.59562e-06
2.13959e-08
7.52473e-09
-1.72003e-11
-3.639e-12
6.61325e-11
1.94326e-08
5.72089e-10
1.51826e-10
1.30212e-11
7.21956e-13
5.52932e-12
3.18878e-12
1.87253e-11
-6.23333e-12
5.4177e-13
1.92645e-13
5.7734e-13
2.8037e-10
2.55771e-08
2.68647e-09
1.49474e-11
-1.19171e-12
5.3302e-10
4.96253e-12
2.60805e-10
1.95832e-12
1.64229e-14
1.79765e-13
4.68257e-13
3.18878e-12
2.71291e-12
4.0523e-13
1.924e-13
1.92638e-13
1.9265e-13
2.61127e-09
9.71994e-09
1.28399e-10
3.312e-12
2.64204e-12
3.0244e-12
6.72394e-10
6.14448e-11
6.97804e-11
2.45777e-12
2.87657e-12
1.4141e-12
3.78591e-11
1.50519e-11
5.04426e-12
2.25212e-11
2.53544e-12
6.12519e-13
2.42045e-09
2.52402e-08
9.84295e-08
6.09094e-10
5.033e-12
8.15682e-11
6.74208e-10
4.14716e-10
3.76823e-10
3.86184e-09
4.65699e-10
2.47006e-12
7.42122e-10
1.08362e-08
8.28619e-09
2.11172e-09
8.81857e-11
3.58523e-10
7.89655e-09
4.62366e-08
7.80765e-07
1.91142e-08
4.60441e-10
2.95191e-08
2.66171e-07
7.4597e-07
7.21818e-07
9.33194e-08
1.46825e-10
2.65622e-08
3.42334e-08
1.83764e-07
8.57772e-08
1.28255e-08
1.98543e-10
7.35935e-09
2.58539e-07
1.66637e-07
8.55181e-07
1.76797e-07
1.39034e-09
2.97203e-07
8.71242e-06
7.48055e-06
2.46542e-06
3.5489e-07
3.76661e-14
5.57613e-07
6.59579e-08
4.51869e-08
-8.97878e-19
-1.11221e-14
5.26468e-15
-1.61239e-14
6.27298e-06
2.57033e-06
1.64919e-06
1.19403e-08
-8.00522e-11
3.55311e-09
1.75196e-05
1.56749e-05
4.58381e-06
-2.8928e-14
-4.77682e-15
6.73167e-15
-1.50018e-16
-5.32032e-15
-7.76396e-15
-6.78624e-16
-2.61481e-19
-2.90983e-15
0.0118655
0.00891785
0.00679524
0.00841495
0.00899177
0.0107475
5.62723e-15
3.27919e-15
9.10885e-16
3.09715e-16
5.16784e-18
2.40383e-16
2.52297e-20
-9.75585e-18
-6.50011e-20
3.38292e-20
6.24195e-21
2.53054e-20
)
;

boundaryField
{
    seabed_topleft_surface
    {
        type            zeroGradient;
    }
    seabed_topright_surface
    {
        type            zeroGradient;
    }
    breakwater_top_surface
    {
        type            zeroGradient;
    }
    breakwater_left_surface
    {
        type            zeroGradient;
    }
    breakwater_right_surface
    {
        type            zeroGradient;
    }
    water_front_surface
    {
        type            zeroGradient;
    }
    water_back_surface
    {
        type            zeroGradient;
    }
    water_left_surface
    {
        type            zeroGradient;
    }
    water_right_surface
    {
        type            zeroGradient;
    }
    water_top_surface
    {
        type            inletOutlet;
        inletValue      uniform 0;
        value           nonuniform List<scalar> 
180
(
0.000388136
0.000247766
0.000226388
0.000366713
0.000442513
0.000226629
0.000562727
0.000547481
0.000534549
0.000637361
0.000646903
0.000497207
0
0.000490906
0.000472003
0
0
0.000578779
0
0
0
0
0
0
0
0
0
0
0
0
0
0
0
0
0
0
2.62494e-10
1.31809e-10
1.21024e-10
2.45463e-10
3.73703e-10
-7.07127e-11
2.9384e-08
1.4067e-08
1.30091e-08
2.84444e-08
4.12631e-08
9.60627e-09
7.23502e-08
7.20701e-08
7.09777e-08
7.03808e-08
7.02379e-08
7.00201e-08
0
0
0
0
0
0
0
0
0
0
0
0
0
0
0
0
0
0
0
0
0
0
0
0
0
0
0
0
0
0
0
0
0
0
0
0
0
0
0
0
0
0
0
0
0
0
0
0
0
0
0
0
0
0
0.000166749
0
0.00265162
0.00517109
0
9.87808e-07
0
0
0
0
0
0
1.82833e-05
0
2.26203e-08
0
5.0208e-05
2.34302e-05
4.50494e-10
1.22619e-07
6.31766e-10
1.09523e-08
1.09063e-11
0
3.18878e-12
1.87253e-11
-6.23333e-12
5.4177e-13
1.92645e-13
5.7734e-13
3.18878e-12
2.71291e-12
4.0523e-13
1.924e-13
1.92638e-13
1.9265e-13
3.78591e-11
1.50519e-11
5.04426e-12
2.25212e-11
2.53544e-12
6.12519e-13
7.42122e-10
1.08362e-08
8.28619e-09
2.11172e-09
8.81857e-11
3.58523e-10
3.42334e-08
1.83764e-07
8.57772e-08
1.28255e-08
1.98543e-10
7.35935e-09
0
0
0
0
0
0
0
0
0
0
0
0
0
0
0
0
0
0
)
;
    }
}


// ************************************************************************* //
