/*--------------------------------*- C++ -*----------------------------------*\
| =========                 |                                                 |
| \\      /  F ield         | OpenFOAM: The Open Source CFD Toolbox           |
|  \\    /   O peration     | Version:  v1612+                                |
|   \\  /    A nd           | Web:      www.OpenFOAM.com                      |
|    \\/     M anipulation  |                                                 |
\*---------------------------------------------------------------------------*/
FoamFile
{
    version     2.0;
    format      ascii;
    class       surfaceScalarField;
    location    "7.7";
    object      alphaPhi;
}
// * * * * * * * * * * * * * * * * * * * * * * * * * * * * * * * * * * * * * //

dimensions      [0 3 -1 0 0 0 0];

internalField   nonuniform List<scalar> 
2916
(
0.000615914
0.250931
-0.28357
-0.000211092
0.250718
-0.281899
-0.000724673
0.25082
-0.282315
-0.000566899
0.250957
-0.283107
0.000121586
0.251005
-0.283671
0.251103
-0.282959
0.00066894
0.642052
-0.294487
9.69876e-06
0.641537
-0.292946
-0.000830869
0.641761
-0.292748
-0.000214638
0.64194
-0.294385
0.00151206
0.642082
-0.295814
0.641789
-0.291656
0.000169196
0.632886
0.00901971
4.82439e-05
0.632325
0.00935616
-0.000350027
0.632624
0.00955821
-4.93257e-06
0.632662
0.00895638
0.000807735
0.632767
0.00852532
0.632565
0.0100548
-0.000612992
0.406062
0.227444
6.65829e-05
0.404215
0.227437
0.000313648
0.404977
0.227406
0.000150015
0.405364
0.227468
-0.000213829
0.405641
0.227497
0.404967
0.22739
-0.00113044
0.087822
0.319377
0.000139621
0.0818945
0.321057
0.00087294
0.0836804
0.32057
0.000163233
0.0860439
0.320036
-0.00125538
0.087458
0.319608
0.0831254
0.320593
-0.00106656
-0.18325
0.226791
8.08805e-05
-0.190129
0.226037
0.00125816
-0.188587
0.2261
0.000183989
-0.184892
0.226814
-0.00173091
-0.182677
0.226859
-0.189896
0.22619
-0.000630338
-0.351641
0.141747
-6.68089e-05
-0.35453
0.138038
0.000541234
-0.354058
0.138673
3.78214e-05
-0.351815
0.140708
0.000982989
-0.351338
0.14092
-0.35426
0.138896
0.00156415
-0.400048
0.0531168
0.000198804
-0.398565
0.0523645
-0.00112448
-0.398861
0.0527466
0.000966048
-0.399652
0.0525126
0.00589501
-0.402147
0.0522804
-0.397708
0.0555061
0.000130154
-0.354649
-0.022077
0.000141256
-0.352933
-0.0219103
-0.000152853
-0.352998
-0.0218737
0.000569215
-0.354553
-0.0222274
0.00179119
-0.357716
-0.0224818
-0.351433
-0.0207934
-0.00115194
-0.278075
-0.0472876
0.0001527
-0.280571
-0.0454104
0.00195552
-0.280128
-0.0461239
0.000185745
-0.278119
-0.0467651
-0.00423528
-0.278632
-0.0470434
-0.281683
-0.0453513
-0.0039467
-0.19835
-0.0404917
0.000687316
-0.204417
-0.0427459
0.00579945
-0.204255
-0.0428515
0.00119811
-0.198485
-0.0400072
-0.0101846
-0.195734
-0.0382966
-0.207479
-0.0450414
0.00111052
-0.133462
-0.000440699
-0.136956
-0.000796585
-0.137811
-0.000122674
-0.133129
0.00332195
-0.132622
-0.138747
0.00300092
0.488536
-0.897391
-0.000348605
0.489059
-0.888901
-9.33317e-05
0.48696
-0.891007
-0.000291503
0.489794
-0.894697
-0.00313118
0.494096
-0.897247
0.48548
-0.893237
-0.000919573
0.913572
-0.59735
4.32558e-05
0.911072
-0.593136
0.0025917
0.910646
-0.595254
0.00177859
0.913509
-0.595917
-0.00195071
0.916876
-0.595356
0.909581
-0.593881
0.000113127
1.04486
-0.106616
0.000129811
1.04324
-0.106301
-0.00043919
1.04325
-0.105744
0.000552547
1.04468
-0.107264
0.00362556
1.04624
-0.108456
1.04274
-0.102979
-0.000944152
0.954248
0.197695
1.31886e-05
0.953927
0.194972
-0.000154693
0.954056
0.19571
2.77848e-05
0.954237
0.196666
0.0018606
0.953986
0.196938
0.954357
0.196251
0.00146101
0.693507
0.167836
0.000162149
0.693747
0.171582
-0.000400935
0.692251
0.171887
0.000493175
0.694562
0.167894
0.00220715
0.69461
0.166448
0.69369
0.172746
0.00513989
0.335781
0.0257403
0.000108642
0.341355
0.0270996
-0.00342053
0.338678
0.02737
-0.000582957
0.338449
0.0256777
0.00523171
0.336505
0.0251099
0.340237
0.0277213
0.00143436
0.177583
-0.000808119
4.56728e-05
0.18349
-0.000554338
-0.00131552
0.18182
-0.000635251
-0.000651381
0.179531
-0.00073305
0.00308315
0.177548
-0.000665527
0.183749
-0.000670289
-0.000584705
0.165083
-0.00363454
4.45236e-05
0.171326
-0.00323223
-2.30927e-05
0.170362
-0.00334101
1.62667e-05
0.165565
-0.00354524
0.00129379
0.162029
-0.00361717
0.17275
-0.003427
-0.00108963
0.122597
-0.0125953
-0.000123767
0.126717
-0.0125139
-0.000402152
0.126687
-0.0126809
-0.000366076
0.122498
-0.0122868
-0.00129157
0.118337
-0.01273
0.130749
-0.0115963
-0.00322347
0.0541833
-0.0149499
9.36797e-05
0.051457
-0.0145135
0.00215136
0.0526477
-0.0145791
0.000203933
0.0540266
-0.0147105
-0.00593919
0.053914
-0.014965
0.0530368
-0.0146159
-0.00376241
0.0183241
-0.00387258
0.000879817
0.00920335
-0.00289141
0.00492838
0.0106872
-0.0029218
0.00229514
0.0181217
-0.00364382
-0.00677911
0.0240644
-0.0042671
0.00766575
-0.00288189
0.00167056
-0.0199831
0.00104032
-0.0261448
0.00114879
-0.0256503
0.00209016
-0.0194358
0.00257762
-0.0134129
-0.0260659
0.00371764
0.364831
-0.861497
0.00127767
0.36543
-0.839447
0.00346384
0.362171
-0.84761
0.0035116
0.36665
-0.853096
-0.00518372
0.373185
-0.852124
0.358926
-0.854418
-0.00248906
0.477263
-0.0633989
-0.000799589
0.472986
-0.0772008
0.00375515
0.470881
-0.0757198
0.00184719
0.476898
-0.0629861
-0.00839224
0.481286
-0.0728896
0.46799
-0.0767887
-0.00283471
0.728596
-0.00158889
-0.000481753
0.723469
-0.0017491
0.00302498
0.72123
-0.00197436
0.00057793
0.728162
-0.00143582
-0.0043512
0.732881
-0.00200685
0.71826
-0.0016167
-0.00190608
0.819972
-0.000196156
-0.00029804
0.818944
-0.0001047
0.00148128
0.817623
-0.000115217
0.000203269
0.820209
-0.000176439
-0.00279683
0.822258
-0.000188712
0.815287
-0.00011513
0.000255519
0.538494
-0.000915782
-9.75774e-05
0.532402
-0.0010749
0.000120073
0.53217
-0.000895906
0.000338155
0.538179
-0.000533726
-0.000345545
0.544964
-0.000155821
0.524981
-0.000354944
3.14289e-06
0.21456
-0.000867415
-0.000240218
0.208303
-0.000694259
0.000142943
0.206255
-0.000355111
-0.00149014
0.215298
-9.38894e-05
-0.00145146
0.224805
-3.76473e-05
0.196217
-2.05088e-05
0.00278453
0.0497227
-0.00119205
-0.000134132
0.0595101
-0.00131335
-0.00235805
0.0572128
-0.00126322
0.000793481
0.051308
-0.00131343
0.00816594
0.0478944
-0.00129373
0.0607287
-0.000692795
0.000124447
-0.00587516
0.000118335
-0.0003249
0.000723895
3.22537e-05
-0.00135143
-6.31683e-05
9.03898e-05
0.000819647
-0.00643122
0.000123298
0.00779496
-0.0120365
0.000327823
0.011675
-0.000258119
-0.00194242
-0.019937
0.000928336
-0.000136874
-0.020682
0.000994747
0.000964523
-0.0204567
0.000994867
-0.00107404
-0.0203303
0.000980208
-0.00580809
-0.0206174
0.000973697
-0.0184462
0.000991531
-0.000186915
-0.0266243
-1.11228e-06
-0.000191405
-0.0299072
2.15584e-07
-0.000276166
-0.0296908
-3.33886e-06
-0.000245496
-0.0270962
-1.71239e-05
-0.00103195
-0.0253032
-9.40299e-05
-0.0295039
-2.72978e-05
0.000744581
-0.0171664
-0.00682208
-0.000555179
-0.01756
-0.00528671
-0.00160064
-0.0172024
-0.00611641
-0.000581908
-0.0176626
-0.00853889
0.00125999
-0.0172556
-0.0115995
-0.0169141
-0.00851788
0.00183681
-0.0271007
-0.000520237
-0.0240478
-0.00230057
-0.0246041
-0.00102102
-0.0276459
0.00259269
-0.0296851
-0.0240214
0.00386758
0.0632347
-0.00055863
-0.000899622
0.0781415
-0.000536238
-0.00844542
0.0762932
-0.000513758
-0.00272298
0.0629403
-0.000522145
0.00841448
0.0726802
-0.000574107
0.0775699
-0.000492949
7.94235e-06
0.00088572
-0.00076397
-3.84744e-05
0.00144003
-0.000336767
-9.52486e-05
0.00137776
-0.000311335
-7.40745e-05
0.000894361
-0.000606318
5.45937e-05
0.000793146
-0.00115061
0.00142058
-0.000308031
9.67942e-06
0.000101861
-0.00055863
-4.0299e-06
0.000162198
-0.00027862
-1.40456e-05
0.000140487
-0.000287097
-1.85034e-05
9.52653e-05
-0.000543294
6.03956e-06
4.55454e-05
-0.00101371
0.000131243
-0.000252257
4.69953e-05
0.000142026
-4.29519e-05
4.12254e-06
0.000264442
-3.64273e-05
-3.15878e-05
0.000270885
-4.15415e-05
-2.93093e-06
0.000177806
-3.84724e-05
7.77703e-05
3.91687e-07
-7.64814e-06
0.000280677
-4.3847e-05
-3.84401e-06
2.25681e-05
-2.08477e-05
6.5516e-06
4.24652e-05
-2.13743e-05
1.41162e-05
2.86062e-05
-1.56009e-06
8.93883e-06
6.88562e-06
-3.6848e-05
1.16855e-06
6.13694e-07
-6.80712e-05
1.23941e-05
-6.68446e-05
-8.33632e-06
1.14891e-05
-6.05411e-06
-3.88814e-07
7.61769e-06
-7.72664e-06
3.92671e-06
3.04303e-06
-1.30827e-05
3.46216e-07
7.67029e-07
-3.98857e-06
-6.22691e-07
2.68577e-07
-6.98572e-07
5.65217e-07
-2.03673e-08
0.000105174
-0.00105695
0.000106335
-7.44769e-06
-0.000819117
5.5849e-05
-5.45836e-05
-0.000873688
6.78436e-05
-2.16394e-05
-0.00115292
7.75484e-05
0.00014333
-0.0014928
0.000115206
-0.000543041
6.13452e-06
-6.31843e-05
-0.00107703
7.23284e-05
1.33179e-05
-0.00109309
7.89572e-05
0.000104226
-0.00110227
8.0515e-05
5.49268e-05
-0.00113306
5.44875e-05
1.02449e-05
-0.00121332
6.92419e-05
-0.000996125
8.18705e-05
-3.63145e-05
-0.000146764
1.26417e-05
-1.1679e-05
-0.000163635
1.61115e-05
4.74153e-06
-0.000163641
1.62456e-05
-3.34345e-05
-0.000149323
1.20792e-05
-0.000153989
-0.000151007
1.10036e-05
-0.000209672
2.11306e-05
3.05884e-06
-0.000152474
-9.58915e-08
-5.75357e-06
-0.000156775
-1.11439e-07
-1.22713e-05
-0.000162393
-1.08636e-07
-7.98655e-06
-0.00017202
-1.00775e-07
-2.81848e-06
-0.000251155
-1.05449e-07
-0.000242301
-1.06246e-07
2.52069e-06
-0.00539164
-0.000220724
2.72767e-08
-0.00486481
-0.0002098
-2.3872e-06
-0.00499534
-0.00021744
-9.01835e-06
-0.00550652
-0.000235563
-1.14983e-07
-0.00625095
-0.000383924
-0.00471087
-0.000278844
0.000126001
-0.0185138
8.85203e-05
-0.0178793
9.9595e-05
-0.0180663
0.000141304
-0.0185838
7.9148e-05
-0.0188051
-0.018036
-0.0288704
0.0333032
-0.00468076
-0.02692
-0.0203174
0.0180893
-0.00317863
-0.0294324
0.00269671
8.037e-05
-0.0121573
0.00645748
0.024282
-0.0434791
0.0187925
0.0254281
-0.00119206
-0.0107962
0.0194201
0.0244451
-0.0096023
-0.0774263
0.055981
0.0333036
-0.0975561
0.0238497
0.0142058
-0.0488312
0.0540801
-0.0179186
-0.0661548
0.0543738
-0.000755265
0.00822771
-0.000342625
-0.0374442
0.0570839
0.0123081
-0.176484
0.0392015
0.0199792
-0.136837
0.02989
-0.0152024
-0.0607845
0.0464302
-0.044119
-0.0993641
0.0628923
-0.0704453
0.026051
0.0118774
-0.101568
0.0235934
0.0231025
-0.155092
0.0143469
0.0274773
-0.0784626
0.0151823
-0.0133648
-0.0127018
0.0251373
-0.0128376
-0.11336
0.0277434
-0.0755626
0.0259777
0.0105497
-0.126424
0.00450427
0.00531771
-0.122825
0.0040868
0.00332119
-0.0729505
0.00959286
-0.00715873
-0.0115955
0.00799451
-0.0030621
-0.0826805
0.0111201
-0.0758119
0.00861637
0.0211466
-0.131899
-0.00142719
0.00823985
-0.145902
-0.000962417
0.00732753
-0.136723
0.00228294
0.00391691
-0.144698
0.0130646
-0.00251345
-0.0589964
0.0067537
-0.0931138
-0.000181964
0.00553266
-0.123096
-8.94744e-05
0.00877902
-0.13452
-4.18371e-05
0.0107436
-0.120632
-0.000359459
0.0106432
-0.122552
-0.00418037
-0.00549944
-0.0906436
0.00120132
-0.0908673
-9.86795e-06
-0.0106233
-0.0982478
-7.04249e-08
-0.00989693
-0.120784
-2.95323e-06
-0.00147537
-0.112582
-7.955e-06
0.00821245
-0.10516
-1.1012e-05
0.00115694
-0.0961193
-3.12562e-05
-0.0813903
-1.54295e-06
-0.0193968
-0.07128
0.00158553
-0.0242673
-0.101169
-8.01829e-05
-0.0122366
-0.0976002
-3.56898e-06
-0.00251509
-0.0585408
-2.29824e-06
-0.00107399
-0.05631
-0.000122163
-0.0933793
-7.6681e-05
-0.0122298
-0.0500445
0.00801984
-0.0427019
-0.092571
0.0015711
-0.0274071
-0.0832951
-0.00297498
-0.0072606
-0.0411113
-0.000795561
0.00531483
-0.039517
-0.00251962
-0.0775536
-0.00147327
-0.00858345
-0.0338065
0.00268916
-0.0464051
-0.0504515
-0.000183492
-0.041327
-0.0554614
-0.00645958
0.00103338
-0.0322161
-0.024108
0.0356176
-0.0263367
-0.0291185
-0.0396252
0.00690374
-0.0088316
-0.0103248
-0.0216287
-0.0223466
-0.00921838
-0.0411608
0.00538799
-0.0363996
0.0253024
-0.0375134
-0.00510823
-0.0183401
0.0673352
-0.0540905
-0.0145132
-0.00229123
0.0159769
-0.00935624
0.0196395
-0.0236864
-0.00196729
-0.0366535
0.0332755
0.0146107
-0.038889
0.0392063
0.0661013
-0.0533051
0.0539383
0.0632624
-0.0257962
0.0106729
-0.012029
0.0908938
-0.00781458
-0.0125252
0.0744672
-0.0510664
-0.0436257
0.102194
-0.0601506
-0.0485084
0.0391619
0.0785488
-0.0644563
0.0209664
0.000441968
0.0207305
-0.00335582
-0.00709913
0.0191909
-0.0190544
-0.0108325
0.021865
-0.0305121
-0.0243353
0.00757911
-0.0520968
-0.031624
0.0193576
-0.0103936
-0.0165738
-0.00210555
0.000306223
0.00166513
-0.00624516
-0.00156573
-0.000654343
-0.00563524
-0.0105542
0.000872469
-0.0123094
-0.0117969
0.00108884
-0.0145779
-0.0158988
-0.00238568
-0.0178871
0.00149225
-0.000662403
0.00149717
-0.000192395
-0.00454355
0.000566965
-9.07319e-05
-0.00322232
-0.00592944
-8.0023e-05
-0.00111233
-0.00956999
0.00252772
9.18132e-05
-0.00746771
7.40606e-05
-0.0037002
0.000861397
-6.378e-07
9.65011e-05
-2.97299e-05
-0.000420495
4.38988e-05
-1.56366e-05
-0.0018152
4.02826e-05
-9.63989e-05
-0.00130577
-0.000859377
-7.43894e-05
0.000436271
-0.00148939
-0.000293867
9.34297e-06
-0.000233839
3.9638e-07
7.05832e-06
-9.57472e-07
-3.59306e-07
3.06801e-06
-5.55707e-07
-0.000326402
8.68983e-06
-2.18788e-06
-0.00087921
1.14379e-05
-2.75406e-05
-2.44435e-08
2.80716e-05
-1.40412e-05
6.94448e-09
-6.51726e-07
2.55475e-07
3.17174e-06
-4.03486e-08
-1.92452e-08
4.71668e-07
-1.26451e-07
-3.01089e-07
6.2293e-07
-2.13724e-07
-1.77894e-07
2.94958e-07
-3.48757e-07
-5.01044e-08
-2.7204e-06
-7.97813e-07
-5.54411e-07
-1.12676e-06
9.71062e-05
0.000554883
1.62864e-05
3.81681e-06
1.22435e-05
7.09781e-07
1.20344e-07
3.31834e-07
1.55679e-08
1.95997e-08
3.09484e-09
-3.92105e-06
1.45365e-06
-0.000111931
-1.47411e-05
-3.62407e-05
-3.96231e-05
0.000836837
-0.00165695
0.00018144
0.00314131
-0.00221914
0.000236867
9.64178e-05
-2.10402e-05
9.26399e-05
2.37575e-05
-0.00047994
-0.000243558
9.17106e-05
-0.00075425
-0.00194796
-0.00124814
-0.000171092
-0.00586209
-0.00716733
0.000454756
-0.000156087
-0.00522874
-0.000546101
2.80075e-05
-0.00484002
-0.00182398
0.000347609
-0.00671266
-0.0181893
0.000567651
-0.00872376
-0.0214058
-0.000829166
-0.00109785
0.000613108
-0.0213197
0.00113479
-0.0324153
0.00165173
-0.0464999
0.000850366
-0.0237868
-0.00101488
-0.019332
-0.00648211
0.000942097
0.0911184
-0.146831
0.0173203
0.0526837
-0.0545565
0.0130837
0.0760692
-0.0979398
0.0157492
0.0149306
0.0135831
-0.000427315
0.0296807
0.0246684
0.082497
-0.136473
0.0573428
0.111371
-0.104389
0.0303778
0.0466554
0.0348577
0.0372339
0.118934
0.0225917
-0.029111
0.0406016
0.0535556
-0.063949
0.0423523
0.00363321
0.0797957
-0.126091
0.026469
0.0298414
-0.0393992
0.00245868
0.000806543
0.0226913
0.00317308
0.000489856
0.0293423
-0.00464234
7.86228e-05
0.0179194
-0.0405633
0.0118991
0.0120439
0.0309791
-0.0152386
0.00147019
0.000219756
0.000786228
-0.000247787
0.000115469
0.00160643
-0.00048221
-8.79639e-05
0.00148457
-0.0010153
0.000121786
0.000673755
-0.00732894
0.000272248
0.000836394
-0.000604721
-0.000175867
-1.38617e-05
2.93164e-05
-9.64652e-06
-1.44856e-05
1.53657e-05
2.5285e-06
-0.000280022
8.69943e-05
2.35116e-06
-1.91971e-05
0.000246813
1.14199e-05
-1.85157e-05
0.000311534
2.9042e-06
0.00023117
-5.96228e-07
-5.18227e-07
1.02016e-06
-1.4142e-06
-6.85459e-07
5.09452e-07
-1.10425e-06
-1.07582e-05
1.73824e-06
-1.52041e-06
-9.15488e-07
2.77986e-05
-3.89932e-06
3.18305e-06
1.42833e-05
-1.37786e-06
8.74657e-07
-1.03201e-06
-7.29982e-08
1.03056e-07
-1.38229e-08
-9.78828e-08
1.08272e-08
-8.24801e-08
-5.84146e-07
4.74955e-08
-6.80784e-08
-3.40613e-07
9.96362e-08
-9.82617e-08
-7.00843e-08
2.4998e-08
-5.64375e-08
1.13475e-07
-9.82259e-09
-4.7284e-08
3.19308e-08
-5.85401e-09
-1.02035e-07
1.47936e-07
-2.42465e-07
-1.16324e-07
9.93851e-08
-7.34272e-07
-9.2322e-07
-4.62242e-08
-3.5327e-08
-1.56114e-06
-2.99104e-07
-6.94186e-08
-2.36824e-06
-2.78964e-07
1.27152e-08
1.6141e-05
9.14155e-08
-4.09847e-08
8.27265e-07
3.89095e-08
-2.91333e-06
1.95717e-06
2.4389e-07
-1.76675e-05
3.01037e-06
7.1355e-06
4.1134e-06
-5.03659e-05
1.20693e-05
-0.000411121
6.24706e-05
2.47309e-05
0.000140612
1.85151e-05
5.31588e-05
0.000183141
2.55238e-05
1.35155e-05
0.000128225
5.03998e-06
0.000952742
-0.00166393
0.000278581
0.00155516
-0.00448775
-0.00066324
7.68163e-05
0.000272269
3.03619e-05
0.000326338
0.000172895
0.000386785
-0.00280078
0.000778041
0.000305385
-0.00223267
0.0010872
0.000728094
-0.00331078
-0.0154065
0.000527187
-0.00591459
-0.0221762
0.000402479
0.000147776
0.00876683
-0.0321194
0.00892737
-0.0340071
0.00125943
-0.0309027
-0.00255175
-0.026255
-0.00746132
-0.0264721
-0.0195536
-0.000140709
0.0382536
-0.186458
0.0112881
0.043345
-0.11185
0.0193373
0.0558877
-0.164075
0.0264005
0.0325646
-0.0717665
0.00752742
0.0259414
-0.0154841
0.0373255
-0.166365
0.0575202
0.0296767
-0.00061216
0.0327969
0.0594611
-0.0617451
0.0301645
0.0731353
-0.065309
0.00721213
0.0337274
0.00412333
-0.0121386
0.0199117
-0.0166316
0.0112759
-9.2519e-05
0.0134006
0.0121527
-0.00883593
0.00753347
0.000150303
0.0135709
0.00817619
-0.000500898
0.0222712
0.00303872
3.84284e-05
0.0188139
0.00382975
-0.000744356
-0.000100994
1.81181e-06
-0.000140028
3.57084e-05
2.17202e-05
0.000484622
-5.6545e-05
3.98848e-05
0.00169859
-5.33812e-05
2.05847e-05
0.000885609
8.57152e-05
3.68006e-06
0.000499376
0.00017687
-8.00274e-07
-7.31648e-06
1.99393e-06
-7.29683e-08
-7.08973e-06
1.49458e-06
1.37172e-05
-4.44101e-06
1.38586e-06
3.3888e-05
-7.53507e-06
1.69082e-06
2.19327e-05
8.1425e-07
4.06239e-06
9.26787e-07
9.23149e-07
1.419e-06
1.085e-07
2.1167e-06
1.40377e-08
8.45919e-08
-9.57645e-09
-1.35141e-09
-4.04098e-08
-1.6572e-07
3.65733e-07
-1.03505e-07
3.32896e-09
1.38234e-07
-9.33265e-09
5.36453e-08
2.5098e-10
1.04378e-08
1.98693e-08
2.88327e-10
4.09693e-08
1.02544e-08
-2.4922e-08
2.26664e-11
1.05743e-09
-2.49783e-08
-2.21667e-07
4.00532e-08
-3.02426e-09
-9.83526e-08
2.17684e-09
-1.26916e-09
-4.62295e-08
-1.31899e-10
-7.6757e-09
-3.00912e-08
-6.18793e-11
2.64185e-08
4.90369e-11
3.59176e-09
-1.67808e-09
1.07133e-08
-1.15272e-06
-2.97813e-07
3.11469e-07
-5.22352e-07
-6.10658e-06
3.03296e-07
-1.5257e-07
-4.61772e-07
1.28503e-09
-6.40882e-07
3.89642e-07
-1.03252e-09
-4.03142e-06
-1.6171e-09
1.10978e-07
-1.02447e-07
4.13398e-08
-3.31595e-06
1.2529e-07
1.02863e-06
-4.9258e-06
-6.90095e-07
5.70361e-06
-1.50125e-06
3.26344e-06
1.05579e-07
-7.77005e-06
1.78528e-05
6.34477e-09
-8.95551e-05
3.15437e-07
1.20872e-06
1.43867e-05
2.52734e-06
2.68777e-07
1.84001e-05
6.66711e-06
-1.52418e-05
2.17777e-05
9.48061e-06
3.57069e-05
0.000238845
-3.86228e-06
5.58791e-05
-0.000622034
-1.75952e-05
6.23376e-05
-1.53752e-05
6.10303e-05
2.15047e-05
1.79013e-05
3.16589e-05
0.000819418
4.42061e-06
0.000257638
0.000880139
1.16245e-05
0.00140857
-0.0107287
-0.00213715
-4.73817e-05
-0.0156343
-0.00338487
0.000176269
-7.52705e-07
0.00358269
-0.0277367
0.00539289
-0.0270158
0.0101184
-0.022861
0.000637622
-0.021381
-0.013449
-0.0218978
-0.0267269
1.32468e-05
-0.000412965
-5.97851e-05
-5.54405e-06
-0.000378316
-1.77884e-05
-3.17364e-05
-0.000394474
-6.2155e-06
-1.96652e-05
-0.000398783
-5.93315e-05
3.62434e-05
-0.00041607
-0.000154709
-0.00040877
9.2193e-07
6.30389e-06
0.00051855
-0.000805925
-8.2619e-07
0.000328243
-0.000249515
-3.12892e-05
0.00030865
-0.000251559
-2.59824e-05
0.000465176
-0.000941145
8.53173e-05
0.000696929
-0.00199651
0.000278211
-0.000190135
-3.75029e-05
-0.00112664
1.77802e-05
-0.00106575
9.76187e-06
-0.00077947
3.7076e-05
-0.00165641
7.27867e-05
-0.00208842
-0.000528348
3.19649e-05
-9.84551e-05
-0.000474809
-5.94784e-06
-1.91435e-05
-0.000172567
-3.58444e-05
-2.87488e-05
-0.000164591
-2.32433e-05
-6.56725e-05
-0.000543473
4.15254e-05
-6.68671e-05
-0.00126092
-5.73589e-05
-0.000167868
4.33298e-05
0.00101094
-0.00295215
-5.26053e-06
0.000672989
-0.00142403
-2.75909e-05
0.000699558
-0.00109431
-5.35196e-06
0.000957872
-0.0028435
0.000130095
0.000896874
-0.00281047
0.000951518
-0.00173486
-7.36779e-05
-0.00226032
-3.22375e-06
-0.00275809
0.000184534
-0.00278521
5.70236e-05
-0.00179782
-0.000361104
-0.00153086
-0.00178216
2.30638e-05
0.000137079
-0.00294799
-6.95439e-07
0.00019244
-0.000596346
-2.30787e-06
0.000188197
-0.00100848
5.99675e-05
0.000160443
-0.00313871
0.00010753
1.99009e-05
-0.00338337
0.000252298
-0.000825237
0.000104663
3.07969e-05
-0.00254711
-1.75203e-05
0.000892889
-0.00293802
-8.13787e-05
0.00092777
-0.00226484
6.95747e-05
-5.86711e-05
-0.00230704
0.000160272
-0.000375794
-0.00239488
0.00125446
-0.00425006
4.44567e-06
-0.00024684
-2.7757e-05
-0.00122603
-2.42242e-05
-0.00116357
-7.84949e-06
-4.25502e-12
-1.78348e-05
-2.81842e-12
-0.00196184
-2.49586e-05
-0.00012986
-0.00258575
-9.12351e-06
0.000107883
-0.0020295
2.68711e-05
8.54848e-05
-0.00232288
1.73286e-05
-0.000117333
-0.00253928
5.08886e-05
-0.000311861
-0.00258428
0.000222874
-0.00185109
3.01124e-05
-0.000336672
-0.000891855
-2.98028e-05
-0.000379958
-0.000894599
-4.38512e-05
-0.000249835
-0.000714474
3.73836e-06
-5.70118e-12
-8.73673e-08
2.39071e-05
-8.49242e-12
-2.08221e-07
-0.000330405
-0.000140511
9.01009e-07
-4.37617e-11
-3.97098e-06
-1.1212e-10
-6.38447e-14
-7.70013e-11
1.64022e-15
-1.00216e-11
6.18497e-13
-1.19278e-11
-1.73855e-10
-7.85225e-05
-0.000242424
-0.00171716
-2.51445e-05
-0.000215183
-0.00123609
8.0693e-06
-0.000216202
-0.000973541
-2.98669e-05
-3.8073e-08
-0.00126473
-9.54408e-05
-1.05824e-07
-0.000552766
-1.47068e-05
-8.9656e-05
2.79099e-06
-4.39548e-10
-2.93909e-06
-8.60861e-06
-1.32994e-10
-1.86742e-06
-1.33315e-09
-1.45842e-10
-1.81101e-06
-9.39202e-10
-3.5824e-10
-1.2555e-07
-7.81385e-09
-5.68954e-10
-3.06653e-07
-6.41011e-12
-9.1287e-07
9.84353e-13
-4.84294e-10
-1.11482e-13
-2.44084e-10
-1.47929e-12
-2.21475e-10
-1.28364e-13
-3.69612e-10
3.31686e-12
-5.84327e-10
-1.77141e-10
-3.90253e-06
-4.62643e-07
-0.000177826
-2.39608e-06
-1.63763e-07
-0.000128593
8.50013e-07
-1.22928e-07
-0.000141094
-2.09463e-07
-9.33483e-07
-0.000129853
-1.35262e-07
-1.05655e-08
-0.000207439
-1.82286e-08
-8.98364e-05
4.84757e-09
-1.55242e-08
-3.39332e-06
-2.12917e-09
-7.66394e-09
-2.01788e-06
-1.69114e-08
-6.53314e-09
-1.9137e-06
-2.5834e-08
-1.1655e-08
-1.29554e-06
1.80169e-08
-2.70357e-08
-1.85774e-06
-4.74346e-09
-9.09449e-07
3.14065e-11
-1.60399e-08
-1.83108e-12
-7.87686e-09
-3.77232e-11
-6.71873e-09
-1.24526e-11
-1.20499e-08
7.77803e-11
-2.76767e-08
-4.84731e-09
-4.82776e-07
1.10278e-06
-7.66982e-05
-2.60029e-07
-5.60268e-07
-7.49598e-05
1.14261e-06
-4.51618e-07
-7.68904e-05
2.13945e-06
1.23164e-06
-5.92665e-05
2.58927e-06
2.1568e-06
-8.1978e-05
-1.33903e-06
-8.11566e-05
9.50704e-08
-1.64635e-08
-2.56508e-06
-5.89037e-09
-3.34554e-08
-2.55797e-06
-1.16129e-07
-3.10744e-08
-2.33404e-06
-5.87192e-08
-1.25342e-08
-1.6062e-06
1.37479e-07
3.05944e-09
-1.51089e-06
-2.71051e-08
-2.16585e-06
1.26079e-09
-4.88856e-08
1.23471e-10
-4.75175e-08
-1.07096e-09
-4.35015e-08
-5.18908e-10
-4.34787e-08
1.86068e-09
-4.85333e-08
-3.33801e-08
-4.49269e-06
3.68221e-06
-1.27688e-05
2.62422e-07
3.67499e-06
-1.50775e-05
5.44742e-06
3.39865e-06
-1.52736e-05
1.7049e-06
3.16143e-06
-1.22977e-05
-6.23144e-06
2.43843e-06
-1.42501e-05
3.17234e-06
-1.80872e-05
-6.98168e-08
4.08065e-07
2.44269e-07
4.22834e-08
2.50916e-07
2.04356e-07
1.46874e-07
2.36693e-07
1.9729e-07
2.24794e-08
3.84967e-07
2.29569e-07
-2.62491e-07
5.17104e-07
2.06853e-07
1.78213e-07
1.24787e-07
1.83282e-09
-3.76836e-09
7.32268e-10
-4.10626e-09
-6.58742e-10
-4.03464e-09
1.71204e-10
-3.76411e-09
-2.1335e-10
-3.70291e-09
-4.26571e-09
-5.27979e-07
1.17257e-07
-5.60705e-07
-1.10431e-08
2.2919e-07
-7.54332e-07
4.79565e-07
2.14719e-07
-7.44719e-07
-1.72139e-07
1.18857e-07
-5.47226e-07
-2.22795e-06
1.15157e-07
-4.63317e-07
3.69543e-07
-9.11646e-07
-1.42918e-08
2.92584e-07
4.4532e-08
-2.00312e-09
3.12135e-07
6.22635e-08
1.12632e-08
2.9596e-07
6.14521e-08
-4.47097e-09
2.82786e-07
4.66861e-08
-4.24762e-08
2.87416e-07
4.40498e-08
3.10868e-07
9.55083e-08
-7.06386e-10
1.21758e-08
-5.99527e-10
1.26934e-08
-3.66345e-10
1.25239e-08
-1.01034e-09
1.21665e-08
-1.08316e-09
1.19319e-08
1.3399e-08
1.10356e-08
-4.37398e-08
-6.68351e-07
4.62382e-08
-5.67797e-08
-8.98239e-07
5.63848e-08
-5.67599e-08
-8.56136e-07
3.23412e-08
-4.61306e-08
-6.2631e-07
-7.04376e-08
-4.47344e-08
-4.57721e-07
-8.56535e-08
-1.04566e-06
-5.20417e-11
-1.91704e-08
2.0086e-08
2.69315e-10
-1.96054e-08
2.52356e-08
3.60759e-10
-1.91037e-08
2.3964e-08
1.51387e-10
-1.90919e-08
1.96369e-08
-3.34129e-10
-1.79448e-08
1.71418e-08
-1.90807e-08
2.9009e-08
-9.81653e-10
7.07514e-08
-5.55076e-10
6.94213e-08
-1.83047e-10
6.97022e-08
-8.93208e-10
7.02769e-08
-1.42095e-09
7.09265e-08
6.90975e-08
-3.09738e-06
-6.1018e-08
-0.000218234
6.69712e-06
-6.63682e-08
-0.000220426
1.33737e-05
-6.51559e-08
-0.000224908
7.31094e-06
-6.1044e-08
-0.000230066
-7.44804e-06
-5.82779e-08
-0.000369564
-7.06744e-08
-0.000287267
2.43615e-12
-4.17032e-08
7.56279e-10
1.88239e-11
-4.19953e-08
8.32829e-10
2.36492e-11
-4.20224e-08
8.12942e-10
1.9437e-11
-4.21687e-08
7.54841e-10
4.44596e-13
-4.18459e-08
7.1335e-10
-4.25683e-08
8.8842e-10
3.71466e-11
7.25756e-10
-4.80434e-11
7.39471e-10
-9.99049e-11
7.31819e-10
-8.0674e-11
7.26455e-10
-5.34479e-11
7.02401e-10
7.41203e-10
-7.53438e-05
-1.46949e-09
-0.0209045
1.85932e-05
-1.56572e-09
-0.0208959
0.000106313
-1.53756e-09
-0.0208748
4.73471e-05
-1.47032e-09
-0.0208344
-0.000109891
-1.40195e-09
-0.0208867
-1.62345e-09
-0.0208112
2.4087e-13
-7.19178e-10
5.46014e-12
4.18142e-14
-7.3876e-10
5.78918e-12
-1.88284e-13
-7.30327e-10
5.66342e-12
-2.26202e-14
-7.21434e-10
5.52575e-12
4.84083e-13
-6.94723e-10
5.36596e-12
-7.40835e-10
5.98703e-12
2.93879e-12
3.6399e-12
2.05003e-14
3.62871e-12
-2.09938e-12
3.61215e-12
-7.35812e-13
3.65862e-12
3.35766e-12
3.58484e-12
3.7257e-12
0.000202171
-5.78945e-13
-0.0140992
0.0198235
0.000732287
-3.37623e-13
-0.0139675
0.0198685
0.000910489
-9.37338e-14
-0.0138041
0.0201703
4.10498e-05
-3.35511e-13
-0.0137944
0.0211185
-0.000792352
-1.01385e-12
-0.0135664
0.0207531
-4.33187e-13
-0.0140529
0.0198974
-1.57369e-16
-5.81226e-13
1.05128e-16
2.33298e-15
-8.98589e-17
-3.39043e-13
7.73499e-17
1.27552e-15
-3.93839e-16
-9.36954e-14
7.53073e-17
1.90349e-16
-7.83724e-16
-3.35249e-13
2.42415e-17
1.04074e-16
-1.44966e-16
-9.54091e-13
3.5074e-16
-6.07513e-14
-4.33476e-13
2.96009e-17
1.14239e-16
2.54323e-14
8.76049e-28
1.07061e-13
2.05665e-14
7.28643e-28
1.08773e-13
1.33275e-14
9.47158e-28
-4.54696e-15
3.23272e-14
9.1652e-28
-6.34869e-17
2.91899e-14
1.64194e-27
-1.74165e-18
7.95319e-28
-3.50167e-17
-0.000574184
1.29211e-16
-0.00794268
-0.000863237
1.09744e-16
-0.00769893
-0.000723164
1.3663e-16
-0.00745813
-0.000332099
5.04789e-17
-0.00754813
4.04785e-05
8.42166e-16
-0.0076107
5.87823e-17
-0.00755243
4.16562e-18
2.5986e-27
2.03451e-16
1.05541e-17
2.34182e-27
1.63092e-16
4.57973e-18
3.24089e-27
2.35848e-16
6.26596e-17
2.53116e-27
5.69312e-17
9.18658e-19
4.06951e-27
1.43824e-15
1.71359e-27
8.80143e-17
-1.1996e-28
7.30154e-28
-1.7371e-28
7.41252e-28
-2.63588e-28
9.04202e-28
-1.3618e-28
9.5734e-28
-9.5193e-29
1.89034e-27
7.00199e-28
-0.000224017
1.3825e-16
-0.000503439
-0.00020634
1.20275e-16
-0.000432869
-6.7858e-06
1.89953e-16
-0.000334665
2.60018e-05
4.71901e-17
-0.000236519
-5.88903e-05
1.25952e-15
-0.000192719
7.87787e-17
-0.000297386
1.28915e-17
2.21044e-27
7.35326e-17
2.67208e-17
2.12807e-27
5.95866e-17
6.16699e-18
2.29704e-27
9.70798e-17
1.26713e-16
2.04742e-27
1.41882e-17
4.93256e-18
3.67524e-27
5.39516e-16
1.35099e-27
2.91231e-17
-9.96162e-29
-5.39508e-28
-1.75148e-28
-4.74335e-28
-2.18762e-28
-4.53949e-28
-1.58732e-28
-3.53211e-28
-1.1838e-28
-5.86736e-28
-2.09351e-28
-4.88967e-05
1.11888e-16
0.00706433
-0.000158917
9.07301e-17
0.00710597
-0.000267435
1.53052e-16
0.00715073
-0.000229925
2.40125e-17
0.00716136
-4.45672e-05
9.9352e-16
0.00716366
5.34265e-17
0.00714706
2.41336e-18
2.1672e-27
9.98538e-19
8.35115e-18
2.4877e-27
5.19253e-19
1.71123e-18
2.70416e-27
8.67611e-19
5.93065e-17
2.5803e-27
-1.35543e-19
9.25324e-19
2.87802e-27
1.73093e-18
1.95138e-27
-1.00118e-18
-3.83363e-29
-1.65036e-27
-8.69654e-29
-1.88428e-27
-1.12719e-28
-2.0361e-27
-8.03464e-29
-1.91183e-27
-3.62999e-29
-2.10248e-27
-1.43454e-27
-3.2331e-05
5.40991e-17
0.0146273
-0.000144248
4.9463e-17
0.0146605
-0.000259853
1.44047e-16
0.014656
-0.000229169
-2.85404e-15
0.0145756
-5.39397e-05
1.13197e-15
0.014539
2.91985e-17
0.0145982
2.49902e-19
2.45949e-27
-3.0692e-15
7.67465e-19
2.85985e-27
-2.5631e-15
-2.14182e-19
3.11913e-27
-2.29446e-15
4.53261e-18
3.03906e-27
-2.85892e-15
-6.18853e-19
3.36586e-27
-3.3784e-15
2.34077e-27
-1.7771e-15
-1.45329e-29
-1.33937e-27
-4.17978e-29
-1.55424e-27
-6.61632e-29
-1.68731e-27
-4.98046e-29
-1.60784e-27
-1.0686e-29
-1.75084e-27
-1.22473e-27
-8.05052e-06
-9.086e-12
-1.54683e-05
-9.41193e-12
-2.51327e-05
-9.27103e-12
-4.7608e-05
-9.18054e-12
-9.52378e-05
-8.95129e-12
-9.7237e-12
7.47202e-18
-3.62895e-12
-3.70253e-16
-3.62496e-12
-7.47757e-16
-3.60967e-12
-1.79046e-16
-3.65898e-12
1.01026e-15
-3.58991e-12
-3.73747e-12
1.09538e-14
1.47103e-14
1.71913e-14
1.68354e-14
1.17672e-14
-0.0274451
-0.0596036
-9.96255e-05
0.0228064
-0.00190698
0.0127814
-0.000314452
-0.0743939
-0.005071
0.00153624
-0.0966011
0.0125671
0.0369984
-0.00193409
0.00957061
-0.0394198
-8.09301e-06
-4.97691e-05
-0.00489627
-0.00216356
0.000297066
-1.14223e-05
-0.00218707
0.000649574
-0.00314862
-0.000106345
-0.00215273
0.00301238
-0.00171074
-0.00408402
-5.63378e-06
1.25204e-05
1.5899e-05
-0.000107791
2.08115e-05
-2.21371e-05
8.32405e-05
-7.38512e-05
-0.00386586
-9.12602e-06
-0.000116047
-8.772e-05
-2.3785e-05
-9.78959e-05
-3.74628e-06
-0.000983729
-0.000125183
-7.57403e-05
-0.00722903
-0.0540935
0.0479587
0.000173224
-0.000346973
0.000330564
0.00731012
-0.00203767
-0.00543535
-4.38612e-07
-0.00888459
0.00216931
-1.02659e-05
-2.35786e-05
-0.0013755
-6.62667e-06
-0.000916872
-3.56501e-05
-0.00264685
0.00303948
-7.56234e-05
-4.58273e-07
-0.000412516
-0.00366037
-5.38358e-06
-0.000151409
-0.000161391
-0.00156634
0.000604367
-8.4577e-06
-0.000285872
-2.72064e-07
-3.91981e-05
-3.72091e-08
-9.5843e-08
-9.59945e-07
-8.66155e-06
-8.83721e-05
-5.69138e-06
-1.94853e-06
-0.000121251
-2.91671e-05
-0.00943702
-0.000271341
-0.000142432
-0.000952805
0.00256145
-0.00156105
-0.00073767
-4.27468e-05
-1.68666e-05
0.000336405
0.000342906
-0.000467749
0.000165292