/*--------------------------------*- C++ -*----------------------------------*\
| =========                 |                                                 |
| \\      /  F ield         | OpenFOAM: The Open Source CFD Toolbox           |
|  \\    /   O peration     | Version:  v1612+                                |
|   \\  /    A nd           | Web:      www.OpenFOAM.com                      |
|    \\/     M anipulation  |                                                 |
\*---------------------------------------------------------------------------*/
FoamFile
{
    version     2.0;
    format      ascii;
    class       surfaceScalarField;
    location    "3.15";
    object      alphaPhi;
}
// * * * * * * * * * * * * * * * * * * * * * * * * * * * * * * * * * * * * * //

dimensions      [0 3 -1 0 0 0 0];

internalField   nonuniform List<scalar> 
2916
(
-1.88124e-06
0.359707
-0.192943
4.18527e-06
0.359704
-0.192947
2.85566e-06
0.359706
-0.192942
-9.94709e-07
0.359708
-0.192942
1.29012e-06
0.359707
-0.192946
0.359701
-0.192938
1.67214e-06
0.706894
-0.180015
3.25982e-06
0.706895
-0.180017
2.08186e-06
0.706896
-0.180015
-7.61385e-07
0.706897
-0.180013
-1.71275e-06
0.706896
-0.180014
0.706889
-0.180017
2.72184e-06
0.956334
-0.102802
3.23603e-06
0.956339
-0.102802
2.20095e-06
0.95634
-0.102801
2.67279e-07
0.956341
-0.1028
-7.35601e-07
0.95634
-0.1028
0.956332
-0.102801
1.68244e-06
1.15673
-0.0783152
2.99022e-06
1.15674
-0.0783163
2.36608e-06
1.15674
-0.0783152
7.95205e-07
1.15674
-0.0783139
2.69493e-07
1.15674
-0.0783139
1.15673
-0.0783143
-5.25327e-08
1.32744
-0.0728766
1.71832e-06
1.32745
-0.0728784
1.19195e-06
1.32745
-0.0728771
-1.44819e-07
1.32745
-0.0728759
4.51634e-07
1.32745
-0.0728761
1.32744
-0.0728756
-1.74386e-06
1.47625
-0.0745167
-2.20757e-07
1.47626
-0.0745195
-8.01018e-07
1.47626
-0.0745182
-1.53602e-06
1.47626
-0.0745174
8.19544e-07
1.47626
-0.0745183
1.47624
-0.0745159
-5.17217e-06
1.59388
-0.068304
-2.31486e-06
1.59389
-0.0683082
-3.12139e-06
1.59389
-0.0683064
-3.16279e-06
1.59388
-0.068306
2.64359e-06
1.59388
-0.0683082
1.59387
-0.0683029
-7.2304e-06
1.5991
0.00313075
-2.94724e-06
1.59912
0.00312196
-4.21782e-06
1.59912
0.00312541
-4.02744e-06
1.59911
0.00312501
2.2246e-06
1.59911
0.00311969
1.59909
0.00313123
-4.45893e-06
1.30905
0.290065
-2.46865e-06
1.30908
0.290042
-5.25831e-06
1.30908
0.290048
-5.64474e-06
1.30907
0.290044
-3.12893e-06
1.30908
0.290031
1.30903
0.290057
-2.13113e-06
0.655585
0.653466
-2.12156e-06
0.655624
0.653457
-6.1342e-06
0.655624
0.653459
-7.84148e-06
0.65562
0.653456
-8.14844e-06
0.655637
0.653446
0.655565
0.653459
9.28889e-06
0.0410271
0.614551
1.94434e-06
0.0410636
0.61457
-1.05585e-06
0.0410662
0.614564
-3.78967e-06
0.0410654
0.61456
-1.23706e-05
0.0410871
0.614561
0.0410129
0.614542
-2.49227e-05
0.0397263
-2.10266e-05
0.0397348
-1.33427e-05
0.0397327
-3.07838e-06
0.0397306
2.36084e-05
0.0397461
0.0397111
-1.13681e-06
0.112733
-1.50171e-06
-4.26134e-07
0.112733
-1.50179e-06
4.97534e-07
0.112734
-1.50203e-06
3.45642e-06
0.112731
-1.50227e-06
4.89302e-06
0.112729
-1.50227e-06
0.112737
-1.50217e-06
4.13254e-07
0.096325
-7.52389e-06
-7.34256e-07
0.0963241
-7.52366e-06
1.85486e-06
0.0963238
-7.52393e-06
2.9855e-06
0.0963214
-7.52386e-06
-3.41948e-07
0.0963208
-7.52332e-06
0.0963262
-7.52407e-06
1.87151e-06
0.135094
-1.75806e-07
2.24408e-08
0.135094
-1.75822e-07
1.83235e-06
0.135092
-1.7581e-07
2.15999e-06
0.13509
-1.75808e-07
-2.34939e-06
0.135091
-1.75829e-07
0.135093
-1.75813e-07
3.1426e-06
0.221546
-2.8146e-07
4.41644e-07
0.221548
-2.81414e-07
2.28041e-06
0.221544
-2.81428e-07
2.44598e-06
0.221543
-2.81356e-07
-3.22481e-06
0.221545
-2.81308e-07
0.221543
-2.81479e-07
4.90412e-06
0.364296
-3.14035e-07
7.63939e-07
0.3643
-3.14031e-07
2.76683e-06
0.364293
-3.14035e-07
3.26738e-06
0.364293
-3.14017e-07
-3.75231e-06
0.364298
-3.13994e-07
0.364292
-3.13991e-07
6.39725e-06
0.582287
-2.86211e-08
6.81934e-07
0.582296
-2.86236e-08
3.34428e-06
0.582286
-2.86222e-08
4.72905e-06
0.582286
-2.86198e-08
-3.4625e-06
0.582295
-2.86175e-08
0.582285
-2.86111e-08
8.1174e-06
0.871592
-3.10479e-09
7.79949e-07
0.871613
-3.10496e-09
4.49879e-06
0.871598
-3.1048e-09
7.04004e-06
0.871599
-3.10453e-09
-2.30003e-06
0.871614
-3.10428e-09
0.8716
-3.10369e-09
9.57293e-06
1.14462
-1.95351e-08
2.74954e-06
1.14466
-1.95347e-08
6.63172e-06
1.14464
-1.95353e-08
9.01166e-06
1.14464
-1.95412e-08
5.56412e-07
1.14466
-1.95473e-08
1.14464
-1.95369e-08
1.91215e-05
1.45251
0.044716
7.5277e-06
1.45258
0.0447059
9.63799e-06
1.45255
0.0447082
1.07617e-05
1.45255
0.0447082
1.42886e-07
1.45257
0.0447073
1.45254
0.0447126
4.00225e-05
1.3813
0.433482
1.56751e-05
1.38144
0.433446
8.50467e-06
1.38139
0.433452
2.64514e-06
1.3814
0.43345
-1.89965e-05
1.38142
0.433442
1.38135
0.433468
4.33997e-05
0.71729
1.27852
1.34899e-05
0.717468
1.27857
3.48089e-06
0.717428
1.27854
-4.62172e-06
0.717422
1.27854
-2.94894e-05
0.717454
1.27856
0.717346
1.27852
-7.21063e-05
0.747388
-2.99521e-05
0.747452
-1.11847e-05
0.747433
4.29516e-06
0.747435
4.66347e-05
0.747457
0.747391
-4.30864e-12
2.73846e-08
-1.50838e-06
-2.73324e-12
2.73842e-08
-1.50847e-06
-1.01201e-12
2.73864e-08
-1.50871e-06
1.93063e-12
2.73878e-08
-1.50895e-06
5.11808e-12
2.73887e-08
-1.50895e-06
2.73923e-08
-1.50885e-06
-1.17879e-11
1.32764e-07
-7.61745e-06
-5.71539e-12
1.32758e-07
-7.61723e-06
-5.7977e-14
1.3276e-07
-7.6175e-06
6.22687e-12
1.32755e-07
-7.61743e-06
1.34732e-11
1.3275e-07
-7.61689e-06
1.32768e-07
-7.61763e-06
-8.78069e-13
1.71707e-08
-5.08672e-08
-4.21383e-13
1.71701e-08
-5.08914e-08
-8.4134e-14
1.71697e-08
-5.08766e-08
2.74539e-13
1.71681e-08
-5.08784e-08
8.70815e-13
1.7168e-08
-5.09062e-08
1.71703e-08
-5.08701e-08
-7.2317e-13
1.86936e-08
-2.78634e-07
-2.99663e-13
1.86914e-08
-2.78588e-07
8.4115e-15
1.86918e-08
-2.78602e-07
3.05988e-13
1.86885e-08
-2.78529e-07
8.27745e-13
1.86863e-08
-2.78478e-07
1.86932e-08
-2.78654e-07
-6.14187e-13
2.03898e-08
-3.15422e-07
-2.90838e-13
2.03895e-08
-3.15421e-07
-2.60441e-14
2.03895e-08
-3.15424e-07
2.49278e-13
2.03884e-08
-3.15409e-07
6.63256e-13
2.03871e-08
-3.15387e-07
2.03873e-08
-3.15376e-07
-8.28157e-14
3.52425e-09
-1.17075e-08
-4.55524e-14
3.52445e-09
-1.17106e-08
-1.05432e-14
3.52427e-09
-1.1709e-08
2.86301e-14
3.52397e-09
-1.17074e-08
7.65534e-14
3.52368e-09
-1.17061e-08
3.523e-09
-1.16986e-08
-7.12746e-15
4.55102e-10
-3.56302e-11
-6.3134e-15
4.55119e-10
-3.56279e-11
-3.29016e-15
4.55094e-10
-3.56275e-11
8.82145e-16
4.55055e-10
-3.56232e-11
6.39314e-15
4.55017e-10
-3.56194e-11
4.54942e-10
-3.5623e-11
-1.05516e-15
-1.89488e-08
-1.43435e-11
4.89208e-16
-1.89484e-08
-1.43316e-11
7.79741e-16
-1.89491e-08
-1.43354e-11
5.35566e-16
-1.8955e-08
-1.43444e-11
-1.09483e-15
-1.89612e-08
-1.43515e-11
-1.89508e-08
-1.43473e-11
5.85097e-07
0.0416264
0.00308924
2.32248e-07
0.0416174
0.00308912
1.07092e-07
0.0416195
0.00308907
4.2068e-08
0.0416195
0.00308906
-1.82082e-07
0.0416187
0.0030891
0.0416233
0.00308937
2.82306e-06
0.321923
0.0465441
1.39684e-06
0.321921
0.0465349
7.90067e-07
0.321917
0.0465363
1.43216e-07
0.321919
0.046537
-1.52321e-06
0.321921
0.0465346
0.321924
0.0465431
0.000115151
0.571343
0.654279
3.19227e-05
0.571603
0.65422
8.07082e-06
0.571517
0.654227
-4.79588e-06
0.571518
0.654228
-5.41581e-05
0.571574
0.654219
0.571417
0.654259
-0.000111991
1.25548
-2.14796e-05
1.25559
-8.85013e-06
1.25557
1.37236e-05
1.25555
9.74979e-05
1.25556
1.25556
-2.80056e-11
-8.28316e-07
-6.20425e-07
-5.86672e-12
-8.28294e-07
-6.20419e-07
5.02456e-12
-8.28349e-07
-6.2059e-07
7.92508e-12
-8.28371e-07
-6.20781e-07
1.94464e-11
-8.28325e-07
-6.20812e-07
-8.28434e-07
-6.20752e-07
-8.03765e-11
-6.70078e-07
-4.90786e-06
-8.91664e-12
-6.70002e-07
-4.90787e-06
-1.18689e-11
-6.70041e-07
-4.90805e-06
-1.02551e-11
-6.70045e-07
-4.908e-06
7.30526e-11
-6.69985e-07
-4.90758e-06
-6.7015e-07
-4.90798e-06
2.828e-13
-1.38212e-07
-6.90658e-07
9.771e-13
-1.38152e-07
-6.90762e-07
3.79763e-13
-1.38158e-07
-6.90739e-07
1.90327e-14
-1.38109e-07
-6.90804e-07
9.00707e-13
-1.38077e-07
-6.90879e-07
-1.38234e-07
-6.90706e-07
-4.66913e-12
-1.06916e-07
-1.89663e-07
-1.33414e-12
-1.06889e-07
-1.89641e-07
-3.05047e-12
-1.06888e-07
-1.89646e-07
-2.48636e-12
-1.06878e-07
-1.89594e-07
5.99383e-12
-1.0687e-07
-1.89564e-07
-1.06909e-07
-1.89676e-07
-1.20288e-11
-4.43028e-08
-2.37064e-07
-6.04776e-12
-4.4295e-08
-2.3706e-07
-6.21639e-12
-4.42944e-08
-2.37058e-07
-4.10563e-12
-4.42901e-08
-2.37037e-07
8.57165e-12
-4.4285e-08
-2.37026e-07
-4.42909e-08
-2.37057e-07
-5.74965e-13
-4.2655e-10
-7.19498e-08
-2.44666e-13
-4.26529e-10
-7.19449e-08
-1.81911e-13
-4.26481e-10
-7.19414e-08
-8.21307e-14
-4.26405e-10
-7.19337e-08
4.21825e-13
-4.26346e-10
-7.19258e-08
-4.2634e-10
-7.19237e-08
-1.14643e-15
-1.59225e-13
-4.65188e-10
-3.36471e-16
-1.59351e-13
-4.65168e-10
-7.82864e-17
-1.59431e-13
-4.65118e-10
2.31433e-16
-1.59614e-13
-4.65037e-10
1.80091e-15
-1.59827e-13
-4.64975e-10
-1.5913e-13
-4.64972e-10
1.37879e-17
2.27737e-11
-4.03695e-11
6.81159e-17
2.27795e-11
-4.03648e-11
1.06235e-16
2.2787e-11
-4.03756e-11
7.11758e-17
2.28026e-11
-4.03989e-11
1.20055e-16
2.28201e-11
-4.04206e-11
2.27675e-11
-4.03723e-11
2.13494e-08
0.00287795
0.000211868
2.51844e-08
0.00287785
0.000211863
2.66834e-08
0.0028778
0.000211864
1.15965e-08
0.0028778
0.000211871
-4.1136e-08
0.00287786
0.000211885
0.00287806
0.000211872
5.45786e-07
0.0436096
0.00568198
3.03083e-07
0.0436015
0.00568146
2.32417e-07
0.0436027
0.00568155
1.48261e-07
0.0436032
0.00568168
-6.30045e-09
0.0436009
0.00568168
0.0436093
0.00568188
2.44099e-05
0.161357
0.184787
8.56457e-06
0.161606
0.184794
9.92708e-07
0.161562
0.184789
-8.05501e-07
0.161416
0.1848
-7.31413e-06
0.161256
0.184829
0.161681
0.184767
-3.98635e-05
1.32152
1.10304e-05
1.32111
3.27475e-05
1.32115
2.14084e-05
1.3215
-6.34264e-05
1.32198
1.32079
-3.23071e-62
-4.88884e-55
1.19521e-59
-3.63348e-62
-5.06753e-55
1.23823e-59
-3.66908e-62
-5.16957e-55
1.26314e-59
-3.33523e-62
-5.28248e-55
1.29085e-59
-2.17261e-62
-5.47421e-55
1.33787e-59
-5.30871e-55
1.29795e-59
-1.39903e-57
-1.91529e-50
5.22514e-55
-1.72333e-57
-1.98494e-50
5.41108e-55
-1.86716e-57
-2.02388e-50
5.51588e-55
-1.76179e-57
-2.06685e-50
5.63219e-55
-1.13715e-57
-2.14021e-50
5.83108e-55
-2.07253e-50
5.64652e-55
-2.35296e-53
-3.36793e-46
1.14395e-50
-3.56239e-53
-3.49142e-46
1.18619e-50
-4.28135e-53
-3.55863e-46
1.20934e-50
-4.16948e-53
-3.63215e-46
1.23458e-50
-2.65648e-53
-3.75805e-46
1.27767e-50
-3.6336e-46
1.23613e-50
-3.77769e-49
-3.25352e-42
1.55282e-46
-6.93083e-49
-3.37621e-42
1.61218e-46
-8.74533e-49
-3.44032e-42
1.64379e-46
-8.87178e-49
-3.50896e-42
1.67755e-46
-6.05826e-49
-3.62658e-42
1.73468e-46
-3.49927e-42
1.6748e-46
-7.79317e-45
-1.68594e-38
1.30167e-42
-1.26738e-44
-1.75464e-38
1.35098e-42
-1.4643e-44
-1.78846e-38
1.3761e-42
-1.42608e-44
-1.82279e-38
1.40244e-42
-9.7693e-45
-1.88091e-38
1.44722e-42
-1.80949e-38
1.39194e-42
-9.04353e-41
-3.85369e-35
5.82345e-39
-1.21001e-40
-4.04881e-35
6.00948e-39
-1.2141e-40
-4.1376e-35
6.09524e-39
-1.07072e-40
-4.21614e-35
6.18706e-39
-6.92857e-41
-4.34003e-35
6.35512e-39
-4.15384e-35
6.07195e-39
-3.03574e-37
-2.70425e-32
1.11527e-35
-3.25063e-37
-2.90261e-32
1.14328e-35
-2.51659e-37
-2.98178e-32
1.15461e-35
-1.6196e-37
-3.03205e-32
1.16704e-35
-7.3754e-38
-3.09557e-32
1.19297e-35
-2.91813e-32
1.13316e-35
-2.40905e-34
-2.34223e-30
4.94087e-33
-1.43681e-34
-2.57743e-30
4.93679e-33
1.87041e-35
-2.6204e-30
4.9303e-33
1.34948e-34
-2.59198e-30
4.95313e-33
1.52375e-34
-2.54282e-30
5.05094e-33
-2.26012e-30
4.81787e-33
-3.58694e-33
-1.50447e-28
5.1423e-31
1.36877e-32
-1.41541e-28
5.3466e-31
3.21001e-32
-1.3643e-28
5.40514e-31
4.15381e-32
-1.38658e-28
5.44228e-31
3.44205e-32
-1.32225e-28
5.51333e-31
-1.10852e-28
5.12815e-31
9.93291e-31
-1.94758e-25
-2.07228e-25
2.01895e-30
-1.76408e-25
-2.01681e-25
2.66145e-30
-1.72426e-25
-1.93389e-25
2.83468e-30
-1.81836e-25
-1.92039e-25
1.98003e-30
-1.82166e-25
-1.77054e-25
-1.61537e-25
-1.40908e-25
2.57147e-27
-5.15338e-22
-6.42259e-23
3.36217e-27
-4.75471e-22
-5.06976e-23
3.58796e-27
-4.70826e-22
-4.48446e-23
3.51204e-27
-5.02722e-22
-4.2972e-23
2.4136e-27
-5.10761e-22
-3.83399e-23
-4.6083e-22
-2.91358e-23
1.5509e-25
-1.65116e-18
-1.06112e-24
-1.52712e-18
-2.43788e-24
-1.51472e-18
-3.11418e-24
-1.62055e-18
-2.22862e-24
-1.65206e-18
-1.50013e-18
-1.64547e-60
-2.95282e-53
1.23669e-57
-1.80437e-60
-3.03546e-53
1.27083e-57
-1.74907e-60
-3.07965e-53
1.28953e-57
-1.48773e-60
-3.13465e-53
1.31277e-57
-8.44426e-61
-3.23805e-53
1.35613e-57
-3.13434e-53
1.31357e-57
-9.50777e-56
-1.54194e-48
6.83998e-53
-1.11884e-55
-1.58277e-48
7.01993e-53
-1.12522e-55
-1.60394e-48
7.11521e-53
-9.505e-56
-1.63095e-48
7.23622e-53
-5.01576e-56
-1.6832e-48
7.46806e-53
-1.62674e-48
7.21938e-53
-4.11502e-51
-3.83314e-44
1.86839e-48
-5.23691e-51
-3.92877e-44
1.91622e-48
-5.26875e-51
-3.97585e-44
1.94046e-48
-4.43505e-51
-4.03781e-44
1.97174e-48
-2.4382e-51
-4.16242e-44
2.0333e-48
-4.01598e-44
1.96276e-48
-1.43954e-46
-5.84812e-40
3.2993e-44
-1.92992e-46
-5.9857e-40
3.37999e-44
-1.95187e-46
-6.04758e-40
3.41836e-44
-1.67891e-46
-6.13222e-40
3.46891e-44
-1.01543e-46
-6.31191e-40
3.57192e-44
-6.07714e-40
3.43946e-44
-3.8943e-42
-5.08835e-36
4.14874e-40
-4.97883e-42
-5.2211e-36
4.23109e-40
-4.74779e-42
-5.2754e-36
4.26398e-40
-3.88952e-42
-5.34592e-36
4.31298e-40
-2.29103e-42
-5.49748e-36
4.42548e-40
-5.2852e-36
4.24e-40
-7.42873e-38
-1.23353e-32
3.24887e-36
-7.38201e-38
-1.29697e-32
3.26609e-36
-5.64456e-38
-1.3188e-32
3.2617e-36
-3.7207e-38
-1.33771e-32
3.27516e-36
-1.83976e-38
-1.37267e-32
3.33724e-36
-1.31506e-32
3.17194e-36
-7.43682e-35
-2.84183e-30
6.55633e-33
-1.56622e-35
-3.20942e-30
6.23757e-33
9.05505e-35
-3.27252e-30
6.04127e-33
1.68498e-34
-3.24396e-30
5.94944e-33
1.64773e-34
-3.21043e-30
5.98879e-33
-2.95315e-30
5.66565e-33
2.21132e-31
7.95685e-30
-8.31138e-28
4.66887e-31
7.9893e-30
-1.16908e-27
6.62352e-31
8.13778e-30
-1.31238e-27
7.09635e-31
8.42933e-30
-1.38935e-27
5.26992e-31
8.86542e-30
-1.39061e-27
8.66788e-30
-1.20121e-27
5.76924e-29
1.42172e-27
1.70336e-28
9.31562e-29
1.4844e-27
1.37982e-28
1.07259e-28
1.51155e-27
1.36975e-28
9.8456e-29
1.52845e-27
1.52365e-28
6.36096e-29
1.55989e-27
1.83421e-28
1.46054e-27
2.09852e-28
2.73204e-26
8.78459e-25
-5.83961e-21
3.73181e-26
8.40739e-25
-5.54494e-21
3.85856e-26
8.36433e-25
-5.4516e-21
3.47223e-26
8.84834e-25
-5.68058e-21
2.09367e-26
8.90519e-25
-5.61899e-21
7.96455e-25
-4.91524e-21
4.6933e-24
3.76622e-22
-2.30844e-18
2.97665e-24
3.3079e-22
-2.00032e-18
2.98506e-25
3.17958e-22
-1.89693e-18
-1.57444e-24
3.31173e-22
-1.94926e-18
-1.78543e-24
3.28402e-22
-1.90379e-18
2.87205e-22
-1.64105e-18
-1.71252e-20
-6.50178e-16
-3.2834e-20
-6.43753e-16
-4.48385e-20
-6.43145e-16
-4.33709e-20
-6.49132e-16
-2.70009e-20
-6.50848e-16
-6.42649e-16
-4.16384e-57
-1.72065e-49
9.61726e-54
-4.40363e-57
-1.75463e-49
9.80573e-54
-3.89726e-57
-1.76244e-49
9.85003e-54
-2.63761e-57
-1.77477e-49
9.91949e-54
-9.95089e-58
-1.80869e-49
1.01095e-53
-1.71805e-49
9.60539e-54
-2.98897e-52
-1.09614e-44
6.74523e-49
-2.83487e-52
-1.11663e-44
6.87091e-49
-2.10473e-52
-1.12107e-44
6.89858e-49
-8.53733e-53
-1.12865e-44
6.94516e-49
4.24833e-53
-1.15022e-44
7.07757e-49
-1.09254e-44
6.72339e-49
-1.32139e-47
-3.02809e-40
2.31473e-44
-1.26804e-47
-3.08189e-40
2.35703e-44
-9.05722e-48
-3.09266e-40
2.36605e-44
-4.12989e-48
-3.1129e-40
2.38187e-44
6.91246e-49
-3.17217e-40
2.42748e-44
-3.01244e-40
2.30601e-44
-4.32543e-43
-4.10128e-36
4.54663e-40
-4.48341e-43
-4.17044e-36
4.62625e-40
-3.43089e-43
-4.18321e-36
4.64225e-40
-2.31213e-43
-4.20997e-36
4.67257e-40
-1.21003e-43
-4.2892e-36
4.76119e-40
-4.0708e-36
4.5198e-40
-8.39408e-39
-2.44727e-32
4.64228e-36
-6.95298e-39
-2.48671e-32
4.71172e-36
-2.96052e-39
-2.49384e-32
4.72289e-36
9.04885e-41
-2.5102e-32
4.75096e-36
1.00683e-39
-2.55603e-32
4.83717e-36
-2.42259e-32
4.58481e-36
-3.75505e-35
-5.4105e-29
2.09407e-32
8.57235e-36
-5.48877e-29
2.11172e-32
6.07397e-35
-5.50308e-29
2.1106e-32
8.71343e-35
-5.54543e-29
2.11982e-32
7.30445e-35
-5.637e-29
2.15434e-32
-5.3223e-29
2.03779e-32
6.58338e-32
-4.56902e-26
3.59997e-29
2.7623e-31
-4.56864e-26
3.59589e-29
4.42542e-31
-4.56904e-26
3.58363e-29
4.94461e-31
-4.64304e-26
3.6016e-29
3.76491e-31
-4.70069e-26
3.65892e-29
-4.38072e-26
3.46155e-29
2.241e-28
-3.52187e-23
2.12565e-26
4.4738e-28
-3.36765e-23
2.07856e-26
5.67427e-28
-3.35178e-23
2.0665e-26
5.64582e-28
-3.52362e-23
2.1022e-26
3.955e-28
-3.56974e-23
2.14312e-26
-3.24675e-23
2.02556e-26
2.42206e-25
-5.24517e-20
1.78456e-23
3.83092e-25
-4.97455e-20
1.69323e-23
4.43067e-25
-4.96013e-20
1.69089e-23
4.30624e-25
-5.28088e-20
1.79276e-23
2.7528e-25
-5.38241e-20
1.84018e-23
-4.89339e-20
1.70319e-23
1.76262e-22
-5.98291e-17
8.77639e-20
1.64259e-22
-5.68308e-17
8.37614e-20
9.57526e-23
-5.68206e-17
8.42195e-20
1.18599e-23
-6.06993e-17
9.10703e-20
-2.88608e-23
-6.21217e-17
9.6199e-20
-5.66445e-17
8.34038e-20
-3.5516e-20
-2.74382e-14
2.74715e-15
-1.23849e-19
-2.61535e-14
2.71892e-15
-2.17596e-19
-2.621e-14
2.71218e-15
-2.50213e-19
-2.80323e-14
2.75303e-15
-1.64066e-19
-2.87386e-14
2.83919e-15
-2.62818e-14
2.59122e-15
-1.42191e-16
-3.25716e-13
-2.05728e-16
-3.11689e-13
-2.24068e-16
-3.12949e-13
-1.92623e-16
-3.34036e-13
-4.92239e-17
-3.43444e-13
-3.12917e-13
-2.50098e-58
-1.05243e-50
9.61136e-55
-1.4951e-58
-1.05885e-50
9.65567e-55
-3.93101e-59
-1.0563e-50
9.64024e-55
6.54041e-59
-1.05799e-50
9.65042e-55
1.17622e-58
-1.07304e-50
9.74231e-55
-1.02463e-50
9.44286e-55
-1.92831e-53
-1.12462e-45
7.67365e-50
-6.45783e-54
-1.12978e-45
7.70586e-50
8.27098e-54
-1.12649e-45
7.68572e-50
2.02399e-53
-1.12887e-45
7.70022e-50
2.47795e-53
-1.14772e-45
7.81591e-50
-1.09177e-45
7.4709e-50
-1.92499e-48
-7.53618e-41
4.82431e-45
-1.06025e-48
-7.55673e-41
4.83791e-45
2.17872e-49
-7.53159e-41
4.82282e-45
1.18817e-48
-7.55041e-41
4.83501e-45
1.39075e-48
-7.68595e-41
4.92026e-45
-7.31165e-41
4.68531e-45
-1.58222e-43
1.5137e-41
3.51525e-40
-4.69252e-44
1.48305e-41
3.51513e-40
1.29073e-43
1.48568e-41
3.50244e-40
2.38424e-43
1.51692e-41
3.51363e-40
2.14063e-43
1.58365e-41
3.58146e-40
1.53529e-41
3.41032e-40
2.05442e-37
8.62453e-35
1.46915e-34
4.12961e-37
8.62162e-35
1.47097e-34
5.9256e-37
8.62051e-35
1.46814e-34
6.66654e-37
8.69915e-35
1.47645e-34
5.31797e-37
8.92372e-35
1.50857e-34
8.53054e-35
1.43712e-34
1.37561e-32
2.80264e-30
1.53072e-30
2.10636e-32
2.81524e-30
1.52414e-30
2.44279e-32
2.82271e-30
1.51641e-30
2.4036e-32
2.85491e-30
1.5216e-30
1.77211e-32
2.93317e-30
1.55108e-30
2.79998e-30
1.47058e-30
1.67794e-28
2.24928e-26
4.9142e-27
2.25252e-28
2.32725e-26
4.94784e-27
2.30271e-28
2.37261e-26
4.96245e-27
2.00997e-28
2.42915e-26
5.01869e-27
1.28625e-28
2.51019e-26
5.14511e-27
2.36669e-26
4.84208e-27
1.24588e-24
1.75051e-22
2.37204e-24
1.33183e-24
1.78892e-22
1.69412e-24
1.01968e-24
1.80483e-22
1.46426e-24
6.02695e-25
1.82832e-22
1.44812e-24
1.71497e-25
1.86553e-22
1.69237e-24
1.72317e-22
2.00574e-24
4.042e-22
1.84421e-19
1.21587e-21
6.7625e-23
1.86581e-19
1.06194e-21
-4.11235e-22
1.85188e-19
1.20171e-21
-7.24376e-22
1.83573e-19
1.45566e-21
-6.60541e-22
1.81682e-19
1.86494e-21
1.67318e-19
2.16559e-21
-2.86722e-18
-1.16172e-15
-2.72927e-14
-6.59358e-18
-1.10357e-15
-2.70238e-14
-9.63926e-18
-1.08137e-15
-2.67785e-14
-9.93092e-18
-1.08883e-15
-2.67948e-14
-7.14593e-18
-1.13357e-15
-2.71636e-14
-1.00201e-15
-2.51779e-14
-4.49008e-16
-1.84975e-12
-3.41264e-12
-6.77555e-16
-1.76861e-12
-3.31155e-12
-7.47887e-16
-1.77915e-12
-3.269e-12
-6.28976e-16
-1.91796e-12
-3.28298e-12
-4.10874e-16
-1.96621e-12
-3.31701e-12
-1.79106e-12
-3.13951e-12
-2.23065e-14
-1.71826e-09
-2.82972e-14
-1.64379e-09
-2.6276e-14
-1.65118e-09
2.29167e-14
-1.76887e-09
1.24259e-14
-1.81416e-09
-1.65797e-09
6.67398e-12
-5.23202e-08
2.44788e-08
2.60956e-12
-5.22989e-08
2.44958e-08
-3.28471e-12
-5.23174e-08
2.44969e-08
-7.19096e-12
-5.23414e-08
2.45085e-08
-7.911e-12
-5.23535e-08
2.45254e-08
-5.23649e-08
2.44892e-08
1.08569e-13
2.20704e-15
2.39309e-09
3.54183e-14
2.41748e-15
2.39e-09
-8.46541e-15
2.48143e-15
2.39116e-09
-4.33777e-14
2.42625e-15
2.39081e-09
-1.09423e-13
2.41195e-15
2.38781e-09
2.46954e-15
2.3927e-09
-3.71626e-20
-3.56752e-17
-1.28854e-20
-3.9072e-17
6.79789e-22
-4.01067e-17
1.33297e-20
-3.92145e-17
4.31321e-20
-3.89817e-17
-3.99172e-17
1.03293e-10
-1.67487e-06
9.11834e-07
2.95129e-11
-1.6747e-06
9.11859e-07
-3.40012e-11
-1.67491e-06
9.11885e-07
-6.28359e-11
-1.67485e-06
9.11872e-07
-9.85711e-11
-1.67435e-06
9.11827e-07
-1.67494e-06
9.11849e-07
3.23631e-11
1.23477e-14
4.21895e-08
6.82055e-12
1.35243e-14
4.21653e-08
-8.22121e-12
1.38829e-14
4.21763e-08
-2.1766e-11
1.35741e-14
4.21748e-08
-4.79931e-11
1.3494e-14
4.21517e-08
1.38175e-14
4.21925e-08
-2.10236e-19
-2.84051e-16
-7.21867e-20
-3.11077e-16
1.62671e-20
-3.19331e-16
1.05497e-19
-3.12226e-16
2.86518e-19
-3.10378e-16
-3.17867e-16
1.39987e-11
-1.36339e-07
-7.98863e-08
2.17572e-12
-1.3632e-07
-7.99046e-08
-4.26561e-12
-1.36326e-07
-7.99003e-08
-9.99323e-12
-1.3634e-07
-7.99176e-08
-2.07616e-11
-1.36339e-07
-7.99271e-08
-1.36365e-07
-7.98753e-08
8.48912e-13
8.10973e-14
2.59813e-09
2.22037e-13
8.88275e-14
2.59622e-09
-1.23909e-13
9.11802e-14
2.59684e-09
-4.99442e-13
8.91518e-14
2.59659e-09
-1.27378e-12
8.86273e-14
2.59573e-09
9.07449e-14
2.59929e-09
-1.34437e-18
-2.83354e-15
-4.06731e-19
-3.10336e-15
1.74045e-19
-3.1856e-15
6.90441e-19
-3.11474e-15
1.74333e-18
-3.09638e-15
-3.17073e-15
3.00718e-12
-2.59611e-09
-6.10862e-10
1.19645e-12
-2.5943e-09
-6.51904e-10
-2.18986e-13
-2.59493e-09
-6.42175e-10
-2.12979e-12
-2.59475e-09
-6.77964e-10
-5.12536e-12
-2.59394e-09
-6.89632e-10
-2.59741e-09
-5.67415e-10
2.09593e-15
6.42408e-14
1.95842e-12
9.51358e-16
7.03596e-14
1.84391e-12
2.44477e-16
7.22207e-14
1.84128e-12
-5.85486e-16
7.06104e-14
1.77131e-12
-2.26401e-15
7.01947e-14
1.71688e-12
7.18708e-14
1.80884e-12
-1.09462e-18
-1.46323e-15
-3.19326e-19
-1.60247e-15
7.28335e-20
-1.64484e-15
3.84794e-19
-1.60813e-15
1.10503e-18
-1.59863e-15
-1.63688e-15
4.18863e-12
-8.65293e-08
7.17764e-08
2.05501e-12
-8.65395e-08
7.1756e-08
1.01154e-13
-8.65299e-08
7.17571e-08
-2.78065e-12
-8.65343e-08
7.1746e-08
-6.67075e-12
-8.65297e-08
7.17336e-08
-8.64815e-08
7.17578e-08
1.20718e-12
2.88294e-15
4.63538e-10
6.31241e-13
3.15929e-15
4.62062e-10
2.74409e-13
3.2451e-15
4.6233e-10
-1.55564e-13
3.1721e-15
4.62063e-10
-1.04188e-12
3.15234e-15
4.6152e-10
3.20402e-15
4.6321e-10
-4.68661e-20
-3.56844e-17
-1.35359e-20
-3.91024e-17
3.53684e-21
-4.01608e-17
1.75216e-20
-3.92538e-17
4.9325e-20
-3.90079e-17
-3.96435e-17
1.00282e-12
-4.63999e-10
4.70192e-10
4.40277e-13
-4.62523e-10
4.70178e-10
-1.00338e-13
-4.62791e-10
4.70116e-10
-3.5339e-13
-4.62525e-10
4.70022e-10
-7.06721e-13
-4.61982e-10
4.6995e-10
-4.63671e-10
4.69965e-10
2.41776e-16
1.65218e-17
-4.61088e-13
9.59183e-17
1.8082e-17
-4.60881e-13
3.73406e-17
1.85677e-17
-4.60992e-13
-3.95676e-18
1.81534e-17
-4.61173e-13
-1.37303e-16
1.80392e-17
-4.61223e-13
1.83123e-17
-4.61189e-13
-1.96632e-22
1.13979e-20
-2.93879e-23
1.12575e-20
7.43734e-23
1.13475e-20
1.37731e-22
1.14291e-20
2.65931e-22
1.1377e-20
1.17385e-20
1.11078e-15
-1.96038e-11
1.05089e-11
2.16137e-15
-1.96015e-11
1.05084e-11
3.82057e-16
-1.96065e-11
1.0505e-11
4.07222e-16
-1.96177e-11
1.04988e-11
6.89192e-15
-1.96243e-11
1.04941e-11
-1.96129e-11
1.04981e-11
4.16303e-17
8.13199e-18
-2.00644e-11
2.22576e-17
8.03903e-18
-2.00618e-11
-3.93748e-18
8.09924e-18
-2.00669e-11
-5.6663e-17
8.14899e-18
-2.00783e-11
-2.25786e-16
8.11499e-18
-2.00848e-11
8.35254e-18
-2.00738e-11
-8.2817e-23
-3.0812e-19
-9.44325e-24
-3.04616e-19
4.44233e-23
-3.06897e-19
8.39262e-23
-3.08774e-19
1.71738e-22
-3.07505e-19
-3.16471e-19
9.98614e-16
-2.40821e-09
2.44243e-09
2.72449e-15
-2.40755e-09
2.4418e-09
3.23431e-15
-2.40823e-09
2.44246e-09
8.92819e-16
-2.40963e-09
2.44384e-09
-6.65403e-15
-2.41065e-09
2.44483e-09
-2.40863e-09
2.44289e-09
3.19776e-15
2.96152e-15
-2.42574e-09
-2.40846e-14
2.94472e-15
-2.42504e-09
-4.7421e-14
2.95657e-15
-2.42573e-09
-3.80636e-14
2.96508e-15
-2.42717e-09
-1.05534e-13
2.95737e-15
-2.42813e-09
3.00308e-15
-2.42627e-09
-4.91792e-20
-1.1804e-16
-7.64552e-21
-1.1737e-16
1.20641e-20
-1.17828e-16
6.26759e-21
-1.18126e-16
2.91912e-20
-1.17801e-16
-1.19692e-16
1.46097e-09
2.90219e-06
0.00020921
3.19433e-09
2.90141e-06
0.000209205
3.7059e-09
2.90186e-06
0.000209207
1.66206e-09
2.90288e-06
0.000209216
-1.80801e-09
2.90377e-06
0.00020923
2.90173e-06
0.000209214
4.36344e-12
7.24932e-13
2.89978e-06
-3.72945e-12
7.21413e-13
2.899e-06
-5.5809e-12
7.23379e-13
2.89945e-06
-4.32374e-12
7.24717e-13
2.90046e-06
2.22103e-12
7.22291e-13
2.90135e-06
7.33071e-13
2.89932e-06
1.08332e-18
-3.25378e-13
2.16436e-17
-3.23723e-13
2.49834e-17
-3.24651e-13
1.8786e-17
-3.25314e-13
2.19449e-17
-3.24266e-13
-3.28991e-13
4.01897e-08
0.00047272
0.00541492
3.42834e-08
0.000472747
0.00541441
3.37988e-08
0.000472734
0.00541452
2.01486e-08
0.00047275
0.00541464
1.62729e-08
0.000472786
0.00541462
0.000472706
0.00541489
2.11669e-09
2.2572e-05
0.000452747
3.17221e-09
2.25759e-05
0.000452769
2.80468e-09
2.25763e-05
0.000452758
1.05381e-09
2.25763e-05
0.000452776
1.85459e-09
2.25754e-05
0.000452813
2.25771e-05
0.000452731
-3.04126e-11
2.20372e-05
-6.21919e-11
2.2041e-05
-1.50645e-10
2.20413e-05
-1.06819e-10
2.20409e-05
4.76762e-11
2.20399e-05
2.20419e-05
1.50268e-06
0.0182282
0.171826
1.28101e-06
0.0182304
0.171831
1.04417e-06
0.0182281
0.171829
7.56014e-07
0.0182319
0.171836
-1.56356e-06
0.0182449
0.171854
0.0182099
0.171824
1.43107e-07
0.000719541
0.017952
7.67674e-08
0.000719967
0.017954
3.30025e-08
0.000719865
0.0179517
5.5278e-09
0.000719713
0.0179556
-8.00838e-08
0.00071977
0.0179687
0.000719549
0.0179336
2.16802e-09
0.00061984
5.5911e-09
0.000620226
1.62879e-08
0.000620122
1.1144e-09
0.000619979
-6.9363e-08
0.000620058
0.000619728
4.31262e-05
0.469654
0.825839
3.94606e-05
0.469701
0.825819
4.96378e-05
0.469669
0.825836
3.35845e-05
0.469649
0.825962
-8.27947e-05
0.469604
0.826318
0.469686
0.825606
1.74328e-05
0.0140037
0.345215
-2.43911e-06
0.0140124
0.345271
-2.83983e-05
0.0140098
0.345239
-8.23466e-06
0.0140039
0.345352
4.65768e-05
0.0140051
0.345548
0.0140005
0.344994
-8.06519e-07
0.0102784
-7.05397e-07
0.0102812
1.10997e-06
0.0102779
7.19922e-07
0.0102787
-9.32725e-06
0.0102904
0.010266
2.45856e-07
0.00012551
-0.000152724
2.10102e-06
4.8381e-08
0.000125097
-0.000151753
2.09338e-06
-6.94801e-09
0.000124862
-0.000151634
2.09153e-06
3.50623e-07
0.000125923
-0.000153287
2.10695e-06
7.86693e-07
0.000142034
-0.000169992
2.38577e-06
0.000120693
-0.000145917
2.02217e-06
8.44925e-09
-6.03663e-14
0.000229754
-2.08622e-06
-1.81689e-09
-5.86457e-14
0.000229847
-2.07677e-06
5.24504e-10
-6.07557e-14
0.000229077
-2.07504e-06
-1.90155e-08
-5.95461e-14
0.000228994
-2.30896e-06
-3.58905e-09
-4.87206e-14
0.000242021
-2.36028e-06
-7.35354e-14
0.000215418
-2.00579e-06
-1.41876e-15
3.63264e-11
-3.63853e-11
-1.31637e-15
3.57607e-11
-3.58194e-11
-4.67394e-15
3.6238e-11
-3.62954e-11
-9.59879e-17
3.76802e-11
-3.77443e-11
2.28124e-14
3.27007e-11
-3.27723e-11
3.81245e-11
-3.81835e-11
3.11724e-06
-0.000193015
-0.0251008
8.78515e-07
-0.000187061
-0.025
-1.32364e-05
-0.000187599
-0.0249647
9.12946e-06
-0.000203199
-0.0251117
0.000118692
-0.000256064
-0.0254737
-0.000138165
-0.0244702
9.14354e-08
0.00268102
-0.00640886
3.60429e-07
0.00266806
-0.00625502
2.02283e-06
0.00266581
-0.00627517
2.21152e-06
0.00271965
-0.00663806
-6.66874e-06
0.0029134
-0.00775968
0.00246197
-0.00509707
3.25558e-05
-0.172033
-1.48562e-05
-0.172132
1.27023e-05
-0.171917
-0.000111546
-0.172608
-0.000413102
-0.175033
-0.169167
-1.18803e-05
-0.15961
-0.000801241
1.10131e-05
-0.159555
-0.00078256
5.65624e-06
-0.159492
-0.00077656
4.7101e-05
-0.159871
-0.000800394
0.00019836
-0.160114
-0.000885285
-0.159779
-0.000642723
4.09669e-05
0.28012
-0.773302
-8.0447e-05
0.280227
-0.773379
-0.000296358
0.280223
-0.773398
5.47188e-05
0.280133
-0.775072
0.000333918
0.280177
-0.777118
0.280367
-0.773523
0.000207611
-0.278178
-0.000108525
-0.280041
-0.000286648
-0.280872
-0.000356853
-0.274532
-0.000819692
-0.264294
-0.288375
-2.20667e-05
-0.0644494
-0.0787655
1.35034e-05
-0.0644145
-0.0787186
8.63279e-05
-0.0644791
-0.0787182
2.38704e-05
-0.0648387
-0.0789793
-7.12453e-05
-0.0654108
-0.0794436
-0.0640407
-0.0785473
0.000279257
0.0839622
-0.807994
-0.00019058
0.0852837
-0.808429
-0.00150065
0.0861662
-0.808424
-0.000785678
0.0812323
-0.80714
0.00377673
0.0725645
-0.804549
0.0924614
-0.811141
1.05523e-05
-0.00457062
-2.54317e-05
-0.00460142
-0.000102128
-0.00461426
-4.15604e-05
-0.00452222
0.000139096
-0.00436938
-0.00471187
9.97665e-05
0.115739
-0.333868
9.77923e-05
0.115761
-0.333887
6.21863e-05
0.115737
-0.333855
0.000164831
0.115797
-0.33411
0.000503428
0.116121
-0.334747
0.115409
-0.333473
1.59211e-05
-0.00757297
-0.565222
9.18704e-05
-0.00755342
-0.565355
0.000322152
-0.00753867
-0.565318
0.000179359
-0.0076233
-0.565425
-0.000684672
-0.0077746
-0.565493
-0.00742495
-0.565182
-6.30405e-08
-0.0121435
-1.01028e-06
-0.0121539
-2.10651e-06
-0.0121518
-1.53052e-06
-0.0121461
7.15054e-07
-0.0121462
-0.0121361
2.2673e-05
0.365854
0.000110381
0.366075
0.000295782
0.365993
0.000114069
0.366002
-0.000761025
0.366154
0.365761
3.76551e-05
0.00288401
1.24633e-05
0.00289202
-5.0488e-05
0.00289284
-1.33967e-05
0.00289009
0.000171016
0.00288309
0.00288907
2.38398e-07
-3.19875e-06
-7.95781e-06
-5.32055e-06
7.35741e-06
-7.80688e-52
1.39369e-47
-2.02669e-43
-7.26656e-53
1.38283e-47
-2.01155e-43
3.31275e-52
1.3791e-47
-2.00619e-43
6.82291e-52
1.38939e-47
-2.02123e-43
7.69863e-52
1.41983e-47
-2.06556e-43
1.3301e-47
-1.93451e-43
-1.48247e-54
2.08134e-50
-2.0348e-46
-1.08213e-54
2.0814e-50
-2.03605e-46
-7.26407e-55
2.07633e-50
-2.03134e-46
-2.53868e-55
2.08696e-50
-2.04164e-46
4.39842e-55
2.13021e-50
-2.08371e-46
2.02929e-50
-1.98619e-46
-6.90787e-49
-2.20958e-40
-4.65201e-49
-2.212e-40
-2.3754e-49
-2.20695e-40
1.43106e-49
-2.21808e-40
7.19086e-49
-2.26349e-40
-2.15775e-40
-8.57607e-47
1.90953e-42
-2.57386e-38
1.26555e-46
1.89582e-42
-2.55618e-38
2.8686e-46
1.89154e-42
-2.55052e-38
3.97549e-46
1.90646e-42
-2.5707e-38
4.38958e-46
1.94923e-42
-2.62845e-38
1.82582e-42
-2.46153e-38
-9.45031e-51
7.50651e-45