/*--------------------------------*- C++ -*----------------------------------*\
| =========                 |                                                 |
| \\      /  F ield         | OpenFOAM: The Open Source CFD Toolbox           |
|  \\    /   O peration     | Version:  v1612+                                |
|   \\  /    A nd           | Web:      www.OpenFOAM.com                      |
|    \\/     M anipulation  |                                                 |
\*---------------------------------------------------------------------------*/
FoamFile
{
    version     2.0;
    format      ascii;
    class       volScalarField;
    location    "3.15";
    object      alpha.water;
}
// * * * * * * * * * * * * * * * * * * * * * * * * * * * * * * * * * * * * * //

dimensions      [0 0 0 0 0 0 0];

internalField   nonuniform List<scalar> 
1116
(
0.826782
0.826776
0.826778
0.826776
0.826773
0.826778
0.828032
0.828027
0.828028
0.828026
0.828023
0.828028
0.845815
0.845809
0.845811
0.845809
0.845806
0.845811
0.876185
0.876178
0.87618
0.876179
0.876176
0.876182
0.906809
0.906801
0.906803
0.906803
0.9068
0.906806
0.930554
0.930547
0.930548
0.930547
0.930545
0.93055
0.946776
0.94677
0.94677
0.946769
0.946767
0.946771
0.968834
0.96883
0.968829
0.968828
0.968827
0.96883
0.973114
0.973114
0.973114
0.973114
0.973114
0.973114
0.973116
0.973116
0.973116
0.973116
0.973116
0.973116
0.973116
0.973116
0.973116
0.973116
0.973116
0.973116
0.970095
0.970096
0.970096
0.970096
0.970097
0.970093
0.195087
0.195087
0.195086
0.195084
0.195084
0.195086
0.102878
0.102877
0.102877
0.102875
0.102874
0.102878
0.0819585
0.0819569
0.0819569
0.0819557
0.0819547
0.0819576
0.0984477
0.0984455
0.0984456
0.0984447
0.0984436
0.0984464
0.132536
0.132533
0.132533
0.132533
0.132532
0.132535
0.182495
0.18249
0.182491
0.182491
0.18249
0.182493
0.25635
0.256344
0.256345
0.256345
0.256344
0.256349
0.304969
0.304963
0.304964
0.304964
0.304965
0.304968
0.402783
0.402771
0.402772
0.402772
0.402771
0.402779
0.699202
0.69917
0.699177
0.699177
0.699171
0.69919
0.973116
0.973116
0.973116
0.973116
0.973116
0.973116
0.97091
0.970911
0.970911
0.970912
0.970912
0.970912
2.62108e-08
2.62109e-08
2.62112e-08
2.62125e-08
2.62146e-08
2.62159e-08
7.29051e-09
7.29029e-09
7.2903e-09
7.28945e-09
7.28903e-09
7.29035e-09
5.29717e-09
5.29694e-09
5.29703e-09
5.2964e-09
5.29589e-09
5.29683e-09
2.56108e-09
2.56113e-09
2.56113e-09
2.56098e-09
2.56082e-09
2.5607e-09
3.13572e-10
3.13598e-10
3.13582e-10
3.13557e-10
3.13531e-10
3.13462e-10
2.91402e-11
2.91419e-11
2.91404e-11
2.91379e-11
2.91355e-11
2.91299e-11
-1.81156e-19
-1.81017e-19
-1.80983e-19
-1.81042e-19
-1.8114e-19
-1.81043e-19
-3.44519e-11
-3.44373e-11
-3.44438e-11
-3.44583e-11
-3.44708e-11
-3.44533e-11
-1.09352e-07
-1.091e-07
-1.0904e-07
-1.08879e-07
-1.08747e-07
-1.0913e-07
0.0221258
0.0221126
0.0221167
0.0221168
0.0221147
0.0221204
0.660407
0.660353
0.660367
0.660369
0.66036
0.660387
0.957627
0.957627
0.957631
0.957624
0.957616
0.957642
5.7675e-07
5.76736e-07
5.76827e-07
5.76922e-07
5.76927e-07
5.76927e-07
3.3963e-06
3.39606e-06
3.39614e-06
3.39614e-06
3.396e-06
3.39642e-06
2.54014e-08
2.54168e-08
2.54051e-08
2.5406e-08
2.54277e-08
2.5403e-08
1.18288e-07
1.1826e-07
1.18264e-07
1.18236e-07
1.18216e-07
1.18294e-07
1.25637e-07
1.25629e-07
1.25629e-07
1.25624e-07
1.25619e-07
1.25625e-07
4.66833e-09
4.66963e-09
4.6688e-09
4.66818e-09
4.66774e-09
4.66441e-09
8.109e-13
8.10731e-13
8.10987e-13
8.11579e-13
8.12076e-13
8.10996e-13
5.33636e-13
5.33262e-13
5.33461e-13
5.33989e-13
5.34312e-13
5.33901e-13
-2.52e-06
-2.52016e-06
-2.52012e-06
-2.52014e-06
-2.52024e-06
-2.52029e-06
8.98745e-05
8.98625e-05
8.9867e-05
8.98666e-05
8.9865e-05
8.98728e-05
0.108257
0.108202
0.108214
0.108222
0.108214
0.108237
0.953479
0.953463
0.953469
0.953472
0.953474
0.953474
1.05532e-56
1.09358e-56
1.11556e-56
1.13998e-56
1.1815e-56
1.14613e-56
4.32792e-52
4.48306e-52
4.57057e-52
4.66791e-52
4.83446e-52
4.68347e-52
8.21006e-48
8.50332e-48
8.66513e-48
8.8447e-48
9.15372e-48
8.85574e-48
9.04776e-44
9.3716e-44
9.54432e-44
9.73463e-44
1.00647e-43
9.71989e-44
5.98806e-40
6.2049e-40
6.3148e-40
6.43376e-40
6.64239e-40
6.39936e-40
2.22017e-36
2.3051e-36
2.34531e-36
2.38689e-36
2.45983e-36
2.3622e-36
3.78632e-33
3.9655e-33
4.04521e-33
4.1177e-33
4.23554e-33
4.04809e-33
2.07244e-30
2.21688e-30
2.27532e-30
2.31482e-30
2.36579e-30
2.2312e-30
1.52827e-28
1.67715e-28
1.70774e-28
1.69534e-28
1.67006e-28
1.48957e-28
8.05798e-27
7.58585e-27
7.3291e-27
7.47284e-27
7.15223e-27
6.02155e-27
1.14679e-23
1.04114e-23
1.02036e-23
1.07978e-23
1.08652e-23
9.69513e-24
3.26725e-20
3.02181e-20
2.99728e-20
3.20669e-20
3.26905e-20
2.96841e-20
6.046e-55
6.21465e-55
6.3054e-55
6.41822e-55
6.62966e-55
6.41982e-55
3.24765e-50
3.33353e-50
3.37857e-50
3.436e-50
3.54654e-50
3.42886e-50
8.54966e-46
8.76174e-46
8.86827e-46
9.00875e-46
9.28919e-46
8.96622e-46
1.48063e-41
1.51423e-41
1.52984e-41
1.55158e-41
1.59753e-41
1.5388e-41
1.89272e-37
1.92958e-37
1.94432e-37
1.9675e-37
2.02162e-37
1.94188e-37
1.64784e-33
1.6767e-33
1.68663e-33
1.7046e-33
1.74957e-33
1.67738e-33
5.15129e-30
5.27399e-30
5.32506e-30
5.39438e-30
5.53909e-30
5.29713e-30
3.99699e-27
4.15138e-27
4.20282e-27
4.24856e-27
4.3298e-27
4.08752e-27
3.08046e-25
3.23626e-25
3.2571e-25
3.22074e-25
3.19467e-25
2.89909e-25
1.14443e-22
1.08693e-22
1.06755e-22
1.11065e-22
1.0954e-22
9.58689e-23
4.47611e-20
3.87866e-20
3.6782e-20
3.77966e-20
3.6915e-20
3.18202e-20
1.25778e-17
1.24556e-17
1.2444e-17
1.25578e-17
1.25902e-17
1.24339e-17
3.42993e-51
3.49791e-51
3.51359e-51
3.53821e-51
3.6059e-51
3.42543e-51
2.27431e-46
2.31699e-46
2.32629e-46
2.34205e-46
2.38693e-46
2.2675e-46
6.7922e-42
6.91309e-42
6.9374e-42
6.98273e-42
7.11634e-42
6.75954e-42
1.06889e-37
1.08674e-37
1.08996e-37
1.0968e-37
1.11766e-37
1.06126e-37
8.45093e-34
8.58092e-34
8.60218e-34
8.65531e-34
8.81834e-34
8.36889e-34
3.00464e-30
3.04678e-30
3.0537e-30
3.07392e-30
3.13142e-30
2.96949e-30
4.11994e-27
4.17016e-27
4.18082e-27
4.21712e-27
4.29333e-27
4.061e-27
2.21633e-24
2.2121e-24
2.21379e-24
2.25413e-24
2.28848e-24
2.13981e-24
1.14785e-21
1.09773e-21
1.09464e-21
1.15399e-21
1.17289e-21
1.07053e-21
1.13815e-18
1.08116e-18
1.08067e-18
1.15394e-18
1.17993e-18
1.07623e-18
4.68195e-16
4.44373e-16
4.45577e-16
4.79367e-16
4.91127e-16
4.49245e-16
5.66058e-15
5.41698e-15
5.439e-15
5.80417e-15
5.96741e-15
5.43576e-15
2.95071e-52
2.96502e-52
2.9602e-52
2.96332e-52
2.99159e-52
2.89897e-52
2.32744e-47
2.33762e-47
2.33148e-47
2.33593e-47
2.3712e-47
2.26618e-47
1.43836e-42
1.44225e-42
1.43753e-42
1.44108e-42
1.46654e-42
1.39627e-42
1.03864e-37
1.03845e-37
1.03464e-37
1.03809e-37
1.05852e-37
1.0082e-37
4.13904e-32
4.14631e-32
4.14033e-32
4.16595e-32
4.25873e-32
4.05841e-32
4.80243e-28
4.8243e-28
4.82833e-28
4.87038e-28
4.98839e-28
4.74541e-28
1.89208e-24
1.95523e-24
1.98973e-24
2.03269e-24
2.09484e-24
1.96837e-24
8.31806e-21
8.48125e-21
8.54359e-21
8.64166e-21
8.79836e-21
8.10544e-21
4.75139e-18
4.77754e-18
4.73779e-18
4.70866e-18
4.69379e-18
4.29264e-18
8.83576e-16
8.7405e-16
8.65775e-16
8.66532e-16
8.79093e-16
8.13784e-16
9.81231e-14
9.47226e-14
9.41233e-14
9.69685e-14
9.85014e-14
9.19222e-14
3.19882e-11
3.06014e-11
3.07388e-11
3.29289e-11
3.37729e-11
3.08653e-11
2.91827e-07
2.91752e-07
2.91856e-07
2.9197e-07
2.91986e-07
2.9201e-07
3.092e-09
3.08552e-09
3.08466e-09
3.08329e-09
3.08367e-09
3.09238e-09
-1.53383e-15
-1.67994e-15
-1.72439e-15
-1.68605e-15
-1.67609e-15
-1.71626e-15
3.72917e-06
3.72919e-06
3.7292e-06
3.72923e-06
3.72925e-06
3.72925e-06
1.13346e-06
1.13268e-06
1.13304e-06
1.13296e-06
1.13221e-06
1.13363e-06
-8.21198e-15
-8.99376e-15
-9.23233e-15
-9.02697e-15
-8.9736e-15
-9.18953e-15
6.1669e-07
6.1667e-07
6.16666e-07
6.16726e-07
6.16776e-07
6.1675e-07
2.63943e-08
2.63786e-08
2.63842e-08
2.63852e-08
2.63758e-08
2.64006e-08
-5.54942e-14
-6.07791e-14
-6.23896e-14
-6.10018e-14
-6.06421e-14
-6.20962e-14
9.88468e-08
9.87076e-08
9.87378e-08
9.86255e-08
9.85895e-08
9.8986e-08
6.37674e-19
6.38373e-19
6.3828e-19
6.39299e-19
6.39493e-19
6.36958e-19
-3.97362e-14
-4.35177e-14
-4.46693e-14
-4.36733e-14
-4.34156e-14
-4.44554e-14
1.4411e-07
1.4411e-07
1.44109e-07
1.44106e-07
1.44105e-07
1.44103e-07
2.70183e-08
2.69649e-08
2.69698e-08
2.69481e-08
2.69208e-08
2.69761e-08
-1.73325e-15
-1.89925e-15
-1.95085e-15
-1.90696e-15
-1.89506e-15
-1.92626e-15
3.67379e-08
3.6731e-08
3.67294e-08
3.6725e-08
3.672e-08
3.67231e-08
6.17534e-19
6.15556e-19
6.15991e-19
6.15711e-19
6.15058e-19
6.17465e-19
-9.26206e-18
-1.0136e-17
-1.04083e-17
-1.01761e-17
-1.01119e-17
-1.02658e-17
3.24e-12
3.23922e-12
3.24023e-12
3.2424e-12
3.24364e-12
3.24175e-12
-1.19869e-15
-1.19804e-15
-1.19829e-15
-1.19864e-15
-1.19904e-15
-1.19965e-15
-4.57146e-18
-4.51893e-18
-4.55281e-18
-4.58078e-18
-4.56163e-18
-4.69555e-18
-1.54e-11
-1.53957e-11
-1.53999e-11
-1.54085e-11
-1.54141e-11
-1.54037e-11
-4.51582e-13
-4.51369e-13
-4.51614e-13
-4.51813e-13
-4.51907e-13
-4.51654e-13
-1.64419e-15
-1.63477e-15
-1.64135e-15
-1.64606e-15
-1.64171e-15
-1.66727e-15
-2.17319e-07
-2.17325e-07
-2.17321e-07
-2.17336e-07
-2.17396e-07
-2.17224e-07
-3.22127e-12
-3.18307e-12
-3.16238e-12
-3.08054e-12
-3.12022e-12
-3.04744e-12
-4.90822e-13
-4.88392e-13
-4.89745e-13
-4.90678e-13
-4.89031e-13
-4.96343e-13
7.02207e-06
7.02254e-06
7.02226e-06
7.02247e-06
7.02293e-06
7.0229e-06
-1.39836e-07
-1.39928e-07
-1.39911e-07
-1.3982e-07
-1.39663e-07
-1.40012e-07
-9.8501e-09
-9.852e-09
-9.85483e-09
-9.85133e-09
-9.85606e-09
-9.87956e-09
9.97758e-05
9.97618e-05
9.97661e-05
9.9768e-05
9.97716e-05
9.97668e-05
7.67212e-06
7.67175e-06
7.67198e-06
7.67242e-06
7.67255e-06
7.67138e-06
1.75962e-07
1.75923e-07
1.76087e-07
1.76023e-07
1.75646e-07
1.76693e-07
0.625193
0.625165
0.625169
0.625144
0.625074
0.625243
0.0747417
0.0747314
0.0747333
0.0747478
0.0748007
0.0746783
2.5772e-05
2.57754e-05
2.57704e-05
2.57668e-05
2.57625e-05
2.57757e-05
2.76316e-06
2.75062e-06
2.74757e-06
2.77117e-06
2.82874e-06
2.65748e-06
4.92011e-07
6.62912e-07
6.20214e-07
2.60382e-07
3.61543e-13
1.07055e-06
4.32818e-26
4.26311e-26
2.73211e-26
4.53487e-26
3.89551e-26
4.66225e-26
0.00423121
0.00420212
0.0041945
0.00424121
0.00436326
0.00402197
0.000123586
0.000117868
0.000118762
0.000131373
0.000168827
8.93279e-05
0.024643
0.024662
0.0246172
0.0247497
0.0252932
0.0238399
0.0590511
0.0589685
0.0589352
0.0591935
0.0595931
0.0585131
0.231631
0.231301
0.231324
0.231976
0.233529
0.229557
0.149921
0.15002
0.149961
0.149921
0.149862
0.150026
0.0821295
0.0820924
0.0820857
0.0824042
0.0825946
0.0821959
0.351795
0.351863
0.351916
0.352018
0.352108
0.352108
0.0124351
0.0126239
0.0127605
0.011978
0.0106135
0.013888
0.556615
0.556552
0.556507
0.556914
0.557794
0.555836
0.312662
0.31282
0.312825
0.312478
0.311415
0.314095
3.46945e-18
3.43475e-18
3.43475e-18
2.31599e-18
-2.58398e-17
3.26128e-18
0.622039
0.622018
0.622015
0.622005
0.622007
0.622084
0.153302
0.153277
0.153255
0.153363
0.153622
0.1529
0.000160072
0.000160187
0.00016015
0.000160159
0.000160307
0.000159857
3.79728e-45
3.7688e-45
3.75864e-45
3.78675e-45
3.86976e-45
3.62416e-45
5.51633e-48
5.51813e-48
5.50466e-48
5.53279e-48
5.64742e-48
5.3782e-48
5.65316e-42
5.65925e-42
5.64624e-42
5.67455e-42
5.79062e-42
5.52017e-42
4.91262e-40
4.87862e-40
4.8676e-40
4.90604e-40
5.01623e-40
4.6974e-40
1.98671e-42
1.98937e-42
1.98487e-42
1.99501e-42
2.03637e-42
1.94017e-42
8.41748e-37
8.42752e-37
8.40912e-37
8.45261e-37
8.62704e-37
8.22485e-37
2.56924e-35
2.55287e-35
2.548e-35
2.56901e-35
2.62751e-35
2.46036e-35
6.75727e-37
6.76772e-37
6.75259e-37
6.78662e-37
6.92634e-37
6.59873e-37
3.45514e-32
3.45986e-32
3.45266e-32
3.47093e-32
3.54288e-32
3.37754e-32
6.10266e-31
6.06763e-31
6.05867e-31
6.11097e-31
6.25189e-31
5.85475e-31
8.74719e-32
8.75819e-32
8.73643e-32
8.77772e-32
8.95696e-32
8.53316e-32
4.3978e-28
4.40435e-28
4.39563e-28
4.41946e-28
4.51137e-28
4.3009e-28
6.80823e-27
6.77374e-27
6.76672e-27
6.82728e-27
6.98565e-27
6.54297e-27
4.17533e-27
4.18249e-27
4.175e-27
4.1982e-27
4.28679e-27
4.08596e-27
1.60975e-24
1.61234e-24
1.60935e-24
1.61835e-24
1.65213e-24
1.57522e-24
3.78756e-23
3.77173e-23
3.77e-23
3.80503e-23
3.89373e-23
3.6485e-23
1.28686e-23
1.2892e-23
1.28702e-23
1.2944e-23
1.32169e-23
1.25998e-23
1.48926e-21
1.49176e-21
1.48905e-21
1.49757e-21
1.52873e-21
1.45784e-21
1.05342e-19
1.0495e-19
1.04908e-19
1.05844e-19
1.08248e-19
1.0148e-19
9.02404e-21
9.04025e-21
9.02416e-21
9.07655e-21
9.26583e-21
8.83449e-21
3.75731e-19
3.76358e-19
3.7565e-19
3.77825e-19
3.85603e-19
3.67825e-19
1.76183e-17
1.76048e-17
1.76025e-17
1.76425e-17
1.77379e-17
1.74672e-17
1.78489e-18
1.78741e-18
1.78386e-18
1.79451e-18
1.82547e-18
1.74484e-18
2.31019e-17
2.31387e-17
2.30916e-17
2.32262e-17
2.36914e-17
2.26188e-17
2.42057e-17
2.41912e-17
2.41174e-17
2.41019e-17
2.41552e-17
2.34575e-17
7.75258e-17
7.17204e-17
7.7245e-17
7.18189e-17
8.01665e-17
7.42431e-17
1.66458e-17
1.6587e-17
1.66448e-17
1.65807e-17
1.63149e-17
1.66311e-17
1.26936e-14
1.25645e-14
1.24497e-14
1.24627e-14
1.26364e-14
1.17216e-14
8.59497e-14
8.54146e-14
8.5308e-14
8.60454e-14
8.79334e-14
8.05615e-14
6.28229e-17
5.5521e-17
6.23366e-17
5.58945e-17
6.32852e-17
5.8366e-17
1.43442e-12
1.39202e-12
1.37403e-12
1.37961e-12
5.93724e-13
1.32187e-12
1.33848e-13
1.3174e-13
1.33671e-13
1.32788e-13
1.21127e-13
1.33801e-13
6.58409e-14
6.4794e-14
6.57595e-14
6.89046e-14
5.93006e-14
7.00407e-14
2.53277e-10
2.42218e-10
2.43218e-10
2.60672e-10
2.66618e-10
2.44844e-10
1.02612e-11
1.00948e-11
1.01679e-11
2.66504e-10
7.18606e-12
1.03238e-11
9.05118e-18
8.67e-18
7.5763e-18
5.40317e-18
5.32234e-18
-8.23168e-18
)
;

boundaryField
{
    seabed_topleft_surface
    {
        type            zeroGradient;
    }
    seabed_topright_surface
    {
        type            zeroGradient;
    }
    breakwater_top_surface
    {
        type            zeroGradient;
    }
    breakwater_left_surface
    {
        type            zeroGradient;
    }
    breakwater_right_surface
    {
        type            zeroGradient;
    }
    water_front_surface
    {
        type            zeroGradient;
    }
    water_back_surface
    {
        type            zeroGradient;
    }
    water_left_surface
    {
        type            zeroGradient;
    }
    water_right_surface
    {
        type            zeroGradient;
    }
    water_top_surface
    {
        type            inletOutlet;
        inletValue      uniform 0;
        value           nonuniform List<scalar> 
180
(
0
0
0
0
0
0
0
0
0
0
0
0
0
0
0
0
0
0
0
0
0
0
0
0
0
0
0
0
0
0
0
0
0
0
0
0
0
0
0
0
0
0
0
0
0
0
0
0
0
0
0
0
0
0
-9.8501e-09
-9.852e-09
-9.85483e-09
-9.85133e-09
-9.85606e-09
-9.87956e-09
1.75962e-07
1.75923e-07
1.76087e-07
1.76023e-07
1.75646e-07
1.76693e-07
2.5772e-05
2.57754e-05
2.57704e-05
2.57668e-05
2.57625e-05
2.57757e-05
0
0
0
0
0
0
0.024643
0.024662
0.0246172
0.0247497
0.0252932
0.0238399
0.149921
0.15002
0.149961
0.149921
0.149862
0.150026
0.0124351
0.0126239
0.0127605
0.011978
0.0106135
0.013888
0
0
0
0
0
0
0.000160072
0.000160187
0.00016015
0.000160159
0.000160307
0.000159857
5.65316e-42
5.65925e-42
5.64624e-42
5.67455e-42
5.79062e-42
5.52017e-42
8.41748e-37
8.42752e-37
8.40912e-37
8.45261e-37
8.62704e-37
8.22485e-37
3.45514e-32
3.45986e-32
3.45266e-32
3.47093e-32
3.54288e-32
3.37754e-32
4.3978e-28
4.40435e-28
4.39563e-28
4.41946e-28
4.51137e-28
4.3009e-28
1.60975e-24
1.61234e-24
1.60935e-24
1.61835e-24
1.65213e-24
1.57522e-24
1.48926e-21
1.49176e-21
1.48905e-21
1.49757e-21
1.52873e-21
1.45784e-21
3.75731e-19
3.76358e-19
3.7565e-19
3.77825e-19
3.85603e-19
3.67825e-19
2.31019e-17
2.31387e-17
2.30916e-17
2.32262e-17
2.36914e-17
2.26188e-17
1.66458e-17
1.6587e-17
1.66448e-17
1.65807e-17
1.63149e-17
1.66311e-17
0
0
0
0
0
0
6.58409e-14
6.4794e-14
6.57595e-14
6.89046e-14
5.93006e-14
7.00407e-14
0
0
0
0
0
0
)
;
    }
}


// ************************************************************************* //
