/*--------------------------------*- C++ -*----------------------------------*\
| =========                 |                                                 |
| \\      /  F ield         | OpenFOAM: The Open Source CFD Toolbox           |
|  \\    /   O peration     | Version:  v1612+                                |
|   \\  /    A nd           | Web:      www.OpenFOAM.com                      |
|    \\/     M anipulation  |                                                 |
\*---------------------------------------------------------------------------*/
FoamFile
{
    version     2.0;
    format      ascii;
    class       surfaceScalarField;
    location    "3.15";
    object      phi;
}
// * * * * * * * * * * * * * * * * * * * * * * * * * * * * * * * * * * * * * //

dimensions      [0 3 -1 0 0 0 0];

internalField   nonuniform List<scalar> 
2916
(
-2.13675e-06
0.431449
-0.431447
5.24818e-06
0.431448
-0.431456
3.6957e-06
0.43145
-0.431448
-9.7996e-07
0.431453
-0.431449
1.63243e-06
0.431454
-0.431456
0.431444
-0.431443
2.2132e-06
0.837774
-0.406327
4.13481e-06
0.837781
-0.406334
2.91389e-06
0.837781
-0.40633
-7.53782e-07
0.837784
-0.406327
-2.35545e-06
0.837786
-0.406331
0.837773
-0.406331
3.54053e-06
1.09061
-0.252839
4.02669e-06
1.09062
-0.252842
2.9387e-06
1.09062
-0.252839
4.79022e-07
1.09062
-0.252837
-1.25276e-06
1.09063
-0.252838
1.09061
-0.252839
2.31848e-06
1.26964
-0.179038
3.61649e-06
1.26966
-0.179041
2.95541e-06
1.26966
-0.179039
1.07238e-06
1.26966
-0.179037
8.74142e-08
1.26966
-0.179037
1.26965
-0.179037
2.96624e-07
1.41551
-0.145861
2.11103e-06
1.41553
-0.145866
1.53066e-06
1.41552
-0.145864
-5.28931e-08
1.41552
-0.145861
3.24836e-07
1.41553
-0.145862
1.41551
-0.14586
-1.42621e-06
1.54263
-0.127123
4.06488e-08
1.54265
-0.127129
-6.23634e-07
1.54265
-0.127127
-1.50761e-06
1.54265
-0.127125
6.83854e-07
1.54265
-0.127127
1.54263
-0.127122
-5.00839e-06
1.64052
-0.0978855
-2.15866e-06
1.64054
-0.0978924
-3.06595e-06
1.64054
-0.0978897
-3.25214e-06
1.64054
-0.097889
2.55023e-06
1.64054
-0.0978922
1.64052
-0.097884
-7.30601e-06
1.63369
0.00683675
-2.89408e-06
1.63371
0.00682506
-4.25028e-06
1.63371
0.00682977
-4.21736e-06
1.63371
0.00682934
2.08798e-06
1.63371
0.00682218
1.63368
0.00683733
-4.86287e-06
1.32656
0.307135
-2.49942e-06
1.32659
0.307118
-5.29948e-06
1.32659
0.307124
-5.88996e-06
1.32659
0.307122
-3.36346e-06
1.3266
0.30711
1.32654
0.307133
-2.1781e-06
0.657545
0.669018
-1.94433e-06
0.657585
0.66901
-5.99153e-06
0.657585
0.669012
-7.87189e-06
0.657581
0.66901
-8.42364e-06
0.657598
0.668999
0.657524
0.669013
9.89537e-06
0.0333309
0.624204
2.40944e-06
0.0333681
0.624224
-8.98073e-07
0.0333709
0.624217
-3.78302e-06
0.0333701
0.624214
-1.27276e-05
0.0333925
0.624214
0.033316
0.624195
-2.53322e-05
0.0333563
-2.13597e-05
0.0333642
-1.35287e-05
0.0333631
-3.03757e-06
0.0333597
2.45758e-05
0.033365
0.0333407
-6.20437e-06
0.615374
-1.04682
-2.17733e-06
0.61537
-1.04683
3.12126e-06
0.615379
-1.04683
1.8013e-05
0.615369
-1.04683
2.46743e-05
0.615363
-1.04683
0.615399
-1.04682
3.16351e-06
1.13967
-0.93063
-6.90533e-06
1.13968
-0.930638
1.88744e-05
1.13968
-0.930656
2.93836e-05
1.13967
-0.930638
-3.02479e-06
1.13968
-0.930612
1.1397
-0.930629
2.21269e-05
1.49341
-0.6066
4.6693e-07
1.49345
-0.606582
2.28898e-05
1.49342
-0.606605
2.6557e-05
1.49342
-0.606589
-2.82123e-05
1.49344
-0.606549
1.49342
-0.606591
3.16382e-05
1.74806
-0.433717
4.64588e-06
1.74812
-0.433688
2.35741e-05
1.74808
-0.433717
2.50647e-05
1.74808
-0.433699
-3.25385e-05
1.74812
-0.433653
1.74806
-0.433709
3.70802e-05
1.99439
-0.392228
5.89755e-06
1.99447
-0.392186
2.11057e-05
1.99442
-0.392221
2.475e-05
1.99442
-0.392208
-2.83384e-05
1.99446
-0.392157
1.99439
-0.392219
3.57481e-05
2.26451
-0.397276
3.8996e-06
2.2646
-0.39723
1.83843e-05
2.26455
-0.39727
2.58e-05
2.26455
-0.397263
-1.93679e-05
2.26459
-0.397212
2.26452
-0.397269
3.27281e-05
2.53654
-0.369951
3.14915e-06
2.53666
-0.369918
1.73862e-05
2.5366
-0.369954
2.71269e-05
2.5366
-0.369951
-9.98415e-06
2.53665
-0.369909
2.53657
-0.369945
3.19102e-05
2.64232
-0.0989772
8.78862e-06
2.64248
-0.0989743
2.13598e-05
2.64242
-0.0989973
2.91815e-05
2.64242
-0.0989954
5.88057e-07
2.64247
-0.0989669
2.64238
-0.0989692
4.64885e-05
2.33823
0.611182
1.87533e-05
2.33841
0.611212
2.37736e-05
2.33835
0.611189
2.63588e-05
2.33835
0.61119
-1.0451e-06
2.33839
0.611209
2.33829
0.611215
5.70511e-05
1.56428
1.44291
2.34629e-05
1.56446
1.443
1.28867e-05
1.5644
1.44297
3.90709e-06
1.56441
1.44296
-2.69876e-05
1.56445
1.44298
1.56434
1.44294
4.48687e-05
0.724196
1.46424
1.41523e-05
0.724374
1.46434
3.55126e-06
0.724331
1.4643
-4.94914e-06
0.724331
1.4643
-3.01053e-05
0.724374
1.46431
0.724243
1.46426
-7.40411e-05
0.757627
-3.10354e-05
0.757695
-1.18166e-05
0.757676
4.10752e-06
0.757675
4.75765e-05
0.757695
0.757631
-0.000101002
0.612183
-1.6589
-6.20801e-05
0.612163
-1.65903
-2.0915e-05
0.612164
-1.65904
4.65547e-05
0.612137
-1.65904
0.000118767
0.61213
-1.65903
0.612207
-1.65891
-0.000112082
1.23225
-1.55058
-5.28992e-05
1.23219
-1.55071
1.23178e-06
1.23218
-1.55071
6.12359e-05
1.23215
-1.5507
0.000130113
1.23215
-1.5507
1.23227
-1.55056
-0.000101826
1.97214
-1.34639
-4.59195e-05
1.97206
-1.34651
-4.70243e-06
1.97204
-1.34652
3.79301e-05
1.97202
-1.34651
0.000106591
1.97203
-1.34649
1.97215
-1.34637
-0.000117164
3.03882
-1.50027
-4.77297e-05
3.03872
-1.50042
3.05007e-06
3.03871
-1.50043
5.15009e-05
3.03869
-1.50042
0.000136605
3.0387
-1.50041
3.03883
-1.50025
-0.000134186
4.40255
-1.75582
-6.3867e-05
4.40243
-1.75596
-6.11941e-06
4.40241
-1.75598
5.26999e-05
4.4024
-1.75597
0.000142353
4.4024
-1.75595
4.40255
-1.7558
-0.000148252
6.09917
-2.09375
-8.23128e-05
6.099
-2.09387
-1.90624e-05
6.09898
-2.0939
5.07757e-05
6.09896
-2.0939
0.000135553
6.09895
-2.09385
6.09915
-2.09373
-0.000122035
7.6985
-1.96916
-0.000110478
7.69834
-1.96927
-5.73911e-05
7.69832
-1.96934
1.73398e-05
7.69831
-1.96937
0.00011168
7.69829
-1.96934
7.69851
-1.96919
5.65247e-05
6.89655
0.702919
-2.51942e-05
6.89666
0.702785
-4.26978e-05
6.89658
0.702754
-3.47829e-05
6.89657
0.702737
4.39193e-05
6.89658
0.702672
6.8966
0.702988
0.000196836
3.5938
3.91374
6.56411e-05
3.59412
3.91388
3.0339e-05
3.59399
3.91382
4.15412e-06
3.59398
3.9138
-7.40604e-05
3.59405
3.91382
3.59394
3.9138
9.8992e-05
1.39569
3.64092
5.66278e-05
1.39591
3.64124
2.72291e-05
1.39583
3.64116
3.43191e-06
1.39583
3.64114
-4.72146e-05
1.39587
3.64121
1.39579
3.64104
0.000177507
0.570081
2.28968
4.90399e-05
0.570357
2.29003
1.09515e-05
0.570266
2.2899
-8.54182e-06
0.570267
2.28988
-7.74713e-05
0.570327
2.28992
0.570157
2.28982
-0.000117582
1.32782
-2.28381e-05
1.32796
-9.79408e-06
1.32793
1.40268e-05
1.32792
0.000103159
1.32793
1.32789
-4.48282e-05
-0.3319
-1.32695
-8.46544e-06
-0.331908
-1.32715
8.9107e-06
-0.331917
-1.32713
1.31722e-05
-0.331916
-1.32712
3.22995e-05
-0.331905
-1.32714
-0.331924
-1.32695
-2.01901e-05
-0.579861
-1.3026
1.44573e-06
-0.579839
-1.30281
-3.1604e-07
-0.579855
-1.30278
-8.35514e-08
-0.579851
-1.30277
2.29957e-05
-0.579825
-1.3028
-0.579892
-1.30257
1.01338e-05
-0.739136
-1.18712
3.23261e-05
-0.739035
-1.18734
1.31384e-05
-0.739045
-1.18731
1.77767e-06
-0.739039
-1.18731
2.88515e-05
-0.739001
-1.18734
-0.739136
-1.18709
-3.80096e-05
-0.742022
-1.49735
-9.30531e-06
-0.741885
-1.4976
-2.48371e-05
-0.741895
-1.49756
-2.15605e-05
-0.741891
-1.49757
4.80301e-05
-0.741855
-1.49763
-0.741995
-1.49734
-9.49423e-05
-0.784556
-1.71319
-4.70879e-05
-0.784449
-1.71344
-5.1153e-05
-0.784457
-1.71341
-3.52513e-05
-0.784457
-1.71342
6.51772e-05
-0.784427
-1.71348
-0.784519
-1.71321
-0.000118461
-0.766947
-2.11124
-5.3314e-05
-0.766922
-2.11146
-4.42451e-05
-0.766926
-2.11144
-2.16423e-05
-0.766926
-2.11144
8.32561e-05
-0.766907
-2.11147
-0.766903
-2.11126
-0.000135203
-0.157864
-2.57811
-4.65586e-05
-0.158018
-2.57826
-1.71023e-05
-0.15801
-2.57829
2.49988e-05
-0.157989
-2.57835
0.0002117
-0.158036
-2.57839
-0.157723
-2.57816
1.94028e-05
2.06993
-1.52489
4.49018e-05
2.06984
-1.5251
7.05056e-05
2.06981
-1.52509
5.21475e-05
2.06985
-1.52508
0.000103319
2.06985
-1.52526
2.07009
-1.52473
0.000114887
2.85478
3.12877
0.000116869
2.855
3.12873
0.000105655
2.85489
3.12875
3.92058e-05
2.85487
3.12885
-0.000171186
2.85493
3.12895
2.85493
3.1288
0.000204105
1.50992
4.98558
0.000107038
1.51025
4.98609
9.26414e-05
1.51012
4.98595
6.17555e-05
1.51007
4.98597
1.80814e-06
1.51006
4.98614
1.51015
4.98581
0.000220708
0.373439
3.42593
7.75303e-05
0.373664
3.42675
9.22655e-06
0.373595
3.42649
-7.80829e-06
0.373548
3.42642
-5.91612e-05
0.373541
3.42649
0.373574
3.42634
-4.68921e-05
1.70131
1.13398e-05
1.70156
3.55659e-05
1.7015
2.41721e-05
1.70148
-6.49784e-05
1.70156
1.7014
-2.88975e-06
-0.00149892
0.00150181
-3.12863e-06
-0.0014996
0.00150158
-3.07934e-06
-0.00150026
0.00150161
-2.68399e-06
-0.00150086
0.00150166
-1.78513e-06
-0.00150155
0.00150167
-0.00150271
0.00150181
-2.74451e-06
-0.00308688
0.0015919
-3.55423e-06
-0.00308831
0.00159169
-3.88693e-06
-0.00308971
0.00159152
-3.57689e-06
-0.00309097
0.00159127
-2.35848e-06
-0.00309234
0.00159084
-0.00309471
0.0015903
-2.25415e-06
-0.00489306
0.00180944
-4.06201e-06
-0.00489642
0.00181125
-5.10315e-06
-0.00489962
0.00181195
-4.97345e-06
-0.00490247
0.00181214
-3.4051e-06
-0.00490539
0.00181204
-0.00491
0.001812
-4.00914e-06
-0.00706099
0.00217257
-7.84162e-06
-0.00706936
0.00217701
-1.00052e-05
-0.00707649
0.0021791
-9.99096e-06
-0.00708266
0.00218013
-7.23322e-06
-0.00708857
0.0021803
-0.00709707
0.0021797
-1.35739e-05
-0.00971656
0.0026692
-2.13455e-05
-0.00973545
0.00267319
-2.42603e-05
-0.00974935
0.00267518
-2.28552e-05
-0.00976034
0.00267583
-1.62085e-05
-0.00977012
0.00267468
-0.00978385
0.00267078
-4.04691e-05
-0.0128057
0.00312922
-5.24662e-05
-0.0128391
0.00311469
-5.15767e-05
-0.0128581
0.00310721
-4.379e-05
-0.0128692
0.00310082
-2.91539e-05
-0.0128772
0.00309252
-0.0128921
0.00307954
-7.8008e-05
-0.016312
0.0035838
-8.12073e-05
-0.0163569
0.00351998
-6.15413e-05
-0.0163678
0.0034895
-3.79243e-05
-0.0163607
0.00346791
-1.74815e-05
-0.0163471
0.00344955
-0.0163417
0.00343204
-0.000102071
-0.0192442
0.00303377
-5.74144e-05
-0.0192871
0.00288434
1.23295e-05
-0.0192643
0.00282595
6.10637e-05
-0.0192097
0.0027997
6.53832e-05
-0.0191472
0.00279534
-0.0190946
0.00281757
-1.56253e-05
-0.0230483
0.00381918
8.98303e-05
-0.023037
0.00364285
0.000197475
-0.0229926
0.00361925
0.000253792
-0.0229306
0.00366339
0.000211549
-0.0228598
0.00375396
-0.0227789
0.00389492
0.000129233
-0.0211301
-0.00204822
0.000276052
-0.02109
-0.00209564
0.000375997
-0.0210436
-0.00205056
0.000392594
-0.0209839
-0.00196521
0.00028624
-0.0209071
-0.00184794
-0.0207981
-0.00169561
0.00022863
-0.0183663
-0.00299344
0.000328502
-0.0183259
-0.00286576
0.000359142
-0.0182987
-0.00277668
0.000333581
-0.0182669
-0.00269253
0.000228774
-0.0182121
-0.00259101
-0.0181082
-0.00246179
5.13732e-06
-0.0183722
-4.03307e-05
-0.0182819
-8.17269e-05
-0.0182582
-9.91056e-05
-0.0182502
-7.61366e-05
-0.0182364
-0.0181848
-2.45161e-06
-0.00127588
0.0027814
-2.70084e-06
-0.0012772
0.0027809
-2.58233e-06
-0.00127816
0.00278113
-2.09234e-06
-0.00127896
0.00278138
-1.14299e-06
-0.00127972
0.00278153
-0.00128085
0.00278207
-2.5362e-06
-0.00254632
0.00286658
-3.21992e-06
-0.00254934
0.00286637
-3.26805e-06
-0.00255162
0.00286651
-2.70841e-06
-0.00255353
0.00286651
-1.50798e-06
-0.00255527
0.00286621
-0.00255772
0.00286591
-4.55609e-06
-0.00372227
0.00299112
-6.2358e-06
-0.00372828
0.002993
-6.40633e-06
-0.00373279
0.00299411
-5.4472e-06
-0.00373649
0.0029947
-3.39415e-06
-0.00373976
0.00299484
-0.00374413
0.00299497
-1.01195e-05
-0.00462011
0.00308094
-1.3633e-05
-0.00463283
0.00308518
-1.37483e-05
-0.00464116
0.00308756
-1.16452e-05
-0.00464733
0.00308877
-7.46703e-06
-0.00465249
0.00308882
-0.00465956
0.00308787
-2.11101e-05
-0.00500452
0.00307431
-2.59368e-05
-0.00503045
0.00307512
-2.39839e-05
-0.00504329
0.00307508
-1.87194e-05
-0.00505043
0.00307374
-1.10833e-05
-0.00505522
0.00307029
-0.00506314
0.00306409
-4.08895e-05
-0.00459594
0.00276083
-3.79609e-05
-0.00465978
0.00274072
-2.63307e-05
-0.00467626
0.00272867
-1.44709e-05
-0.00467908
0.00271825
-5.67782e-06
-0.0046773
0.00270684
-0.00468201
0.00269339
-1.11887e-05
-0.00337068
0.00236917
5.18301e-06
-0.00343658
0.00228009
2.7982e-05
-0.00344306
0.00223354
4.106e-05
-0.00342696
0.00220301
3.60685e-05
-0.00340353
0.00218112
-0.00338269
0.0021685
6.48561e-05
-0.000929153
0.00052673
0.000127378
-0.000993999
0.000378311
0.000171353
-0.000981942
0.000319971
0.000176918
-0.000933623
0.000299846
0.000126774
-0.00086839
0.000309458
-0.000794705
0.000355139
0.000194087
0.00187376
0.000821049
0.000300627
0.00184773
0.000692752
0.000343839
0.00190415
0.000688064
0.000318659
0.00201061
0.000742419
0.000206973
0.00214908
0.000846179
0.0023058
0.00100044
0.0002527
0.00522012
-0.00564879
0.000363124
0.00528382
-0.00564431
0.000383155
0.00538879
-0.00555683
0.000332846
0.00552557
-0.00543122
0.000204353
0.00569392
-0.00526617
0.0058792
-0.00506566
0.00011744
0.00638481
-0.004277
8.87929e-05
0.00650514
-0.00406062
1.74137e-05
0.0066247
-0.00394248
-3.7181e-05
0.00674567
-0.00385897
-5.48022e-05
0.00688511
-0.00376583
0.00702275
-0.00366074
-0.000186226
-0.0118022
-0.000351848
-0.0116119
-0.000446106
-0.0115396
-0.000420309
-0.0115308
-0.000285936
-0.0114871
-0.0114476
-8.08674e-07
-0.0011153
0.00389837
-1.07516e-06
-0.00111605
0.0038978
-1.00439e-06
-0.00111642
0.0038979
-6.51848e-07
-0.00111663
0.00389799
-2.04129e-07
-0.00111665
0.00389802
-0.00111665
0.00389852
-1.00436e-06
-0.00235888
0.00411194
-1.23022e-06
-0.00236042
0.0041116
-1.01983e-06
-0.0023613
0.00411166
-5.32002e-07
-0.00236182
0.00411157
-3.84865e-08
-0.00236195
0.00411127
-0.00236206
0.00411121
-2.14036e-06
-0.00402924
0.00466421
-2.44547e-06
-0.00403252
0.00466597
-2.08785e-06
-0.00403431
0.00466713
-1.42274e-06
-0.00403531
0.00466772
-6.85808e-07
-0.00403555
0.0046678
-0.0040359
0.00466812
-5.38612e-06
-0.00658824
0.00564554
-5.78571e-06
-0.00659594
0.00564925
-4.81237e-06
-0.00659918
0.00565158
-3.45563e-06
-0.00660055
0.00565283
-1.91431e-06
-0.00660061
0.00565269
-0.00660085
0.00565147
-1.25001e-05
-0.010509
0.00700746
-1.08323e-05
-0.010527
0.0070049
-5.89201e-06
-0.0105325
0.00700399
-1.63718e-06
-0.0105324
0.00700227
6.26974e-07
-0.0105291
0.00699777
-0.010525
0.00698979
-1.61881e-05
-0.0163813
0.00864924
-9.88811e-07
-0.0164123
0.00861172
1.65892e-05
-0.0164134
0.00859304
2.57884e-05
-0.0164005
0.00857832
2.18095e-05
-0.0163799
0.00856254
-0.0163552
0.00854539
1.41824e-05
-0.0248893
0.0108632
6.36217e-05
-0.024928
0.0107469
0.000104377
-0.0249136
0.0106934
0.00011738
-0.0248716
0.010661
8.86124e-05
-0.0248129
0.0106425
-0.024743
0.0106439
0.000102492
-0.0364333
0.0119681
0.000202112
-0.0364302
0.0117805
0.000257284
-0.0363694
0.0117197
0.000252782
-0.0362803
0.0117117
0.000174273
-0.0361775
0.011751
-0.0360648
0.01185
0.00022052
-0.0534992
0.0176655
0.000358272
-0.0534242
0.0175479
0.000412326
-0.0533095
0.0175729
0.000378375
-0.0531701
0.017665
0.000236895
-0.0530145
0.017823
-0.0528757
0.0180481
0.000157902
-0.0677143
0.00840703
0.000150982
-0.0675544
0.00849142
8.3908e-05
-0.0674106
0.00861086
2.88599e-06
-0.0672691
0.00874863
-3.31006e-05
-0.0671482
0.00890367
-0.0670523
0.00907826
-5.80862e-05
-0.0774589
0.00552489
-0.000166781
-0.0772775
0.00577056
-0.000257424
-0.0771527
0.00589009
-0.00028105
-0.0770555
0.00594996
-0.000198395
-0.0770073
0.00601047
-0.0769688
0.00605763
-0.000434338
-0.0888272
-0.000620352
-0.0887024
-0.000635052
-0.0886764
-0.000508601
-0.0887123
-0.000130073
-0.0888721
-0.0885464
-3.22092e-07
-0.000773
0.00467192
-3.8213e-07
-0.000773833
0.00467113
-1.56433e-07
-0.000773985
0.00467119
1.56871e-07
-0.00077389
0.00467117
3.21098e-07
-0.00077355
0.00467108
-0.000773219
0.00467179
-5.80412e-07
-0.00143422
0.0047736
-3.86084e-07
-0.00143582
0.00477302
1.3559e-07
-0.00143621
0.00477306
5.90728e-07
-0.00143602
0.00477298
6.90976e-07
-0.00143536
0.00477271
-0.00143474
0.00477318
-1.65866e-06
-0.00172406
0.00495581
-1.28715e-06
-0.00172639
0.00495626
-4.58891e-07
-0.00172671
0.00495681
2.12317e-07
-0.00172609
0.00495702
3.75708e-07
-0.00172476
0.00495691
-0.00172372
0.00495744
-2.60488e-06
-0.00124316
0.00516741
-1.22856e-06
-0.00124631
0.00516808
7.77337e-07
-0.00124529
0.0051684
2.13747e-06
-0.00124234
0.00516805
2.15364e-06
-0.0012385
0.00516693
-0.0012356
0.00516604
4.55254e-06
0.000342212
0.00541779
1.09334e-05
0.000339198
0.00541392
1.59257e-05
0.000343948
0.00541082
1.76508e-05
0.000352093
0.00540734
1.37332e-05
0.000361103
0.00540331
0.000368736
0.00539952
3.66638e-05
0.00361701
0.00533852
5.48027e-05
0.00361575
0.00531841
6.21776e-05
0.00362598
0.00530493
5.91502e-05
0.0036414
0.00529291
4.12929e-05
0.00365948
0.00528211
0.00368012
0.00527447
9.54653e-05
0.00886198
0.00552353
0.000125622
0.00887583
0.00545709
0.00012606
0.00889715
0.00542178
0.000106613
0.00892374
0.00539736
6.54009e-05
0.00895733
0.00538457
0.00899976
0.00538874
0.000151953
0.0175764
0.00310145
0.000163263
0.0176271
0.00301715
0.000126413
0.0176615
0.00299132
7.6431e-05
0.0176952
0.00298929
2.54342e-05
0.0177432
0.00301544
0.0178025
0.00307316
8.59381e-05
0.0331402
0.00201501
1.52283e-05
0.0332601
0.00198509
-8.79093e-05
0.0333173
0.00202005
-0.00015619
0.0333497
0.00207923
-0.000155616
0.0333955
0.00217086
0.033414
0.00228247
-0.000121054
0.0548306
-0.0131626
-0.000278832
0.0549915
-0.0130815
-0.000404277
0.055029
-0.0129749
-0.000411245
0.0549858
-0.0128808
-0.000320053
0.0549757
-0.0127673
0.0548395
-0.0126676
-0.000318064
0.0730176
-0.0123434
-0.000491273
0.0731314
-0.0121934
-0.000535981
0.0731006
-0.0121341
-0.000432663
0.07294
-0.0121056
-0.000271363
0.0728707
-0.0120447
0.0727076
-0.012081
-0.000109042
-0.0157003
-0.000178829
-0.0155011
-0.000197581
-0.0155575
1.48771e-05
-0.0159841
0.000206978
-0.0161932
-0.0156316
2.50276e-05
-1.40906
0.0820853
1.00923e-05
-1.40923
0.0820938
-1.0598e-05
-1.40921
0.082094
-2.43902e-05
-1.4092
0.0820953
-2.81022e-05
-1.40923
0.082097
-1.40906
0.082081
3.14412e-05
-1.42451
0.0154222
8.51123e-06
-1.42463
0.015422
-4.58123e-06
-1.42462
0.0154211
-1.48534e-05
-1.42462
0.0154215
-3.41753e-05
-1.42464
0.0154216
-1.42451
0.0154163
2.41473e-05
0.0229827
7.10984e-06
0.0229818
-1.41273e-06
0.0229823
-9.33958e-06
0.0229822
-2.63823e-05
0.0229818
0.022983
2.76976e-05
-1.46353
0.242983
7.69208e-06
-1.4637
0.243008
-9.15382e-06
-1.46367
0.243007
-1.73221e-05
-1.46367
0.243004
-2.86062e-05
-1.4637
0.243005
-1.4635
0.242979
2.82666e-05
-1.48813
0.039994
5.65776e-06
-1.48825
0.0399947
-8.12065e-06
-1.48823
0.0399948
-2.09684e-05
-1.48823
0.0399963
-4.4372e-05
-1.48825
0.0399981
-1.48812
0.0399939
2.54947e-05
0.0342001
8.25142e-06
0.0341985
-1.99044e-06
0.034199
-1.21636e-05
0.0341992
-3.01705e-05
0.0341992
0.0342016
2.24273e-05
-1.38838
0.444216
4.29255e-06
-1.38855
0.444244
-5.90489e-06
-1.38853
0.444239
-1.60186e-05
-1.38852
0.444235
-3.45755e-05
-1.38856
0.444238
-1.38835
0.444203
3.18487e-05
-1.44575
0.0973374
1.04716e-05
-1.44587
0.0973304
-2.40684e-06
-1.44585
0.0973333
-1.73196e-05
-1.44585
0.0973359
-4.53376e-05
-1.44587
0.0973383
-1.44575
0.0973469
2.49025e-05
0.0502869
8.17027e-06
0.0502861
-1.724e-06
0.0502859
-1.06461e-05
0.0502857
-2.68038e-05
0.0502855
0.0502866
3.00961e-05
-1.62389
0.570724
1.27691e-05
-1.62408
0.570749
-1.08181e-06
-1.62405
0.570741
-2.06414e-05
-1.62405
0.570736
-4.94558e-05
-1.62409
0.570736
-1.62389
0.570701
4.18735e-05
-1.59742
0.0708279
2.03931e-05
-1.59754
0.0708135
6.90977e-06
-1.59752
0.070819
-9.95363e-06
-1.59752
0.0708223
-4.19229e-05
-1.59755
0.070822
-1.59743
0.0708439
2.64826e-05
0.0363645
7.36201e-06
0.0363641
-1.48927e-06
0.0363627
-8.95565e-06
0.0363616
-2.63434e-05
0.0363614
0.0363605
3.06748e-05
-1.69987
0.557373
1.38751e-05
-1.70007
0.557396
-2.08596e-07
-1.70004
0.557384
-2.00613e-05
-1.70004
0.55738
-4.4935e-05
-1.70009
0.557377
-1.6999
0.557344
4.25202e-05
-1.64353
0.0144492
2.0119e-05
-1.64366
0.0144264
8.15594e-06
-1.64364
0.0144335
-6.10975e-06
-1.64364
0.0144363
-3.75641e-05
-1.64367
0.0144323
-1.64355
0.0144611
2.43345e-05
0.0206012
4.88281e-06
0.0206021
-2.84406e-06
0.0206004
-8.88019e-06
0.0205987
-2.66144e-05
0.0205985
0.020595
2.72799e-05
-1.83551
0.281616
9.93876e-06
-1.83568
0.281632
-4.68155e-06
-1.83565
0.281613
-1.06369e-05
-1.83565
0.281593
-1.9516e-05
-1.83568
0.28159
-1.83553
0.281593
2.71513e-05
-1.76237
-0.0587152
7.21876e-06
-1.76249
-0.0587358
1.49683e-06
-1.76248
-0.0587278
-1.79037e-06
-1.76248
-0.0587255
-2.07473e-05
-1.7625
-0.0587268
-1.76237
-0.0587144
2.16248e-05
-0.00167329
2.12975e-06
-0.00167099
-6.9693e-06
-0.00167211
-1.24048e-05
-0.00167469
-2.6318e-05
-0.0016741
-0.00167934
1.48568e-06
-1.93407
-0.36242
9.90739e-06
-1.9342
-0.362436
1.25113e-06
-1.9342
-0.362463
2.16133e-06
-1.93423
-0.362527
3.97694e-05
-1.93426
-0.362576
-1.93408
-0.362446
9.39109e-06
-1.75759
-0.235208
4.65613e-06
-1.7577
-0.235233
2.53868e-07
-1.75769
-0.23524
-8.92424e-06
-1.75768
-0.23526
-4.12568e-05
-1.7577
-0.235262
-1.75755
-0.235286
1.92498e-05
0.0693916
2.06054e-06
0.0694002
-1.01981e-05
0.0693994
-2.02174e-05
0.0693972
-3.65411e-05
0.0694016
0.0693891
3.23772e-05
-2.36945
0.482103
8.46399e-05
-2.36965
0.482058
9.71136e-05
-2.36964
0.482074
2.79605e-05
-2.36963
0.482085
-0.000187975
-2.36976
0.482141
-2.36944
0.482075
9.00044e-06
-1.78669
-0.817977
-1.86575e-05
-1.7868
-0.818058
-4.48342e-05
-1.78679
-0.818064
-3.66932e-05
-1.7868
-0.818095
-0.000100462
-1.78688
-0.818083
-1.78668
-0.818148
3.1176e-05
0.0709059
3.66194e-06
0.0709116
-1.02423e-05
0.0709013
-6.66037e-06
0.0708765
-1.55158e-05
0.0708673
0.0709014
0.000118619
0.459801
3.15096
0.00025802
0.45957
3.15108
0.000307627
0.459701
3.15108
0.000157621
0.459919
3.15116
-0.000115885
0.460045
3.15132
0.459741
3.15102
5.43492e-05
-1.44935
1.09112
-3.16183e-05
-1.4495
1.09109
-5.42697e-05
-1.44943
1.0911
-4.46568e-05
-1.44935
1.09117
9.99641e-06
-1.44936
1.09127
-1.44932
1.09092
1.79377e-06
0.598544
-4.43583e-05
0.598469
-4.93153e-05
0.598521
-3.66823e-05
0.598599
-5.13227e-05
0.598673
0.598448
0.00026111
4.99544
3.14083
0.000215697
4.99607
3.14114
0.000206472
4.99598
3.14105
0.000128301
4.9961
3.14112
9.83545e-05
4.99629
3.1412
4.99589
3.14104
0.000159513
3.18079
2.90561
0.00022711
3.1812
2.9059
0.000220749
3.18129
2.90579
0.000105275
3.18152
2.90586
0.000126572
3.18137
2.90617
3.18162
2.90532
-4.3422e-05
2.51556
-9.49509e-05
2.51564
-0.000228398
2.51566
-0.000167325
2.51545
5.7495e-05
2.51555
2.51518
0.00019917
4.79478
1.77178
0.000182849
4.79572
1.77219
0.000161015
4.79545
1.77212
0.000124157
4.79529
1.77228
-0.000217108
4.79517
1.77286
4.79563
1.77152
0.000278093
5.61169
2.08841
0.000187133
5.61259
2.08912
0.000149156
5.61247
2.0888
7.51803e-05
5.61266
2.08856
-0.000187735
5.61305
2.08855
5.61248
2.08828
5.07445e-05
3.43597
0.000109728
3.43613
0.000317211
3.43588
1.03465e-05
3.43576
-0.00155698
3.4365
3.43443
6.96801e-05
2.1996
1.27342
6.44595e-05
2.20017
1.27358
8.23787e-05
2.2
1.2736
5.40891e-05
2.20011
1.27368
-0.000145689
2.20053
1.27409
2.19948
1.27329
0.000204617
2.26545
2.02236
-2.13375e-05
2.2668
2.02272
-0.000296615
2.26645
2.02263
-8.39948e-05
2.26547
2.02299
0.000469813
2.26475
2.02378
2.26629
2.02195
-0.000278391
3.35126
-0.000259845
3.35073
0.000364902
3.34983
0.000262917
3.35084
-0.00278137
3.35403
3.3476
0.000785743
0.816533
-1.94521
1.12789
-0.000169451
0.818438
-1.94581
1.12833
-0.000797629
0.817788
-1.94581
1.12866
0.000511802
0.81537
-1.9447
1.12803
0.00325747
0.814336
-1.94673
1.12965
0.819603
-1.94233
1.12598
0.00195048
-0.105282
1.98284
-1.06297
-0.00130629
-0.104203
1.98867
-1.06277
-0.00452032
-0.105982
1.9904
-1.06341
-0.00812779
-0.0993367
1.97727
-1.05895
0.0183768
-0.0855631
1.92586
-1.05247
-0.127077
2.03407
-1.06902
-0.00160805
0.861346
-0.829701
-0.00201794
0.860587
-0.830043
-0.00476143
0.863156
-0.830045
0.00152659
0.850938
-0.827934
0.0303092
0.83625
-0.836465
0.870805
-0.815801
0.000480008
-0.603059
-1.34263
0.000193689
-0.603505
-1.34202
-0.00233099
-0.60141
-1.34188
0.00218345
-0.605864
-1.34335
0.0203575
-0.625081
-1.33982
-0.570258
-1.35171
-0.000511576
1.60343
-0.223137
0.00218519
1.60311
-0.220648
0.00859384
1.60359
-0.221014
0.00624371
1.60104
-0.227288
-0.0384782
1.59543
-0.249932
1.62343
-0.19809
0.00130153
-2.52635
-0.000592855
-2.52816
6.22602e-05
-2.52553
-0.00441994
-2.53446
-0.0133916
-2.56976
-2.48234
-0.000214561
-0.851039
-0.49138
0.000170892
-0.851925
-0.490476
0.000108987
-0.851537
-0.49028
0.000798164
-0.850746
-0.493298
0.00306451
-0.846258
-0.495828
-0.85937
-0.489277
0.000107234
1.18386
-2.25814
-0.000407471
1.18511
-2.25717
-0.00137702
1.18521
-2.25679
0.000636498
1.18275
-2.2628
0.000284278
1.17785
-2.27369
1.19178
-2.24895
0.00155806
-4.3687
-0.000807919
-4.36778
-0.00308646
-4.36515
-0.00328048
-4.374
-0.00197529
-4.40341
-4.33715
-0.000232541
-0.202034
-0.289114
0.000162861
-0.201838
-0.289033
0.000958594
-0.201982
-0.289093
0.000266788
-0.20315
-0.289457
-0.000505114
-0.205197
-0.289859
-0.200227
-0.289555
0.000922449
0.131153
-2.59225
-0.000602453
0.135353
-2.59284
-0.00516754
0.138565
-2.59277
-0.00284046
0.122215
-2.59049
0.0133454
0.0924701
-2.58754
0.159345
-2.59518
0.00084074
-4.24614
-0.00206023
-4.24869
-0.00879645
-4.24791
-0.00485058
-4.23658
0.0155569
-4.22365
-4.25124
0.000181579
0.313973
-0.603268
0.000189886
0.314096
-0.603138
0.000138976
0.314076
-0.603118
0.000307144
0.313988
-0.603613
0.000835065
0.314277
-0.604664
0.313726
-0.602446
4.83171e-05
-0.28368
-1.99464
0.000308682
-0.284128
-1.99487
0.00105854
-0.284616
-1.99483
0.000516572
-0.280774
-1.99519
-0.00227107
-0.274109
-1.99637
-0.290114
-1.99361
-0.000298586
-3.4019
-0.00379198
-3.40175
-0.0080178
-3.40096
-0.00538821
-3.39957
0.00624716
-3.3991
-3.40073
3.84938e-05
0.670116
0.000180993
0.670304
0.000485377
0.670177
0.000179801
0.67037
-0.00127406
0.670883
0.669574
0.000243063
0.697588
6.56687e-05
0.698325
-0.000368516
0.698409
-9.73687e-05
0.6979
0.00117579
0.697024
0.69909
8.83707e-06
-0.00125898
-0.00306506
-0.00188919
0.00398034
2.59216e-07
0.00533283
-0.000661555
-1.94724e-08
0.00533171
-0.0006614
-5.58466e-08
0.00533167
-0.000661282
-1.31515e-08
0.00533162
-0.000661151
-1.55561e-08
0.00533156
-0.000660982
0.00533258
-0.000661085
-5.97414e-09
0.00558817
-0.000255985
-2.66007e-07
0.00558698
-0.000255946
-3.10936e-07
0.00558701
-0.000255952
-2.69523e-07
0.00558705
-0.000255956
-1.924e-07
0.00558709
-0.000255963
0.0055883
-0.000256064
-1.15246e-07
-0.000339616
-1.66916e-07
-0.000339596
-1.4843e-07
-0.000339574
-9.99189e-08
-0.000339547
-5.93046e-08
-0.00033952
-0.00033953
-2.522e-08
0.00564959
-0.00153823
8.69452e-08
0.00564855
-0.00153784
3.16334e-07
0.00564855
-0.0015376
4.54243e-07
0.00564851
-0.00153733
3.89551e-07
0.00564841
-0.00153708
0.00564941
-0.00153721
1.11532e-08
0.00569531
-0.000302431
1.94279e-08
0.00569413
-0.000302168
1.01816e-07
0.00569411
-0.000302088
1.41083e-07
0.0056941
-0.000301995
4.13339e-08
0.00569407
-0.000301912
0.00569523
-0.000302103
-2.80991e-08
-0.000956638
2.79334e-08
-0.000956557
8.34248e-08
-0.000956509
1.10797e-07
-0.000956458
7.00772e-08
-0.000956412
-0.00095644
2.24158e-08
0.0064317
-0.00301433
6.54268e-07
0.00643085
-0.00301327
1.17151e-06
0.00643097
-0.00301255
1.30405e-06
0.00643098
-0.00301175
9.66622e-07
0.00643087
-0.00301103
0.00643201
-0.00301095
1.58493e-07
0.00598792
0.000140966
3.49071e-07
0.00598656
0.000141575
4.80419e-07
0.00598649
0.000141875
4.51335e-07
0.0059864
0.000142211
1.76164e-07
0.00598632
0.000142527
0.00598764
0.000142372
1.52111e-07
-0.0021645
2.6037e-07
-0.00216439
2.90428e-07
-0.00216427
2.15575e-07
-0.00216412
5.53425e-08
-0.00216398
-0.00216393
1.39101e-06
0.00780724
-0.00565552
2.98562e-06
0.00780624
-0.00565291
3.8682e-06
0.00780627
-0.00565121
3.80471e-06
0.00780609
-0.00564951
2.69078e-06
0.0078056
-0.00564823
0.00780641
-0.00564828
7.72176e-07
0.00631619
0.00163117
1.27606e-06
0.00631455
0.00163265
1.5379e-06
0.00631422
0.00163362
1.49695e-06
0.00631386
0.00163458
9.32365e-07
0.00631353
0.00163539
0.00631478
0.00163525
1.9879e-07
-0.00454256
5.07144e-07
-0.00454237
6.31574e-07
-0.00454212
5.72762e-07
-0.00454182
4.62545e-07
-0.0045416
-0.00454142
5.88311e-06
0.00987021
-0.0101135
9.47815e-06
0.0098663
-0.010108
1.05581e-05
0.00986466
-0.0101052
9.35373e-06
0.00986272
-0.0101027
6.14904e-06
0.00986033
-0.0101014
0.00985974
-0.0101025
3.81068e-06
0.00689857
0.00459928
5.40651e-06
0.0068956
0.00460236
5.88064e-06
0.00689424
0.00460412
5.36167e-06
0.0068928
0.00460543
3.3083e-06
0.0068916
0.00460628
0.00689275
0.00460507
9.4283e-07
-0.00869864
1.81326e-06
-0.00869879
2.21685e-06
-0.00869891
1.98433e-06
-0.00869881
1.43234e-06
-0.00869894
-0.00869853
1.51808e-05
0.0131904
-0.0179797
2.16331e-05
0.0131777
-0.0179728
2.17286e-05
0.0131715
-0.0179713
1.74932e-05
0.0131656
-0.0179713
1.00591e-05
0.0131602
-0.017973
0.0131586
-0.0179776
1.24913e-05
0.00767036
0.0101075
1.5109e-05
0.00766603
0.0101118
1.38995e-05
0.00766343
0.0101133
1.06121e-05
0.00766091
0.0101125
4.44395e-06
0.00765903
0.0101121
0.00766002
0.0101073
9.09451e-07
-0.015532
1.97743e-06
-0.0155333
2.6455e-06
-0.015535
2.17942e-06
-0.0155355
1.92829e-06
-0.0155369
-0.015535
3.89057e-05
0.0179765
-0.0304711
4.67945e-05
0.0179465
-0.0304704
4.07164e-05
0.0179324
-0.0304767
2.72478e-05
0.017922
-0.0304839
1.15872e-05
0.0179161
-0.0304903
0.0179211
-0.0304984
2.47039e-05
0.00924697
0.0188123
2.50331e-05
0.00924592
0.0188115
1.68772e-05
0.00924504
0.0188078
8.27119e-06
0.00924409
0.0187977
-2.36482e-06
0.00924326
0.0187949
0.00924271
0.0187837
-2.23192e-06
-0.0261716
-1.22875e-06
-0.0261732
2.25021e-06
-0.0261784
1.78961e-06
-0.0261751
9.19049e-06
-0.0261848
-0.0261683
2.91537e-05
0.0301246
-0.0575237
1.85375e-05
0.0300885
-0.0575317
-3.06238e-06
0.0300796
-0.0575442
-2.11386e-05
0.0300776
-0.0575545
-2.28851e-05
0.0300891
-0.057562
0.0301151
-0.0575626
1.36167e-05
0.0127212
0.0362017
2.81832e-06
0.0127159
0.0361949
-1.35837e-05
0.012715
0.0361892
-2.08367e-05
0.0127166
0.0361669
-2.59418e-05
0.0127179
0.0361726
0.0127222
0.0361509
-2.00636e-05
-0.03272
-3.43569e-05
-0.0327317