/*--------------------------------*- C++ -*----------------------------------*\
| =========                 |                                                 |
| \\      /  F ield         | OpenFOAM: The Open Source CFD Toolbox           |
|  \\    /   O peration     | Version:  v1612+                                |
|   \\  /    A nd           | Web:      www.OpenFOAM.com                      |
|    \\/     M anipulation  |                                                 |
\*---------------------------------------------------------------------------*/
FoamFile
{
    version     2.0;
    format      ascii;
    class       volVectorField;
    location    "1.9";
    object      U;
}
// * * * * * * * * * * * * * * * * * * * * * * * * * * * * * * * * * * * * * //

dimensions      [0 1 -1 0 0 0 0];

internalField   nonuniform List<vector> 
1116
(
(0.546274 -1.03509e-06 -0.472032)
(0.546276 -4.87496e-07 -0.472036)
(0.546275 1.04255e-06 -0.472037)
(0.546276 1.32882e-06 -0.472037)
(0.546277 1.96975e-06 -0.472036)
(0.546276 1.06446e-06 -0.472032)
(1.68554 -3.56981e-06 -0.653448)
(1.68555 4.94611e-08 -0.653456)
(1.68555 1.48829e-07 -0.653454)
(1.68555 1.59123e-07 -0.653453)
(1.68555 6.53088e-07 -0.653453)
(1.68554 3.74557e-06 -0.653444)
(2.79816 -4.01676e-06 -0.542596)
(2.79817 5.0574e-08 -0.542603)
(2.79817 -2.30568e-06 -0.5426)
(2.79817 -3.01013e-06 -0.542601)
(2.79817 -1.59489e-06 -0.542602)
(2.79815 4.40669e-06 -0.542592)
(3.74171 -6.51159e-06 -0.451167)
(3.74172 -3.70939e-06 -0.451175)
(3.74172 -6.61138e-06 -0.451171)
(3.74172 -7.97256e-06 -0.451175)
(3.74171 -5.77398e-06 -0.45118)
(3.74169 2.76642e-06 -0.451171)
(4.5235 -9.61522e-06 -0.294789)
(4.52353 -8.22952e-06 -0.294798)
(4.52352 -1.06779e-05 -0.294793)
(4.52352 -1.23065e-05 -0.294798)
(4.52352 -1.05314e-05 -0.294808)
(4.52349 -3.05427e-07 -0.294803)
(5.20364 -1.29903e-05 -0.252374)
(5.20367 -1.37212e-05 -0.25239)
(5.20367 -1.41755e-05 -0.252385)
(5.20366 -1.53951e-05 -0.252392)
(5.20367 -1.29521e-05 -0.252405)
(5.20362 -1.80743e-06 -0.252403)
(5.92101 -1.44868e-05 -0.279695)
(5.92105 -1.74515e-05 -0.279728)
(5.92104 -1.47586e-05 -0.279726)
(5.92104 -1.56218e-05 -0.279731)
(5.92105 -1.10837e-05 -0.279744)
(5.921 -1.32121e-06 -0.279744)
(6.74774 -1.54988e-05 -0.290294)
(6.7478 -1.83133e-05 -0.290348)
(6.74779 -1.34238e-05 -0.290348)
(6.74779 -1.68039e-05 -0.29035)
(6.7478 -9.68896e-06 -0.290359)
(6.74774 -8.80617e-07 -0.290357)
(7.38109 -7.46441e-06 -0.280193)
(7.38117 -7.65407e-06 -0.280254)
(7.38117 -8.85251e-06 -0.280259)
(7.38117 -1.34616e-05 -0.280259)
(7.38118 -6.30294e-06 -0.280263)
(7.38113 -9.68338e-07 -0.280263)
(7.0105 4.93072e-06 -0.359533)
(7.01061 3.56996e-06 -0.359586)
(7.01059 -5.27268e-06 -0.359586)
(7.0106 -5.34887e-06 -0.359587)
(7.01063 -8.52583e-06 -0.359592)
(7.01056 -7.89331e-06 -0.359598)
(5.70402 1.73632e-05 -0.267289)
(5.70413 1.86922e-05 -0.267326)
(5.7041 2.21033e-06 -0.267319)
(5.70411 2.6614e-06 -0.267319)
(5.70416 -1.79283e-05 -0.267344)
(5.70409 -1.75314e-05 -0.267313)
(3.94361 -8.53767e-05 0.969905)
(3.9438 -0.000105303 0.969776)
(3.94376 -4.07264e-05 0.96981)
(3.94377 -2.13467e-05 0.969792)
(3.94381 3.7203e-05 0.969777)
(3.94371 4.48765e-05 0.969823)
(0.769774 -1.3734e-06 -1.7066)
(0.76978 -6.94368e-07 -1.70662)
(0.769776 1.06677e-06 -1.70661)
(0.769775 -1.70059e-06 -1.70661)
(0.769776 -2.40999e-06 -1.70661)
(0.769773 -1.44621e-06 -1.7066)
(1.94766 -4.30777e-06 -1.83218)
(1.94768 4.59603e-06 -1.8322)
(1.94767 -8.02273e-06 -1.83219)
(1.94767 -1.95115e-06 -1.83219)
(1.94766 -1.02674e-05 -1.83219)
(1.94766 3.31832e-06 -1.83217)
(2.96759 -8.27972e-06 -1.42088)
(2.96762 1.75888e-06 -1.4209)
(2.96762 -1.24161e-05 -1.42088)
(2.96761 -4.38336e-06 -1.42089)
(2.96761 -1.49877e-05 -1.4209)
(2.96758 2.44081e-06 -1.42086)
(3.85827 -1.23171e-05 -1.33078)
(3.85831 -1.44615e-05 -1.33081)
(3.8583 -1.36433e-05 -1.3308)
(3.85829 -7.14653e-06 -1.33081)
(3.85829 -1.0557e-05 -1.33083)
(3.85824 -2.29504e-06 -1.3308)
(4.74287 -1.82214e-06 -1.24387)
(4.74292 -1.7174e-05 -1.24391)
(4.7429 -1.60355e-05 -1.2439)
(4.74289 -1.32625e-05 -1.24391)
(4.7429 -9.90509e-06 -1.24394)
(4.74284 -1.10289e-05 -1.24392)
(5.41717 1.13071e-05 -1.334)
(5.41723 -1.211e-05 -1.33406)
(5.41722 -9.97627e-06 -1.33406)
(5.41721 -1.24253e-05 -1.33406)
(5.41723 -5.89557e-06 -1.33408)
(5.41716 -1.73429e-05 -1.33407)
(6.38514 3.65528e-05 -1.52219)
(6.3853 2.90756e-06 -1.52228)
(6.38527 -5.91234e-06 -1.52228)
(6.38526 -1.44766e-05 -1.52228)
(6.38528 -3.34734e-06 -1.52229)
(6.3852 -2.47519e-05 -1.52229)
(7.85618 7.89956e-05 -1.45664)
(7.85652 3.83387e-05 -1.45675)
(7.85643 -7.08608e-06 -1.45674)
(7.85642 -2.64573e-05 -1.45676)
(7.85646 -9.37582e-06 -1.45678)
(7.85634 -3.46294e-05 -1.45676)
(9.23559 0.000106697 -0.359524)
(9.23603 6.68159e-05 -0.35954)
(9.23587 6.06138e-06 -0.35951)
(9.23587 -2.90231e-05 -0.35955)
(9.23592 2.99997e-07 -0.359603)
(9.23575 -2.50611e-05 -0.359563)
(10.8585 5.50811e-05 1.55916)
(10.8588 2.46094e-05 1.55914)
(10.8587 -1.28083e-05 1.55919)
(10.8587 -1.84297e-05 1.55917)
(10.8587 -4.71838e-05 1.55914)
(10.8586 -6.9601e-05 1.55913)
(8.99664 7.15101e-05 2.89219)
(8.99689 4.79507e-05 2.89222)
(8.99676 -7.23099e-06 2.89224)
(8.99675 -8.79593e-05 2.89223)
(8.99677 -9.41031e-06 2.89223)
(8.99675 6.74159e-05 2.89216)
(8.08801 -4.75044e-05 6.18893)
(8.08864 -4.89774e-05 6.18874)
(8.08861 6.22965e-06 6.18874)
(8.08868 7.57054e-05 6.18874)
(8.08882 8.51721e-06 6.18875)
(8.08857 -5.90392e-05 6.18897)
(0.38362 9.74983e-07 -3.19361)
(0.383622 1.2973e-06 -3.19363)
(0.383628 -7.18878e-07 -3.19362)
(0.38363 -2.91183e-06 -3.19361)
(0.383628 -3.35366e-06 -3.19362)
(0.383628 -6.16691e-07 -3.19362)
(1.86343 1.53362e-05 -3.08801)
(1.86344 -9.87256e-06 -3.08805)
(1.86344 2.35885e-06 -3.08804)
(1.86343 -9.17395e-06 -3.08803)
(1.86343 8.90041e-06 -3.08804)
(1.86343 -1.81456e-05 -3.08801)
(3.0919 1.35435e-05 -2.45416)
(3.09192 -2.13885e-05 -2.45419)
(3.09191 8.02871e-06 -2.45418)
(3.09191 -1.21133e-05 -2.45418)
(3.09192 9.30022e-06 -2.4542)
(3.09188 -2.95706e-05 -2.45416)
(4.26826 3.05814e-05 -2.64143)
(4.26833 -1.68667e-05 -2.64151)
(4.26833 3.79944e-05 -2.6415)
(4.26833 -2.16288e-06 -2.64149)
(4.26835 2.4239e-05 -2.6415)
(4.26831 -4.62963e-05 -2.64147)
(6.10622 8.06043e-05 -1.87397)
(6.10639 4.50411e-05 -1.87403)
(6.10638 0.000114919 -1.87407)
(6.10638 3.93021e-05 -1.87407)
(6.10639 7.22403e-05 -1.87407)
(6.10636 -4.65138e-05 -1.87409)
(7.46091 0.000104813 -2.44443)
(7.46126 7.38256e-05 -2.44448)
(7.46126 0.00013393 -2.44448)
(7.46122 2.83013e-05 -2.44447)
(7.46122 5.33192e-05 -2.44446)
(7.46121 -6.88447e-05 -2.4445)
(10.3682 -1.63432e-05 -3.08168)
(10.3683 -0.000166962 -3.08176)
(10.3683 -0.000101577 -3.08176)
(10.3682 -0.000186443 -3.08179)
(10.3682 -0.000154776 -3.08183)
(10.368 -0.000178041 -3.08187)
(11.4251 -5.46118e-05 -2.69464)
(11.425 -0.000262463 -2.69454)
(11.4249 -0.000237606 -2.69457)
(11.4249 -0.000261203 -2.69469)
(11.425 -0.000208734 -2.69477)
(11.4244 -0.000211694 -2.69476)
(9.97866 0.000149902 -0.906748)
(9.979 2.01136e-05 -0.9064)
(9.97867 -3.80125e-05 -0.906271)
(9.97865 -1.26265e-05 -0.906378)
(9.97906 0.000100557 -0.906465)
(9.97839 4.0517e-05 -0.906385)
(6.87346 0.000201471 2.16831)
(6.87458 0.000289116 2.16875)
(6.87385 0.000248733 2.16863)
(6.87386 0.000167646 2.16853)
(6.87343 0.000209187 2.16872)
(6.87457 0.000111077 2.16769)
(5.11988 0.000157754 5.25097)
(5.12002 0.000167545 5.25115)
(5.11986 0.000131139 5.25112)
(5.11953 -0.000233901 5.25114)
(5.12006 0.000321374 5.25052)
(5.12 0.000588879 5.25118)
(10.8677 -1.76722e-05 13.5491)
(10.8688 -2.79966e-05 13.5492)
(10.8687 -5.4672e-05 13.5492)
(10.8688 0.000171032 13.5492)
(10.8703 -0.000379974 13.5501)
(10.867 -0.000587442 13.5488)
(-1.42577 7.14707e-06 -3.91103)
(-1.42582 7.74638e-06 -3.91106)
(-1.42579 2.1319e-06 -3.91105)
(-1.42578 6.76302e-08 -3.91104)
(-1.42579 1.22335e-05 -3.91104)
(-1.42579 9.65124e-06 -3.91104)
(2.13165 2.70797e-05 -4.97454)
(2.13168 -2.61265e-05 -4.97456)
(2.13166 4.37314e-05 -4.97456)
(2.13167 1.21944e-05 -4.97457)
(2.13167 8.85222e-05 -4.97454)
(2.13164 5.97724e-06 -4.9745)
(3.53039 4.7109e-05 -3.99789)
(3.53035 -2.8629e-05 -3.99793)
(3.53032 9.87849e-05 -3.99796)
(3.53034 3.57766e-05 -3.99795)
(3.53041 0.00012548 -3.99791)
(3.53044 -4.53682e-06 -3.9979)
(3.95644 0.000155459 -4.40116)
(3.9563 0.000105254 -4.40137)
(3.95642 0.000231041 -4.40134)
(3.95649 7.55143e-05 -4.40127)
(3.95654 0.000139419 -4.40121)
(3.95667 -4.71699e-05 -4.40131)
(3.13952 0.00015119 -1.33529)
(3.13987 0.000207597 -1.33513)
(3.13999 0.000301688 -1.33523)
(3.1401 0.000154686 -1.33524)
(3.14012 0.000158947 -1.33516)
(3.14007 -5.41717e-06 -1.33531)
(0.366557 -2.24328e-05 -4.09913)
(0.366748 -6.93084e-06 -4.09896)
(0.367083 5.00763e-05 -4.09878)
(0.367244 4.09036e-05 -4.09869)
(0.367265 7.57683e-05 -4.09867)
(0.367314 3.99321e-05 -4.09869)
(-1.50533 -8.42949e-05 -3.46901)
(-1.50531 -9.86713e-05 -3.4691)
(-1.5051 -8.33028e-05 -3.46909)
(-1.50501 -3.3694e-05 -3.46912)
(-1.50498 4.2402e-05 -3.46928)
(-1.50473 5.06722e-05 -3.46947)
(-0.78519 -5.95343e-05 -1.24024)
(-0.785303 -3.51241e-05 -1.24041)
(-0.785166 -3.30821e-06 -1.24058)
(-0.785146 6.3948e-05 -1.24076)
(-0.78512 4.06232e-05 -1.241)
(-0.784825 -1.72592e-05 -1.24136)
(0.0971235 8.51935e-05 0.480688)
(0.0969936 0.000161189 0.480794)
(0.097085 0.000175575 0.480671)
(0.0971118 0.000284959 0.480584)
(0.0974064 0.000176757 0.480698)
(0.0974845 8.99283e-07 0.480258)
(5.59402 0.000134254 4.46689)
(5.59457 0.000293658 4.46758)
(5.59467 0.000346096 4.46793)
(5.59483 0.000574261 4.46801)
(5.59482 0.000404553 4.46792)
(5.5956 3.65651e-05 4.46734)
(5.2092 0.000227792 10.4064)
(5.20963 0.000494884 10.4075)
(5.20994 0.000324284 10.4076)
(5.20936 -1.4675e-05 10.4077)
(5.21023 0.000455651 10.4014)
(5.21056 0.000440954 10.4134)
(11.5158 -0.000103976 16.6631)
(11.5167 -1.77653e-05 16.6632)
(11.5166 -0.000185327 16.6631)
(11.5166 0.000206019 16.6633)
(11.5229 -0.00102136 16.6701)
(11.5096 -0.00145288 16.6563)
(-0.00135037 4.80111e-07 -0.00136534)
(-0.00135024 4.3563e-07 -0.00136535)
(-0.00135021 -7.42837e-08 -0.00136538)
(-0.00135019 -5.62589e-08 -0.0013654)
(-0.00135016 -1.19834e-07 -0.00136543)
(-0.00135016 -9.26005e-08 -0.00136555)
(-0.00410424 3.32831e-07 -0.00142026)
(-0.00410391 2.60539e-07 -0.00142027)
(-0.0041039 -1.55077e-07 -0.00142028)
(-0.00410387 -1.37594e-07 -0.00142031)
(-0.00410383 -2.76805e-07 -0.00142035)
(-0.00410395 -1.8842e-07 -0.00142046)
(-0.00701192 2.35611e-07 -0.00152273)
(-0.00701147 2.21149e-07 -0.00152269)
(-0.00701152 -1.10038e-07 -0.00152271)
(-0.0070115 -1.43533e-07 -0.00152274)
(-0.0070115 -2.60189e-07 -0.00152276)
(-0.00701181 -1.76559e-07 -0.00152287)
(-0.0101537 1.70072e-07 -0.00164947)
(-0.0101532 2.51369e-07 -0.00164931)
(-0.0101533 -1.61068e-09 -0.00164929)
(-0.0101533 -8.85213e-08 -0.00164928)
(-0.0101533 -2.02149e-07 -0.00164929)
(-0.0101537 -1.57846e-07 -0.00164937)
(-0.0135828 2.22552e-07 -0.00173952)
(-0.0135822 4.47862e-07 -0.001739)
(-0.0135823 1.8887e-07 -0.00173886)
(-0.0135823 -1.75043e-08 -0.00173877)
(-0.0135823 -1.7206e-07 -0.00173874)
(-0.0135828 -1.48282e-07 -0.0017388)
(-0.0173106 4.74355e-07 -0.00169045)
(-0.0173101 7.92677e-07 -0.00168916)
(-0.01731 2.97397e-07 -0.00168876)
(-0.0173099 -1.00839e-07 -0.00168857)
(-0.0173095 -3.73497e-07 -0.00168857)
(-0.0173099 -2.45239e-07 -0.00168877)
(-0.0213011 8.48613e-07 -0.00138573)
(-0.0213006 1.0984e-06 -0.0013833)
(-0.0213002 -1.12946e-08 -0.0013826)
(-0.0212996 -7.71669e-07 -0.00138244)
(-0.0212986 -1.21878e-06 -0.0013827)
(-0.0212983 -6.51632e-07 -0.0013834)
(-0.0254698 1.40679e-06 -0.000883251)
(-0.025469 1.36135e-06 -0.000879809)
(-0.0254679 -8.462e-07 -0.000879088)
(-0.0254666 -2.12765e-06 -0.000879314)
(-0.0254646 -2.86228e-06 -0.000880197)
(-0.0254629 -1.46628e-06 -0.000881806)
(-0.0291105 1.8364e-06 -0.000611469)
(-0.0291086 1.17259e-06 -0.00060754)
(-0.0291067 -2.22595e-06 -0.000607085)
(-0.0291046 -3.81576e-06 -0.000607974)
(-0.0291017 -4.76334e-06 -0.000609686)
(-0.0290985 -2.4307e-06 -0.000612313)
(-0.0299241 9.48532e-07 1.54285e-05)
(-0.0299206 -4.37546e-07 1.94271e-05)
(-0.029918 -3.49985e-06 1.91084e-05)
(-0.029915 -4.72115e-06 1.71939e-05)
(-0.0299109 -5.40131e-06 1.41949e-05)
(-0.0299058 -2.70287e-06 1.00038e-05)
(-0.0278578 -1.40328e-06 0.00258719)
(-0.0278534 -3.88347e-06 0.00258442)
(-0.0278509 -5.43449e-06 0.00258228)
(-0.0278482 -5.94738e-06 0.0025795)
(-0.027844 -5.86141e-06 0.00257582)
(-0.0278373 -2.82819e-06 0.00257064)
(-0.0154773 -2.0885e-06 0.0112946)
(-0.0154746 -3.32298e-06 0.0112891)
(-0.0154736 -2.37267e-06 0.0112873)
(-0.0154727 -1.54902e-06 0.0112857)
(-0.0154709 -4.80784e-07 0.0112841)
(-0.0154674 1.46452e-07 0.0112818)
(-0.00132225 3.66373e-07 -0.00398583)
(-0.00132212 2.46694e-07 -0.00398575)
(-0.00132211 -1.67552e-07 -0.00398579)
(-0.00132208 -1.38995e-07 -0.00398581)
(-0.00132206 -2.77081e-07 -0.00398585)
(-0.00132207 -2.15696e-07 -0.00398609)
(-0.00402804 2.31691e-07 -0.00415837)
(-0.00402772 1.31754e-07 -0.00415829)
(-0.00402772 -2.03951e-07 -0.00415832)
(-0.00402767 -2.14121e-07 -0.00415835)
(-0.00402763 -3.90101e-07 -0.0041584)
(-0.00402776 -2.79142e-07 -0.00415863)
(-0.00692095 1.4806e-07 -0.00449333)
(-0.00692051 8.17299e-08 -0.00449316)
(-0.00692051 -1.91652e-07 -0.00449317)
(-0.00692047 -2.40241e-07 -0.0044932)
(-0.00692045 -3.83137e-07 -0.00449323)
(-0.00692076 -2.67828e-07 -0.00449345)
(-0.0101358 8.79544e-08 -0.00496741)
(-0.0101352 4.98785e-08 -0.00496695)
(-0.0101352 -1.68764e-07 -0.00496689)
(-0.0101352 -2.47543e-07 -0.00496684)
(-0.0101352 -3.55694e-07 -0.00496684)
(-0.0101356 -2.3977e-07 -0.00496704)
(-0.013802 5.99374e-08 -0.00553862)
(-0.0138015 2.47107e-08 -0.00553742)
(-0.0138015 -1.85357e-07 -0.00553707)
(-0.0138014 -3.11803e-07 -0.00553685)
(-0.0138013 -3.78985e-07 -0.00553677)
(-0.0138018 -2.21199e-07 -0.00553699)
(-0.0179691 1.38327e-07 -0.00613367)
(-0.0179688 2.91006e-08 -0.00613095)
(-0.0179687 -3.69513e-07 -0.00613007)
(-0.0179685 -6.1456e-07 -0.00612969)
(-0.017968 -6.77207e-07 -0.0061297)
(-0.0179682 -3.32484e-07 -0.00613029)
(-0.0223873 2.74405e-07 -0.00652001)
(-0.0223872 -7.09426e-08 -0.0065151)
(-0.0223868 -9.1188e-07 -0.00651367)
(-0.022386 -1.35077e-06 -0.00651341)
(-0.0223847 -1.47901e-06 -0.00651406)
(-0.022384 -7.12061e-07 -0.00651582)
(-0.0263315 2.37989e-07 -0.00607672)
(-0.0263315 -5.74525e-07 -0.00606945)
(-0.0263305 -1.87778e-06 -0.00606781)
(-0.0263289 -2.44457e-06 -0.00606824)
(-0.0263263 -2.61773e-06 -0.00607023)
(-0.0263238 -1.26127e-06 -0.00607394)
(-0.0295718 4.37153e-08 -0.00340556)
(-0.0295729 -1.14131e-06 -0.00339618)
(-0.0295716 -2.6627e-06 -0.00339449)
(-0.0295687 -3.23937e-06 -0.00339595)
(-0.0295643 -3.41765e-06 -0.00339967)
(-0.029559 -1.67548e-06 -0.00340553)
(-0.0323259 7.24209e-07 0.00467436)
(-0.0323274 -6.15823e-07 0.00468327)
(-0.0323255 -3.23032e-06 0.00468396)
(-0.0323212 -4.3237e-06 0.00468142)
(-0.0323146 -5.11696e-06 0.00467627)
(-0.0323062 -2.71077e-06 0.00466864)
(-0.0353763 -1.74615e-06 0.0149915)
(-0.0353758 -4.17501e-06 0.0149867)
(-0.0353739 -5.25602e-06 0.0149842)
(-0.0353699 -5.86712e-06 0.0149808)
(-0.035363 -6.23937e-06 0.0149754)
(-0.0353525 -3.25152e-06 0.0149669)
(-0.0260186 -3.43825e-06 0.0401718)
(-0.0260167 -4.96385e-06 0.0401597)
(-0.0260156 -2.54562e-06 0.0401557)
(-0.0260137 -9.15742e-07 0.0401527)
(-0.0260103 6.36728e-07 0.0401493)
(-0.0260048 6.64978e-07 0.0401454)
(-0.00123482 2.87112e-07 -0.00644687)
(-0.0012347 1.62192e-07 -0.00644667)
(-0.00123471 -1.81691e-07 -0.00644667)
(-0.00123469 -1.57211e-07 -0.00644668)
(-0.00123468 -2.71564e-07 -0.00644669)
(-0.00123471 -1.98614e-07 -0.00644695)
(-0.00377182 1.64355e-07 -0.0067507)
(-0.00377154 7.04049e-08 -0.00675047)
(-0.00377155 -1.99055e-07 -0.00675048)
(-0.00377152 -2.16136e-07 -0.00675049)
(-0.0037715 -3.53675e-07 -0.0067505)
(-0.00377165 -2.41599e-07 -0.00675079)
(-0.00651057 1.06537e-07 -0.00734926)
(-0.00651019 3.32443e-08 -0.00734892)
(-0.00651019 -2.02155e-07 -0.00734892)
(-0.00651016 -2.56691e-07 -0.00734891)
(-0.00651014 -3.72268e-07 -0.00734891)
(-0.00651047 -2.43166e-07 -0.0073492)
(-0.00957355 6.09124e-08 -0.00821492)
(-0.00957308 -2.29758e-08 -0.0082143)
(-0.00957308 -2.48779e-07 -0.00821419)
(-0.00957306 -3.34181e-07 -0.00821412)
(-0.00957303 -4.25704e-07 -0.00821407)
(-0.00957351 -2.54417e-07 -0.00821435)
(-0.0130707 -9.26938e-09 -0.00926884)
(-0.0130703 -1.35671e-07 -0.00926735)
(-0.0130703 -3.50705e-07 -0.00926694)
(-0.0130702 -4.55721e-07 -0.0092667)
(-0.0130701 -4.68344e-07 -0.00926661)
(-0.0130706 -2.32869e-07 -0.00926706)
(-0.0171887 -5.31326e-08 -0.010337)
(-0.0171885 -3.10541e-07 -0.0103341)
(-0.0171884 -6.2025e-07 -0.0103332)
(-0.0171882 -7.4675e-07 -0.0103329)
(-0.0171878 -6.8682e-07 -0.010333)
(-0.0171881 -2.92955e-07 -0.0103341)
(-0.0223829 -4.30033e-08 -0.0110029)
(-0.0223831 -4.8455e-07 -0.0109979)
(-0.022383 -9.96644e-07 -0.0109967)
(-0.0223823 -1.18694e-06 -0.0109967)
(-0.0223813 -1.14639e-06 -0.0109978)
(-0.022381 -4.92382e-07 -0.0110004)
(-0.0296708 3.22117e-07 -0.0108083)
(-0.0296721 -1.4095e-07 -0.010801)
(-0.0296721 -1.02275e-06 -0.0107996)
(-0.0296709 -1.27359e-06 -0.0108006)
(-0.0296689 -1.49029e-06 -0.0108032)
(-0.0296675 -7.42882e-07 -0.0108079)
(-0.0403347 1.70037e-06 -0.00968582)
(-0.0403379 1.97728e-06 -0.00967592)
(-0.0403383 1.68748e-07 -0.00967447)
(-0.0403369 -7.95239e-07 -0.0096764)
(-0.0403342 -1.89156e-06 -0.00968066)
(-0.0403319 -1.18016e-06 -0.00968755)
(-0.0479658 2.18326e-06 -0.0060427)
(-0.0479707 3.13983e-06 -0.00603347)
(-0.0479719 1.88926e-06 -0.00603265)
(-0.0479709 1.24507e-06 -0.00603504)
(-0.0479684 -6.13823e-07 -0.00603991)
(-0.0479661 -9.19903e-07 -0.00604812)
(-0.0549021 -3.83393e-07 -0.00142435)
(-0.0549035 5.37158e-07 -0.00142964)
(-0.0549033 2.51026e-06 -0.00143291)
(-0.0549014 3.84827e-06 -0.00143697)
(-0.0548973 3.8817e-06 -0.0014443)
(-0.0548913 1.71494e-06 -0.00145747)
(-0.0402224 -5.38125e-06 0.0362068)
(-0.04022 -7.32802e-06 0.0361924)
(-0.0402184 -2.68988e-06 0.0361872)
(-0.0402166 1.17925e-06 0.0361834)
(-0.0402135 4.55788e-06 0.0361788)
(-0.0402087 3.19076e-06 0.0361723)
(-0.00108347 1.58493e-07 -0.00863603)
(-0.00108339 5.44829e-08 -0.00863572)
(-0.00108339 -1.67938e-07 -0.0086357)
(-0.00108338 -1.54725e-07 -0.0086357)
(-0.00108337 -1.95911e-07 -0.00863569)
(-0.00108339 -1.28805e-07 -0.00863606)
(-0.00332759 9.23479e-08 -0.00909394)
(-0.00332735 6.08287e-09 -0.00909359)
(-0.00332734 -1.85826e-07 -0.00909359)
(-0.00332732 -1.99692e-07 -0.00909359)
(-0.0033273 -2.89565e-07 -0.00909358)
(-0.00332744 -1.88031e-07 -0.00909396)
(-0.00581973 3.03548e-08 -0.0100138)
(-0.00581933 -6.08174e-08 -0.0100134)
(-0.0058193 -2.23605e-07 -0.0100134)
(-0.00581927 -2.62558e-07 -0.0100133)
(-0.00581925 -3.28863e-07 -0.0100133)
(-0.00581957 -1.97049e-07 -0.0100137)
(-0.00878152 -8.22265e-08 -0.0113906)
(-0.008781 -2.2794e-07 -0.0113899)
(-0.00878093 -3.48714e-07 -0.0113897)
(-0.00878087 -3.88882e-07 -0.0113896)
(-0.00878084 -3.70435e-07 -0.0113895)
(-0.00878127 -1.83026e-07 -0.01139)
(-0.0125108 -1.19683e-07 -0.013174)
(-0.01251 -3.78177e-07 -0.0131726)
(-0.0125098 -5.50591e-07 -0.0131722)
(-0.0125097 -5.60518e-07 -0.013172)
(-0.0125096 -5.1233e-07 -0.0131718)
(-0.0125101 -2.45369e-07 -0.0131725)
(-0.0174259 -4.3648e-07 -0.0152018)
(-0.0174247 -9.13653e-07 -0.0151992)
(-0.0174243 -9.26822e-07 -0.0151985)
(-0.0174239 -8.24854e-07 -0.0151983)
(-0.0174235 -5.39649e-07 -0.0151984)
(-0.0174239 -1.76176e-07 -0.0151995)
(-0.0235978 -7.14464e-07 -0.0170981)
(-0.0235958 -1.41522e-06 -0.0170939)
(-0.023595 -1.25274e-06 -0.017093)
(-0.0235942 -9.87412e-07 -0.0170931)
(-0.0235933 -5.74865e-07 -0.017094)
(-0.0235934 -1.70296e-07 -0.0170965)
(-0.030185 -1.27702e-06 -0.017487)
(-0.0301821 -2.155e-06 -0.0174811)
(-0.0301807 -1.36285e-06 -0.0174801)
(-0.0301793 -6.81126e-07 -0.017481)
(-0.030178 -6.72617e-08 -0.0174831)
(-0.0301777 7.24804e-08 -0.0174872)
(-0.0369376 -1.93238e-06 -0.0147171)
(-0.0369343 -2.76318e-06 -0.0147092)
(-0.0369328 -1.02791e-06 -0.0147078)
(-0.0369314 1.0351e-07 -0.0147093)
(-0.03693 8.43916e-07 -0.0147126)
(-0.0369296 5.03246e-07 -0.014718)
(-0.0440074 -3.74022e-06 0.00334493)
(-0.0440063 -4.71129e-06 0.00335381)
(-0.0440056 -4.10981e-07 0.00335542)
(-0.0440042 2.31949e-06 0.00335373)
(-0.0440013 3.57163e-06 0.00334932)
(-0.0439978 1.75184e-06 0.00334225)
(-0.0662551 -2.4932e-06 0.0425722)
(-0.0662456 -3.76591e-06 0.0425646)
(-0.0662404 -1.83437e-06 0.0425614)
(-0.066238 -6.83846e-07 0.0425587)
(-0.0662341 -5.59199e-07 0.0425529)
(-0.0662238 -4.02986e-07 0.0425419)
(-0.074118 -7.29148e-06 0.194314)
(-0.0740972 -1.07166e-05 0.194262)
(-0.0740886 -5.51863e-06 0.194244)
(-0.074086 -7.05975e-07 0.194238)
(-0.0740851 5.27515e-06 0.194237)
(-0.0740818 4.42434e-06 0.194244)
(-3.44441 2.54609e-05 -4.17218)
(-3.44449 1.67251e-05 -4.17216)
(-3.44442 1.62109e-05 -4.17215)
(-3.44446 1.57107e-05 -4.17219)
(-3.44448 4.44653e-05 -4.17218)
(-3.44431 1.81128e-05 -4.17208)
(-2.19918 5.17631e-05 -4.81666)
(-2.199 2.8013e-05 -4.81666)
(-2.19889 3.01812e-05 -4.8167)
(-2.19915 2.13367e-05 -4.81666)
(-2.19919 0.000132875 -4.81661)
(-2.19841 5.36856e-05 -4.8167)
(-0.434826 -2.32975e-05 -4.12759)
(-0.434895 -3.83898e-05 -4.12772)
(-0.434869 -1.3463e-06 -4.12773)
(-0.434866 -9.93463e-06 -4.12764)
(-0.434886 -2.90155e-05 -4.12762)
(-0.434862 -2.58759e-05 -4.12778)
(2.4073 -3.61834e-05 -5.81384)
(2.40741 -5.47303e-05 -5.81379)
(2.40739 -1.21321e-05 -5.81379)
(2.40732 3.06347e-05 -5.81386)
(2.4073 4.39157e-07 -5.81387)
(2.40733 7.10506e-06 -5.81375)
(2.10277 -6.08511e-05 -4.53791)
(2.10288 -7.97604e-05 -4.53798)
(2.10284 -1.46975e-05 -4.53794)
(2.10283 9.19221e-06 -4.53792)
(2.10287 -8.12137e-05 -4.53795)
(2.10287 -4.78219e-05 -4.53777)
(-0.536901 -1.23022e-07 -5.16665)
(-0.536919 -6.80749e-06 -5.16675)
(-0.536924 -1.2041e-05 -5.16667)
(-0.536933 -9.04387e-06 -5.16664)
(-0.536935 -2.34223e-05 -5.16668)
(-0.53692 -2.09338e-05 -5.16652)
(-1.10073 -3.32131e-05 -2.05618)
(-1.10114 -1.89553e-05 -2.0564)
(-1.10115 4.14006e-05 -2.05642)
(-1.1011 2.5139e-05 -2.05642)
(-1.10095 4.62273e-05 -2.0564)
(-1.10072 6.32911e-05 -2.05641)
(-1.67983 -1.63471e-05 -1.12732)
(-1.68011 8.72213e-06 -1.12733)
(-1.6801 -3.53057e-06 -1.12727)
(-1.68015 1.49219e-05 -1.12727)
(-1.68012 5.53294e-06 -1.1273)
(-1.67979 3.77971e-05 -1.12724)
(-0.600613 7.11246e-06 -0.994993)
(-0.600594 -4.19779e-07 -0.995006)
(-0.600617 2.02706e-06 -0.994953)
(-0.600623 2.57553e-06 -0.994939)
(-0.600613 4.30803e-06 -0.994949)
(-0.600632 -3.83042e-06 -0.994851)
(-2.5281 5.78112e-05 -2.49108)
(-2.52853 2.20352e-05 -2.49123)
(-2.52844 -8.51376e-05 -2.49112)
(-2.52843 -6.42908e-05 -2.49107)
(-2.52841 -6.8608e-05 -2.4911)
(-2.52809 3.70551e-06 -2.49111)
(-0.813312 -5.75274e-06 -2.60877)
(-0.813502 -5.61241e-05 -2.60887)
(-0.813564 -7.84073e-05 -2.60883)
(-0.813618 -6.52501e-05 -2.60882)
(-0.813657 -5.33542e-05 -2.60882)
(-0.813601 -2.23658e-05 -2.60868)
(-0.30602 5.70884e-06 -2.7293)
(-0.306012 4.04384e-06 -2.72937)
(-0.306039 -7.97616e-06 -2.72935)
(-0.306049 -1.45208e-05 -2.72936)
(-0.306056 -1.82869e-05 -2.72938)
(-0.306085 -8.72675e-06 -2.72929)
(-2.13432 -2.92689e-05 -0.52698)
(-2.13452 -4.1096e-05 -0.526983)
(-2.1345 -3.0412e-05 -0.52683)
(-2.13449 -1.7959e-05 -0.526711)
(-2.13448 2.61863e-06 -0.5267)
(-2.13425 1.26044e-05 -0.526651)
(-0.85459 -1.29619e-05 -2.48898)
(-0.854699 -3.63798e-05 -2.4891)
(-0.854734 -5.65245e-05 -2.48907)
(-0.854779 -4.61222e-05 -2.48905)
(-0.854804 -2.6629e-05 -2.48903)
(-0.854744 -1.72742e-06 -2.48887)
(-0.0547456 -1.92241e-06 -2.50328)
(-0.0547497 -8.91476e-06 -2.5034)
(-0.0547596 -1.96507e-05 -2.50342)
(-0.0547666 -2.89759e-05 -2.50344)
(-0.0547712 -2.51395e-05 -2.50348)
(-0.0547835 -9.99658e-06 -2.5034)
(-1.19077 -8.59878e-05 -1.38488)
(-1.19112 -8.83248e-05 -1.38494)
(-1.19114 -1.34275e-05 -1.38486)
(-1.19113 1.38881e-05 -1.38479)
(-1.1911 5.89184e-05 -1.3848)
(-1.19084 4.05816e-05 -1.38476)
(-0.184191 -1.51856e-05 -2.90835)
(-0.184261 -3.09457e-05 -2.90845)
(-0.184281 -3.26893e-05 -2.90842)
(-0.1843 -2.36227e-05 -2.9084)
(-0.18431 -1.80957e-06 -2.9084)
(-0.184222 1.20094e-05 -2.90826)
(-0.00317158 -1.70156e-06 -2.58899)
(-0.00317834 -1.06497e-05 -2.58909)
(-0.00317925 -1.80062e-05 -2.58909)
(-0.00317722 -2.10868e-05 -2.5891)
(-0.00317288 -2.0781e-05 -2.58913)
(-0.0031673 -1.0766e-05 -2.58907)
(-0.879444 -1.37464e-05 -2.77964)
(-0.879832 3.92798e-05 -2.77976)
(-0.879743 0.000129345 -2.77974)
(-0.879658 0.000127572 -2.77975)
(-0.879595 0.000166361 -2.77978)
(-0.879243 9.898e-05 -2.77975)
(-0.29437 -2.6962e-05 -2.85096)
(-0.294464 -3.25812e-05 -2.85098)
(-0.294482 2.17652e-06 -2.85098)
(-0.294476 5.7344e-06 -2.85101)
(-0.29448 5.17346e-05 -2.85105)
(-0.294341 5.29243e-05 -2.85103)
(-0.0633946 -1.00103e-05 -2.78202)
(-0.0634068 -1.59341e-05 -2.78206)
(-0.063406 -8.38926e-06 -2.78206)
(-0.0634011 -1.84074e-06 -2.78206)
(-0.0633944 3.91285e-06 -2.78207)
(-0.0633786 3.50204e-06 -2.78204)
(-0.672333 5.68882e-05 -3.02561)
(-0.672949 0.00012404 -3.02585)
(-0.672787 0.000138551 -3.02581)
(-0.672691 0.000114144 -3.02583)
(-0.672642 0.000121347 -3.0258)
(-0.672109 8.00678e-05 -3.02581)
(-0.354828 -2.71459e-05 -2.63649)
(-0.355122 -3.10167e-05 -2.63651)
(-0.355143 -4.21709e-06 -2.63653)
(-0.355166 -4.04238e-05 -2.63657)
(-0.355244 3.58994e-05 -2.63661)
(-0.354857 7.51833e-05 -2.63665)
(-0.0427942 -1.78198e-05 -2.65899)
(-0.0428464 -2.54384e-05 -2.65897)
(-0.0428662 -1.1695e-05 -2.65895)
(-0.0428816 -1.36628e-05 -2.65895)
(-0.0428997 8.9948e-06 -2.65895)
(-0.0428683 1.92234e-05 -2.65895)
(-0.373009 0.000130057 -3.50721)
(-0.373518 0.000255093 -3.50728)
(-0.373419 0.000229478 -3.50715)
(-0.373444 0.000236569 -3.50704)
(-0.373586 0.000112129 -3.50682)
(-0.372929 -1.63401e-05 -3.50703)
(-0.763106 -4.41857e-05 -3.36447)
(-0.763603 -4.34939e-05 -3.3644)
(-0.763586 -4.42756e-05 -3.3644)
(-0.763693 -0.000140211 -3.36436)
(-0.763987 5.02842e-06 -3.36419)
(-0.763145 0.000100073 -3.36443)
(-0.262634 -6.5679e-05 -2.98579)
(-0.262808 -0.0001092 -2.98574)
(-0.262848 -9.37415e-05 -2.98572)
(-0.262916 -0.000128935 -2.9857)
(-0.262997 -4.36657e-05 -2.98566)
(-0.262845 3.41471e-05 -2.98585)
(3.31112 0.000212875 -1.11325)
(3.31131 0.000339244 -1.11265)
(3.31166 0.000209418 -1.11218)
(3.31173 0.000218089 -1.11186)
(3.31267 0.000522482 -1.11175)
(3.31188 0.000433019 -1.11116)
(-0.215261 0.000114356 -2.81002)
(-0.215731 0.000190136 -2.80959)
(-0.215498 5.23039e-05 -2.80927)
(-0.21576 -7.73198e-05 -2.80899)
(-0.215576 0.000356843 -2.80886)
(-0.215465 0.000433352 -2.80813)
(-0.322393 -4.8736e-05 -3.49197)
(-0.322769 -8.88852e-05 -3.49182)
(-0.322764 -0.000137542 -3.49168)
(-0.322927 -8.62547e-05 -3.4915)
(-0.322948 -0.000164592 -3.49131)
(-0.322973 -0.000170783 -3.49139)
(5.34139 0.000147388 6.39325)
(5.34196 0.000394937 6.39356)
(5.34234 -8.64358e-05 6.39469)
(5.34192 0.000914863 6.39462)
(5.34091 -0.000945961 6.38495)
(5.34311 -0.00221656 6.40365)
(1.73043 0.000438507 1.55698)
(1.73112 0.000521075 1.5578)
(1.73174 -0.000228767 1.55892)
(1.73146 0.00197088 1.55907)
(1.72769 -0.00166293 1.5519)
(1.73645 -0.00390445 1.5675)
(-0.728452 0.000247948 -3.67374)
(-0.728718 0.000301514 -3.67314)
(-0.728509 -2.48275e-05 -3.67272)
(-0.728522 0.00101749 -3.67215)
(-0.728785 -0.000851069 -3.67392)
(-0.728387 -0.00192201 -3.66818)
(11.7463 -0.000106756 18.1003)
(11.7471 0.000219679 18.1012)
(11.747 -0.000318167 18.1011)
(11.7467 0.00112318 18.1015)
(11.7599 -0.00237506 18.1116)
(11.7329 -0.00408583 18.091)
(9.59483 0.000194226 16.7543)
(9.59574 0.000428998 16.7548)
(9.59566 -0.000821217 16.7554)
(9.59545 0.0016248 16.7559)
(9.60563 -0.00263914 16.7598)
(9.586 -0.0052465 16.7511)
(5.36916 0.000524278 12.1343)
(5.37041 0.000398473 12.1351)
(5.37009 -0.000690102 12.1356)
(5.3702 0.00111809 12.1362)
(5.3746 -0.0017468 12.1356)
(5.36649 -0.00334551 12.1372)
(-0.948676 -7.20314e-06 -0.308984)
(-0.948652 -1.31961e-05 -0.308994)
(-0.948631 6.17433e-07 -0.308996)
(-0.948641 -1.45222e-06 -0.308995)
(-0.948618 1.38902e-05 -0.308994)
(-0.948653 2.33851e-05 -0.308977)
(-0.313602 7.84432e-07 -0.787421)
(-0.313563 3.32742e-06 -0.787429)
(-0.313548 1.76757e-05 -0.787424)
(-0.313573 1.24188e-05 -0.78742)
(-0.313529 4.7838e-05 -0.787408)
(-0.313683 5.1166e-05 -0.787387)
(0.417622 -1.05716e-05 -0.179483)
(0.417677 -3.26948e-08 -0.179444)
(0.417667 3.15256e-05 -0.17945)
(0.417633 4.00118e-05 -0.17947)
(0.417644 8.13174e-05 -0.17948)
(0.417461 6.31803e-05 -0.179566)
(-1.00121 1.16439e-05 -0.647821)
(-1.00116 -1.10976e-05 -0.647849)
(-1.00111 3.02069e-06 -0.647851)
(-1.00116 -9.94678e-06 -0.647843)
(-1.00105 1.72791e-06 -0.647857)
(-1.00126 2.90712e-05 -0.647763)
(-0.227602 1.95206e-05 -1.42091)
(-0.22758 1.13681e-05 -1.421)
(-0.227528 3.67476e-05 -1.42098)
(-0.227606 -1.54252e-05 -1.42096)
(-0.227456 0.000110791 -1.42096)
(-0.227902 0.000169773 -1.42078)
(0.763927 -3.87097e-05 -0.225071)
(0.764037 -1.70331e-05 -0.225102)
(0.764034 7.48827e-05 -0.225082)
(0.763934 4.68633e-05 -0.225127)
(0.764092 0.000223483 -0.225172)
(0.763504 0.000230679 -0.225217)
(-2.85891 2.07462e-06 -0.985257)
(-2.85898 -4.60721e-05 -0.985321)
(-2.85892 3.15406e-05 -0.985318)
(-2.85893 -8.36119e-05 -0.98529)
(-2.85905 0.000111794 -0.985318)
(-2.8586 0.000277618 -0.985025)
(-0.639474 9.68466e-05 -2.34126)
(-0.639544 5.25344e-05 -2.34145)
(-0.639367 7.71334e-05 -2.34139)
(-0.639547 -0.000100742 -2.34133)
(-0.638802 0.000337089 -2.34146)
(-0.640387 0.000563006 -2.3408)
(1.49042 -9.57691e-05 -0.145568)
(1.49078 -5.01447e-05 -0.145276)
(1.49082 0.000219512 -0.145308)
(1.49049 -9.99512e-05 -0.14552)
(1.49129 0.000657546 -0.145139)
(1.48907 0.000933283 -0.146544)
(-1.46748 0.000206089 -1.82486)
(-1.46752 0.000123676 -1.82479)
(-1.46729 -1.20136e-05 -1.82486)
(-1.46747 0.000144345 -1.82479)
(-1.4663 -0.000492366 -1.82527)
(-1.46823 -0.0005967 -1.82443)
(0.0961294 0.000475566 -2.18427)
(0.0957074 0.000274334 -2.18379)
(0.0959734 9.35792e-05 -2.184)
(0.0957402 -0.000991628 -2.18409)
(0.0971219 0.000991765 -2.18071)
(0.0937296 0.00229624 -2.18914)
(2.9955 1.73698e-05 2.95485)
(2.99651 -2.0077e-05 2.95913)
(2.99632 0.000448245 2.95777)
(2.99584 -0.000884374 2.95689)
(2.99874 0.00168421 2.96394)