/*--------------------------------*- C++ -*----------------------------------*\
| =========                 |                                                 |
| \\      /  F ield         | OpenFOAM: The Open Source CFD Toolbox           |
|  \\    /   O peration     | Version:  v1612+                                |
|   \\  /    A nd           | Web:      www.OpenFOAM.com                      |
|    \\/     M anipulation  |                                                 |
\*---------------------------------------------------------------------------*/
FoamFile
{
    version     2.0;
    format      ascii;
    class       surfaceScalarField;
    location    "3.8";
    object      phi;
}
// * * * * * * * * * * * * * * * * * * * * * * * * * * * * * * * * * * * * * //

dimensions      [0 3 -1 0 0 0 0];

internalField   nonuniform List<scalar> 
2916
(
1.10729e-05
0.328078
-0.328089
6.39999e-06
0.32808
-0.328075
1.39807e-05
0.328083
-0.32809
4.36824e-06
0.32808
-0.328071
-1.84833e-05
0.328079
-0.328057
0.328081
-0.328099
1.91683e-05
0.598337
-0.270278
1.15531e-05
0.598343
-0.270256
9.24642e-06
0.598342
-0.270257
4.00208e-06
0.598342
-0.270256
-1.22606e-05
0.598343
-0.270247
0.598338
-0.27027
1.77477e-05
0.783205
-0.184886
9.82269e-06
0.783222
-0.184871
5.93927e-06
0.783217
-0.184871
3.95221e-06
0.783218
-0.184874
-5.09126e-06
0.783222
-0.18487
0.783207
-0.184874
1.55962e-05
0.923714
-0.140525
9.23177e-06
0.92374
-0.140511
4.44096e-06
0.923732
-0.14051
3.59496e-06
0.923733
-0.140514
-2.21454e-06
0.923737
-0.14051
0.923717
-0.140511
1.26447e-05
1.01315
-0.0894479
9.17098e-06
1.01318
-0.0894385
2.7446e-06
1.01317
-0.0894341
1.59742e-06
1.01317
-0.0894395
-1.25376e-06
1.01318
-0.0894386
1.01315
-0.0894365
1.32618e-05
1.03533
-0.0221943
8.12568e-06
1.03537
-0.0221784
2.48882e-06
1.03536
-0.0221785
-1.14134e-07
1.03536
-0.0221809
-4.18696e-06
1.03536
-0.0221793
1.03533
-0.0221843
1.15224e-05
0.926473
0.108846
7.23959e-06
0.926506
0.108864
1.17018e-06
0.926499
0.108863
-3.21962e-06
0.926498
0.108863
-7.42858e-06
0.926503
0.108864
0.92647
0.108855
5.19465e-06
0.596963
0.329505
4.8725e-06
0.596993
0.329514
-1.17428e-06
0.596991
0.329514
-5.78903e-06
0.596988
0.329514
-8.72492e-06
0.596994
0.329512
0.596953
0.329508
7.47301e-06
0.0460228
0.550932
3.36003e-06
0.0460428
0.550954
-1.65903e-06
0.0460501
0.550946
-6.88899e-06
0.0460464
0.550947
-1.53379e-05
0.0460546
0.550948
0.0459967
0.550941
2.64411e-05
-0.467011
0.513007
8.78899e-06
-0.46699
0.51305
1.13948e-06
-0.466979
0.513037
-6.87919e-06
-0.466982
0.513037
-2.99951e-05
-0.466966
0.513044
-0.467053
0.51302
4.11364e-05
-0.544585
0.0775334
5.84574e-06
-0.54456
0.0776052
-8.61752e-07
-0.544555
0.0775831
-5.18132e-06
-0.544558
0.0775796
-2.91279e-05
-0.544542
0.0775998
-0.544605
0.0775231
-6.65401e-07
-0.544585
-1.50231e-05
-0.544546
-1.18035e-05
-0.544558
-4.78648e-06
-0.544565
5.82244e-06
-0.544553
-0.544599
0.000106081
1.32938
-1.65757
2.7051e-05
1.32953
-1.65752
1.31334e-05
1.32952
-1.6576
2.30672e-06
1.32947
-1.65754
-0.000133059
1.32952
-1.65744
1.32941
-1.65764
-2.72266e-05
2.85092
-1.79179
-1.64248e-05
2.85109
-1.79183
-1.26946e-05
2.8511
-1.79185
-2.01045e-07
2.85102
-1.79181
7.72589e-06
2.85105
-1.79178
2.85095
-1.7918
-0.000214201
3.95294
-1.28669
-0.00011549
3.95286
-1.28675
-0.000128153
3.95296
-1.28671
-4.69428e-05
3.9528
-1.28674
0.000220094
3.95266
-1.28674
3.9529
-1.28661
-0.000213023
3.70799
0.104635
-0.000114594
3.70778
0.10448
-0.000129884
3.70789
0.104571
-2.80802e-05
3.7077
0.104486
0.000247211
3.70748
0.104395
3.70791
0.104733
-6.9794e-05
2.77305
0.845564
-2.22911e-05
2.77294
0.845349
-5.91672e-06
2.77297
0.84547
2.71217e-05
2.77288
0.845349
0.000100458
2.77278
0.845186
2.77299
0.845585
3.69172e-07
2.30666
0.444188
1.03285e-06
2.30669
0.444076
7.41253e-06
2.30664
0.444145
1.89677e-05
2.30662
0.444072
2.68382e-05
2.30662
0.443976
2.30662
0.444205
3.34155e-06
1.95295
0.462561
-5.98288e-06
1.95305
0.462511
-8.94022e-06
1.95299
0.462523
-5.33981e-07
1.95298
0.462495
2.94253e-06
1.95302
0.462462
1.95293
0.462551
2.36877e-05
1.33041
0.952012
-9.90529e-07
1.33055
0.952039
-6.87365e-06
1.33049
0.952017
-8.82182e-06
1.33049
0.952008
-3.40389e-05
1.33053
0.952018
1.33042
0.951986
4.91816e-05
0.730469
1.15083
9.15784e-06
0.730619
1.15093
2.31804e-06
0.730561
1.15088
-7.25986e-06
0.73056
1.15088
-4.92522e-05
0.73061
1.15091
0.73049
1.15082
8.06272e-05
0.342584
0.900812
1.96003e-05
0.342737
0.900994
9.49924e-06
0.342686
0.900922
-1.64551e-06
0.342687
0.900921
-4.54605e-05
0.342737
0.900961
0.342608
0.900856
9.79679e-05
0.0831653
0.336854
2.49295e-05
0.0833361
0.337079
1.42457e-05
0.0832972
0.336983
2.49372e-06
0.0832964
0.336982
-4.3e-05
0.0833468
0.337036
0.083197
0.336891
-2.12685e-05
-0.461398
-1.67173e-05
-0.461214
-4.03808e-06
-0.461274
7.19785e-06
-0.46128
2.75443e-05
-0.461226
-0.461375
-0.000115279
-0.181415
-1.47604
-4.18591e-05
-0.181432
-1.47616
-1.22592e-05
-0.181451
-1.47617
4.18869e-05
-0.181439
-1.47615
0.000136032
-0.181417
-1.47612
-0.181437
-1.47607
-0.000110574
-0.516665
-1.45644
-3.2144e-05
-0.516693
-1.45665
3.9946e-06
-0.51671
-1.45662
5.89671e-05
-0.516693
-1.45661
0.000159621
-0.516656
-1.45664
-0.516653
-1.45642
-0.000110181
-0.531453
-1.27179
-2.36317e-05
-0.531515
-1.27201
1.02408e-05
-0.531491
-1.27196
5.30131e-05
-0.531495
-1.27197
0.000158817
-0.531483
-1.27202
-0.531368
-1.27174
-9.56615e-05
0.181786
-0.608508
-3.04384e-05
0.181691
-0.608791
8.43211e-06
0.181737
-0.608694
4.22968e-05
0.181711
-0.608751
0.000113578
0.181696
-0.608855
0.181891
-0.608413
-9.95381e-05
1.15962
-0.132173
-3.13742e-05
1.15958
-0.132603
6.92189e-06
1.15959
-0.132421
5.33858e-05
1.15957
-0.132554
0.000131205
1.15958
-0.132775
1.15968
-0.132071
-0.000109966
2.16431
-0.560389
-0.000122201
2.16426
-0.560599
-7.46022e-05
2.16421
-0.560526
-3.1246e-05
2.16418
-0.560581
-1.35229e-05
2.1642
-0.560657
2.16422
-0.560349
-0.000245542
3.01766
-0.390544
-0.000122522
3.0174
-0.390748
-0.000123734
3.01747
-0.390732
-9.9218e-05
3.01745
-0.390799
3.65644e-05
3.0174
-0.390873
3.01751
-0.390702
-2.44707e-05
2.56599
1.4037
-5.18139e-05
2.56594
1.40353
-5.89207e-05
2.56593
1.40357
-6.00984e-05
2.56591
1.40354
2.75614e-06
2.56589
1.40346
2.56599
1.40351
-1.76517e-05
0.569821
3.14702
3.71026e-05
0.570519
3.14629
1.76803e-05
0.570166
3.14666
-4.85945e-05
0.570175
3.14669
-2.18827e-05
0.570333
3.14645
0.570004
3.14678
0.000307762
0.396612
1.07371
4.50718e-05
0.397005
1.07477
2.97362e-05
0.396831
1.07427
2.9403e-05
0.396838
1.07426
-0.000133295
0.396936
1.07452
0.39672
1.07401
0.000340357
0.0989913
0.634135
4.14991e-05
0.0993262
0.635057
6.21155e-06
0.0992182
0.634631
8.20605e-06
0.0992254
0.634593
-0.000158818
0.0993178
0.63482
0.0990697
0.634383
-0.000106117
-0.362301
-2.13812e-05
-0.361973
-3.6113e-06
-0.362074
1.30974e-05
-0.362071
9.30232e-05
-0.361988
-0.362212
-1.38606e-05
-0.380818
-1.09521
1.29685e-06
-0.380729
-1.09545
-1.33198e-05
-0.38075
-1.09541
-1.3123e-05
-0.380742
-1.0954
2.97599e-05
-0.380715
-1.09545
-0.380839
-1.0952
1.75763e-05
-0.739366
-1.0979
1.83427e-05
-0.739209
-1.09817
6.15038e-06
-0.739234
-1.09812
1.5247e-06
-0.739224
-1.09812
4.57542e-06
-0.73918
-1.09817
-0.739376
-1.09788
9.54487e-06
-1.11536
-0.895803
4.22262e-06
-1.11516
-0.896056
1.10403e-05
-1.11519
-0.896014
4.33311e-06
-1.11518
-0.896014
-9.25955e-06
-1.11512
-0.89606
-1.11535
-0.895772
3.27549e-07
-1.09455
-0.629324
-2.79403e-05
-1.09435
-0.629567
1.17325e-06
-1.09439
-0.629524
-1.38502e-05
-1.09438
-0.629528
-7.26698e-05
-1.09434
-0.629578
-1.09453
-0.629303
2.9241e-05
-0.774259
-0.452489
-6.04797e-05
-0.77416
-0.452707
4.97302e-06
-0.774201
-0.452672
-2.0641e-05
-0.774232
-0.452681
-0.000181622
-0.77423
-0.452727
-0.774304
-0.452478
-6.31012e-05
-0.687262
-0.64732
-8.09069e-05
-0.687225
-0.647513
-2.99443e-05
-0.687279
-0.647495
-1.47256e-05
-0.687323
-0.647505
-3.14374e-05
-0.687339
-0.647531
-0.68735
-0.647335
-0.000117858
-0.0311018
-1.04659
4.26524e-05
-0.0312918
-1.04684
0.000116962
-0.03128
-1.04681
0.000133601
-0.0312915
-1.04684
0.00018739
-0.0313613
-1.0469
-0.031142
-1.04672
0.000332749
0.428888
0.943374
0.000107946
0.4296
0.942871
0.000229008
0.429071
0.94309
0.000244377
0.429135
0.943102
0.000130344
0.429294
0.942918
0.429263
0.943239
0.000535886
-0.694363
4.26973
0.000142588
-0.692714
4.269
0.000182613
-0.693708
4.2694
0.000173484
-0.693576
4.26941
5.99799e-05
-0.693074
4.26893
-0.693643
4.26975
0.00167374
-0.671704
1.04938
0.000202383
-0.670512
1.05404
-5.56141e-05
-0.671075
1.0519
4.50163e-05
-0.671284
1.05187
-0.000827135
-0.670884
1.05321
-0.671464
1.051
0.00121859
0.00459443
-0.0433826
-5.22947e-05
0.00491194
-0.0390956
-0.000164862
0.00479067
-0.041122
0.000127986
0.00477849
-0.0417627
-0.000526246
0.00481191
-0.0402217
0.00472578
-0.0423327
0.000181342
-0.357888
2.97316e-05
-0.356909
2.41192e-05
-0.357277
4.46892e-05
-0.357313
-5.14429e-05
-0.35708
-0.357538
-1.32089e-06
-0.0370794
0.0370807
-3.13273e-06
-0.0370816
0.0370815
-3.7255e-06
-0.0370825
0.0370815
-3.46756e-06
-0.0370833
0.0370816
-2.28184e-06
-0.0370841
0.0370816
-0.0370842
0.0370805
-3.0605e-06
-0.075436
0.0383581
-5.02433e-06
-0.0754409
0.0383602
-5.87333e-06
-0.0754431
0.0383606
-5.69185e-06
-0.075445
0.0383608
-4.14908e-06
-0.075447
0.0383606
-0.0754473
0.038359
-5.72755e-06
-0.116377
0.0409461
-8.57608e-06
-0.116386
0.0409496
-9.959e-06
-0.116391
0.0409501
-9.63805e-06
-0.116394
0.0409496
-6.88053e-06
-0.116397
0.0409484
-0.116398
0.0409452
-1.09727e-05
-0.160943
0.044578
-1.48232e-05
-0.160959
0.0445776
-1.56877e-05
-0.160964
0.0445752
-1.40979e-05
-0.160967
0.0445718
-9.67077e-06
-0.160969
0.0445676
-0.160969
0.0445609
-1.73415e-05
-0.209371
0.048446
-1.73846e-05
-0.209391
0.0484309
-1.26484e-05
-0.209391
0.0484212
-7.4392e-06
-0.209386
0.0484131
-3.52086e-06
-0.209379
0.0484059
-0.209371
0.0483987
-1.71137e-05
-0.260003
0.0506485
-3.30252e-07
-0.260016
0.0506057
2.08279e-05
-0.260001
0.0505868
3.33759e-05
-0.259978
0.0505778
2.92704e-05
-0.259951
0.0505757
-0.259922
0.0505803
7.21288e-06
-0.307627
0.047615
6.24383e-05
-0.307616
0.0475429
0.00010936
-0.307573
0.0475247
0.00012725
-0.307526
0.0475304
9.95264e-05
-0.307476
0.0475528
-0.307415
0.0475921
6.07509e-05
-0.339654
0.0319656
0.000165983
-0.339609
0.031887
0.000234927
-0.33954
0.0318987
0.000243205
-0.339483
0.0319495
0.000174106
-0.33943
0.0320246
-0.339357
0.0321165
0.00013845
-0.333224
-0.00656779
0.000257505
-0.33314
-0.00658752
0.00031105
-0.33306
-0.00653455
0.000273422
-0.333006
-0.00644131
0.000167791
-0.332975
-0.00635214
-0.332917
-0.00627107
0.000167549
-0.274781
-0.0586096
0.000263213
-0.274681
-0.0585513
0.000338183
-0.274626
-0.0585076
0.000195262
-0.274584
-0.0582784
0.000125414
-0.274576
-0.058329
-0.274552
-0.0582403
6.47802e-05
-0.0824816
-0.192364
6.12143e-05
-0.0824264
-0.192249
0.000199218
-0.0823846
-0.192376
-7.24907e-06
-0.0823301
-0.192043
-3.36398e-06
-0.08229
-0.192286
-0.0822861
-0.192268
-0.0001106
-0.0823706
-0.000145153
-0.082394
0.000107848
-0.0826408
-0.000232964
-0.0819886
-0.000195074
-0.0823249
-0.0824824
-2.05932e-06
-0.0374256
0.074507
-3.63461e-06
-0.0374283
0.0745089
-3.93985e-06
-0.0374294
0.0745091
-3.56168e-06
-0.0374303
0.0745095
-2.59942e-06
-0.0374311
0.0745097
-0.037431
0.074508
-4.61408e-06
-0.0757241
0.0766594
-5.71699e-06
-0.0757301
0.0766625
-5.70455e-06
-0.0757323
0.0766631
-5.00215e-06
-0.075734
0.0766633
-3.55047e-06
-0.0757354
0.0766632
-0.0757352
0.0766603
-7.12441e-06
-0.115138
0.0803676
-7.60742e-06
-0.115149
0.0803715
-6.82727e-06
-0.115152
0.0803715
-5.46689e-06
-0.115154
0.0803707
-3.47248e-06
-0.115156
0.0803689
-0.115156
0.0803638
-5.63017e-06
-0.154884
0.084332
-3.65686e-06
-0.154901
0.0843298
-9.61271e-07
-0.154904
0.0843256
4.93039e-07
-0.154904
0.0843207
4.89597e-07
-0.154903
0.0843149
-0.154901
0.0843059
6.81087e-06
-0.192903
0.0864581
1.70783e-05
-0.192921
0.0864381
2.40081e-05
-0.192916
0.0864247
2.42971e-05
-0.192907
0.0864146
1.6456e-05
-0.192896
0.0864065
-0.192884
0.086399
3.19965e-05
-0.225989
0.0836997
5.81242e-05
-0.225997
0.0836525
7.10101e-05
-0.225976
0.0836307
6.7867e-05
-0.225949
0.0836222
4.63815e-05
-0.225922
0.0836234
-0.225892
0.0836341
8.15592e-05
-0.251228
0.07277
0.000122695
-0.251196
0.0726985
0.000133554
-0.251142
0.0726794
0.000117052
-0.251092
0.0726889
7.67771e-05
-0.251047
0.0727182
-0.250994
0.0727686
0.000119185
-0.270046
0.050665
0.00016324
-0.269956
0.0506042
0.000166626
-0.269863
0.0506163
0.000120265
-0.269766
0.0506689
6.90261e-05
-0.26972
0.0507446
-0.269638
0.0508304
0.000153605
-0.28567
0.00890321
0.000195276
-0.285498
0.00891652
0.000227774
-0.285381
0.00895345
6.22323e-05
-0.285202
0.00916038
3.96477e-05
-0.285244
0.00919501
-0.285132
0.00926213
0.000177176
-0.176529
-0.167929
0.000224368
-0.176272
-0.167824
0.000470628
-0.176072
-0.168062
1.42669e-05
-0.176204
-0.16682
0.000103453
-0.175999
-0.167658
-0.175884
-0.167384
-0.000154816
0.126444
-0.49518
-0.000257166
0.126681
-0.495101
0.000110769
0.126971
-0.495787
-0.000452455
0.126494
-0.494176
-0.000313077
0.126895
-0.495318
0.126898
-0.495362
-0.000260649
0.0443395
-0.000394194
0.044427
0.000169932
0.0437679
-0.000465616
0.0451451
-0.00193512
0.0460462
0.0424809
-1.29663e-06
-0.0367434
0.11125
-2.24475e-06
-0.0367455
0.111253
-2.35941e-06
-0.036746
0.111254
-2.05023e-06
-0.0367463
0.111254
-1.55894e-06
-0.0367463
0.111254
-0.0367453
0.111251
-3.25567e-06
-0.0761449
0.116063
-3.05941e-06
-0.0761497
0.116067
-2.3277e-06
-0.0761505
0.116067
-1.47783e-06
-0.0761505
0.116067
-7.70318e-07
-0.07615
0.116067
-0.0761474
0.116063
-4.01351e-06
-0.121519
0.125747
-1.6668e-06
-0.121528
0.12575
1.00478e-06
-0.121528
0.125749
2.78369e-06
-0.121527
0.125748
3.00595e-06
-0.121525
0.125746
-0.121519
0.125739
1.36254e-06
-0.177203
0.140017
8.5698e-06
-0.177218
0.140015
1.44401e-05
-0.177216
0.140009
1.61435e-05
-0.17721
0.140003
1.22089e-05
-0.177202
0.139996
-0.177188
0.139986
1.80585e-05
-0.248106
0.157343
3.55214e-05
-0.248125
0.157326
4.52937e-05
-0.248114
0.157311
4.40115e-05
-0.248097
0.157301
3.00226e-05
-0.248077
0.157293
-0.248047
0.157287
4.68317e-05
-0.337387
0.172931
7.71224e-05
-0.3374
0.172893
8.73188e-05
-0.337369
0.172873
7.71066e-05
-0.337333
0.172867
4.79975e-05
-0.337296
0.172871
-0.337251
0.172884
6.46874e-05
-0.440605
0.175922
9.37582e-05
-0.4406
0.175868
9.43202e-05
-0.440543
0.175853
6.31987e-05
-0.440487
0.175873
2.45956e-05
-0.440441
0.175901
-0.440406
0.175947
6.26314e-05
-0.532001
0.141997
5.6895e-05
-0.531949
0.141958
4.91226e-05
-0.531894
0.141975
-3.93015e-05
-0.531822
0.142092
-9.51472e-05
-0.531809
0.142167
-0.531807
0.142138
5.44792e-06
-0.493375
-0.0297285
-2.92456e-05
-0.493305
-0.0296934
3.75194e-05
-0.493412
-0.0295943
-0.000226089
-0.493121
-0.029278
-0.000217249
-0.493585
-0.0290337
-0.493091
-0.029672
-0.000386441
-0.261717
-0.399197
-0.000251416
-0.26204
-0.399222
0.000908912
-0.262851
-0.399782
-0.00105256
-0.260585
-0.397391
-0.000217626
-0.263628
-0.398449
-0.261013
-0.39968
-0.000905836
0.0545853
-0.810575
-0.000270831
0.0539068
-0.811678
0.00303333
0.0523332
-0.814277
-0.00129375
0.0571962
-0.807625
-0.000714218
0.0521483
-0.811673
0.055427
-0.812514
-0.00162342
0.100548
-0.000197741
0.0969115
0.00922209
0.0866853
-0.000878643
0.112441
-0.00669733
0.104013
0.0912129
-8.55477e-07
-0.0334052
0.144655
-1.09405e-06
-0.0334069
0.144659
-8.35884e-07
-0.033407
0.144659
-6.01968e-07
-0.0334067
0.144659
-5.25164e-07
-0.0334062
0.144659
-0.0334049
0.144656
-1.42776e-06
-0.0687799
0.151438
-1.78307e-07
-0.0687832
0.151443
9.52978e-07
-0.0687828
0.151443
1.5719e-06
-0.0687816
0.151442
1.39926e-06
-0.0687799
0.151442
-0.0687766
0.151437
1.03525e-06
-0.107299
0.164266
5.10238e-06
-0.107304
0.16427
7.9757e-06
-0.107302
0.164268
8.81126e-06
-0.107299
0.164266
6.83082e-06
-0.107295
0.164264
-0.107289
0.164258
1.11101e-05
-0.149151
0.181861
2.00632e-05
-0.149158
0.18186
2.44513e-05
-0.149153
0.181855
2.34085e-05
-0.149146
0.181849
1.58206e-05
-0.149137
0.181844
-0.149124
0.181835
2.89648e-05
-0.193346
0.201508
4.128e-05
-0.193348
0.2015
4.31637e-05
-0.193336
0.201489
3.61842e-05
-0.193324
0.201482
2.15557e-05
-0.19331
0.201477
-0.193289
0.201471
4.08307e-05
-0.237551
0.217093
4.28042e-05
-0.237536
0.217076
3.53052e-05
-0.237526
0.217068
1.49049e-05
-0.237507
0.217069
3.94589e-06
-0.237502
0.217073
-0.237482
0.217078
1.98409e-05
-0.279784
0.218133
-1.67645e-05
-0.279745
0.218111
-2.67399e-05
-0.279786
0.218121
-9.72868e-05
-0.279699
0.218135
-6.58731e-05
-0.279799
0.218162
-0.279774
0.218174
-4.6388e-05
-0.333771
0.19603
-0.00019324
-0.333685
0.196045
-7.94517e-05
-0.334067
0.196142
-0.000357378
-0.333332
0.196002
-0.000205067
-0.334077
0.196293
-0.333856
0.196017
-0.000247541
-0.541125
0.177874
-0.000275307
-0.541322
0.177972
0.000647198
-0.542926
0.178342
-0.000965787
-0.538634
0.177638
-0.000786456
-0.541925
0.178639
-0.541869
0.177552
-0.00171743
-1.10032
0.161711
0.000231807
-1.10334
0.160849
0.00728195
-1.11064
0.160877
-0.00402325
-1.08663
0.161912
-0.00328734
-1.10325
0.162134
-1.10514
0.160308
-0.000704674
-1.58708
-0.323102
0.000974002
-1.58944
-0.327254
0.00731877
-1.5982
-0.33305
0.000403944
-1.57231
-0.31503
-0.00105487
-1.59106
-0.3224
-1.59115
-0.327561
0.000783423
-1.48732
0.00359869
-1.49534
0.00160012
-1.50952
0.00796258
-1.46623
-0.00424781
-1.47484
-1.50418
2.86967e-05
-1.05133
-0.04391
1.18157e-05
-1.05152
-0.0439058
-1.23932e-06
-1.05149
-0.0439051
-1.45455e-05
-1.05148
-0.0439062
-3.43238e-05
-1.05152
-0.043908
-1.05132
-0.0439118
4.07066e-05
-0.971953
-0.0794134
1.51862e-05
-0.972076
-0.0794156
8.14506e-07
-0.972056
-0.0794164
-1.25692e-05
-0.972056
-0.0794172
-4.16795e-05
-0.972076
-0.0794178
-0.971952
-0.079418
2.69e-05
-0.0119988
1.10678e-05
-0.0119987
2.94311e-06
-0.0119993
-6.49642e-06
-0.0119999
-2.63331e-05
-0.0120001
-0.0120008
3.6891e-05
-1.03925
-0.102601
1.29623e-05
-1.03944
-0.102604
-3.11363e-06
-1.03941
-0.102602
-1.98983e-05
-1.03941
-0.102605
-4.42914e-05
-1.03945
-0.102609
-1.03923
-0.102605
4.35127e-05
-0.940667
-0.178034
1.39099e-05
-0.940789
-0.178041
-3.40259e-06
-0.940769
-0.178041
-2.07327e-05
-0.940768
-0.178041
-5.3358e-05
-0.940792
-0.178041
-0.940662
-0.178036
2.53502e-05
-0.0261523
8.88145e-06
-0.0261514
7.78146e-07
-0.0261523
-8.2457e-06
-0.0261528
-2.78165e-05
-0.0261531
-0.0261534
2.0128e-05
-0.867806
-0.130616
4.16287e-06
-0.868004
-0.130638
-6.47991e-06
-0.86797
-0.130635
-1.87732e-05
-0.867969
-0.130637
-3.48149e-05
-0.86801
-0.130643
-0.867785
-0.130625
4.24466e-05
-0.787882
-0.258001
9.4423e-06
-0.787999
-0.25801
-9.57266e-06
-0.787981
-0.258008
-2.71292e-05
-0.787981
-0.258005
-6.00203e-05
-0.788006
-0.258006
-0.787881
-0.257993
2.35115e-05
-0.0415425
5.71922e-06
-0.0415401
-2.82295e-06
-0.0415412
-1.02134e-05
-0.0415415
-2.6933e-05
-0.0415416
-0.0415434
4.1787e-06
-0.675663
-0.0842823
-1.64743e-06
-0.675862
-0.084334
-6.52518e-06
-0.675825
-0.0843257
-1.71687e-05
-0.675825
-0.0843259
-2.79678e-05
-0.675869
-0.0843378
-0.675655
-0.0842955
4.33532e-05
-0.64672
-0.286984
9.48894e-06
-0.646837
-0.286997
-6.83887e-06
-0.646821
-0.286993
-2.1324e-05
-0.646823
-0.286991
-5.44011e-05
-0.646846
-0.286993
-0.646728
-0.286974
2.12027e-05
-0.0621516
3.43744e-06
-0.0621476
-4.75015e-06
-0.0621488
-1.05387e-05
-0.0621486
-2.37936e-05
-0.062148
-0.0621522
1.68552e-05
-0.451815
-0.0849743
1.37283e-05
-0.452029
-0.0850055
9.71776e-06
-0.451994
-0.0849969
-4.49087e-06
-0.451997
-0.0849916
-2.63282e-05
-0.452042
-0.0849955
-0.451827
-0.0849681
5.42656e-05
-0.484004
-0.254845
1.89491e-05
-0.484124
-0.254865
4.36791e-06
-0.48411
-0.254865
-1.21092e-05
-0.484112
-0.254864
-5.18361e-05
-0.484132
-0.254868
-0.484013
-0.254849
1.94648e-05
-0.0996477
3.73778e-06
-0.0996417
-2.75374e-06
-0.0996445
-8.32297e-06
-0.0996447
-2.09706e-05
-0.099645
-0.0996512
4.34804e-06
-0.367839
-0.36446
-1.56173e-06
-0.368004
-0.36451
-1.56985e-06
-0.367983
-0.36451
4.25421e-06
-0.367982
-0.364519
-9.49741e-06
-0.36801
-0.364503
-0.367836
-0.364479
3.19196e-05
-0.378231
-0.244484
6.41621e-06
-0.378338
-0.244505
4.12837e-07
-0.378323
-0.244516
-1.61334e-05
-0.378324
-0.244503
-5.07124e-05
-0.378341
-0.2445
-0.378221
-0.244515
1.62751e-05
-0.172818
2.86268e-06
-0.172813
-2.94941e-06
-0.17282
-1.01676e-05
-0.172818
-2.19144e-05
-0.172822
-0.172824
2.02294e-05
-0.520391
-0.89067
3.24672e-05
-0.520567
-0.890798
5.34496e-05
-0.520541
-0.8908
5.04289e-05
-0.520551
-0.890813
2.7777e-05
-0.520584
-0.890802
-0.520449
-0.890721
2.41489e-05
-0.261896
-0.503006
-1.06019e-05
-0.262008
-0.503026
-4.57293e-06
-0.261995
-0.503064
-1.23611e-05
-0.262002
-0.503044
-3.11282e-05
-0.262029
-0.503039
-0.261934
-0.503059
2.45136e-06
-0.224116
-1.89869e-05
-0.224124
-1.4805e-05
-0.224161
-1.8992e-05
-0.224144
-2.5423e-06
-0.22417
-0.224158
0.00046345
-0.0110501
0.0632952
0.000119464
-0.0113356
0.0637549
0.000157604
-0.0112073
0.0634636
0.00013446
-0.0111989
0.0635119
-7.26351e-05
-0.0112484
0.0635724
-0.0111384
0.0635814
3.06582e-05
-0.265675
-0.248417
-6.53134e-06
-0.265779
-0.248545
1.60653e-05
-0.265706
-0.248588
-1.4679e-05
-0.265743
-0.24847
-1.64895e-05
-0.265673
-0.248612
-0.265742
-0.24847
-5.55659e-05
-0.26322
-5.03231e-05
-0.26335
-2.10354e-05
-0.263369
-3.42311e-05
-0.263302
-4.63278e-06
-0.263334
-0.263398
0.00076986
4.38702
-0.054767
0.000201647
4.38652
-0.0532002
0.000292827
4.38692
-0.0541434
0.00027769
4.38694
-0.0539996
-9.24435e-05
4.38647
-0.0535895
4.3873
-0.0540655
0.000220352
3.34223
0.79615
0.000130691
3.34246
0.795605
0.000181376
3.34266
0.795622
0.000212568
3.34285
0.79558
0.00066826
3.34304
0.794358
3.34238
0.797122
-0.00022279
1.19993
-6.2676e-05
1.19922
-4.70038e-05
1.19945
4.98287e-05
1.19942
0.000636932
1.19855
1.2003
0.00032434
2.73264
-1.73835
6.13853e-05
2.73877
-1.73766
-0.0001632
2.73615
-1.73818
-1.82478e-05
2.73587
-1.73815
0.000860705
2.73688
-1.73814
2.73558
-1.73778
-0.000886158
4.04958
-0.519895
-4.87026e-05
4.05328
-0.519744
-0.000105254
4.05185
-0.520017
-1.2508e-05
4.05162
-0.52026
0.00140247
4.05192
-0.522095
4.05206
-0.517956
-0.00127429
1.11049
-0.000162348
1.10846
-8.95941e-05
1.10918
5.016e-05
1.10886
0.00145232
1.10629
1.11212
-0.000284391
-0.899127
-0.882323
0.000191908
-0.896782
-0.880451
-9.9946e-05
-0.897711
-0.881295
-0.00014548
-0.898322
-0.881541
0.000862157
-0.898225
-0.881145
-0.897606
-0.881641
-0.000568738
0.767652
-2.1861
8.88638e-05
0.765251
-2.18244
0.000264286
0.766127
-2.18403
0.00012599
0.765871
-2.18432
0.0013136
0.763169
-2.18468
0.769505
-2.18375
2.88614e-05
-1.13284
4.19306e-05
-1.1349
0.000204618
-1.13415
0.000199786
-1.13433
0.00025237
-1.13578
-1.13208
0.000299582
-1.58673
0.346223
0.000150066
-1.58357
0.346363
9.39781e-05
-1.58487
0.346354
-2.84292e-05
-1.58492
0.346186
-0.000396055
-1.58425
0.346391
-1.58562
0.346044
-0.000654866
-3.44342
-0.32876
0.000104057
-3.44304
-0.323726
0.000879269
-3.44386
-0.325812
0.000361508
-3.44276
-0.325952
-0.000710556
-3.44238
-0.325475
-3.44363
-0.326453
-0.00238594
-0.435178
0.00032675
-0.434653
0.000215705
-0.434665
8.40193e-05
-0.434821
0.00129079
-0.434979
-0.433743
-0.001609
-0.965513
-3.50402
4.47114
-0.00122692
-0.967739
-3.50382
4.47118
-0.00103953
-0.96643
-3.50165
4.4679
0.00034506
-0.967834
-3.50843
4.47488
0.00679297
-0.971182
-3.50857
4.4733
-0.960639
-3.49474
4.46217
-2.8675e-05
0.553276
-4.63727
3.11851
-0.00376018
0.544178
-4.6385
3.13032
-0.0135946
0.54344
-4.63051
3.13048
-0.00241689
0.552137
-4.64482
3.11367
0.0263869
0.538644
-4.65752
3.11889
0.553539
-4.62171
3.13392
0.003523
-3.49053
2.02643
-0.00607667
-3.50004
2.05732
-0.027212
-3.49902
2.07057
-0.0126091
-3.47733
1.99885
0.0342265
-3.4712
1.97731
-3.53186
2.11535
-0.000594461
-1.2871
-2.21632
-0.000647507
-1.28731
-2.21646
-0.00168347
-1.28522
-2.2154
7.60261e-05
-1.29313
-2.21705
0.00406375
-1.29693
-2.21562
-1.27499
-2.21569
0.000393017
-2.5803
-3.34447
0.00121833
-2.58204
-3.3446
0.00882508
-2.57914
-3.3442
0.00903867
-2.59482
-3.34334
-0.0056442
-2.59524
-3.34454
-2.54964
-3.3527
0.00236555
-2.35807
-0.000400863
-2.3597
-0.00198607
-2.36075
0.00337973
-2.3515
0.0138095
-2.34871
-2.38117
3.44597e-05
-0.88359
-1.33277
-0.000119783
-0.883317
-1.33299
-0.000958973
-0.881705
-1.33286
-0.000682551
-0.885576
-1.33175
0.000956049
-0.886639
-1.33062
-0.882034
-1.3327
-0.000661562
-1.54637
-2.68102
-0.000211958
-1.54699
-2.68137
0.000507163
-1.54433
-2.68229
0.0043527
-1.55189
-2.68088
0.00647959
-1.55233
-2.68097
-1.54444
-2.68381
0.000929339
-1.65216
0.000938257
-1.65249
0.000410297
-1.65349
0.00658947
-1.65058
0.013103
-1.64978
-1.65965
0.000101006
-0.581528
-0.75134
5.3966e-05
-0.581614
-0.751329
-2.10728e-05
-0.581491
-0.751293
0.000121501
-0.581018
-0.750876
0.000667771
-0.58087
-0.750297
-0.580837
-0.751195
-0.000745346
-1.39115
-1.87066
-0.000313325
-1.39269
-1.87072
-0.00127522
-1.39202
-1.8708
0.000434726
-1.393
-1.8706
0.0075103
-1.39924
-1.86968
-1.38338
-1.87376
7.41111e-05
-0.92555
0.000346671
-0.925788
-0.000304313
-0.926123
0.00091001
-0.925141
0.00290524
-0.924419
-0.930898
0.000147368
-0.254025
-0.497462
5.15662e-05
-0.253916
-0.497318
0.000134739
-0.254025
-0.497351
-0.000127215
-0.25329
-0.497324
-0.000868115
-0.251917
-0.497639
-0.255182
-0.496882
-0.000558377
-1.09342
-1.0307
-0.000155022
-1.09395
-1.03109
-0.000664271
-1.09344
-1.03087
0.000146528
-1.09411
-1.0306
0.0033682
-1.09534
-1.02948
-1.09326
-1.03232
-0.000183662
-0.199429
0.000292233
-0.200101
0.000314492
-0.200235
0.00119044
-0.199604
0.00321978
-0.199197
-0.202075
8.10445e-05
-0.15132
9.47721e-05
-0.150969
0.000213958
-0.151116
1.00527e-05
-0.150934
-0.000763996
-0.150474
-0.151602
-0.000709534
-1.51007
0.000105525
-1.5066
0.000154403
-1.50785
5.14554e-05
-1.50738
0.000427632
-1.5058
-1.50995
-0.000959928
-5.49046e-05
-0.000188815
0.000209508
0.00207207
-6.77444e-08
0.170381
-0.0257264
-4.48668e-08
0.170385
-0.025727
2.64407e-08
0.170385
-0.0257267
1.17372e-08
0.170385
-0.0257263
-1.12554e-07
0.170385
-0.0257258
0.170381
-0.0257247
-5.55927e-08
0.186878
-0.016498
-4.43783e-08
0.186883
-0.0164983
-7.55525e-09
0.186883
-0.0164981
-1.48535e-08
0.186883
-0.0164979
-5.45853e-08
0.186883
-0.0164977
0.186878
-0.0164971
-1.15634e-07
-0.00670615
-8.39697e-08
-0.0067063
-5.23156e-08
-0.00670624
-3.42252e-08
-0.00670614
3.13056e-09
-0.00670605
-0.00670576
2.20766e-07
0.180507
-0.0547951
1.24834e-06
0.180511
-0.054796
1.84293e-06
0.180511
-0.0547952
1.99787e-06
0.180511
-0.0547942
1.63957e-06
0.180511
-0.0547934
0.180506
-0.0547913
2.57621e-07
0.198403
-0.034394
7.45137e-07
0.198407
-0.0343944
1.05313e-06
0.198407
-0.034394
1.1213e-06
0.198407
-0.0343935
9.60677e-07
0.198407
-0.0343932
0.198402
-0.0343923
3.08786e-09
-0.0147959
1.80204e-07
-0.0147963
2.99569e-07
-0.0147962
3.58732e-07
-0.0147961
3.69625e-07
-0.0147961
-0.0147957
2.57356e-06
0.201787
-0.0923167
4.99206e-06
0.201792
-0.0923185
6.13652e-06
0.201791
-0.0923176
5.98369e-06
0.20179
-0.0923168
4.37336e-06
0.201789
-0.0923165
0.201783
-0.092314
1.70274e-06
0.222544
-0.0551522
2.55392e-06
0.22255
-0.055153
2.94075e-06
0.222549
-0.0551527
2.68279e-06
0.222549
-0.0551527
1.62372e-06
0.222548
-0.055153
0.222542
-0.0551522
4.41795e-07
-0.0260195
6.33218e-07
-0.0260204
7.93696e-07
-0.0260207
6.511e-07
-0.0260208
2.37198e-07
-0.0260213
-0.0260205
7.18174e-06
0.236557
-0.147019
1.02227e-05
0.23656
-0.147023
1.06451e-05
0.236558
-0.147023
8.4721e-06
0.236555
-0.147023
4.6309e-06
0.236552
-0.147025
0.236545
-0.147022
3.84865e-06
0.262077
-0.0806768
4.1352e-06
0.262083
-0.0806784
3.50719e-06
0.262082
-0.0806791
2.00409e-06
0.262081
-0.0806807
-1.67716e-07
0.26208
-0.0806824
0.262074
-0.0806824
2.73061e-07
-0.0423007
8.84484e-08
-0.0423026
1.46828e-09
-0.042304
-4.86169e-07
-0.0423043
-7.95566e-07
-0.0423056
-0.0423036
1.00309e-05
0.288645
-0.234168
1.18952e-05
0.288646
-0.234175
9.57564e-06
0.288641
-0.234175
2.6753e-06
0.288636
-0.234173
-1.78435e-06
0.288633
-0.234178
0.288626
-0.234179
2.99351e-06
0.32222
-0.114257
8.05935e-07
0.322227
-0.11426
-2.49845e-06
0.322225
-0.114264
-5.13595e-06
0.322225
-0.114269
-4.78055e-06
0.322224
-0.114275
0.322217
-0.114277
-1.66555e-06
-0.0653259
-3.25322e-06
-0.0653293
-3.65299e-06
-0.0653339
-3.94691e-06
-0.0653349
-1.27451e-06
-0.0653398
-0.0653353
9.88408e-06
0.366228
-0.383317
7.19933e-06
0.366225
-0.383324
-6.37175e-06
0.366218
-0.383314
-1.74014e-05
0.366216
-0.38331
-1.49744e-05
0.366216
-0.383325
0.366216
-0.383332
-3.20087e-06
0.413654
-0.161682
-1.29556e-05
0.413662
-0.161689
-2.19502e-05
0.413661
-0.161699
-2.75099e-05
0.413661
-0.161709
-2.13022e-05
0.413662
-0.161729
0.413655
-0.161739
-8.19872e-06
-0.0912053
-1.49638e-05
-0.0912134
-1.47554e-05
-0.0912308
-1.47369e-05
-0.0912342
-2.85978e-06
-0.0912545
-0.0912403
8.56997e-06
0.479082
-0.644275
2.84382e-05
0.479076
-0.644309
-1.19206e-05
0.479067
-0.64422
-6.40205e-05
0.479067
-0.644191
-9.08058e-05
0.479075
-0.644213
0.479099
-0.644346
-3.53522e-05
0.549235
-0.2318
-7.97398e-05
0.549246
-0.231813
-0.000120934
0.549247
-0.231838
-0.000116465
0.549252
-0.231901
-9.46995e-05
0.549263
-0.231942
0.549271
-0.232008
-3.64928e-05
-0.111568
-7.20791e-05
-0.111588
-7.51918e-05
-0.111659
-7.06856e-05
-0.111681
-1.04026e-05
-0.111774
-0.111693
-5.76226e-06
0.665472
-1.11371
0.000408029
0.665528
-1.11421
0.000793469
0.665523
-1.11399
-0.000244754
0.665195
-1.11235
-0.00266241
0.665296
-1.1108
0.665538
-1.11653
-7.38941e-05
0.778233
-0.344487
-0.000125052
0.778254
-0.344487
-0.000222089
0.778222
-0.34444
-0.000230631
0.778161
-0.344859
-0.000277533
0.778197
-0.344795
0.778242
-0.344991
-0.000142728
-0.092938
-0.000403295
-0.0928696
-0.000517551
-0.0932121
-0.000353143
-0.093646
0.000297301
-0.0944086
-0.093049
0.000332348
1.08645
-2.02262
0.00150445
1.08668
-2.02408
0.00255419
1.08677
-2.02346
-0.000184426
1.08581
-2.01778
-0.0117224
1.08588
-2.0065
1.08695
-2.03765
1.58196e-05
1.05553
-0.313587
0.00067253
1.05566
-0.314128
0.00152877
1.05554
-0.314072
-7.26005e-05
1.05535
-0.312796
-0.00366911
1.05538
-0.310708
1.05534
-0.317052
-0.000200923
-0.0142702
0.000376594
-0.0149985
0.00128764
-0.0156753
-6.22778e-05
-0.0135645
-0.00137423
-0.0145108
-0.0159706
0.00128656
1.75084
-3.61303
0.000851951
1.75024
-3.61304