/*--------------------------------*- C++ -*----------------------------------*\
| =========                 |                                                 |
| \\      /  F ield         | OpenFOAM: The Open Source CFD Toolbox           |
|  \\    /   O peration     | Version:  v1612+                                |
|   \\  /    A nd           | Web:      www.OpenFOAM.com                      |
|    \\/     M anipulation  |                                                 |
\*---------------------------------------------------------------------------*/
FoamFile
{
    version     2.0;
    format      ascii;
    class       surfaceScalarField;
    location    "5.25";
    object      phi;
}
// * * * * * * * * * * * * * * * * * * * * * * * * * * * * * * * * * * * * * //

dimensions      [0 3 -1 0 0 0 0];

internalField   nonuniform List<scalar> 
816
(
-5.60824e-06
-7.26992e-06
3.77203e-06
-1.91554e-06
-8.92252e-06
1.9937e-05
3.69752e-06
6.65529e-06
-1.26769e-06
1.06287e-05
-2.52708e-05
-6.72444e-06
2.43986e-06
5.08528e-06
7.04862e-06
-1.50719e-05
-2.58241e-06
9.04129e-06
8.07453e-06
-1.77488e-05
0.000109236
9.74576e-05
2.00838e-05
7.39114e-05
-6.80696e-05
5.4004e-05
9.89244e-06
5.78932e-05
-0.000127727
-4.46394e-05
-5.13727e-06
-0.000113209
0.000134902
2.01681e-05
7.32828e-06
-0.000162579
8.72454e-05
0.000140986
-1.37453e-06
0.000109391
1.07088e-06
9.20445e-05
-3.59639e-06
6.42042e-05
0.000305683
0.000172569
-6.54294e-06
0.000118147
0.000137221
0.000331548
1.41037e-05
-8.37697e-05
-7.78401e-05
7.76533e-05
1.01183e-05
6.95793e-05
0.000234841
0.000198703
1.54848e-05
0.000148605
-7.75888e-05
4.82451e-05
3.56366e-07
0.000272056
-0.000470137
1.6524e-06
2.47886e-05
0.000145334
1.05061e-05
9.02679e-06
-1.74304e-05
1.33092e-06
1.34388e-05
1.89649e-05
-2.00621e-05
4.96884e-06
1.09102e-05
-7.05329e-07
-6.78638e-06
3.47764e-06
1.45118e-05
-9.95606e-07
1.38081e-05
-7.09005e-06
1.5427e-06
2.44901e-07
2.01734e-06
-5.35417e-06
1.86843e-07
6.5292e-06
-2.05836e-05
1.43291e-07
9.58344e-06
2.4233e-06
-1.53161e-05
-7.07538e-07
1.23038e-05
1.24284e-06
1.31268e-05
-1.0452e-05
2.56661e-06
2.14331e-06
-2.76841e-05
1.6186e-05
1.53851e-05
1.80259e-05
-1.96017e-05
1.67737e-06
1.22508e-05
4.14716e-06
1.40122e-05
6.69046e-06
-9.1669e-06
-6.57693e-06
1.045e-05
1.08339e-05
-4.4439e-06
-2.64342e-07
-9.27981e-06
3.81351e-07
-8.58546e-06
-8.38052e-06
-9.48114e-07
-1.78752e-06
-2.20944e-06
-2.59371e-07
-1.11218e-05
2.48158e-06
5.70782e-06
2.49518e-06
2.29379e-06
1.11513e-06
-1.44597e-06
-1.15226e-06
-9.65674e-06
-3.32262e-06
-4.14529e-06
-1.85036e-06
-7.02689e-06
1.50568e-06
-6.50904e-08
5.14366e-06
8.58845e-06
-3.89182e-06
-1.29801e-05
-2.05774e-06
-8.80644e-06
-8.96888e-06
-9.40807e-06
-7.71581e-08
-2.24197e-06
6.20399e-06
-7.75341e-07
-3.26375e-06
-5.05135e-06
-7.41596e-07
-2.95258e-06
-3.9962e-06
1.99873e-06
-1.57628e-06
-2.37183e-06
1.80326e-06
3.2974e-06
-1.01873e-06
3.56869e-06
-3.98281e-06
2.17248e-06
2.98296e-06
1.80793e-06
-1.75796e-06
4.64795e-06
3.09533e-06
-2.61151e-06
-8.87902e-07
-7.39636e-07
-2.96271e-06
-5.35844e-06
-1.06802e-06
-1.23873e-06
-1.06967e-06
-8.187e-08
-6.14265e-06
-2.69872e-07
1.8038e-06
1.14381e-06
6.89928e-07
1.48332e-06
-6.66082e-07
3.67573e-07
-2.28296e-07
-2.43331e-06
-2.66936e-06
-2.8325e-06
-7.71306e-07
4.66734e-07
-2.29004e-06
4.21076e-08
5.55094e-06
9.94204e-07
-2.17422e-06
-1.571e-06
-5.2243e-06
-3.9084e-06
-5.54756e-06
-3.42952e-07
-2.63711e-06
-2.00933e-06
-5.78432e-07
1.72904e-06
-3.87995e-06
-1.1422e-06
-1.11998e-06
-0.000318316
0.000147335
-2.57759e-06
4.96993e-05
-9.74572e-05
1.42361e-05
0.000114496
-0.000218444
2.41962e-07
3.62862e-05
-8.41151e-05
-3.41929e-06
-9.28783e-05
0.000100666
-1.63809e-05
-0.000218287
-0.000227075
-7.74578e-05
3.66979e-06
-0.000175537
-2.39779e-05
2.71409e-06
-0.000356818
-0.00012655
7.1053e-06
-0.000227477
3.41054e-05
1.67826e-06
-7.3245e-05
9.1808e-05
-2.57477e-06
-0.000174355
2.05521e-05
-6.15684e-05
5.87428e-07
5.69542e-05
-0.000227305
-3.99413e-06
-0.000165091
0.000138123
3.50778e-06
-4.54739e-05
9.97824e-05
-3.27814e-07
-0.000165131
0.000116929
7.23e-06
-0.000256657
-6.1082e-05
2.32191e-05
1.00591e-05
0.000114489
-6.91084e-05
8.2635e-06
-2.97771e-05
-3.94856e-05
-8.62036e-06
0.000109324
-7.5343e-05
-7.6381e-06
7.15405e-05
1.72241e-06
-0.000241608
-7.85635e-05
-1.30404e-05
-3.09241e-06
1.20408e-05
6.14135e-06
1.76906e-06
-6.2098e-06
4.13926e-06
5.69231e-06
-1.52465e-05
1.21675e-05
-7.89868e-07
-1.51145e-06
8.12366e-06
5.69264e-06
2.13949e-05
-1.44125e-05
-2.25053e-05
-2.63487e-06
3.31963e-05
-8.74055e-06
-6.18997e-06
2.24198e-05
-2.33153e-05
-2.15574e-05
4.91525e-05
-3.31895e-05
-1.44999e-05
3.01807e-06
-8.30012e-06
9.31256e-06
-1.87914e-05
1.58336e-06
-8.27042e-06
2.67612e-06
1.73808e-05
1.30961e-07
-1.30471e-05
2.56466e-05
-1.71082e-05
5.08318e-06
-3.0446e-05
-3.636e-06
-2.76318e-07
1.56268e-05
-5.36256e-06
6.22699e-06
5.8223e-06
-6.46799e-06
-1.17957e-05
2.35814e-06
1.73164e-05
8.42686e-06
-4.48166e-06
2.80121e-05
-1.34057e-05
-9.64033e-06
8.71331e-06
-8.79291e-06
-8.3033e-06
-3.63657e-06
4.57819e-07
1.90032e-05
-1.3605e-05
-1.50438e-05
4.20409e-06
1.88085e-06
6.28323e-06
-5.38467e-06
-1.87575e-07
-3.12856e-06
1.72039e-06
-3.41281e-06
-5.79878e-06
-7.18681e-06
-6.8808e-07
-1.26997e-06
-3.21913e-06
-7.52173e-06
1.03472e-05
9.18922e-06
8.70575e-06
-8.45428e-07
1.52746e-05
1.8206e-07
3.11501e-06
1.02418e-05
1.07007e-05
1.43417e-05
2.21366e-05
1.43653e-05
1.14603e-05
1.44937e-06
1.13707e-06
-3.45994e-06
-8.45537e-06
-3.13903e-06
7.7243e-06
1.65895e-06
8.27691e-06
-1.59872e-07
8.59087e-06
1.2144e-05
8.0783e-06
-4.97338e-07
-1.45591e-05
1.81598e-06
-1.38659e-06
6.99501e-06
7.54439e-06
-9.49262e-06
2.76014e-06
9.45089e-06
1.70708e-06
-2.99012e-06
7.29726e-06
-5.30924e-06
5.15052e-06
1.21196e-05
7.72579e-06
3.94739e-06
5.02026e-06
4.11467e-06
7.55954e-07
-1.65572e-06
4.67795e-07
8.82639e-06
3.48274e-06
9.32146e-06
2.82861e-06
1.17738e-06
2.28851e-06
-3.90194e-06
5.38449e-07
-1.33488e-06
-2.39144e-07
-1.5374e-06
-2.49997e-07
-4.54235e-06
-3.0385e-07
-5.00218e-07
-2.0803e-06
-4.02958e-06
2.97212e-06
5.77249e-06
5.36851e-06
-4.87505e-07
5.44383e-06
8.15288e-08
1.6063e-06
3.68857e-06
5.60076e-06
7.75648e-06
7.03627e-06
8.29885e-06
6.2501e-06
2.43328e-07
2.74022e-07
-1.76274e-06
-1.36961e-06
-2.81041e-06
3.71084e-06
1.51108e-06
2.52387e-06
-1.70433e-07
5.787e-06
3.79662e-06
4.54354e-06
-5.16491e-07
-3.84319e-06
1.14136e-06
-1.08444e-06
1.79219e-06
4.22173e-06
-5.20738e-06
5.50583e-07
5.55323e-06
7.66802e-07
-2.23236e-06
2.76148e-06
-3.59227e-06
2.05997e-06
3.49024e-06
4.01302e-06
2.15345e-06
1.73027e-06
2.63135e-06
2.87311e-07
-5.78979e-07
-3.56243e-07
2.16148e-06
2.26003e-06
5.8859e-06
-1.52899e-06
-1.49397e-06
1.03201e-06
-3.21273e-07
1.8796e-06
2.88524e-07
-1.01811e-07
-2.95618e-06
1.33322e-06
1.9776e-06
-1.38713e-06
3.42764e-06
-2.53068e-06
4.73178e-07
1.54205e-07
-2.59522e-06
-8.72065e-07
-2.58142e-07
4.25794e-07
-3.0462e-06
3.15905e-07
4.24528e-08
7.1541e-07
-1.40768e-06
1.39315e-07
-1.3405e-06
-9.15128e-07
2.30397e-07
1.05722e-06
1.64226e-07
2.40777e-06
-2.12367e-06
5.34659e-07
-2.11521e-06
-3.26009e-06
4.90871e-07
-1.57997e-06
-2.63966e-07
-2.52268e-06
2.96736e-07
9.57127e-07
8.19683e-07
-2.00646e-06
-5.38659e-07
3.28154e-07
-1.50925e-07
-1.52845e-06
2.57045e-08
-2.87604e-07
-1.8759e-06
2.22737e-06
2.58588e-06
1.35204e-07
3.71929e-07
1.37664e-06
2.48845e-06
4.29954e-06
2.70897e-06
2.93456e-06
2.64512e-07
1.06064e-07
-9.97834e-07
2.43499e-06
1.35418e-06
3.36846e-07
3.3724e-06
2.83753e-06
8.12648e-07
1.14422e-06
2.66259e-07
2.92555e-06
-3.0497e-06
3.09088e-06
8.38417e-07
-1.37308e-06
-9.7562e-07
5.72349e-07
2.0354e-06
9.68654e-07
1.06995e-06
1.72285e-07
5.16593e-07
7.99867e-07
2.3602e-06
0.000175631
-0.000177635
1.51017e-05
-3.71498e-05
6.66956e-06
-7.54e-05
-3.43048e-06
-0.000285221
2.48618e-06
-0.000110083
-1.05921e-05
-0.000107407
-1.0086e-05
7.79516e-05
-2.15467e-05
8.66055e-06
1.70041e-06
-0.000112294
0.000198306
0.000116205
1.11436e-05
0.000177411
1.34185e-05
0.000224858
1.09335e-05
0.00017814
3.6704e-06
-2.09261e-05
-3.9434e-06
-0.000126587
-6.84564e-06
-0.000137497
1.13829e-06
-5.8375e-05
5.27359e-06
0.000134081
6.76956e-06
0.000104633
6.36204e-06
8.39385e-05
0.000169478
0.000183917
5.89682e-06
5.43439e-05
2.36128e-05
8.23033e-05
1.29212e-05
0.000128803
1.25857e-06
-3.40792e-05
-2.69053e-06
-0.000237931
-7.14058e-06
-0.000269704
1.03134e-06
1.37617e-05
1.29496e-05
-1.06777e-05
-4.78904e-06
1.19068e-06
2.07746e-05
9.86668e-06
-1.38381e-05
1.47997e-06
2.3254e-05
-1.31467e-05
2.04727e-05
-1.984e-05
-1.28747e-05
7.14506e-06
-3.50272e-05
6.21976e-06
-1.60985e-05
-1.31308e-05
2.64922e-05
-7.63847e-06
-2.20333e-05
1.24066e-05
-4.20152e-05
2.30248e-05
-7.7992e-06
9.94203e-06
1.8317e-05
-9.78242e-06
1.59162e-05
-2.49055e-06
-2.40482e-05
-1.45973e-06
2.36434e-06
-4.14371e-07
-1.20674e-05
6.27526e-06
-6.20739e-06
1.45369e-06
-1.69819e-05
-1.17007e-05
-1.56894e-05
1.39983e-05
-3.40814e-05
5.34412e-06
1.2146e-05
-7.14149e-06
2.97497e-05
4.2704e-06
-2.31629e-05
1.43351e-06
-7.98001e-06
-1.07746e-05
3.56718e-06
-7.94264e-06
-2.2392e-05
-7.15765e-06
-3.01755e-06
4.71113e-06
-2.99201e-06
1.05382e-06
1.13037e-05
-5.89664e-06
-5.19417e-06
-5.39287e-07
1.07147e-05
8.33199e-06
8.40496e-06
1.0612e-05
-6.00274e-06
-9.2146e-06
-1.51991e-05
-7.98267e-06
-8.60372e-06
6.9133e-06
1.17552e-05
4.6899e-06
-9.11886e-06
-4.59049e-06
-1.83476e-05
-7.18744e-06
-4.06238e-06
-1.50083e-06
9.45898e-06
6.57485e-06
7.86168e-06
6.92299e-07
-1.04004e-05
1.59404e-06
1.29641e-06
3.86405e-06
-6.26595e-06
3.21276e-06
-3.72928e-06
2.66727e-06
-8.8814e-06
4.08425e-06
-7.56255e-06
-1.48856e-05
-1.51206e-05
-6.26198e-06
5.16031e-06
5.17056e-06
1.30744e-05
5.12182e-08
-1.03118e-05
-2.75726e-07
-3.50996e-06
1.7333e-06
2.02139e-06
-1.22623e-06
-1.01107e-05
-3.66902e-06
-2.841e-06
2.98639e-06
-8.85512e-07
6.89268e-07
3.88786e-06
-2.44426e-06
-2.28635e-06
4.67303e-07
3.27864e-06
5.11974e-06
1.72383e-06
5.9084e-06
-1.06534e-06
-4.70807e-06
-4.59139e-06
-5.0014e-06
-2.99623e-06
3.64429e-06
3.18318e-06
2.85769e-06
-2.73549e-06
-3.23058e-06
-3.94705e-06
-5.36033e-06
-1.62599e-06
-1.35879e-06
2.60441e-06
4.58536e-06
1.85801e-06
1.16538e-06
-3.26e-06
2.01048e-06
3.05873e-07
2.69987e-06
-2.39557e-06
1.78368e-06
-1.67406e-06
9.35417e-07
-3.92609e-06
1.60028e-06
-2.60859e-06
-8.25738e-06
-5.18207e-06
-3.22619e-06
9.2653e-07
2.97844e-06
3.2771e-06
-4.03962e-07
-2.92834e-06
-6.96108e-07
-6.03529e-07
1.17524e-06
-1.96799e-07
-3.06468e-07
-2.73589e-06
-9.85228e-07
-1.55113e-06
1.46914e-06
3.2141e-07
-1.65376e-06
8.71973e-08
1.51633e-06
2.64312e-06
-1.99192e-06
-2.41542e-06
1.14319e-06
8.90481e-07
-3.62613e-07
-1.70184e-06
-6.20165e-08
1.79244e-06
9.34168e-07
1.57291e-06
2.03759e-06
1.55593e-06
5.54464e-07
1.01206e-06
-4.13381e-06
-2.32662e-06
-2.34319e-08
-9.25484e-07
-4.62301e-07
-1.4683e-07
-5.05845e-07
-0.000173715
0.000158227
9.65865e-06
-7.21944e-05
0.000193502
0.00012897
0.000175388
8.34521e-06
4.2882e-06
1.93759e-05
-1.38134e-06
9.82387e-06
)
;

boundaryField
{
    top_fluid_surface
    {
        type            calculated;
        value           nonuniform List<scalar> 
64
(
-0.000248121
0.000103368
7.96941e-05
-2.26752e-05
-0.000237691
-0.000298142
-0.000304796
-1.98544e-05
-0.000125443
-0.000216867
0.00033898
-3.13102e-05
0.000170089
-0.000291472
0.000134216
-0.000160299
0.000310282
0.000474795
0.000110289
0.000454092
-3.11754e-05
0.000100442
0.000397344
0.000487975
-0.000455061
0.000319532
0.000261096
0.000185006
0.000263825
0.000166004
0.000134346
0.000386437
-0.000266875
0.000242232
0.00017614
0.000225162
-0.000224124
-0.000180934
-0.000115352
-0.000150846
-3.05473e-05
-0.000680138
-0.0003087
-0.000131759
-0.000138739
0.000212821
0.000142781
6.4288e-05
-0.00025408
-0.00024762
-0.000170368
-0.00014013
-0.000190035
2.97711e-05
7.73082e-05
-7.08822e-05
0.00027761
0.000289811
-4.92034e-05
-0.000457742
-0.000555956
-9.06445e-05
-0.000104383
7.96192e-05
)
;
    }
    bottom_fluid_surface
    {
        type            calculated;
        value           uniform 0;
    }
    lateral_surface_1
    {
        type            calculated;
        value           uniform 0;
    }
    lateral_surface_2
    {
        type            calculated;
        value           uniform 0;
    }
    lateral_surface_3
    {
        type            calculated;
        value           uniform 0;
    }
    lateral_surface_4
    {
        type            calculated;
        value           uniform 0;
    }
}


// ************************************************************************* //
