/*--------------------------------*- C++ -*----------------------------------*\
| =========                 |                                                 |
| \\      /  F ield         | OpenFOAM: The Open Source CFD Toolbox           |
|  \\    /   O peration     | Version:  v1612+                                |
|   \\  /    A nd           | Web:      www.OpenFOAM.com                      |
|    \\/     M anipulation  |                                                 |
\*---------------------------------------------------------------------------*/
FoamFile
{
    version     2.0;
    format      ascii;
    class       surfaceScalarField;
    location    "9.45";
    object      alphaPhi;
}
// * * * * * * * * * * * * * * * * * * * * * * * * * * * * * * * * * * * * * //

dimensions      [0 3 -1 0 0 0 0];

internalField   nonuniform List<scalar> 
816
(
3.91205e-06
-1.1602e-05
7.72604e-06
-2.12409e-05
-1.81289e-05
3.93335e-05
6.63654e-06
7.74055e-07
-1.0835e-05
-3.57577e-06
1.08898e-05
-3.66051e-06
4.89807e-07
-4.81766e-06
3.40075e-06
-7.02462e-06
-1.05125e-05
4.78217e-07
-5.90395e-06
1.88741e-05
8.19022e-09
-4.31879e-09
-3.3777e-07
-4.55521e-09
4.80443e-09
1.08077e-08
-7.70546e-06
-2.39833e-09
1.62595e-09
4.84073e-09
4.71537e-07
-4.64551e-09
1.22794e-08
3.88335e-09
5.99745e-08
1.0056e-08
-9.1001e-09
3.98742e-09
1.37262e-07
1.16113e-08
-1.04679e-08
-4.11487e-09
4.75084e-07
5.43427e-09
8.00252e-09
-4.95467e-09
-0.000100696
8.02797e-09
-2.6437e-09
-2.18602e-09
-5.62151e-07
3.47774e-09
-3.52357e-09
-1.47715e-09
1.46368e-06
7.46339e-09
-3.89286e-10
-1.02759e-10
2.14173e-06
-1.89328e-09
2.31972e-09
-3.62674e-09
2.33951e-10
-2.00918e-09
1.38724e-09
4.61108e-07
-5.00667e-09
-3.40595e-09
2.47821e-05
-3.78519e-06
-3.37756e-05
-5.55642e-07
1.12002e-05
4.34281e-05
-4.55582e-05
2.23884e-05
-2.89427e-08
7.62929e-07
-5.50984e-06
1.64919e-06
5.09985e-05
-5.84767e-06
1.42567e-05
1.5228e-05
-2.47935e-05
1.44438e-05
-2.26315e-05
2.52371e-05
-2.39984e-05
-4.06076e-06
-2.50162e-05
1.52523e-05
3.2514e-05
3.7873e-06
-3.49493e-05
2.06445e-05
3.54636e-06
2.50824e-05
-1.30165e-05
-7.06944e-06
-1.65429e-06
7.0835e-06
-5.24757e-05
3.21244e-05
4.30111e-05
2.93066e-05
-2.91737e-05
1.99347e-05
-4.62107e-06
-1.50039e-05
7.81843e-05
1.0026e-05
-3.53223e-05
-1.77215e-05
-4.38672e-06
4.68238e-06
-1.03977e-05
1.1354e-07
-1.67932e-05
1.04397e-06
-2.18704e-05
-1.97185e-05
-1.35144e-05
6.58273e-07
-3.1389e-06
5.22406e-08
-2.50463e-05
2.77374e-06
6.28366e-06
-5.10575e-06
-1.00866e-05
-9.68417e-06
-1.06065e-05
7.41853e-07
-1.33617e-05
-4.50829e-06
-1.79421e-05
-4.46526e-06
-1.64891e-05
-1.28731e-05
-1.61369e-05
-5.09875e-06
4.20561e-06
-5.35541e-06
-2.41289e-05
-1.59353e-05
-2.31984e-05
-1.57271e-05
-1.34385e-05
-1.01818e-05
1.12129e-05
3.38995e-05
-3.90727e-06
-9.11113e-06
4.94031e-06
-2.21708e-06
1.64448e-06
-6.75411e-06
4.59555e-06
-1.17695e-05
-5.85622e-06
3.13695e-06
7.91137e-07
-6.63517e-06
7.32687e-07
-1.61205e-06
5.19736e-07
-2.87949e-06
6.19168e-07
-5.08896e-06
-1.23604e-07
7.88059e-07
-4.96572e-06
-1.29479e-06
7.29724e-08
-5.98109e-06
-1.18574e-05
-8.0778e-06
-3.89476e-06
-2.13586e-07
-5.25557e-07
-1.33541e-05
-1.00929e-06
2.54661e-06
-2.31678e-06
-9.6072e-07
-4.61303e-06
-4.69209e-06
-2.92309e-06
-2.0092e-07
-2.86566e-06
-1.02519e-05
-4.67139e-06
-2.93713e-06
-7.24847e-06
-6.63879e-06
-8.26729e-06
2.96695e-06
-2.19166e-06
-2.33004e-06
-9.88899e-06
-1.31767e-05
-6.99209e-06
-8.93173e-06
-6.03853e-06
-3.70791e-06
5.63251e-06
-2.22482e-06
9.78981e-06
1.88841e-06
-2.62602e-06
-3.82578e-06
2.22062e-09
7.7167e-10
-4.40518e-07
-3.50687e-09
5.55567e-09
-7.1204e-06
-6.07973e-09
1.0211e-08
-9.61059e-05
-1.3411e-09
1.14923e-08
-1.13782e-05
-2.24391e-09
4.39755e-09
-4.86047e-07
-7.32427e-09
-5.9756e-09
1.34075e-09
4.86404e-07
-6.56155e-09
-2.98597e-09
-1.00182e-07
-8.26679e-09
-1.27463e-08
2.6582e-11
-4.87638e-09
-6.55681e-09
4.04261e-05
-6.67427e-10
6.08751e-09
-0.000129161
-7.57163e-09
-5.01027e-09
-1.23418e-09
3.96349e-07
-4.35775e-09
-9.66008e-09
-2.56908e-06
-4.9186e-09
-3.29726e-09
1.24446e-07
-1.65502e-09
-4.01653e-09
-2.08767e-07
-2.29094e-09
-6.24032e-11
3.89865e-11
-7.75347e-09
-1.06905e-08
-3.39576e-09
1.23438e-06
-9.04858e-09
-7.24141e-09
9.45154e-07
-8.10999e-09
-4.76836e-09
4.10547e-07
-6.8235e-09
-1.75808e-09
4.08433e-08
-4.16676e-09
9.27415e-12
-5.22936e-09
-4.4578e-09
-1.42719e-05
1.1862e-05
-5.84333e-06
2.4357e-06
1.5958e-05
-3.12654e-05
-3.9352e-06
1.92412e-05
7.50733e-06
2.07988e-05
1.729e-05
-8.83023e-06
1.34924e-05
2.32264e-05
7.08443e-05
-4.19518e-05
-4.11572e-05
-2.389e-06
9.09033e-05
-2.06429e-05
-2.85541e-05
8.80555e-05
-5.14201e-05
-6.26573e-05
0.000112863
-5.12038e-05
-3.79891e-05
-1.33701e-05
-7.72061e-06
4.53457e-05
-2.37193e-05
-3.14641e-05
-2.43905e-05
-3.39469e-06
0.000104135
-2.101e-05
-3.91939e-05
9.885e-05
-4.26434e-05
1.47478e-05
-5.67535e-05
-6.45286e-06
3.49163e-06
6.61935e-05
-2.45818e-05
2.98382e-05
7.37072e-05
-5.73284e-05
-4.07209e-05
-6.07154e-06
9.13049e-05
-7.23175e-06
-3.64606e-05
8.70532e-05
-3.27877e-05
-2.57185e-05
2.47334e-05
-2.39873e-05
-1.83598e-06
-1.16939e-05
-7.60635e-06
7.53515e-05
-2.75519e-05
-3.72465e-05
8.80088e-06
-7.04214e-06
-1.58947e-06
-1.08229e-06
-8.59413e-06
-1.48509e-05
1.76054e-06
-7.17527e-06
4.52359e-06
-1.16224e-05
-7.53336e-06
-4.91144e-06
-3.55175e-06
-1.45118e-05
3.27609e-05
2.57384e-05
1.91044e-05
1.54169e-07
4.03241e-05
1.07562e-05
1.47102e-05
3.88827e-05
2.95785e-05
3.43842e-05
4.92932e-05
3.33055e-05
1.87741e-05
-6.32119e-06
3.99424e-06
-2.84138e-05
-8.3741e-06
2.08049e-05
1.10179e-05
7.47987e-07
4.50735e-05
1.19312e-05
2.08097e-05
4.33373e-05
2.25381e-05
-9.07426e-06
-2.46712e-05
1.97726e-06
-1.89871e-06
3.05767e-05
1.25277e-05
-1.84734e-05
3.27935e-05
3.36559e-05
2.38494e-05
3.29879e-06
3.94838e-05
6.82897e-06
2.12234e-05
3.86795e-05
2.03245e-05
1.54211e-05
1.23999e-05
1.42276e-05
1.47673e-06
-4.63401e-06
4.54151e-06
3.44343e-05
1.48188e-05
2.04868e-05
6.01812e-06
-4.29162e-06
5.78907e-07
-1.8165e-06
-4.42537e-06
-4.94708e-06
-4.75662e-08
-4.23209e-06
3.60262e-06
-7.14237e-06
-3.4157e-06
-2.1206e-06
-3.84927e-06
-7.24703e-06
1.123e-05
1.40734e-05
1.14852e-05
-3.6578e-08
1.46963e-05
4.90678e-06
7.87338e-06
1.24937e-05
1.6068e-05
1.79179e-05
1.61365e-05
1.84131e-05
9.41389e-06
-2.04141e-06
1.35763e-06
-1.53042e-05
-3.20122e-09
1.06712e-05
5.66864e-06
8.08876e-07
1.27308e-05
5.97844e-06
1.10905e-05
1.4138e-05
1.17025e-05
-6.18777e-06
-5.00424e-06
5.65939e-07
-1.51366e-06
1.00125e-05
5.9965e-06
-9.94512e-06
1.00926e-05
1.81121e-05
1.31545e-05
1.70989e-06
1.24634e-05
2.20494e-06
1.09466e-05
1.24019e-05
1.09546e-05
7.70267e-06
5.37669e-06
8.05844e-06
1.85972e-07
-1.11187e-06
1.06196e-06
1.00071e-05
7.87754e-06
1.20632e-05
8.57675e-07
-4.17845e-06
3.19751e-06
-5.73191e-06
2.7845e-06
-1.60715e-07
-9.75565e-07
-2.80453e-06
-6.7712e-07
-6.12694e-08
-2.21846e-06
2.90884e-06
-5.14722e-06
1.33986e-06
1.1517e-06
-5.73946e-06
-3.35231e-06
-2.75769e-07
9.17757e-07
-7.28911e-06
-4.54802e-07
-1.71872e-06
-2.45276e-06
-3.15187e-06
-7.00255e-07
-1.30201e-06
-5.14854e-06
-1.88701e-06
-2.56784e-06
-4.9773e-06
2.49438e-07
-1.86241e-06
-3.58904e-06
-6.49317e-06
-3.49209e-06
-2.10675e-06
2.88214e-06
-2.48292e-06
1.54989e-07
-6.1882e-08
2.33766e-06
-6.9996e-07
-5.86948e-07
-2.71193e-06
7.88634e-07
-8.70438e-07
-2.08581e-06
-2.13242e-06
-1.58559e-07
-2.98205e-06
5.92626e-06
6.26252e-06
1.16676e-06
3.45418e-06
4.57253e-06
7.39664e-06
9.58716e-06
8.00378e-06
4.41878e-06
1.93068e-06
-5.52892e-06
5.56995e-06
4.4056e-06
-3.21939e-07
2.29557e-06
4.88003e-06
6.35619e-06
-1.4798e-06
1.59416e-06
2.09177e-07
4.59007e-06
-4.08483e-06
8.1885e-06
6.15173e-06
6.24617e-07
1.50794e-06
5.50427e-06
5.52682e-06
5.60389e-06
2.98665e-06
2.07804e-06
2.07763e-06
4.2866e-06
5.11903e-06
2.83176e-09
-7.44854e-09
8.51893e-07
4.0374e-09
1.45722e-06
1.03326e-08
-1.69733e-05
9.60365e-09
-0.000123443
7.18354e-09
-0.000161826
-7.64708e-09
8.00428e-07
5.94256e-09
4.49367e-07
5.00243e-09
5.00699e-06
2.72623e-09
2.99889e-06
4.24941e-09
1.07145e-06
-1.73521e-09
-6.79324e-06
-9.29991e-10
2.21136e-06
-9.947e-10
3.82996e-07
4.22913e-10
-6.64789e-06
-1.28114e-09
4.40252e-06
-1.52631e-09
6.43022e-07
-5.69992e-09
6.33776e-07
-4.0895e-09
1.34806e-06
-5.06553e-09
2.10454e-06
-5.89324e-09
-2.46714e-06
1.41741e-09
-3.00914e-06
-3.84394e-09
-9.73283e-07
-7.05331e-10
-1.37504e-06
-1.25588e-09
-1.38613e-06
-1.86541e-09
5.6559e-07
-3.36077e-09
-6.25597e-07
-7.93385e-09
-1.49697e-06
-1.50768e-06
1.58269e-05
-3.23626e-05
-8.01205e-06
1.39644e-05
5.23266e-06
3.58773e-05
-2.45217e-05
1.11956e-05
5.59889e-05
-2.42264e-05
3.39372e-05
-5.04549e-05
-2.20934e-05
3.36255e-05
-9.04959e-05
2.02106e-05
-1.51957e-05
-2.21953e-05
2.89007e-05
-1.10127e-05
-6.66313e-05
5.18741e-06
-8.65761e-05
1.88434e-05
-1.38033e-05
1.76261e-05
-3.6768e-05
-2.04588e-05
3.21157e-05
-1.04078e-05
-2.85099e-05
-5.72076e-06
-2.55718e-05
-1.18082e-06
-4.47909e-05
3.58871e-06
-6.62687e-06
-7.28927e-06
-4.8833e-06
-1.77805e-05
-5.14491e-05
3.3856e-05
-5.82603e-05
9.8946e-06
-1.8117e-05
-3.80974e-06
3.803e-06
-8.5187e-07
-3.93457e-05
-1.33139e-05
-9.3955e-06
-2.10076e-05
-7.11606e-07
-2.37916e-05
-3.67928e-05
-6.0208e-05
-8.66834e-06
2.01762e-05
-4.4213e-06
-6.73031e-06
2.20602e-06
-1.90135e-05
-1.11144e-05
8.91583e-08
2.55046e-05
1.459e-05
1.6182e-05
2.72396e-05
-8.82452e-06
-2.32046e-05
-4.01034e-05
-1.00784e-05
-9.56025e-06
1.6639e-05
1.29639e-05
8.29299e-06
-2.85942e-05
-6.92925e-06
-3.79698e-05
-9.44201e-06
-7.26726e-06
-1.00861e-05
-1.53333e-05
7.90149e-06
1.41133e-05
3.8745e-06
-1.33866e-05
9.58133e-07
-1.0625e-05
-1.61577e-06
-1.96864e-05
-2.33761e-06
-3.95381e-06
7.83254e-06
-2.52847e-06
1.18394e-05
-2.17349e-05
-1.99047e-05
-2.64577e-05
-6.33711e-06
-8.05105e-06
1.13345e-06
3.01944e-06
-2.95187e-07
-1.75502e-05
8.52886e-06
-3.89907e-06
1.31913e-05
-7.58176e-07
1.4253e-05
-1.74469e-05
-2.60775e-05
-4.43252e-06
1.05632e-05
-1.78099e-06
-2.61643e-06
-2.67394e-07
-1.03109e-05
-5.25642e-06
-1.08836e-07
7.40996e-06
9.62534e-06
2.32619e-06
1.52198e-05
-2.80686e-07
-1.22242e-05
-1.23483e-05
-6.12611e-06
-4.25031e-06
8.75572e-06
2.8143e-06
5.02235e-06
-8.88805e-06
-4.47916e-06
-1.00892e-05
-6.34198e-06
-4.02123e-06
-6.4249e-06
-4.53888e-06
5.56801e-06
2.01443e-06
2.55284e-06
-4.86613e-06
4.64253e-07
-2.52522e-06
-1.25865e-06
-6.20988e-06
-1.67887e-06
-2.94761e-06
4.28404e-06
-2.54539e-06
6.07929e-06
-5.53893e-06
-1.07234e-05
-9.34302e-06
-3.50645e-06
-1.83777e-06
1.48207e-06
8.38601e-08
-3.01887e-07
-4.94884e-06
3.64898e-06
2.48966e-07
7.06746e-06
-2.77733e-06
6.91546e-06
-4.925e-06
-9.13883e-06
-3.86808e-06
6.52494e-06
-1.73196e-06
-5.6761e-06
-2.1558e-07
1.81616e-06
7.11821e-06
-5.22906e-06
-3.07225e-06
3.23925e-06
1.76526e-06
-3.65722e-07
-2.49108e-06
-1.33346e-06
8.04557e-07
3.20944e-07
8.14099e-08
2.26594e-07
-1.02122e-06
1.10282e-06
3.41134e-06
-6.12188e-06
-1.65772e-06
-9.22208e-08
3.71676e-07
3.6985e-06
3.94301e-06
4.86502e-06
5.68745e-09
5.37793e-09
1.94422e-06
5.23006e-10
-4.21807e-06
7.06244e-09
2.80247e-06
-1.05903e-06
-1.23478e-07
2.09204e-05
-1.45785e-05
1.60714e-05
)
;

boundaryField
{
    top_fluid_surface
    {
        type            calculated;
        value           nonuniform List<scalar> 
64
(
0
0
0
0
0
0
1.3134e-09
0
0
0
3.89634e-09
0
0
0
0
0
1.49042e-08
1.70787e-08
1.78771e-08
1.87443e-08
0
2.20104e-10
1.53218e-08
1.56302e-08
0
9.26956e-09
1.10779e-08
9.93877e-09
8.29815e-09
1.42635e-09
0
7.57125e-09
0
0
0
1.48643e-09
1.93961e-09
3.39638e-09
0
0
0
0
1.40636e-09
0
0
0
0
0
0
0
0
0
0
0
0
0
0
0
0
0
0
0
0
0
)
;
    }
    bottom_fluid_surface
    {
        type            calculated;
        value           uniform 0;
    }
    lateral_surface_1
    {
        type            calculated;
        value           uniform 0;
    }
    lateral_surface_2
    {
        type            calculated;
        value           uniform 0;
    }
    lateral_surface_3
    {
        type            calculated;
        value           uniform 0;
    }
    lateral_surface_4
    {
        type            calculated;
        value           uniform 0;
    }
}


// ************************************************************************* //
