/*--------------------------------*- C++ -*----------------------------------*\
| =========                 |                                                 |
| \\      /  F ield         | OpenFOAM: The Open Source CFD Toolbox           |
|  \\    /   O peration     | Version:  v1612+                                |
|   \\  /    A nd           | Web:      www.OpenFOAM.com                      |
|    \\/     M anipulation  |                                                 |
\*---------------------------------------------------------------------------*/
FoamFile
{
    version     2.0;
    format      ascii;
    class       volScalarField;
    location    "9.45";
    object      p;
}
// * * * * * * * * * * * * * * * * * * * * * * * * * * * * * * * * * * * * * //

dimensions      [1 -1 -2 0 0 0 0];

internalField   nonuniform List<scalar> 
320
(
14724.8
14724.8
14724.8
14724.8
5.00795
5.00773
5.0097
5.00963
5.00894
5.00868
5.00395
5.00893
5.00747
5.00689
5.00727
5.00738
4914.91
4914.9
4914.9
4914.89
4914.9
4914.92
4914.84
4914.91
4914.92
4914.91
4914.9
4914.91
14724.8
14724.8
14724.8
14724.8
14724.8
14724.8
14724.8
14724.8
14724.8
14724.8
14724.8
14724.8
24534.8
24534.8
24534.8
24534.8
24534.8
24534.8
24534.8
24534.8
24534.8
24534.8
24534.8
24534.8
24534.8
24534.8
24534.8
24534.8
5.00771
5.00716
5.00501
5.01005
5.01123
5.01003
5.00952
5.00947
5.01163
5.00719
5.00894
5.00903
5.008
5.00736
5.00735
5.00711
5.00693
5.00696
5.007
5.00728
4914.91
4914.91
4914.91
4914.91
4914.87
4914.87
4914.85
4914.85
4914.94
4914.82
4914.88
4914.87
4914.9
4914.9
4914.9
4914.9
4914.9
4914.91
4914.91
4914.89
14724.8
14724.8
14724.8
14724.8
14724.8
14724.8
14724.8
14724.8
14724.8
14724.8
14724.8
14724.8
14724.8
14724.8
14724.8
14724.8
14724.8
14724.8
14724.8
14724.8
24534.8
24534.8
24534.8
24534.8
24534.8
24534.8
24534.8
24534.8
24534.8
24534.8
24534.8
24534.8
24534.8
24534.8
24534.8
24534.8
24534.8
24534.8
24534.8
24534.8
34344.8
34344.8
34344.8
34344.8
34344.8
34344.8
34344.8
34344.8
34344.8
34344.8
34344.8
34344.8
34344.8
34344.8
34344.8
34344.8
34344.8
34344.8
34344.8
34344.8
34344.8
34344.8
34344.8
34344.8
34344.8
34344.8
34344.8
34344.8
34344.8
34344.8
34344.8
34344.8
34344.8
34344.8
34344.8
34344.9
5.00728
5.008
5.00674
5.00646
5.00993
5.01307
5.01103
5.01038
5.00978
5.01077
5.00995
5.00959
5.00996
5.00894
5.00972
5.0086
5.00776
5.00738
5.00721
5.00764
5.008
5.00757
5.0074
5.00725
5.00709
5.00693
5.00707
5.00727
4914.91
4914.92
4914.92
4914.88
4914.83
4914.88
4914.92
4914.94
4914.93
4914.92
4914.86
4914.9
4914.91
4914.93
4914.92
4914.91
4914.9
4914.91
4914.93
4914.92
4914.92
4914.92
4914.93
4914.93
4914.93
4914.92
4914.9
4914.92
14724.8
14724.8
14724.8
14724.8
14724.8
14724.8
14724.8
14724.8
14724.8
14724.8
14724.8
14724.8
14724.8
14724.8
14724.8
14724.8
14724.8
14724.8
14724.8
14724.8
14724.8
14724.8
14724.8
14724.8
14724.8
14724.8
14724.8
14724.8
24534.8
24534.7
24534.8
24534.8
24534.8
24534.8
24534.8
24534.8
24534.8
24534.8
24534.8
24534.8
24534.8
24534.8
24534.8
24534.8
24534.8
24534.8
24534.8
24534.8
24534.8
24534.8
24534.8
24534.8
24534.8
24534.8
24534.8
24534.8
34344.8
34344.7
34344.8
34344.8
34344.8
34344.8
34344.8
34344.8
34344.8
34344.8
34344.8
34344.8
34344.8
34344.8
34344.8
34344.8
34344.8
34344.8
34344.8
34344.8
34344.8
34344.8
34344.8
34344.8
34344.8
34344.8
34344.8
34344.9
5.00804
5.00864
5.00794
5.00902
4914.91
4914.9
4914.91
4914.9
)
;

boundaryField
{
    top_fluid_surface
    {
        type            calculated;
        value           nonuniform List<scalar> 
64
(
-6.25132e-09
-1.64967e-09
-1.05826e-09
-2.01233e-12
-1.34964e-09
-8.81032e-09
0
-4.36751e-09
-2.23036e-08
-2.18493e-09
0
0
-5.49322e-09
-2.08736e-09
-2.48824e-09
-4.01796e-09
0
0
0
0
-1.11363e-11
0
0
0
-1.55821e-09
0
0
0
0
0
-1.64842e-09
0
-9.69379e-10
-5.77228e-09
-3.10987e-08
0
0
0
-5.36778e-08
-1.14202e-08
-3.98294e-09
-3.16964e-08
0
-1.86837e-09
-1.62648e-08
-5.21511e-14
-7.15315e-09
-5.38278e-09
-1.25746e-09
-3.50917e-09
-1.43128e-09
-1.65772e-08
-1.88032e-08
-9.37175e-09
-3.22858e-08
-1.79246e-08
-1.10601e-08
-1.85843e-09
-7.74294e-10
-6.52809e-08
-1.11745e-08
-1.26393e-09
-2.65094e-09
-1.09696e-08
)
;
    }
    bottom_fluid_surface
    {
        type            calculated;
        value           nonuniform List<scalar> 
64
(
39249.8
39249.8
39249.8
39249.8
39249.8
39249.8
39249.8
39249.8
39249.8
39249.8
39249.8
39249.8
39249.8
39249.8
39249.8
39249.8
39249.8
39249.8
39249.8
39249.8
39249.8
39249.8
39249.8
39249.8
39249.8
39249.8
39249.8
39249.8
39249.8
39249.8
39249.8
39249.8
39249.8
39249.8
39249.8
39249.9
39249.8
39249.7
39249.8
39249.8
39249.8
39249.8
39249.8
39249.8
39249.8
39249.8
39249.8
39249.8
39249.8
39249.8
39249.8
39249.8
39249.8
39249.8
39249.8
39249.8
39249.8
39249.8
39249.8
39249.8
39249.8
39249.8
39249.8
39249.9
)
;
    }
    lateral_surface_1
    {
        type            calculated;
        value           nonuniform List<scalar> 
40
(
5.00728
5.008
5.00674
5.00646
5.00993
5.01307
5.01103
5.00727
4914.91
4914.92
4914.92
4914.88
4914.83
4914.88
4914.92
4914.92
14724.8
14724.8
14724.8
14724.8
14724.8
14724.8
14724.8
14724.8
24534.8
24534.7
24534.8
24534.8
24534.8
24534.8
24534.8
24534.8
34344.8
34344.7
34344.8
34344.8
34344.8
34344.8
34344.8
34344.9
)
;
    }
    lateral_surface_2
    {
        type            calculated;
        value           nonuniform List<scalar> 
40
(
5.00894
5.00972
5.0086
5.00776
5.00738
5.00721
5.00764
5.008
4914.93
4914.92
4914.91
4914.9
4914.91
4914.93
4914.92
4914.92
14724.8
14724.8
14724.8
14724.8
14724.8
14724.8
14724.8
14724.8
24534.8
24534.8
24534.8
24534.8
24534.8
24534.8
24534.8
24534.8
34344.8
34344.8
34344.8
34344.8
34344.8
34344.8
34344.8
34344.8
)
;
    }
    lateral_surface_3
    {
        type            calculated;
        value           nonuniform List<scalar> 
40
(
5.01103
5.01038
5.00978
5.01077
5.00995
5.00959
5.00996
5.00894
4914.92
4914.94
4914.93
4914.92
4914.86
4914.9
4914.91
4914.93
14724.8
14724.8
14724.8
14724.8
14724.8
14724.8
14724.8
14724.8
24534.8
24534.8
24534.8
24534.8
24534.8
24534.8
24534.8
24534.8
34344.8
34344.8
34344.8
34344.8
34344.8
34344.8
34344.8
34344.8
)
;
    }
    lateral_surface_4
    {
        type            calculated;
        value           nonuniform List<scalar> 
40
(
5.008
5.00757
5.0074
5.00725
5.00709
5.00693
5.00707
5.00727
4914.92
4914.92
4914.93
4914.93
4914.93
4914.92
4914.9
4914.92
14724.8
14724.8
14724.8
14724.8
14724.8
14724.8
14724.8
14724.8
24534.8
24534.8
24534.8
24534.8
24534.8
24534.8
24534.8
24534.8
34344.8
34344.8
34344.8
34344.8
34344.8
34344.8
34344.8
34344.9
)
;
    }
}


// ************************************************************************* //
