/*--------------------------------*- C++ -*----------------------------------*\
| =========                 |                                                 |
| \\      /  F ield         | OpenFOAM: The Open Source CFD Toolbox           |
|  \\    /   O peration     | Version:  v1612+                                |
|   \\  /    A nd           | Web:      www.OpenFOAM.com                      |
|    \\/     M anipulation  |                                                 |
\*---------------------------------------------------------------------------*/
FoamFile
{
    version     2.0;
    format      ascii;
    class       surfaceScalarField;
    location    "6.8";
    object      alphaPhi;
}
// * * * * * * * * * * * * * * * * * * * * * * * * * * * * * * * * * * * * * //

dimensions      [0 3 -1 0 0 0 0];

internalField   nonuniform List<scalar> 
816
(
-1.74275e-06
-1.08505e-05
5.79785e-06
-1.02127e-05
-1.43425e-05
3.13503e-05
3.73179e-06
7.62053e-06
-1.44963e-06
1.03097e-05
-2.19542e-05
-6.61876e-06
1.79361e-06
3.12964e-06
7.70988e-06
-1.68732e-05
-1.28161e-06
9.50373e-06
9.68782e-06
-2.06937e-05
8.41179e-09
-6.46409e-09
-1.3227e-06
4.41485e-10
-9.7692e-10
7.53614e-09
-5.14899e-06
3.74655e-09
-3.35906e-09
-1.92264e-09
-1.89464e-06
2.06758e-09
9.80696e-09
-2.2056e-10
-4.44862e-06
4.80199e-09
-6.13338e-09
1.41223e-09
5.69269e-07
5.54182e-09
-6.64547e-09
-4.7856e-09
8.961e-08
4.12825e-09
4.37943e-09
-2.68309e-09
-7.50775e-06
4.43832e-09
1.76191e-09
2.84635e-09
-9.65667e-06
3.45849e-09
-1.63449e-10
1.11096e-09
-5.84278e-06
1.52088e-09
1.8648e-09
3.8171e-10
-3.04936e-06
-2.34368e-09
3.39047e-09
-1.75743e-09
7.79366e-11
-1.67199e-09
-1.01005e-09
2.19211e-06
-1.19984e-09
-4.88387e-09
2.29696e-05
-5.64009e-06
-2.66515e-05
-8.02253e-07
9.8159e-06
2.52307e-05
-2.49444e-05
5.70974e-06
8.49377e-06
-2.07077e-06
-5.64415e-07
-6.21879e-08
2.67133e-05
-9.14421e-06
1.43039e-05
-3.49251e-06
-8.23906e-06
1.33774e-06
-3.93541e-06
2.63364e-06
-6.97025e-06
5.05063e-06
-2.62877e-05
6.30425e-06
1.61878e-05
5.19587e-06
-2.57058e-05
-9.18483e-07
1.67766e-05
7.54578e-06
2.86847e-06
-1.29011e-05
2.55644e-06
5.16872e-06
-3.89285e-05
1.41961e-05
2.01727e-05
2.09191e-05
-2.82493e-05
4.38862e-06
1.16e-05
-1.57582e-06
3.60655e-05
4.00626e-06
-1.30594e-05
-1.45968e-05
1.10728e-05
5.04329e-06
-7.06686e-06
-2.02476e-06
-1.21043e-05
3.48489e-07
-1.08829e-05
-1.10898e-05
-2.40927e-06
-9.36624e-07
-1.26036e-06
1.42931e-06
-1.06761e-05
1.89194e-06
5.2691e-06
4.7754e-06
-2.00411e-06
-1.97238e-06
6.5402e-07
-2.24378e-06
-1.29167e-05
-2.61123e-06
-1.05196e-05
-4.33755e-06
-1.23143e-05
-1.79122e-06
-7.57483e-06
7.90091e-07
7.19171e-06
-4.33093e-06
-1.66977e-05
-7.40803e-06
-1.80857e-05
-1.09943e-05
-1.25202e-05
-5.84234e-06
3.25906e-06
1.54049e-05
-3.79934e-06
-7.18717e-06
-1.09528e-06
-5.07178e-06
-8.23398e-07
-6.36111e-06
3.21424e-06
-5.81435e-06
-4.54717e-06
1.63466e-06
4.94324e-06
-9.04868e-07
3.80283e-06
-2.89242e-06
1.15589e-06
1.30041e-06
1.87939e-06
-4.12346e-07
4.6922e-06
4.14114e-06
-2.88223e-06
-2.00528e-06
-1.06671e-07
-3.89737e-06
-5.70435e-06
-1.61916e-06
-1.69496e-06
-9.64007e-07
3.79306e-07
-6.28916e-06
-8.35337e-08
1.1571e-06
2.51706e-06
-2.70809e-07
-1.28666e-06
6.50408e-07
-5.95477e-07
-1.52573e-06
-1.71426e-06
-7.02171e-06
-3.95293e-06
-2.96892e-06
-1.89433e-06
-4.30741e-06
-4.84365e-06
4.09932e-06
-3.10894e-07
-1.54585e-06
-4.86255e-06
-1.05792e-05
-4.57435e-06
-5.69401e-06
-3.76962e-06
-3.32338e-06
1.56376e-06
-2.38581e-06
4.69656e-06
-1.14905e-06
-3.99565e-06
-2.47653e-06
4.58765e-09
-4.89189e-09
-6.91168e-06
-1.82171e-09
6.54289e-09
-1.47489e-06
-8.86417e-10
4.68341e-09
2.84433e-07
1.83669e-09
7.29099e-09
-1.65663e-07
2.99131e-09
-6.95943e-10
-5.52272e-06
-1.52146e-09
-1.85974e-09
-3.24522e-09
-8.97513e-06
7.24483e-10
-3.50407e-09
-5.17601e-06
-2.91248e-09
-6.53242e-09
-4.36015e-07
-3.78901e-09
-2.4824e-09
-7.28162e-06
1.396e-10
1.93958e-09
-4.17089e-06
-4.28604e-09
-1.92651e-09
-2.02913e-09
-4.32786e-08
-8.2192e-10
-7.39129e-09
3.91e-12
-2.57798e-09
-2.62251e-09
1.00776e-06
6.82465e-10
-1.282e-09
-6.2725e-06
-3.10757e-09
2.09384e-10
-4.64708e-06
-4.36182e-09
-4.09311e-09
-2.12636e-09
-1.75201e-06
-1.45347e-09
-4.99698e-09
1.69348e-07
-4.13549e-09
-2.71757e-09
2.01417e-06
-2.9103e-09
-2.32446e-09
2.78889e-06
-4.99983e-09
5.73873e-11
-3.47096e-09
-7.31595e-09
-1.41233e-05
-2.84173e-06
8.77802e-06
8.17095e-06
7.43912e-06
-1.89215e-05
-1.19961e-06
1.08621e-05
-1.18073e-05
1.38669e-05
7.6154e-06
-3.64943e-06
6.24692e-06
1.57899e-05
3.66141e-05
-2.68827e-05
-2.38005e-05
-3.35789e-06
4.70974e-05
-1.09736e-05
-1.61185e-05
3.76278e-05
-3.60335e-05
-3.68908e-05
6.32462e-05
-4.06885e-05
-2.55416e-05
-7.51048e-06
-7.48691e-06
1.8929e-05
-1.77196e-05
-1.36189e-05
-1.9579e-05
-2.27868e-06
4.17936e-05
-5.73421e-06
-2.3376e-05
4.72006e-05
-2.81659e-05
5.39795e-06
-4.00278e-05
-1.8683e-06
-4.12213e-07
3.19326e-05
-1.95696e-05
1.95285e-05
2.70168e-05
-2.86476e-05
-1.96627e-05
8.41071e-07
3.99856e-05
5.44243e-06
-1.98004e-05
4.68907e-05
-2.15607e-05
-1.24384e-05
9.87749e-06
-5.83973e-06
-2.4752e-06
4.30235e-06
2.1913e-06
3.96159e-05
-1.57012e-05
-2.47096e-05
8.85362e-06
-2.69292e-06
5.06106e-06
-3.53915e-06
-1.1817e-06
-8.73309e-06
2.07923e-07
-2.32023e-06
-4.68001e-06
-8.38369e-06
1.09105e-06
-2.99789e-06
-2.62538e-06
-1.01304e-05
1.67337e-05
1.50885e-05
1.60111e-05
-1.36902e-06
2.08692e-05
6.77853e-06
5.09646e-06
1.66878e-05
1.92467e-05
1.83491e-05
2.84159e-05
2.22277e-05
1.02955e-05
-3.39816e-06
1.31722e-06
-1.10497e-05
-7.2059e-06
4.13812e-06
6.69257e-06
9.62698e-07
1.89854e-05
2.68805e-07
1.19686e-05
2.13679e-05
1.30072e-05
-4.86576e-06
-1.82259e-05
2.19726e-06
-3.87222e-06
1.49724e-05
8.50469e-06
-1.24483e-05
1.24774e-05
1.76505e-05
5.45857e-06
-1.84094e-07
1.78372e-05
-8.22989e-06
1.0815e-05
2.09738e-05
9.09685e-06
6.78385e-06
4.97088e-06
5.14077e-06
2.39088e-06
2.48543e-06
1.14248e-06
1.78441e-05
9.15686e-06
1.231e-05
5.64247e-06
-1.50169e-06
1.95248e-06
-2.18074e-06
3.32123e-07
-3.1036e-06
-4.05066e-07
-1.25628e-06
4.80967e-07
-5.18275e-06
4.81528e-07
-1.56243e-06
-2.78841e-06
-5.48269e-06
4.77394e-06
8.68897e-06
9.21803e-06
-1.13444e-06
7.45742e-06
2.77326e-06
2.56026e-06
5.27046e-06
1.02401e-05
9.80848e-06
9.08809e-06
1.27288e-05
5.42921e-06
-1.1716e-06
4.37786e-07
-6.41319e-06
-5.33343e-07
1.93362e-06
3.23582e-06
6.23132e-07
5.48427e-06
-5.71171e-07
6.59803e-06
6.99465e-06
6.48114e-06
-3.87014e-06
-4.57595e-06
8.80594e-07
-3.06952e-06
4.67643e-06
4.60797e-06
-6.32143e-06
3.71636e-06
9.43551e-06
2.57481e-06
3.47402e-07
6.24478e-06
-5.62883e-06
6.10378e-06
6.67656e-06
4.78455e-06
3.42859e-06
2.35611e-06
2.91517e-06
1.41239e-06
7.06259e-07
-1.77315e-07
4.74083e-06
5.39428e-06
7.63486e-06
4.66969e-07
-3.44169e-06
2.06293e-06
-3.65492e-06
1.49379e-06
1.26241e-06
1.51761e-06
-2.09769e-06
-1.09392e-07
6.28488e-07
-4.82971e-08
3.58693e-06
-2.37918e-06
-4.0986e-07
9.59872e-07
-2.06796e-06
-7.33073e-07
-6.37095e-07
1.08935e-06
-2.59695e-06
-7.83131e-07
1.40303e-06
-1.24741e-06
-1.77212e-07
-1.30868e-06
-4.01654e-07
-3.4897e-06
-1.82232e-06
-2.11953e-07
-3.47638e-06
1.2316e-06
-1.57344e-06
-1.15502e-06
-5.33278e-06
-2.61255e-06
-1.65886e-06
6.18622e-07
-2.18194e-06
-9.02752e-07
-1.3429e-06
2.7967e-06
-8.71482e-07
-8.67433e-07
1.41503e-07
5.2853e-07
1.26836e-06
-1.3686e-06
1.04625e-06
-2.36384e-07
-2.80568e-06
3.56972e-06
5.06296e-06
-3.32054e-07
2.39514e-06
1.20046e-06
5.14352e-06
4.75774e-06
5.355e-06
2.14209e-06
1.04885e-06
-2.1206e-06
1.46747e-06
2.27351e-06
1.24694e-07
-2.50963e-07
3.06064e-06
3.84684e-06
-1.2516e-06
9.6474e-07
-1.0648e-06
3.32955e-06
-3.1089e-06
4.57508e-06
1.16562e-06
1.32924e-07
-2.34296e-06
3.11013e-06
2.04912e-06
2.70305e-06
5.92466e-07
1.52616e-06
5.58022e-07
2.62073e-06
2.79366e-06
8.37504e-09
-1.2899e-08
-2.52255e-07
9.67392e-09
-9.80165e-06
1.17866e-08
1.22903e-06
5.40948e-09
7.51753e-11
3.59352e-09
-2.08083e-06
-2.48707e-09
-2.25764e-06
1.05539e-09
-4.37868e-06
-3.32856e-10
-9.88738e-06
-6.86127e-09
-3.52208e-06
-3.25778e-09
1.60944e-06
-1.32048e-09
1.24394e-07
1.27764e-10
1.26844e-06
6.09664e-10
3.38862e-06
2.19058e-11
-2.29199e-06
-2.09454e-09
2.62779e-06
-2.19352e-09
3.00081e-06
-4.78563e-09
1.88692e-06
-2.24213e-09
-7.80781e-06
-2.12716e-09
1.36293e-06
-9.9313e-10
-3.77085e-06
2.30925e-09
-2.91156e-06
-9.83184e-10
4.80204e-07
-1.86741e-09
5.34351e-06
-3.12873e-09
1.9734e-06
-4.3081e-09
-6.1079e-06
-6.62794e-09
-1.04074e-05
-8.90053e-09
-2.18585e-07
3.90469e-06
1.63838e-05
-2.38851e-05
-1.01562e-05
4.86651e-06
1.19437e-05
2.06741e-05
-1.29017e-05
3.24868e-06
3.62313e-05
-1.72833e-05
2.35745e-05
-2.72997e-05
-1.95046e-05
2.14396e-05
-5.46265e-05
1.15365e-05
-2.75257e-05
-2.49843e-05
2.05214e-05
-1.17687e-05
-4.31765e-05
9.62491e-06
-6.17668e-05
1.46374e-05
-7.77157e-06
1.11611e-05
3.34302e-06
-1.33675e-05
2.10248e-05
-3.27072e-06
-1.97258e-05
-1.13073e-06
3.63286e-06
-2.29525e-06
-2.44949e-05
-3.27962e-06
-1.13847e-05
-6.94003e-06
-1.0824e-05
-1.29663e-05
-2.74107e-05
2.87855e-05
-4.27278e-05
1.1926e-05
1.07427e-05
-4.29244e-06
4.4935e-05
5.28482e-06
-2.31977e-05
-4.1851e-06
-4.96497e-06
-1.81675e-05
1.80039e-06
-1.3634e-05
-2.80961e-05
-2.18743e-05
-3.86126e-06
7.51347e-06
-4.64197e-06
-1.4363e-06
6.02605e-06
-8.27691e-06
-5.85287e-06
3.32747e-06
1.62447e-05
1.35133e-05
1.07628e-05
1.76714e-05
-8.59148e-06
-1.21118e-05
-2.48458e-05
-9.56456e-06
-1.40616e-05
8.00217e-06
9.73508e-06
2.86448e-06
-1.8795e-05
-8.78397e-06
-2.78927e-05
-1.09787e-05
-4.26015e-06
-5.61578e-06
2.12004e-06
5.7616e-06
9.63802e-06
1.79236e-06
-9.07852e-06
3.47134e-06
2.23164e-06
2.18929e-06
-1.02151e-05
-8.3643e-07
-6.16744e-06
2.70141e-06
-5.87013e-06
4.49899e-06
-1.1558e-05
-1.94864e-05
-1.87435e-05
-8.67841e-06
5.40602e-06
6.82793e-06
2.11945e-05
2.91769e-06
-1.0189e-05
4.91457e-06
-1.8181e-06
6.63938e-06
1.22942e-06
3.90717e-06
-1.30442e-05
-1.0459e-05
-2.30848e-06
4.53098e-06
-1.46169e-06
-5.49438e-07
2.12555e-06
-4.09904e-06
-2.69637e-06
2.10531e-06
4.86632e-06
8.30227e-06
1.78581e-06
1.00513e-05
-1.64367e-06
-6.71139e-06
-8.10783e-06
-6.14769e-06
-5.4139e-06
4.42076e-06
1.94459e-06
2.17439e-06
-6.30664e-06
-5.69942e-06
-7.28869e-06
-7.14741e-06
-2.37454e-06
-3.68061e-06
6.05204e-07
3.65067e-06
2.31236e-06
7.18898e-07
-2.94762e-06
1.79749e-06
5.70829e-07
1.58753e-06
-3.56196e-06
-1.04637e-06
-2.65549e-06
6.93462e-07
-3.00985e-06
2.06697e-06
-3.5198e-06
-1.09292e-05
-5.76419e-06
-4.45935e-06
1.5594e-06
5.0725e-06
6.05595e-06
2.1521e-06
-2.47243e-06
2.58588e-06
6.71523e-07
4.32159e-06
-6.65158e-07
2.41269e-06
-3.46472e-06
-3.51117e-06
-9.55441e-07
2.12406e-06
3.31271e-07
-1.82639e-06
1.67779e-06
3.22937e-06
5.16733e-06
-2.93926e-06
-3.28781e-06
1.05293e-06
-1.07828e-07
-2.0411e-06
-3.38117e-06
-1.31463e-06
1.01469e-06
3.42973e-07
6.66668e-07
9.39184e-07
-7.61585e-07
-4.4335e-07
6.2231e-07
-5.15019e-06
-2.43328e-06
1.2872e-06
8.71527e-07
2.13701e-06
2.03275e-06
1.3832e-06
3.18999e-09
2.65918e-09
-6.15818e-06
-2.36023e-09
1.12911e-06
4.96797e-09
-3.17439e-06
1.30047e-06
6.72907e-06
2.05956e-05
-9.55533e-06
1.5204e-05
)
;

boundaryField
{
    top_fluid_surface
    {
        type            calculated;
        value           nonuniform List<scalar> 
64
(
0
1.55489e-10
0
0
0
0
0
0
0
0
4.37513e-09
0
1.1358e-09
0
3.26114e-09
0
9.14246e-09
9.43568e-09
7.2235e-09
9.13915e-09
1.30758e-10
1.31373e-09
7.88407e-09
8.82651e-09
0
3.09937e-09
5.67504e-09
5.29375e-09
4.26847e-09
0
0
2.2234e-09
0
0
0
6.10731e-09
4.65826e-09
4.21041e-09
0
0
5.61474e-09
0
0
0
0
5.79894e-10
0
0
0
0
0
0
0
0
0
0
0
0
0
0
0
0
7.14281e-10
0
)
;
    }
    bottom_fluid_surface
    {
        type            calculated;
        value           uniform 0;
    }
    lateral_surface_1
    {
        type            calculated;
        value           uniform 0;
    }
    lateral_surface_2
    {
        type            calculated;
        value           uniform 0;
    }
    lateral_surface_3
    {
        type            calculated;
        value           uniform 0;
    }
    lateral_surface_4
    {
        type            calculated;
        value           uniform 0;
    }
}


// ************************************************************************* //
