/*--------------------------------*- C++ -*----------------------------------*\
| =========                 |                                                 |
| \\      /  F ield         | OpenFOAM: The Open Source CFD Toolbox           |
|  \\    /   O peration     | Version:  v1612+                                |
|   \\  /    A nd           | Web:      www.OpenFOAM.com                      |
|    \\/     M anipulation  |                                                 |
\*---------------------------------------------------------------------------*/
FoamFile
{
    version     2.0;
    format      ascii;
    class       surfaceScalarField;
    location    "5.15";
    object      alphaPhi;
}
// * * * * * * * * * * * * * * * * * * * * * * * * * * * * * * * * * * * * * //

dimensions      [0 3 -1 0 0 0 0];

internalField   nonuniform List<scalar> 
2916
(
-3.93299e-07
0.0307183
-1.89491e-06
-1.06665e-06
0.0307186
-1.92443e-06
-1.57892e-06
0.030719
-1.90959e-06
-3.8876e-06
0.030719
-1.90813e-06
-6.29486e-06
0.0307187
-1.91405e-06
0.0307187
-1.89723e-06
6.68878e-07
-0.00287425
0.019447
-2.43344e-07
-0.00287165
0.0194462
-1.91869e-06
-0.00287205
0.0194471
-4.66816e-06
-0.00287184
0.0194476
-5.17908e-06
-0.00287141
0.0194459
-0.0028722
0.0194431
2.83567e-06
-0.108741
0.0897464
7.50857e-07
-0.108734
0.0897487
-1.87513e-06
-0.108735
0.0897487
-3.68368e-06
-0.108735
0.0897476
-3.40668e-06
-0.108734
0.0897463
-0.108738
0.0897454
2.97043e-06
-0.570798
0.2152
3.51895e-06
-0.57077
0.215205
1.04573e-06
-0.570775
0.215202
-3.59795e-06
-0.570777
0.215204
-4.97056e-06
-0.570769
0.215203
-0.570791
0.2152
-4.66218e-06
-1.33765
0.332991
1.58731e-05
-1.33766
0.332997
1.03562e-05
-1.33763
0.332995
-4.37e-06
-1.33763
0.333002
-5.38141e-06
-1.33764
0.333
-1.33765
0.332998
-5.87075e-05
-1.64433
0.306773
1.78381e-05
-1.64442
0.306708
1.28208e-05
-1.64434
0.306744
-5.53022e-06
-1.64434
0.306755
1.715e-05
-1.64436
0.306731
-1.64437
0.306766
-8.53073e-05
-1.79496
0.150748
1.14803e-05
-1.79517
0.150686
7.32467e-06
-1.79504
0.150737
-5.76255e-06
-1.79504
0.150741
3.66533e-05
-1.79509
0.150716
-1.79503
0.150728
3.00711e-05
-1.68215
-0.114082
1.46263e-05
-1.68242
-0.113954
-9.08226e-06
-1.68228
-0.11397
-4.00741e-06
-1.68228
-0.113992
-8.40485e-06
-1.68236
-0.113954
-1.68221
-0.114071
0.000271696
-1.35369
-0.329234
3.15929e-05
-1.35387
-0.328799
-4.59669e-05
-1.35376
-0.328933
-1.94775e-05
-1.3538
-0.329002
-0.000137473
-1.35386
-0.328861
-1.35368
-0.329163
0.000390695
-0.916238
-0.436
1.3188e-05
-0.91614
-0.435487
-7.69904e-05
-0.916147
-0.435665
-4.84003e-05
-0.916221
-0.435745
-0.000245433
-0.916223
-0.435579
-0.916141
-0.435933
0.000159299
-0.374363
-0.537424
-3.05846e-05
-0.374206
-0.53712
-6.41456e-05
-0.37425
-0.537244
-6.48921e-05
-0.374311
-0.537291
-0.000217556
-0.374249
-0.537197
-0.374314
-0.53743
-0.000152413
-0.365648
-5.62817e-05
-0.365729
-1.23613e-05
-0.365725
-4.14283e-05
-0.365712
-4.92082e-05
-0.365667
-0.365796
3.92533e-11
3.81485e-07
-6.87454e-06
-8.17936e-11
3.82095e-07
-6.90449e-06
-6.50988e-11
3.81906e-07
-6.89098e-06
-4.1573e-12
3.81985e-07
-6.891e-06
-1.36237e-11
3.82183e-07
-6.89835e-06
3.81953e-07
-6.88278e-06
7.17542e-07
1.82726e-05
-0.000225371
-1.47456e-07
2.34545e-05
-0.000225298
-2.30495e-07
2.10711e-05
-0.000225383
-9.37355e-08
2.05765e-05
-0.000225309
-4.08338e-07
2.2156e-05
-0.000225263
1.98163e-05
-0.000225271
1.17126e-05
-0.00411007
-0.00283914
-4.50107e-07
-0.00410459
-0.00284095
-3.0334e-06
-0.00410751
-0.00284121
-5.22005e-07
-0.00410773
-0.00283928
-5.35089e-06
-0.00410558
-0.00283973
-0.00410807
-0.00284013
5.52367e-05
-0.366138
-0.00528064
9.69154e-06
-0.366253
-0.00524414
-9.15226e-06
-0.36619
-0.00526249
-2.10239e-06
-0.366166
-0.00526518
-2.47475e-05
-0.366199
-0.00525481
-0.366162
-0.00527524
0.000169581
-1.49003
0.121035
1.94288e-05
-1.49019
0.121286
-1.49836e-05
-1.49009
0.12118
2.0632e-06
-1.49007
0.121152
-9.22759e-05
-1.49012
0.121236
-1.49008
0.121096
0.000133861
-1.64716
0.132249
1.43935e-05
-1.64734
0.132553
-1.91959e-05
-1.64724
0.132441
1.61049e-06
-1.64723
0.13239
-7.87298e-05
-1.64727
0.132495
-1.64723
0.132332
0.000179163
-1.44247
-0.0540904
1.52246e-06
-1.44273
-0.0537047
-3.32486e-05
-1.44261
-0.0538277
1.37672e-05
-1.4426
-0.0539058
-8.73677e-05
-1.44264
-0.0537758
-1.44256
-0.0539988
0.000252779
-1.05277
-0.367354
-2.30976e-06
-1.05301
-0.36702
-3.91231e-05
-1.05291
-0.367129
2.30385e-05
-1.05291
-0.367208
-9.68481e-05
-1.05294
-0.367092
-1.05282
-0.367291
0.000101599
-0.526169
-0.415704
-1.90028e-05
-0.525994
-0.415635
-2.49373e-05
-0.526083
-0.415649
-1.93826e-06
-0.526081
-0.415691
-3.8804e-05
-0.526004
-0.415651
-0.526094
-0.415705
-0.00024255
-0.234575
-0.260337
-5.35839e-05
-0.233952
-0.260428
8.03093e-07
-0.234222
-0.260391
-2.77017e-05
-0.234216
-0.260392
0.000107115
-0.234063
-0.260401
-0.234376
-0.260385
-0.000398225
-0.215818
-0.223284
-5.38256e-05
-0.215498
-0.223251
6.12483e-06
-0.21565
-0.223261
-2.78208e-05
-0.215615
-0.223252
0.000239303
-0.215665
-0.223242
-0.215672
-0.223281
-4.48577e-05
-0.247454
-8.56239e-06
-0.247293
4.21815e-06
-0.247381
-1.19168e-05
-0.247352
-0.000118211
-0.247249
-0.247513
-3.92469e-09
-1.39877e-05
3.73389e-06
-5.29234e-10
-1.40398e-05
3.74536e-06
-5.11359e-10
-1.40167e-05
3.73625e-06
-3.59672e-10
-1.40179e-05
3.7411e-06
1.57444e-09
-1.40319e-05
3.74416e-06
-1.40064e-05
3.73579e-06
-1.71391e-07
-0.000478696
0.000200826
-5.66252e-09
-0.000479636
0.000201292
-3.00479e-08
-0.000478974
0.000200837
-7.8746e-09
-0.000479274
0.000201157
1.00849e-07
-0.000479498
0.000201284
-0.00047882
0.000200919
5.12012e-06
-0.0039156
-0.000397177
5.23145e-07
-0.00391011
-0.00039869
-3.0205e-06
-0.00390891
-0.000398991
-6.79662e-07
-0.00391519
-0.000397024
-1.65309e-06
-0.003913
-0.000397397
-0.00391346
-0.000397572
5.25329e-05
-0.176986
0.00110468
-4.88856e-06
-0.177482
0.00111954
-1.00638e-05
-0.17723
0.00111846
3.98453e-07
-0.177216
0.00111023
-2.57068e-05
-0.177349
0.00111364
-0.177054
0.00111081
0.000120246
-0.963878
-0.101876
1.0777e-05
-0.964546
-0.101922
-2.88595e-05
-0.964232
-0.101881
-1.03241e-05
-0.964248
-0.101919
-4.93136e-05
-0.96446
-0.10193
-0.964042
-0.101875
-0.000193115
-0.92695
-0.000793228
-4.7977e-06
-0.927129
-0.000794682
-2.68039e-05
-0.927056
-0.000793715
-2.7005e-05
-0.927084
-0.000794558
0.0001587
-0.927132
-0.000795548
-0.927019
-0.000793958
-0.000364733
-0.54066
-8.81341e-06
-2.60304e-05
-0.540692
-8.89806e-06
-2.17895e-05
-0.540688
-8.90473e-06
-4.0612e-05
-0.540716
-8.86676e-06
0.000246766
-0.540727
-8.82809e-06
-0.540686
-8.92072e-06
-0.000392054
-0.0258981
-1.63359e-05
-4.19727e-05
-0.0258451
-1.63923e-05
-1.59652e-05
-0.0258668
-1.62974e-05
-4.62136e-05
-0.0258848
-1.62798e-05
0.000227988
-0.025883
-1.62188e-05
-0.0258972
-1.62911e-05
-0.000274639
0.0714065
-5.48217e-05
-3.91174e-05
0.0713792
-5.48541e-05
-6.4536e-06
0.0713923
-5.47856e-05
-2.83727e-05
0.071393
-5.46351e-05
0.000147932
0.071361
-5.45304e-05
0.0713774
-5.49278e-05
-5.02935e-05
0.0786311
-1.71391e-05
-2.88979e-06
0.0785057
-1.72528e-05
1.51417e-05
0.0785519
-1.72253e-05
-7.78562e-07
0.0785854
-1.69906e-05
1.16913e-05
0.0785384
-1.69321e-05
0.0785544
-1.74058e-05
-4.34702e-05
0.0192924
-0.00265094
1.1744e-05
0.0191007
-0.00266651
3.33185e-05
0.0191585
-0.00266223
1.0534e-05
0.0192792
-0.0026457
5.95446e-05
0.0191397
-0.00263175
0.0192062
-0.00268063
6.0986e-05
-0.0176628
-1.18313e-06
-0.0176483
-3.41376e-05
-0.0176544
2.67842e-05
-0.0176482
2.9466e-05
-0.017655
-0.0176571
-1.18777e-09
2.99631e-07
2.09122e-06
-1.32929e-10
3.20708e-07
2.08775e-06
-2.29275e-10
3.22703e-07
2.08443e-06
-2.12905e-10
3.03083e-07
2.0927e-06
3.0329e-10
3.08824e-07
2.0914e-06
3.0547e-07
2.0905e-06
-6.84376e-08
0.000118475
6.15953e-05
-9.71719e-10
0.000119119
6.13042e-05
-1.09973e-08
0.000118939
6.12347e-05
-5.65891e-09
0.000118705
6.15798e-05
3.4432e-08
0.000118885
6.149e-05
0.000118661
6.15043e-05
7.06239e-07
-0.0231801
0.00341987
-2.84698e-07
-0.0231602
0.00341243
-7.33677e-07
-0.0230796
0.0034086
-2.62059e-07
-0.0231937
0.00342
-4.99214e-07
-0.0232155
0.00341806
-0.0231375
0.00341638
3.66371e-06
-0.02994
0.000839704
-2.76912e-06
-0.0299674
0.000844967
-4.82904e-06
-0.0299488
0.000843841
-3.11858e-06
-0.0299732
0.000841358
-1.39239e-06
-0.0299939
0.000843653
-0.0299594
0.000841913
-4.85415e-06
0.000781941
-0.00652561
-1.30829e-06
0.000783289
-0.00653907
-5.52444e-06
0.000782351
-0.0065322
-3.46105e-06
0.000783144
-0.00653396
5.74774e-06
0.000784134
-0.00654044
0.000782559
-0.00653071
-3.64882e-09
-6.83971e-07
-9.35522e-06
-5.77308e-10
-6.83982e-07
-9.3994e-06
-1.7775e-09
-6.81534e-07
-9.34838e-06
-1.39984e-09
-6.8397e-07
-9.43957e-06
3.0017e-09
-6.86024e-07
-9.49128e-06
-6.83904e-07
-9.34064e-06
3.52468e-10
3.86385e-06
-1.28073e-05
-5.31589e-10
3.87071e-06
-1.28314e-05
-1.04701e-10
3.86487e-06
-1.2809e-05
-3.52007e-10
3.85553e-06
-1.28049e-05
-4.56227e-10
3.85182e-06
-1.28158e-05
3.86605e-06
-1.27967e-05
1.22752e-09
6.58476e-06
-1.66969e-05
-8.57519e-10
6.59095e-06
-1.67679e-05
-1.42511e-09
6.57965e-06
-1.67427e-05
-1.31114e-09
6.5668e-06
-1.67039e-05
1.62143e-10
6.56194e-06
-1.66851e-05
6.57919e-06
-1.673e-05
-1.42831e-10
5.5109e-06
-5.39694e-05
-1.03957e-09
5.50977e-06
-5.40134e-05
-1.90501e-09
5.50595e-06
-5.40331e-05
-1.54752e-09
5.49236e-06
-5.38578e-05
2.49396e-09
5.48011e-06
-5.37271e-05
5.5165e-06
-5.42112e-05
8.62824e-10
2.54708e-06
-8.4243e-06
1.51483e-09
2.53749e-06
-8.48734e-06
3.07189e-09
2.53956e-06
-8.43555e-06
4.42145e-10
2.53998e-06
-8.35759e-06
-7.51459e-09
2.5465e-06
-8.15968e-06
2.52934e-06
-8.67307e-06
2.14215e-06
-0.00125152
-0.00139235
7.99095e-07
-0.00126311
-0.00139286
1.04628e-06
-0.00125914
-0.00139408
7.96958e-07
-0.00124684
-0.00138932
-1.18635e-06
-0.00123665
-0.00138388
-0.00127409
-0.00139886
1.23293e-06
-0.0491746
-5.0394e-06
-0.0491949
-8.62828e-06
-0.0492062
-1.4487e-08
-0.0491277
2.24129e-05
-0.0491197
-0.0492403
-0.000534038
-0.0181042
0.0061774
0.000452721
-0.0195781
0.0068692
-0.00188849
-0.0112593
0.00473256
-0.00207759
-0.0186009
0.00706787
0.00848763
-0.0570321
0.00871889
-0.00313138
0.00409955
-0.000511192
-0.216132
0.017745
0.00203193
-0.297622
0.0187635
-0.000446113
-0.123319
0.0146925
0.00334611
-0.207911
0.019675
0.0194826
-0.374528
0.0166889
-0.0529399
0.0129946
0.00124598
-0.336924
0.00839618
0.0014088
-0.323219
0.0078286
0.00921583
-0.299946
0.00865801
0.00701963
-0.331268
0.00593872
-0.00124908
-0.374825
0.00799256
-0.31446
0.0143027
0.00192096
-0.310266
-5.0393e-05
0.00245231
-0.313978
-5.48481e-05
0.010204
-0.312592
-6.35e-05
0.00709641
-0.322662
-5.25964e-05
-0.00918008
-0.340351
4.43425e-05
-0.297213
-2.12138e-05
0.00184651
-0.172645
-0.000197867
0.00246768
-0.161849
-0.000175606
0.00925953
-0.196958
-0.000169734
0.00497801
-0.198778
-0.000219352
-0.00980474
-0.216957
-0.00026661
-0.269803
-0.000169431
0.00172577
-0.253556
-0.00212635
0.00257654
-0.255419
-0.00192881
0.00867248
-0.281597
-0.00195888
0.00202071
-0.333327
-0.00217809
-0.0112387
-0.323397
-0.00215076
-0.245171
-0.0020767
0.000749944
-0.334791
-0.0151937
0.00204
-0.334122
-0.0151324
0.00864439
-0.32702
-0.0160308
-0.00129057
-0.352935
-0.0116681
-0.00901172
-0.350936
-0.0160521
-0.312908
-0.0139111
-0.000438203
-0.317434
-0.041969
0.00066657
-0.317959
-0.0411426
0.00644796
-0.313082
-0.0447814
-0.00464801
-0.319963
-0.0314207
-0.0095164
-0.314459
-0.04434
-0.294708
-0.0443271
-0.00181331
-0.190641
-0.14921
0.00311774
-0.190983
-0.155263
0.0120475
-0.172782
-0.173105
0.00560583
-0.185737
-0.135682
-0.0222743
-0.172177
-0.12395
-0.14603
-0.183482
-0.00348794
0.0430006
-0.25351
0.00367616
0.0407101
-0.25883
0.0200642
0.00869958
-0.36657
0.00456985
0.0445542
-0.219566
-0.0774094
0.0418937
-0.139989
-0.0196192
-0.215904
0.00141619
0.0152487
-0.0232525
0.00598716
0.0154053
-0.025834
0.034848
0.0145115
-0.0286817
0.0300124
0.0168382
-0.0280287
-0.0444944
0.0425201
-0.00381349
0.0195411
-0.0867109
-0.000124944
0.0116868
0.000262672
0.0113386
0.00543258
0.00655567
0.00128027
0.0141788
-0.00139696
0.0182091
0.00831484
-0.000318163
-0.012123
0.00465256
-2.04429e-05
-0.0156117
0.00518478
-0.000170389
-0.00762928
0.00361235
-0.000121506
-0.0171206
0.0068849
0.00158662
-0.0271618
0.00600125
-0.00522021
0.00339498
0.000166618
-0.0212458
-0.00293443
-0.000877296
-0.0203798
-0.00400473
0.00226417
-0.0204868
0.000173662
0.0011436
-0.0204812
-0.00370805
-0.00417889
-0.0162081
-0.00785958
-0.0170535
0.00270352
5.55325e-05
1.48195e-05
-0.000667263
-0.000270304
2.58192e-05
-0.000517771
-0.000155305
4.3281e-05
-0.000756932
-0.00027484
2.54447e-05
-0.000487985
-0.00120964
-5.3739e-06
4.53675e-05
1.12897e-06
-0.00122636
3.59214e-08
-2.33658e-05
-1.06534e-06
3.54226e-08
-2.08376e-05
-1.08673e-06
-7.05181e-08
-1.93978e-05
-4.94351e-07
1.98304e-10
-2.66344e-05
-4.63005e-07
4.24165e-07
-9.04341e-06
-1.06068e-06
-1.91432e-05
-4.34662e-07
2.1593e-07
-0.000217058
-4.1819e-06
3.03476e-07
-0.000192393
-3.93148e-06
3.54414e-07
-0.000184619
-4.30246e-06
1.00647e-06
-0.000241987
-4.37764e-06
3.31847e-07
-0.000271553
-3.21094e-06
-0.000183467
-4.5212e-06
1.6432e-06
-0.00234442
-4.77099e-07
2.7801e-07
-0.00211921
-4.83393e-07
3.01439e-06
-0.0021455
-5.5121e-07
6.90594e-06
-0.00242321
-5.35057e-07
-7.9137e-06
-0.00240658
-7.22157e-07
-0.00226717
-7.24867e-07
-1.11082e-06
-0.0175268
-9.81309e-06
-3.01599e-05
-0.0172126
-9.54298e-06
6.62822e-06
-0.0181996
-1.28011e-05
-3.69071e-05
-0.015351
-9.45765e-06
-0.000163409
-0.0183131
-1.93829e-05
-0.0163272
-1.40185e-05
-0.000306531
-0.0521198
-0.000476673
-0.000476647
-0.0504209
-0.000462663
0.000116685
-0.0500278
-0.000636636
-0.00115434
-0.051656
-0.000405593
-0.0018438
-0.0607503
-0.000676357
-0.0619406
-0.000720316
-0.00375132
-0.165351
-0.0233708
-0.00645314
-0.167642
-0.023769
-0.0044932
-0.142314
-0.0310003
-0.00656656
-0.168838
-0.0182665
-0.0107567
-0.108251
-0.0139718
-0.198058
-0.0348833
-0.00560128
-0.216406
-0.21813
-0.0117269
-0.219334
-0.221112
-0.0100038
-0.249738
-0.278838
-0.0124069
-0.194784
-0.195616
-0.0159525
-0.0642947
-0.112024
-0.216337
-0.240684
0.0131295
-0.00471502
-0.195793
0.0193849
-0.00507243
-0.24383
0.0216863
-0.0448029
-0.248402
0.0101101
-0.00932751
-0.238782
-0.00843959
-0.00586835
-0.06582
-0.0444636
-0.294995
0.00145144
0.00176536
0.00305586
0.000906824
0.0125819
-0.0842678
0.00458261
0.00734154
-0.000867562
0.0122896
-0.0425254
-1.82543e-05
-0.000382641
0.000186711
-6.53575e-06
-0.000588153
0.000220156
0.000107393
-0.000435561
1.49427e-05
0.000234823
-0.000696908
0.000248311
1.4637e-05
-0.000412068
0.000220204
8.64098e-06
0.000236124
1.46605e-05
-0.000526727
3.96963e-05
-0.000181254
-0.000491983
-6.5811e-06
0.000298113
-0.000802094
8.40061e-05
-4.67946e-06
-0.00040077
-2.34253e-05
-0.000818426
-5.3247e-05
-0.000132086
-0.001028
0.000244962
-1.08514e-05
-2.18569e-05
-6.63979e-05
-3.12012e-05
-2.17711e-05
-4.81709e-05
-4.92604e-05
-8.00368e-06
-9.3082e-05
-4.05683e-06
-7.27748e-06
-2.9577e-05
-4.33617e-06
-4.14827e-06
-3.61927e-06
-7.66468e-06
-0.000182584
-2.84278e-08
-1.53636e-06
-6.44124e-06
-2.85234e-08
-1.54958e-06
-6.1514e-06
-1.04684e-07
-1.31068e-06
-6.8468e-06
-6.05131e-08
-1.19623e-06
-6.30983e-06
8.08954e-08
-7.84714e-07
-4.31279e-06
-1.3928e-06
-6.36523e-06
-1.43519e-09
-3.12377e-07
-5.24731e-06
-6.31561e-09
-3.13037e-07
-5.006e-06
-4.59582e-08
-3.097e-07
-5.07718e-06
-1.68524e-08
-3.24361e-07
-5.04988e-06
7.49276e-08
-3.64671e-07
-3.52231e-06
-3.34741e-07
-5.30982e-06
2.33741e-10
-2.35776e-07
-4.16778e-07
-4.06579e-09
-2.29728e-07
-4.19674e-07
-2.25084e-08
-2.84856e-07
-4.40281e-07
-4.20108e-09
-1.92601e-07
-4.38894e-07
3.70045e-08
-4.6753e-07
-4.17571e-07
-3.09712e-07
-5.82091e-07
-4.25328e-09
-1.00178e-05
-2.55209e-08
-1.70804e-08
-9.73334e-06
-2.52076e-08
-4.2054e-08
-1.30348e-05
-2.52454e-08
-1.59581e-08
-9.6657e-06
-1.84296e-08
7.7925e-08
-1.99335e-05
-1.38607e-08
-1.42213e-05
-2.70634e-08
-6.02754e-07
-0.000486138
-3.021e-10
-1.65589e-06
-0.000471385
-2.91623e-10
-2.4624e-06
-0.000648924
-2.56379e-10
-3.23778e-06
-0.000414945
-1.66478e-10
3.53241e-06
-0.000703071
-1.07055e-10
-0.000731061
-2.13558e-10
-4.16228e-05
-0.02372
-9.09902e-05
-0.000160107
-0.0240249
-9.1959e-05
-0.000120397
-0.0316761
-7.31331e-06
-0.000163054
-0.0184817
-0.000149992
3.83929e-05
-0.0146003
-0.000283438
-0.0354139
-0.000154919
-0.00136548
-0.165918
-0.0214498
-0.00586795
-0.163383
-0.0212059
-0.00579798
-0.167896
-0.0277673
-0.00221159
-0.175948
-0.0144936
0.000477497
-0.131184
-0.0102355
-0.165147
-0.0385154
-0.00255765
-0.122114
-0.334419
-0.0202756
-0.123697
-0.358111
-0.0887307
-0.106763
-0.35926
-0.0742366
-0.0810453
-0.363
0.0371196
-0.00461614
-0.248778
-0.125385
-0.330364
0.0133815
-0.161986
0.0112892
-0.170965
-0.0852882
-0.213734
-0.000223364
-0.0991395
0.00187404
0.00333981
-0.198455
5.83737e-07
9.92096e-05
1.95354e-05
1.59418e-06
0.000114373
2.28882e-05
1.1708e-05
8.33255e-05
1.6444e-05
2.11455e-05
0.000123533
2.54949e-05
-2.87164e-06
0.000116251
2.89048e-05
6.24608e-05
1.34139e-05
3.42097e-06
0.000130526
2.01639e-05
-8.12147e-06
0.000116172
1.5626e-05
1.8488e-05
0.000145193
2.52844e-05
-6.0222e-07
0.000109284
1.24998e-05
-3.39312e-05
3.8288e-05
-1.11648e-05
0.000203622
2.90253e-05
7.92141e-09
3.13471e-06
-4.31963e-06
-8.77078e-07
2.83101e-06
-3.4669e-06
-8.52257e-07
5.25519e-07
-4.92824e-06
-1.96264e-06
2.43806e-06
-2.27353e-06
-3.39111e-06
5.56801e-07
9.69994e-06
2.37185e-06
-1.04654e-05
9.02635e-08
-6.40887e-09
-1.02863e-06
8.71161e-08
-8.01707e-08
-1.0492e-06
-2.74537e-07
2.2668e-07
-9.78596e-07
-2.3795e-07
5.84479e-08
-1.05423e-06
-1.51284e-07
-1.57479e-07
-9.30342e-07
4.28368e-07
-8.73608e-07
4.28498e-08
-3.46767e-08
-7.94947e-07
7.54212e-08
-2.59074e-08
-7.0976e-07
4.09461e-08
-3.34593e-08
-8.24534e-07
3.13125e-08
-1.96416e-08
-7.29953e-07
4.77145e-08
-1.64034e-08
-6.93703e-07
-1.76214e-08
-8.89136e-07
3.70166e-09
1.50726e-08
-1.27543e-07
6.15556e-09
1.40934e-08
-1.21794e-07
5.61274e-09
1.53158e-08
-1.3309e-07
4.36148e-09
1.09853e-08
-1.24915e-07
3.63764e-09
8.58208e-09
-1.21736e-07
1.66327e-08
-1.24668e-07
2.83058e-12
1.00446e-10
-1.04022e-08
4.82851e-12
9.44605e-11
-1.1171e-08
-4.51364e-12
8.68975e-11
-9.99366e-09
4.34643e-12
5.97627e-11
-8.35491e-09
1.21816e-11
4.06377e-11
-5.42422e-09
8.27306e-11
-1.0579e-08
-1.17092e-12
3.97429e-11
-8.08202e-11
-1.73899e-12
3.72987e-11
-8.10214e-11
-4.37254e-12
1.68612e-11
-6.9163e-11
-2.12785e-12
4.08883e-11
-5.82359e-11
2.68139e-12
2.63136e-11
-2.48127e-11
2.76682e-11
-7.06477e-11
-1.41537e-08
-9.09761e-05
4.4139e-11
-2.5884e-09
-9.19706e-05
1.24927e-11
-7.92954e-07
-6.52309e-06
1.75789e-11
-7.14278e-07
-0.000150067
-2.46445e-09
1.35327e-06
-0.000283327
-2.17956e-06
-0.000153562
-3.67074e-09
-1.34024e-05
-0.0210006
-0.000522334
-2.50714e-05
-0.0207592
-0.000521872
-0.000151297
-0.0270654
-0.000576514
-7.51224e-05
-0.0142227
-0.000489423
-4.72778e-05
-0.0100152
-0.000508174
-0.0379977
-0.000711157
-0.00267696
-0.161436
-0.0533636
-0.00889715
-0.163912
-0.051323
-0.0159805
-0.165198
-0.0553926
-0.0100182
-0.194562
-0.0464318
0.00689778
-0.151193
-0.040152
-0.186583
-0.0700622
-0.0114301
-0.246518
-0.0354492
-0.245636
-0.10548
-0.243898
-0.0952282
-0.238951
0.0899229
-0.267103
-0.228992
-4.92212e-11
1.21558e-07
8.53928e-07
-1.1654e-11
1.21675e-07
8.5284e-07
-1.69029e-11
1.21564e-07
8.51753e-07
-1.61798e-11
1.21644e-07
8.54671e-07
9.64138e-13
1.21734e-07
8.54053e-07
1.21685e-07
8.54167e-07
-7.15337e-13
2.96871e-08
1.64528e-08
-4.07495e-13
2.96682e-08
1.64029e-08
-6.67291e-13
2.96644e-08
1.63973e-08
-7.16127e-13
2.96717e-08
1.64482e-08
-6.38466e-13
2.96964e-08
1.64269e-08
2.97227e-08
1.64376e-08
7.78303e-15
2.99793e-10
-1.68885e-14
3.01574e-10
-4.60375e-14
2.98747e-10
-5.97212e-14
3.04069e-10
-6.94771e-14
2.99799e-10
2.98959e-10
-3.24502e-09
3.98951e-06
8.11128e-06
1.3573e-10
3.95193e-06
8.16474e-06
2.20716e-10
3.95267e-06
8.15007e-06
-4.59536e-10
3.98153e-06
8.14105e-06
8.69487e-10
3.97007e-06
8.15182e-06
3.97768e-06
8.15676e-06
-8.39519e-11
8.83661e-08
1.80897e-06
-3.74075e-12
8.82451e-08
1.80528e-06
-1.09581e-11
8.81894e-08
1.80554e-06
-2.6848e-11
8.83652e-08
1.80823e-06
3.99825e-12
8.83554e-08
1.80687e-06
8.83608e-08
1.8081e-06
-1.4565e-12
2.77447e-08
-3.97153e-13
2.77079e-08
-6.71651e-13
2.76949e-08
-8.81781e-13
2.77493e-08
-3.69764e-13
2.77332e-08
2.77407e-08
-2.76755e-07
4.33176e-05
-0.000476202
-6.80477e-08
4.33031e-05
-0.000476338
1.89227e-07
4.32778e-05
-0.000475808
-1.0797e-08
4.33277e-05
-0.000476891
2.99041e-08
4.33231e-05
-0.000477054
4.33156e-05
-0.000477229
-1.28558e-08
1.97879e-06
3.94554e-05
1.56826e-09
1.97667e-06
3.94262e-05
5.26637e-09
1.97544e-06
3.94239e-05
-8.61296e-10
1.97926e-06
3.94556e-05
4.78266e-09
1.97836e-06
3.94425e-05
1.97859e-06
3.94514e-05
-1.22743e-10
8.22684e-07
1.76412e-11
8.22004e-07
3.61338e-11
8.21751e-07
-7.0786e-12
8.22822e-07
5.19678e-11
8.22501e-07
8.22715e-07
-2.19405e-07
2.02333e-06
-0.000350829
-2.43056e-07
2.08494e-06
-0.000350459
4.27249e-07
2.05786e-06
-0.00035177
-2.40238e-07
2.03126e-06
-0.000349268
-5.36152e-07
2.05614e-06
-0.000348733
2.02843e-06
-0.000351816
-3.06692e-09
1.00592e-05
3.02271e-05
1.26735e-09
1.00646e-05
3.02655e-05
8.03942e-09
1.00541e-05
3.02506e-05
-5.15021e-10
1.00616e-05
3.02414e-05
-3.59965e-09
1.006e-05
3.02562e-05
1.00555e-05
3.02359e-05
-1.26412e-10
2.51811e-06
7.55794e-11
2.51956e-06
1.65198e-10
2.51806e-06
5.56026e-11
2.5197e-06
1.2498e-10
2.52002e-06
2.51967e-06
1.36911e-07
-1.14256e-05
-2.30176e-05
6.07999e-09
-1.13443e-05
-2.30216e-05
1.40057e-08
-1.14101e-05
-2.3079e-05
1.23489e-08
-1.13605e-05
-2.2938e-05
-6.27388e-08
-1.1316e-05
-2.28842e-05
-1.14272e-05
-2.30609e-05
3.0724e-09
-4.61453e-08
3.84935e-06
1.72166e-10
-4.7877e-08
3.8332e-06
4.07804e-10
-4.71181e-08
3.84161e-06
6.71212e-11
-4.67699e-08
3.83625e-06
-2.04801e-09
-4.72887e-08
3.8331e-06
-4.67292e-08
3.85401e-06
3.72606e-10
4.12093e-06
8.99102e-11
4.13195e-06
1.59922e-10
4.12639e-06
8.82089e-11
4.12771e-06
-9.73495e-11
4.13161e-06
4.12461e-06
3.1432e-09
-1.26601e-05
-1.83539e-05
4.74614e-10
-1.26606e-05
-1.84001e-05
4.49049e-10
-1.26609e-05
-1.83869e-05
6.91246e-10
-1.26681e-05
-1.83601e-05
-1.41124e-09
-1.26664e-05
-1.83603e-05
-1.2661e-05
-1.83592e-05
1.8207e-08
-2.57482e-06
4.85064e-06
1.80312e-09
-2.58757e-06
4.84262e-06
1.40064e-09
-2.5598e-06
4.86533e-06
2.56659e-09
-2.57287e-06
4.85627e-06
-9.09552e-09
-2.59919e-06
4.83745e-06
-2.57465e-06
4.84144e-06
4.12623e-10
5.99736e-06
1.49464e-10
6.03151e-06
3.30218e-10
6.01547e-06
1.31286e-10
6.0162e-06
-3.53661e-10
6.02909e-06
6.00111e-06
1.86147e-09
-2.25436e-05
-7.60275e-06
3.91729e-10
-2.25514e-05
-7.59834e-06
9.20191e-10
-2.25494e-05
-7.57712e-06
1.88401e-10
-2.25631e-05
-7.53529e-06
-3.96985e-09
-2.25599e-05
-7.51816e-06
-2.25296e-05
-7.5986e-06
6.87444e-09
-5.79634e-06
-8.11621e-07
1.7447e-09
-5.7746e-06
-8.11125e-07
2.69431e-09
-5.77868e-06
-8.09967e-07
4.07641e-09
-5.78273e-06
-8.09546e-07
-5.02283e-09
-5.78624e-06
-8.10576e-07
-5.81191e-06
-8.1413e-07
-1.11824e-09
3.17108e-06
1.01833e-10
3.19369e-06
1.06109e-09
3.18284e-06
7.22673e-10
3.18256e-06
1.04861e-09
3.19094e-06
3.17012e-06
1.86162e-09
-6.23269e-06
-1.63285e-05
1.03017e-09
-6.26978e-06
-1.6385e-05
1.93481e-09
-6.25295e-06
-1.63488e-05
1.10407e-10
-6.2488e-06
-1.62761e-05
-7.74416e-09
-6.2544e-06
-1.62382e-05
-6.20929e-06
-1.64027e-05
-8.1893e-10
-4.66932e-06
4.38193e-07
2.57101e-10
-4.7039e-06
4.42778e-07
1.05738e-09
-4.68782e-06
4.40585e-07
6.63642e-10
-4.68761e-06
4.40649e-07
-1.60157e-09
-4.69564e-06
4.41458e-07
-4.66294e-06
4.36634e-07
-5.54167e-10
1.76364e-07
1.25523e-10
1.77884e-07
3.40668e-10
1.77224e-07
2.51908e-10
1.76825e-07
6.28859e-10
1.76743e-07
1.7713e-07
2.81739e-08
-2.12159e-06
-7.07734e-05
8.32179e-09
-2.12538e-06
-7.08026e-05
9.00531e-09
-2.12555e-06
-7.08177e-05
1.17468e-09
-2.11739e-06
-7.05497e-05
-4.89365e-08
-2.10753e-06
-7.03084e-05
-2.13605e-06
-7.11488e-05
-6.25862e-10
-1.70819e-07
-1.45356e-06
3.09766e-10
-1.71607e-07
-1.43499e-06
6.94739e-10
-1.71267e-07
-1.4453e-06
1.36393e-10
-1.70828e-07
-1.43527e-06
-1.46994e-09
-1.70419e-07
-1.41517e-06
-1.71912e-07
-1.47987e-06
-2.29541e-12
2.21747e-09
1.19288e-12
2.23773e-09
2.00826e-12
2.2266e-09
1.87881e-12
2.22716e-09
9.27625e-13
2.23508e-09
2.21745e-09
6.01037e-07
-7.23819e-06
-7.2083e-05
-3.79322e-08
-7.06887e-06
-7.11059e-05
-2.17928e-07
-7.15454e-06
-7.14514e-05
-6.27515e-08
-7.2194e-06
-7.13066e-05
1.80126e-07
-7.38001e-06
-7.06086e-05
-6.97157e-06
-7.2418e-05
-3.05028e-08
-2.20238e-09
-0.000314834
2.99793e-08
-2.22248e-09
-0.000315555
6.372e-08
-2.21144e-09
-0.000315555
1.31611e-08
-2.21201e-09
-0.000313819
-1.56386e-07
-2.21991e-09
-0.000311475
-2.20233e-09
-0.000318233
-6.80249e-16
1.50932e-11
8.75566e-15
1.52381e-11
1.57093e-14
1.5147e-11
4.75716e-15
1.51627e-11
-4.1034e-14
1.5213e-11
1.508e-11
2.50152e-06
0.0027404
-0.00426667
-1.79066e-06
0.00274157
-0.00426097
-9.5992e-07
0.00274234
-0.00426873
-8.15716e-07
0.00273612
-0.00425497
7.38047e-07
0.00272933
-0.00424218
0.00274927
-0.00428133
-8.30275e-09
3.22811e-05
-1.40644e-09
-2.55108e-07
3.22934e-05
-1.41885e-09
-4.55237e-07
3.22873e-05
-1.42372e-09
-1.05254e-07
3.22649e-05
-1.37909e-09
8.9948e-07
3.22231e-05
-1.32495e-09
3.23105e-05
-1.49453e-09
1.10596e-10
4.40805e-06
-1.56765e-11
4.41187e-06
-8.5227e-10
4.41084e-06
3.2754e-10
4.40207e-06
3.0639e-09
4.38831e-06
4.42308e-06
-3.77147e-05
-1.41181e-06
-0.086314
-3.36257e-05
-1.4124e-06
-0.0863402
4.04966e-06
-1.41446e-06
-0.0865066
-9.90038e-06
-1.40165e-06
-0.0858636
-3.37074e-05
-1.38428e-06
-0.0855841
-1.43817e-06
-0.0868999
9.77017e-12
-1.41323e-06
1.49703e-17
-9.83638e-12
-1.4138e-06
2.16335e-17
-2.73612e-11
-1.41587e-06
9.43894e-16
-2.29232e-12
-1.40305e-06
3.55415e-15
5.99168e-11
-1.38567e-06
2.94996e-19
-1.4396e-06
9.34195e-19
1.48097e-10
1.02355e-25
-1.79092e-11
1.38525e-25
-2.25583e-10
1.39449e-25
1.80413e-11
2.48547e-25
5.19002e-10
3.33037e-25
2.68001e-25
-0.000275202
3.15751e-16
-0.182
0.248448
-0.000312656
2.53311e-16
-0.181856
0.24804
-0.00100873
-3.20531e-14
-0.181813
0.248615
-0.000995777
-1.7544e-10
-0.181558
0.247587
0.00109922
-2.33599e-07
-0.18145
0.245348
-2.61404e-05
-0.18202
0.249208
3.28648e-18
1.52029e-25
2.80961e-15
-4.33608e-16
-5.54554e-18
-3.09145e-25
2.24425e-15
-3.43169e-16
-1.53846e-14
-9.5643e-22
-1.7297e-14
6.22991e-16
-1.07823e-10
-2.1672e-18
-7.10485e-11
3.41666e-12
-2.28336e-08
-1.13715e-14
-2.15411e-07
4.53762e-09
1.18022e-25
-2.66496e-05
4.86381e-07
-3.14151e-27
2.47972e-25
-1.0115e-25
-1.81473e-23
1.05997e-25
1.77291e-23
-5.62019e-20
4.7572e-25
5.52268e-20
-1.281e-16
1.8003e-25
1.25877e-16
7.5053e-28
1.24667e-25
2.66539e-15
1.7294e-25
-7.56966e-26
-6.70101e-05
1.44377e-15
-0.115728
-1.83582e-05
1.15852e-15
-0.115737
0.000121952
-1.03857e-12
-0.115827
4.84426e-05
-4.35811e-09
-0.115382
-0.00015248
-1.12404e-07
-0.115151
-0.000256623
-0.115817
1.5701e-17
4.11395e-25
1.06943e-14
-1.87921e-16
1.79109e-25
8.65033e-15
-1.0721e-12
8.14088e-25
1.60487e-14
-4.43023e-09
3.02379e-25
1.60387e-15
-6.02233e-07
2.15284e-25
9.8103e-14
3.21412e-25
2.31958e-15
1.35543e-27
-1.88269e-26
7.60318e-27
-8.67136e-27
3.0695e-27
-4.2588e-26
2.89665e-27
-1.52224e-26
2.86869e-27
-1.13159e-26
-2.20536e-26
-3.30452e-05
9.40743e-15
-0.0469234
3.61284e-06
7.62696e-15
-0.0468672
0.000122985
1.41596e-14
-0.0469204
-5.0628e-05
1.43965e-15
-0.0467615
-0.000293841
8.89848e-14
-0.0467101
2.05782e-15
-0.0469783
2.5086e-17
5.70254e-25
1.27545e-18
1.29905e-16
5.36507e-25
2.05066e-18
2.59184e-17
5.76477e-25
8.61168e-17
8.32936e-17
4.97113e-25
3.06991e-16
-2.85999e-15
9.55588e-25
7.97522e-25
3.27487e-25
6.12596e-25
1.35391e-27
-1.93401e-25
2.05047e-27
-1.82127e-25
2.25272e-27
-1.96906e-25
4.75049e-27
-1.68667e-25
-1.17522e-28
-3.21585e-25
-1.14997e-25
-2.35224e-05
1.73565e-18
0.00517801
5.7779e-05
2.81824e-18
0.00516397
0.000311154
1.19252e-16
0.00514807
-3.98938e-05
4.18321e-16
0.00517601
-0.000622795
1.09552e-24
0.00514864
8.74046e-25
0.00515821
2.48889e-20
8.93092e-25
-8.36228e-19
1.1945e-18
1.08201e-24
-1.35467e-18
7.46962e-18
1.18371e-24
-5.73608e-17
1.29314e-26
1.14849e-24
-2.06341e-16
-1.75249e-26
1.16153e-24
-5.52639e-25
8.60214e-25
-4.14165e-25
1.48991e-27
-7.1351e-25
2.8571e-27
-8.63508e-25
8.103e-27
-9.47675e-25
2.13276e-27
-9.16588e-25
-1.24164e-26
-9.19535e-25
-6.97994e-25
-4.05583e-05
4.09826e-17
0.0583699
-1.29632e-05
6.22476e-17
0.0583238
7.16753e-05
2.72179e-15
0.0584527
-5.00949e-05
1.01926e-14
0.0579739
-0.000235823
1.40653e-24
0.0577607
1.12742e-24
0.0587431
1.2373e-19
5.75399e-25
-4.47682e-17
9.34312e-18
7.41781e-25
-6.79738e-17
8.22808e-17
7.77206e-25
-2.97476e-15
1.84611e-27
1.07657e-24
-1.11494e-14
-2.52718e-26
1.31429e-24
-1.53912e-24
1.03243e-24
-1.23325e-24
4.41965e-28
-4.65568e-25
6.20656e-28
-5.99387e-25
2.78754e-27
-6.29885e-25
7.28589e-28
-8.68662e-25
-5.80862e-27
-1.05314e-24
-8.42746e-25
-6.29019e-05
3.23071e-17
-3.11004e-05
4.67284e-17
0.000119615
2.03644e-15
-3.13124e-05
7.67297e-15
-0.000286965
6.36964e-19
2.01287e-18
2.06516e-20
3.10877e-25
8.57649e-19
4.20989e-25
1.18079e-17
4.23157e-25
2.57291e-22
7.5537e-25
-1.92703e-21
1.0155e-24
8.09799e-25
6.84187e-30
2.47612e-29
4.46713e-28
8.98842e-29
-1.19843e-27
5.50859e-08
3.30958e-06
9.14667e-06
1.64566e-07
3.16186e-06
1.12471e-05
4.5646e-07
2.75159e-06
7.77867e-06
9.05362e-07
3.30436e-06
1.26059e-05
-1.15795e-08
3.13535e-06
1.66862e-05
2.03948e-06
6.66862e-06
1.86663e-09
1.29527e-06
5.52081e-07
9.49987e-09
1.10744e-06
6.73651e-07
1.18548e-08
1.07909e-06
4.73912e-07
2.66558e-08
1.1188e-06
7.49272e-07
2.5018e-08
8.85361e-07
9.89422e-07
7.88291e-07
3.60608e-07
8.47244e-11
3.0533e-08
3.15448e-10
3.11264e-08
3.06678e-10
2.65962e-08
4.1589e-10
3.29441e-08
6.33086e-10
3.4361e-08
1.90652e-08
2.41253e-07
1.88841e-06
2.50338e-05
-6.89065e-08
1.52652e-06
2.29068e-05
7.80833e-07
2.28004e-06
2.65372e-05
1.31799e-07
1.34078e-06
2.18963e-05
-1.24688e-06
-3.08791e-07
7.07837e-06
2.44808e-06
2.73923e-05
1.20289e-08
3.26483e-07
1.85807e-06
6.03349e-09
3.0198e-07
1.72686e-06
3.4498e-08
3.61343e-07
2.00476e-06
1.31679e-08
2.94777e-07
1.66203e-06
-2.05717e-08
1.60102e-07
5.47964e-07
3.51683e-07
2.0198e-06
2.31593e-10
9.35549e-08
2.42182e-10
8.82761e-08
6.77685e-10
1.00846e-07
3.7829e-10