/*--------------------------------*- C++ -*----------------------------------*\
| =========                 |                                                 |
| \\      /  F ield         | OpenFOAM: The Open Source CFD Toolbox           |
|  \\    /   O peration     | Version:  v1612+                                |
|   \\  /    A nd           | Web:      www.OpenFOAM.com                      |
|    \\/     M anipulation  |                                                 |
\*---------------------------------------------------------------------------*/
FoamFile
{
    version     2.0;
    format      ascii;
    class       volScalarField;
    location    "5.15";
    object      p_rgh;
}
// * * * * * * * * * * * * * * * * * * * * * * * * * * * * * * * * * * * * * //

dimensions      [1 -1 -2 0 0 0 0];

internalField   nonuniform List<scalar> 
1116
(
3595.3
3595.27
3595.25
3595.27
3595.27
3595.29
3833.33
3833.3
3833.29
3833.3
3833.31
3833.31
5069.05
5068.98
5068.97
5068.98
5068.98
5069
8573.01
8573.07
8573.03
8573.02
8573.03
8573.02
14906.6
14906.8
14906.7
14906.7
14906.7
14906.6
19658.1
19658.3
19658.2
19658.2
19658.2
19658.1
21346.8
21347.1
21347
21347
21347
21346.9
21200.5
21200.8
21200.7
21200.7
21200.8
21200.6
20777.7
20777.8
20777.8
20777.7
20777.7
20777.7
20488.7
20488.2
20488.4
20488.4
20488.3
20488.4
20219.6
20218.9
20219.1
20219.1
20219
20219.2
19576.5
19576.4
19576.4
19576.3
19576.2
19576.4
90.2779
90.275
90.2761
90.2761
90.2751
90.2772
118.743
118.729
118.737
118.739
118.733
118.729
578.427
578.358
578.371
578.39
578.37
578.37
3303.71
3304.85
3304.28
3304.14
3304.48
3303.89
12374.2
12376.3
12375.3
12375
12375.6
12374.6
20336
20336.8
20336.5
20336.4
20336.6
20336.2
21664.1
21664.2
21664.3
21664.4
21664.2
21664.2
21129.7
21130
21129.9
21130
21130
21129.8
18798.4
18800.1
18799.4
18799.2
18799.8
18798.6
15852.4
15853.1
15852.8
15852.5
15852.7
15852.1
15382.7
15381.5
15381.7
15381.5
15381.3
15381.7
15920.2
15917.5
15918.5
15918.3
15916.8
15919.9
102.397
102.405
102.401
102.402
102.403
102.399
94.9502
94.9611
94.9549
94.9579
94.9595
94.955
93.2528
93.2497
93.2339
93.2559
93.2653
93.2569
394.163
394.791
394.443
394.448
394.639
394.249
6963.76
6971.09
6967.52
6967.26
6969.45
6964.91
14274.1
14280.8
14277.9
14277.5
14279.8
14275.7
15532
15537.2
15535.1
15534.8
15536.6
15533.4
10503.5
10507.4
10505.9
10505.7
10506.9
10504.4
4676.98
4677.74
4677.51
4677.47
4677.52
4676.85
1231.15
1229.5
1230.1
1230.17
1229.6
1230.57
2262.56
2259.69
2260.6
2260.59
2260.29
2261.22
1964.58
1963.05
1963.61
1963.81
1962.23
1964.44
71.3231
71.3293
71.3259
71.3276
71.3284
71.3257
62.8205
62.825
62.8216
62.8232
62.824
62.8219
69.8281
69.6719
69.5639
69.8254
69.8002
69.7395
291.554
291.513
291.613
291.66
291.664
291.68
102.755
103.288
102.971
103.158
103.481
102.969
-74.4058
-74.4042
-74.4083
-74.4109
-74.4112
-74.4147
-28.0922
-28.1015
-28.0967
-28.0901
-28.0865
-28.0944
-4.16853
-4.17854
-4.17362
-4.16661
-4.15993
-4.17806
8.82857
8.82792
8.82749
8.82581
8.83199
8.82311
30.5469
30.5662
30.5567
30.5297
30.5036
30.5807
106.96
106.963
106.964
106.959
106.942
106.971
223.386
223.522
223.573
223.454
223.547
223.365
895.294
912.252
874.981
919.471
958.684
860.201
844.901
885.227
791.183
879.545
954.087
718.576
733.341
728.358
725.26
726.095
723.862
652.239
469.141
478.095
493.458
497.036
490.255
509.414
396.953
381.426
423.787
434.04
432.644
525.208
464.341
458.655
470.49
513.154
532.016
521.832
725.939
726.271
732.547
736.544
748.547
706.783
1476.94
1468.94
1461.93
1482.08
1507.74
1463.68
3175.49
3178.2
3117.65
3108.93
2931.95
2900.88
2989.72
3004.21
2874.59
2970.4
2674.16
2825.41
1670.31
1684.32
1632.04
1699.64
1684.64
1753.12
1449.29
1443.77
1470.9
1432.04
1450.2
1423.84
427.242
438.456
418.042
435.824
433.218
396.863
52.5781
45.497
59.7209
53.4733
30.9228
70.611
-156.761
-161.393
-150.374
-154.999
-159.435
-127.256
-147.71
-147.688
-147.702
-147.342
-149.311
-146.46
-93.4409
-93.4193
-93.9185
-94.4589
-97.112
-94.2892
-58.7299
-58.7225
-58.4525
-58.1151
-60.6218
-57.6878
-17.8893
-18.5821
-18.0341
-17.5855
-18.3277
-15.8095
187.522
169.755
175.533
165.27
167.867
187.665
1037.99
1037.89
1078.16
992.324
649.515
1182.24
1784.88
1817.83
1892.25
1747.2
954.208
2031.71
1431.52
1568.91
1899.25
1349.81
524.996
1980.23
1136.51
1133.23
1103.72
1001.74
936.208
1015.4
72.9857
72.6062
72.2948
70.454
61.0104
72.5457
-119.904
-122.651
-111.936
-117.82
-131.348
-105.183
-150.983
-150.105
-149.367
-148.165
-146.189
-149.491
-118.44
-118.158
-118.691
-118.276
-118.013
-120.35
-70.952
-70.5211
-71.0998
-70.7769
-70.1037
-72.6161
-35.6484
-35.3721
-35.5397
-35.2482
-35.6025
-35.9316
-13.5618
-13.3389
-13.6299
-13.4787
-13.812
-14.0025
-1.56918
-1.52412
-1.81393
-2.05283
-1.47911
-2.77501
7.8433
7.50022
8.50771
8.98378
11.8983
9.72369
607.877
614.077
880.494
400.477
251.188
940.377
3881.2
4001.47
4115.89
3681.84
2797.3
3199.74
3167.09
3440.49
4258.43
1614.34
795.922
3476.85
-17.2352
-18.9497
-16.6131
-18.3045
-20.715
-13.1809
-107.323
-108.26
-107.119
-106.707
-104.936
-104.259
-143.528
-143.8
-144.308
-143.534
-142.114
-142.785
-115.704
-115.403
-116.412
-115.845
-115.886
-117.924
-62.1671
-62.0994
-62.3666
-62.2511
-62.1021
-62.9501
-29.4784
-29.479
-29.5755
-29.3974
-29.2735
-29.8095
-11.1266
-11.0544
-11.1988
-10.9652
-11.0248
-11.3868
-5.20979
-5.15624
-5.49105
-5.23256
-5.14392
-5.73556
-3.70742
-3.47182
-4.0673
-3.48378
-3.83649
-3.79983
3.89439
3.73315
1.85292
1.54158
-1.00188
3.19278
1588.64
1511.93
1668.32
1340.4
1303.43
2413.56
4634.25
4674.33
4670.87
4910.1
5370.39
4802.41
38.8415
38.8445
38.8429
38.843
38.8431
38.8417
16.0693
16.0698
16.0692
16.0687
16.0684
16.0681
2.49163
2.49147
2.49115
2.49096
2.49079
2.49069
21.4133
21.4146
21.4129
21.4125
21.4127
21.4118
3.80034
3.80224
3.80068
3.79977
3.79975
3.79874
-0.149738
-0.149782
-0.150243
-0.15043
-0.15044
-0.150474
-27.553
-27.5781
-27.5631
-27.564
-27.5758
-27.5541
-26.3368
-26.3321
-26.3306
-26.3387
-26.3377
-26.3378
-5.16455
-5.16385
-5.164
-5.16491
-5.16449
-5.16514
-32.7018
-32.7779
-32.7459
-32.7266
-32.748
-32.7031
-46.8924
-46.8987
-46.8941
-46.896
-46.8984
-46.8954
-9.61203
-9.61537
-9.61422
-9.61412
-9.61472
-9.61444
-71.0952
-71.0984
-71.0695
-71.1343
-71.1493
-71.0884
-47.6606
-47.6468
-47.6472
-47.6532
-47.653
-47.6538
-8.83782
-8.85894
-8.85339
-8.84818
-8.85211
-8.84896
-45.7139
-45.7036
-45.708
-45.7094
-45.7084
-45.7188
-34.7798
-34.7748
-34.7752
-34.7765
-34.7773
-34.7802
-5.33017
-5.3285
-5.32974
-5.32979
-5.32921
-5.33122
-20.6223
-20.6141
-20.6174
-20.6138
-20.6124
-20.6145
-14.3545
-14.3464
-14.3498
-14.3506
-14.3506
-14.3498
0.217933
0.221816
0.219866
0.219493
0.22076
0.217446
5.9047
5.90539
5.90397
5.906
5.90139
5.9158
11.1377
11.1406
11.1384
11.1374
11.1337
11.1447
2.67545
2.67829
2.6768
2.67629
2.67727
2.67626
13.2489
13.2492
13.2483
13.2436
13.2352
13.2608
28.459
28.4651
28.4609
28.4587
28.4498
28.4715
1.07603
1.07665
1.0759
1.07471
1.07343
1.08067
-1.69807
-1.70074
-1.69861
-1.69921
-1.69883
-1.70575
55.57
55.5741
55.5737
55.5751
55.5583
55.5804
-10.4087
-10.4062
-10.4088
-10.4156
-10.4248
-10.3926
51.2316
51.2215
51.236
51.2135
51.1923
51.2525
39.7484
39.7571
39.7694
39.7485
39.6972
39.7958
0.745905
0.745444
0.746338
0.752053
0.755043
0.739879
2815.4
2815.71
2817.82
2810.65
2805.45
2823.62
-23.8117
-23.806
-23.8075
-23.8238
-23.8196
-23.7785
-20.2298
-20.233
-20.2326
-20.2246
-20.2162
-20.2372
10466.2
10466.9
10469.1
10471.3
10474
10472.5
1.99345
1.98192
1.99294
2.02792
2.04494
2.04035
-7.71176
-7.69304
-7.63898
-7.57081
-7.42096
-7.40768
10491.6
10493
10494.5
10495.2
10495.4
10496.5
0.0867544
0.0869639
0.0974419
0.107692
0.146808
2.3858
-6.48486
-6.47368
-6.45524
-6.43415
-6.39355
-6.35711
10056.5
10051.4
10052.1
10050
10045.2
10065
0.374099
0.372079
0.376656
0.376005
0.377124
0.403685
-6.08166
-6.07583
-6.0659
-6.05175
-6.0267
-6.03508
8215.31
8209.56
8207.89
8212.23
8209.44
8214.61
0.790676
0.792565
0.800311
0.795436
0.795196
0.850588
-6.42335
-6.41771
-6.41447
-6.4001
-6.38193
-6.41345
8188.81
8183.09
8181.69
8185.13
8182.06
8188.72
-2.67066
-2.67226
-2.66917
-2.67691
-2.67672
-2.66293
-8.95449
-8.95103
-8.94952
-8.94555
-8.93726
-8.95014
7636.55
7633.92
7637.27
7623.64
7615.06
7650.73
2.60096
2.60243
2.60263
2.5997
2.60317
2.61706
-12.6375
-12.637
-12.6372
-12.6321
-12.6256
-12.6413
-0.43912
-0.973911
-0.17757
-0.704683
-1.78208
0.771996
8.27612
8.21133
8.25373
7.98722
7.59089
7.97435
3.69639
3.68933
3.6583
3.58792
3.51625
3.52414
-37.2678
-37.9213
-37.4739
-37.7447
-37.4286
-36.6603
0.146534
-0.0586963
0.0750584
-0.226842
-0.252164
0.0427238
5.06912
5.03305
5.06449
4.95972
4.91354
5.04572
-65.893
-66.1055
-66.2158
-65.751
-65.1132
-65.7032
-15.4204
-15.5649
-15.4702
-15.5791
-15.5203
-15.3758
2.58678
2.55984
2.59468
2.51913
2.50416
2.59338
-54.9119
-55.0399
-55.1612
-55.0767
-54.8565
-55.3775
-22.5687
-22.5457
-22.5569
-22.5387
-22.5931
-22.8425
-0.634712
-0.637014
-0.614968
-0.639023
-0.651028
-0.647019
-36.2966
-36.3059
-36.3757
-36.3627
-36.2487
-36.6739
-16.5564
-16.5707
-16.5794
-16.6208
-16.6374
-16.6962
-1.52635
-1.52604
-1.52187
-1.52743
-1.52143
-1.5388
-19.5292
-19.537
-19.5312
-19.5305
-19.4814
-19.6139
-10.2286
-10.2334
-10.2353
-10.251
-10.2467
-10.2762
-1.99186
-1.99159
-1.99037
-1.98981
-1.98268
-1.99975
-9.21645
-9.21224
-9.213
-9.20465
-9.19019
-9.28384
-6.05704
-6.05903
-6.06369
-6.07358
-6.06917
-6.09276
-2.21119
-2.21079
-2.20913
-2.20858
-2.20333
-2.21235
-5.10064
-5.0948
-5.09779
-5.07563
-5.02799
-5.18249
-4.31218
-4.31345
-4.31883
-4.32267
-4.31955
-4.36061
-2.4282
-2.42526
-2.41988
-2.41456
-2.40778
-2.41399
0.283775
0.347131
0.427476
0.592797
0.762382
0.0587717
-2.79544
-2.7956
-2.80876
-2.8255
-2.87028
-2.88125
-1.56634
-1.56464
-1.55932
-1.54999
-1.52585
-1.56292
0.65097
0.756101
0.608742
0.510638
0.808093
-0.127522
-2.96668
-2.99745
-3.07243
-3.2682
-3.44923
-3.35029
-2.81706
-2.81315
-2.8075
-2.79794
-2.76025
-2.80182
4.9204
5.94227
5.08545
8.45368
15.8615
0.720626
-2.40367
-2.37722
-2.38266
-2.49366
-2.61307
-2.62714
-3.28514
-3.23913
-3.16117
-2.9568
-2.63428
-3.05816
5367.1
5370.61
5336.16
5836.7
6029.57
5581.37
-2.52519
-2.63756
-2.51824
-2.69515
-2.29675
-1.97699
-13.5514
-13.5558
-13.4627
-13.5219
-13.1475
-12.6785
)
;

boundaryField
{
    seabed_topleft_surface
    {
        type            fixedFluxPressure;
        gradient        uniform 0;
        value           nonuniform List<scalar> 
72
(
3595.3
3595.27
3595.25
3595.27
3595.27
3595.29
3833.33
3833.3
3833.29
3833.3
3833.31
3833.31
5069.05
5068.98
5068.97
5068.98
5068.98
5069
8573.01
8573.07
8573.03
8573.02
8573.03
8573.02
14906.6
14906.8
14906.7
14906.7
14906.7
14906.6
19658.1
19658.3
19658.2
19658.2
19658.2
19658.1
21346.8
21347.1
21347
21347
21347
21346.9
21200.5
21200.8
21200.7
21200.7
21200.8
21200.6
20777.7
20777.8
20777.8
20777.7
20777.7
20777.7
20488.7
20488.2
20488.4
20488.4
20488.3
20488.4
20219.6
20218.9
20219.1
20219.1
20219
20219.2
19576.5
19576.4
19576.4
19576.3
19576.2
19576.4
)
;
    }
    seabed_topright_surface
    {
        type            fixedFluxPressure;
        gradient        uniform 0;
        value           nonuniform List<scalar> 
72
(
895.294
912.252
874.981
919.471
958.684
860.201
844.901
885.227
791.183
879.545
954.087
718.576
733.341
728.358
725.26
726.095
723.862
652.239
469.141
478.095
493.458
497.036
490.255
509.414
396.953
381.426
423.787
434.04
432.644
525.208
464.341
458.655
470.49
513.154
532.016
521.832
725.939
726.271
732.547
736.544
748.547
706.783
1476.94
1468.94
1461.93
1482.08
1507.74
1463.68
3175.49
3178.2
3117.65
3108.93
2931.95
2900.88
2989.72
3004.21
2874.59
2970.4
2674.16
2825.41
1670.31
1684.32
1632.04
1699.64
1684.64
1753.12
1449.29
1443.77
1470.9
1432.04
1450.2
1423.84
)
;
    }
    breakwater_top_surface
    {
        type            fixedFluxPressure;
        gradient        uniform 0;
        value           nonuniform List<scalar> 
36
(
10466.2
10466.9
10469.1
10471.3
10474
10472.5
10491.6
10493
10494.5
10495.2
10495.4
10496.5
10056.5
10051.4
10052.1
10050
10045.2
10065
8215.31
8209.56
8207.89
8212.23
8209.44
8214.61
8188.81
8183.09
8181.69
8185.13
8182.06
8188.72
7636.55
7633.92
7637.27
7623.64
7615.06
7650.73
)
;
    }
    breakwater_left_surface
    {
        type            fixedFluxPressure;
        gradient        uniform 0;
        value           nonuniform List<scalar> 
24
(
19576.5
19576.4
19576.4
19576.3
19576.2
19576.4
15920.2
15917.5
15918.5
15918.3
15916.8
15919.9
1964.58
1963.05
1963.61
1963.81
1962.23
1964.44
223.386
223.522
223.573
223.454
223.547
223.365
)
;
    }
    breakwater_right_surface
    {
        type            fixedFluxPressure;
        gradient        uniform 0;
        value           nonuniform List<scalar> 
24
(
1449.29
1443.77
1470.9
1432.04
1450.2
1423.84
1136.51
1133.23
1103.72
1001.74
936.208
1015.4
3167.09
3440.49
4258.43
1614.34
795.922
3476.85
4634.25
4674.33
4670.87
4910.1
5370.39
4802.41
)
;
    }
    water_front_surface
    {
        type            fixedFluxPressure;
        gradient        uniform 0;
        value           nonuniform List<scalar> 
186
(
3595.3
3833.33
5069.05
8573.01
14906.6
19658.1
21346.8
21200.5
20777.7
20488.7
20219.6
19576.5
90.2779
118.743
578.427
3303.71
12374.2
20336
21664.1
21129.7
18798.4
15852.4
15382.7
15920.2
102.397
94.9502
93.2528
394.163
6963.76
14274.1
15532
10503.5
4676.98
1231.15
2262.56
1964.58
71.3231
62.8205
69.8281
291.554
102.755
-74.4058
-28.0922
-4.16853
8.82857
30.5469
106.96
223.386
895.294
844.901
733.341
469.141
396.953
464.341
725.939
1476.94
3175.49
2989.72
1670.31
1449.29
427.242
52.5781
-156.761
-147.71
-93.4409
-58.7299
-17.8893
187.522
1037.99
1784.88
1431.52
1136.51
72.9857
-119.904
-150.983
-118.44
-70.952
-35.6484
-13.5618
-1.56918
7.8433
607.877
3881.2
3167.09
-17.2352
-107.323
-143.528
-115.704
-62.1671
-29.4784
-11.1266
-5.20979
-3.70742
3.89439
1588.64
4634.25
38.8415
16.0693
2.49163
21.4133
3.80034
-0.149738
-27.553
-26.3368
-5.16455
-32.7018
-46.8924
-9.61203
-71.0952
-47.6606
-8.83782
-45.7139
-34.7798
-5.33017
-20.6223
-14.3545
0.217933
5.9047
11.1377
2.67545
13.2489
28.459
1.07603
-1.69807
55.57
-10.4087
51.2316
39.7484
0.745905
2815.4
-23.8117
-20.2298
10466.2
1.99345
-7.71176
10491.6
0.0867544
-6.48486
10056.5
0.374099
-6.08166
8215.31
0.790676
-6.42335
8188.81
-2.67066
-8.95449
7636.55
2.60096
-12.6375
-0.43912
8.27612
3.69639
-37.2678
0.146534
5.06912
-65.893
-15.4204
2.58678
-54.9119
-22.5687
-0.634712
-36.2966
-16.5564
-1.52635
-19.5292
-10.2286
-1.99186
-9.21645
-6.05704
-2.21119
-5.10064
-4.31218
-2.4282
0.283775
-2.79544
-1.56634
0.65097
-2.96668
-2.81706
4.9204
-2.40367
-3.28514
5367.1
-2.52519
-13.5514
)
;
    }
    water_back_surface
    {
        type            fixedFluxPressure;
        gradient        uniform 0;
        value           nonuniform List<scalar> 
186
(
3595.29
3833.31
5069
8573.02
14906.6
19658.1
21346.9
21200.6
20777.7
20488.4
20219.2
19576.4
90.2772
118.729
578.37
3303.89
12374.6
20336.2
21664.2
21129.8
18798.6
15852.1
15381.7
15919.9
102.399
94.955
93.2569
394.249
6964.91
14275.7
15533.4
10504.4
4676.85
1230.57
2261.22
1964.44
71.3257
62.8219
69.7395
291.68
102.969
-74.4147
-28.0944
-4.17806
8.82311
30.5807
106.971
223.365
860.201
718.576
652.239
509.414
525.208
521.832
706.783
1463.68
2900.88
2825.41
1753.12
1423.84
396.863
70.611
-127.256
-146.46
-94.2892
-57.6878
-15.8095
187.665
1182.24
2031.71
1980.23
1015.4
72.5457
-105.183
-149.491
-120.35
-72.6161
-35.9316
-14.0025
-2.77501
9.72369
940.377
3199.74
3476.85
-13.1809
-104.259
-142.785
-117.924
-62.9501
-29.8095
-11.3868
-5.73556
-3.79983
3.19278
2413.56
4802.41
38.8417
16.0681
2.49069
21.4118
3.79874
-0.150474
-27.5541
-26.3378
-5.16514
-32.7031
-46.8954
-9.61444
-71.0884
-47.6538
-8.84896
-45.7188
-34.7802
-5.33122
-20.6145
-14.3498
0.217446
5.9158
11.1447
2.67626
13.2608
28.4715
1.08067
-1.70575
55.5804
-10.3926
51.2525
39.7958
0.739879
2823.62
-23.7785
-20.2372
10472.5
2.04035
-7.40768
10496.5
2.3858
-6.35711
10065
0.403685
-6.03508
8214.61
0.850588
-6.41345
8188.72
-2.66293
-8.95014
7650.73
2.61706
-12.6413
0.771996
7.97435
3.52414
-36.6603
0.0427238
5.04572
-65.7032
-15.3758
2.59338
-55.3775
-22.8425
-0.647019
-36.6739
-16.6962
-1.5388
-19.6139
-10.2762
-1.99975
-9.28384
-6.09276
-2.21235
-5.18249
-4.36061
-2.41399
0.0587717
-2.88125
-1.56292
-0.127522
-3.35029
-2.80182
0.720626
-2.62714
-3.05816
5581.37
-1.97699
-12.6785
)
;
    }
    water_left_surface
    {
        type            fixedFluxPressure;
        gradient        uniform 0;
        value           nonuniform List<scalar> 
42
(
3595.3
3595.27
3595.25
3595.27
3595.27
3595.29
90.2779
90.275
90.2761
90.2761
90.2751
90.2772
102.397
102.405
102.401
102.402
102.403
102.399
71.3231
71.3293
71.3259
71.3276
71.3284
71.3257
38.8415
38.8445
38.8429
38.843
38.8431
38.8417
16.0693
16.0698
16.0692
16.0687
16.0684
16.0681
2.49163
2.49147
2.49115
2.49096
2.49079
2.49069
)
;
    }
    water_right_surface
    {
        type            fixedFluxPressure;
        gradient        uniform 0;
        value           nonuniform List<scalar> 
42
(
895.294
912.252
874.981
919.471
958.684
860.201
427.242
438.456
418.042
435.824
433.218
396.863
72.9857
72.6062
72.2948
70.454
61.0104
72.5457
-17.2352
-18.9497
-16.6131
-18.3045
-20.715
-13.1809
-0.43912
-0.973911
-0.17757
-0.704683
-1.78208
0.771996
8.27612
8.21133
8.25373
7.98722
7.59089
7.97435
3.69639
3.68933
3.6583
3.58792
3.51625
3.52414
)
;
    }
    water_top_surface
    {
        type            totalPressure;
        rho             rho;
        psi             none;
        gamma           1;
        p0              uniform 0;
        value           nonuniform List<scalar> 
180
(
0
0
0
0
0
0
0
0
0
0
0
0
0
0
0
0
0
0
0
0
0
0
0
0
-0.224733
-0.222378
-0.223529
-0.223676
-0.223024
-0.223587
-0.639813
-0.633403
-0.636256
-0.637332
-0.635204
-0.637447
-1.2674
-1.25593
-1.2611
-1.26353
-1.25927
-1.26608
-3.30479
-3.29203
-3.29805
-3.30054
-3.29653
-3.30489
-1.97461
-1.97136
-1.97264
-1.97322
-1.97356
-1.97253
-0.00225927
-0.0023319
-0.0022974
-0.00226751
-0.00218327
-0.00235019
0
0
0
0
0
0
-4.32472
-4.32585
-4.32317
-4.32491
-4.32721
-4.32024
-2.00911
-2.02257
-2.00785
-1.96923
-1.99423
-1.95349
-2.32209
-2.34687
-2.34473
-2.25791
-2.24135
-2.441
-2.20603
-2.20682
-2.20252
-2.2089
-2.23769
-2.15273
-2.86185
-2.86478
-2.84666
-2.89016
-2.93517
-2.78199
-4.10957
-4.11724
-4.09666
-4.13917
-4.18488
-4.04886
-1.77523
-1.78017
-1.77267
-1.78435
-1.80199
-1.75571
0
0
0
0
0
0
0
0
0
0
0
0
0
0
0
0
0
0
0
0
0
0
0
0
-0.0105396
-0.0108266
-0.0108934
-0.0111216
-0.0106214
-0.012055
-0.75027
-0.750966
-0.751143
-0.752084
-0.750065
-0.756276
-1.25763
-1.25662
-1.25502
-1.2535
-1.25053
-1.25408
-2.33962
-2.33468
-2.3277
-2.31905
-2.31015
-2.30971
-1.88736
-1.88325
-1.87452
-1.86005
-1.84285
-1.85888
-3.79244
-3.78226
-3.75796
-3.78378
-3.78501
-3.72387
-4.33041
-4.3027
-4.21418
-4.24682
-4.24579
-4.0854
-2.56731
-2.57936
-2.57381
-2.55958
-2.50434
-2.50334
)
;
    }
}


// ************************************************************************* //
