/*--------------------------------*- C++ -*----------------------------------*\
| =========                 |                                                 |
| \\      /  F ield         | OpenFOAM: The Open Source CFD Toolbox           |
|  \\    /   O peration     | Version:  v1612+                                |
|   \\  /    A nd           | Web:      www.OpenFOAM.com                      |
|    \\/     M anipulation  |                                                 |
\*---------------------------------------------------------------------------*/
FoamFile
{
    version     2.0;
    format      ascii;
    class       surfaceScalarField;
    location    "5.15";
    object      phi;
}
// * * * * * * * * * * * * * * * * * * * * * * * * * * * * * * * * * * * * * //

dimensions      [0 3 -1 0 0 0 0];

internalField   nonuniform List<scalar> 
2916
(
-8.21914e-07
0.0746916
-0.0746907
-2.58339e-06
0.0746931
-0.0746913
-4.64468e-06
0.0746941
-0.0746921
-1.12835e-05
0.074694
-0.0746873
-1.78269e-05
0.0746932
-0.0746866
0.0746929
-0.0747107
1.79634e-06
-0.0247575
0.0994473
-3.49929e-07
-0.0247544
0.0994496
-5.35082e-06
-0.0247547
0.0994538
-1.26004e-05
-0.0247542
0.0994554
-1.29827e-05
-0.0247536
0.0994472
-0.0247543
0.0994342
8.81506e-06
-0.392394
0.367628
2.17411e-06
-0.392384
0.367637
-4.54097e-06
-0.392385
0.367637
-8.35375e-06
-0.392383
0.367632
-8.06527e-06
-0.392379
0.367625
-0.392382
0.36762
2.28258e-06
-0.958926
0.566529
7.6188e-06
-0.958916
0.566526
2.68209e-06
-0.95891
0.566529
-6.94636e-06
-0.958908
0.566535
-7.18535e-06
-0.958905
0.566526
-0.958911
0.566522
-1.00078e-05
-1.40011
0.441193
1.87209e-05
-1.40011
0.441169
1.25174e-05
-1.40009
0.441182
-5.08145e-06
-1.40009
0.441195
-3.82862e-06
-1.40009
0.441183
-1.40011
0.441195
-6.466e-05
-1.70385
0.303808
1.78606e-05
-1.70393
0.303735
1.31961e-05
-1.70386
0.303775
-5.72102e-06
-1.70385
0.303786
1.99134e-05
-1.70388
0.30376
-1.70389
0.3038
-8.87413e-05
-1.84498
0.14122
1.10928e-05
-1.84519
0.141154
7.31551e-06
-1.84506
0.141207
-5.69919e-06
-1.84505
0.141212
3.8692e-05
-1.84511
0.141186
-1.84505
0.141199
3.7503e-05
-1.72194
-0.123079
1.54097e-05
-1.72222
-0.122943
-1.02646e-05
-1.72207
-0.122962
-3.80725e-06
-1.72207
-0.122985
-1.17712e-05
-1.72215
-0.122945
-1.722
-0.123066
0.000285242
-1.38355
-0.338681
3.27009e-05
-1.38372
-0.338249
-4.7996e-05
-1.38361
-0.338382
-2.03226e-05
-1.38365
-0.338453
-0.000145055
-1.38372
-0.338313
-1.38353
-0.338612
0.000399999
-0.938314
-0.445633
1.28446e-05
-0.938202
-0.44513
-7.928e-05
-0.938214
-0.445304
-5.00653e-05
-0.938293
-0.445385
-0.000251924
-0.938291
-0.445222
-0.93821
-0.445571
0.000159721
-0.383556
-0.554918
-3.20651e-05
-0.383389
-0.554621
-6.59511e-05
-0.383437
-0.554743
-6.68839e-05
-0.383501
-0.55479
-0.000221677
-0.383436
-0.554701
-0.383503
-0.554928
-0.000156197
-0.3834
-5.69796e-05
-0.383488
-1.09508e-05
-0.383483
-4.24996e-05
-0.38347
-5.39341e-05
-0.383424
-0.383557
8.45484e-05
0.583501
-0.658276
-0.000134865
0.583924
-0.658394
-0.000109219
0.583711
-0.658427
-7.37885e-06
0.583655
-0.658443
-3.49326e-05
0.583787
-0.658445
0.583646
-0.65839
0.0004258
-0.109813
0.792336
-7.38908e-05
-0.109176
0.793051
-0.000130281
-0.109461
0.792683
-5.4012e-05
-0.109523
0.792558
-0.00023514
-0.109336
0.792751
-0.109619
0.792464
0.000468829
-1.25793
1.51527
-2.14369e-05
-1.25771
1.51666
-0.000124106
-1.25782
1.5161
-1.36282e-05
-1.25779
1.51579
-0.000205905
-1.2577
1.51619
-1.25788
1.51568
0.000330173
-1.8615
1.16977
6.31632e-05
-1.86132
1.17041
-6.2214e-05
-1.86139
1.17023
-9.29185e-06
-1.86141
1.17009
-0.000139484
-1.86133
1.17029
-1.86147
1.16996
0.000270518
-1.86305
0.442475
3.56794e-05
-1.86301
0.443098
-2.39492e-05
-1.86301
0.442862
3.76789e-06
-1.86302
0.442785
-0.000146132
-1.863
0.443002
-1.86306
0.442644
0.000135823
-1.71707
0.157688
1.42459e-05
-1.7172
0.158045
-1.97016e-05
-1.71712
0.157919
2.28543e-06
-1.71712
0.157856
-8.00056e-05
-1.71714
0.157978
-1.71713
0.157787
0.000178693
-1.48795
-0.0880793
1.65693e-06
-1.4882
-0.0876638
-3.30634e-05
-1.48808
-0.0877963
1.42006e-05
-1.48807
-0.0878813
-8.53317e-05
-1.48811
-0.0877422
-1.48803
-0.087981
0.000257874
-1.13378
-0.477506
-3.69308e-06
-1.13388
-0.477007
-4.1132e-05
-1.13383
-0.477172
2.34479e-05
-1.13384
-0.477279
-9.71913e-05
-1.13383
-0.47711
-1.13379
-0.47741
9.56711e-05
-0.677332
-0.795221
-2.47572e-05
-0.676943
-0.795065
-2.78466e-05
-0.677116
-0.795097
-3.43701e-06
-0.677139
-0.795179
-3.42469e-05
-0.676997
-0.795111
-0.67719
-0.795244
-0.000336013
-0.315101
-0.807527
-7.37452e-05
-0.314217
-0.808117
1.42474e-06
-0.314604
-0.807891
-3.64152e-05
-0.314601
-0.807886
0.000158474
-0.314392
-0.808022
-0.314824
-0.807778
-0.000532948
-0.297352
-0.572134
-6.97658e-05
-0.296978
-0.572324
1.00551e-05
-0.297163
-0.572263
-3.61068e-05
-0.297113
-0.572232
0.000331064
-0.29723
-0.57223
-0.297157
-0.572264
-4.53835e-05
-0.680707
-6.66102e-06
-0.680505
7.05823e-06
-0.68066
-1.31385e-05
-0.680562
-0.000164592
-0.680502
-0.680879
-0.00113754
-1.78091
1.12378
-0.000143149
-1.78317
1.12379
-0.000145109
-1.78211
1.12369
-9.93533e-05
-1.78219
1.1237
0.000469464
-1.78271
1.1237
-1.78165
1.12374
-0.000870398
-3.74491
2.7572
-9.25006e-06
-3.75025
2.75927
-0.000264646
-3.7475
2.75833
-9.75675e-05
-3.74766
2.75786
0.000519807
-3.74904
2.75847
-3.74628
2.75761
0.00235405
-5.08939
2.8574
0.000246346
-5.09405
2.86256
-0.00141244
-5.09161
2.86187
-0.00039482
-5.09172
2.85884
-0.000701322
-5.09293
2.86039
-5.09053
2.85923
0.002968
-4.29785
0.375262
-0.000277807
-4.29869
0.378298
-0.000610745
-4.29835
0.377302
6.66977e-06
-4.29848
0.376233
-0.00141069
-4.29856
0.377328
-4.29813
0.376148
0.000352581
-2.86907
-0.986662
4.23703e-05
-2.86907
-0.986214
-0.000117286
-2.86904
-0.98629
-4.37992e-05
-2.8692
-0.986568
-0.000111935
-2.86915
-0.986335
-2.86913
-0.986463
-0.000432837
-1.92393
-0.787014
-1.34142e-05
-1.9235
-0.787947
-5.01642e-05
-1.92369
-0.787397
-5.55388e-05
-1.92379
-0.787548
0.000345204
-1.92362
-0.787954
-1.92387
-0.787129
-0.000712082
-1.09875
-0.91255
-5.1989e-05
-1.09837
-0.913458
-4.00884e-05
-1.09854
-0.912959
-7.76394e-05
-1.09862
-0.913012
0.000478317
-1.0985
-0.913421
-1.09868
-0.912691
-0.00110413
-0.034697
-1.54046
-0.000121226
-0.0344896
-1.54187
-4.65662e-05
-0.0345721
-1.54121
-0.000129846
-0.034632
-1.54119
0.000643717
-0.0346271
-1.54176
-0.034689
-1.54076
-0.00169583
0.960241
-1.78846
-0.00025253
0.960284
-1.79128
-5.349e-05
0.960301
-1.79017
-0.000176815
0.960288
-1.78998
0.000928443
0.96002
-1.79086
0.960109
-1.78911
-0.00109357
1.56211
-1.4083
-4.13802e-05
1.56175
-1.41064
0.000373187
1.5619
-1.4099
-2.28356e-05
1.5625
-1.4097
0.000198774
1.56228
-1.4105
1.56129
-1.40876
-0.00052949
0.222736
0.767766
0.000180213
0.220747
0.767972
0.000487128
0.221347
0.767983
0.00015309
0.222788
0.767817
0.000703521
0.221274
0.768226
0.221754
0.767979
0.00097056
-0.458941
-4.86439e-05
-0.458739
-0.000587369
-0.458774
0.000441975
-0.458804
0.000576672
-0.459364
-0.458548
-0.000810378
-1.73353
2.85812
-8.41411e-05
-1.73502
2.85809
-0.000152269
-1.73429
2.85805
-0.000137368
-1.73443
2.85812
0.000230123
-1.73476
2.85809
-1.73425
2.85822
-0.000766663
-2.92339
3.94783
-4.42187e-05
-2.92572
3.94925
-0.000172872
-2.92443
3.9486
-0.000102201
-2.92489
3.94826
0.00036952
-2.92548
3.94872
-2.92444
3.94817
0.000613119
-3.34032
3.27373
-0.000138851
-3.3412
3.27879
-0.000589682
-3.34047
3.27836
-0.000208388
-3.34127
3.27483
-0.000353928
-3.34147
3.27652
-3.34097
3.27541
0.000306236
-3.16119
0.195819
-0.000260754
-3.16079
0.198454
-0.000395044
-3.16082
0.197785
-0.000279674
-3.16158
0.196436
-0.000137327
-3.16168
0.197399
-3.16165
0.196696
-0.000682843
-2.32085
-1.82632
-0.000175647
-2.32067
-1.82684
-0.000773643
-2.32027
-1.82625
-0.000483641
-2.32151
-1.82693
0.000823129
-2.32227
-1.82705
-2.32124
-1.82605
-0.00158181
-0.0566079
-3.04967
-0.00026917
-0.0561856
-3.05374
-0.000747334
-0.0555714
-3.05162
-0.000564711
-0.0572854
-3.05196
0.00133373
-0.0584353
-3.05369
-0.0564449
-3.05059
0.000283593
2.15162
-3.12106
-0.00026074
2.15321
-3.1223
-0.000157797
2.15293
-3.12156
-0.000234987
2.15201
-3.12223
-0.000171087
2.15151
-3.12344
2.15221
-3.12152
0.00075065
3.3734
-2.76298
-0.000416049
3.3741
-2.7616
-0.00073807
3.37408
-2.76203
-0.000653749
3.37384
-2.7631
7.35313e-05
3.37303
-2.76401
3.37343
-2.76191
-1.35941e-05
2.88355
-1.29859
-0.00053352
2.88057
-1.29725
-0.00098088
2.88211
-1.29774
-0.000807403
2.8824
-1.29871
0.00123492
2.88006
-1.29994
2.88225
-1.29671
0.000257628
1.32517
0.149831
0.000965465
1.31878
0.150455
0.00207296
1.32121
0.149878
0.000312434
1.32501
0.149451
-0.00496973
1.32689
0.147952
1.31682
0.1517
0.00204326
-0.375228
2.46611
0.000782481
-0.378454
2.46647
0.00114494
-0.377233
2.46606
0.00109522
-0.374264
2.46713
-0.00164691
-0.370149
2.468
-0.381994
2.46514
0.000635398
-0.834806
-0.00133397
-0.835222
-0.00250569
-0.834835
-0.000351945
-0.835222
0.00656655
-0.836434
-0.833975
-0.250024
-5.18087
5.4309
0.295661
-5.5964
5.05072
-1.35058
-4.64339
6.28963
-0.686478
-5.50469
4.84059
2.52577
-6.50929
3.29704
-4.00134
6.52711
-0.0237251
-7.13552
1.97837
0.159143
-7.48077
1.7015
-0.0629416
-7.02554
2.60424
0.159821
-7.31896
1.59151
0.718408
-7.82127
0.753393
-6.32866
3.04573
0.0283369
-7.38596
0.222103
0.0253826
-7.63104
0.153223
0.187893
-7.47576
0.28771
0.158474
-7.513
0.223462
-0.0721095
-7.7814
0.190718
-7.04188
0.641112
0.0358695
-7.10036
-0.321466
0.0435562
-7.26832
-0.370407
0.185991
-7.18524
-0.432959
0.118964
-7.19091
-0.255065
-0.182447
-7.49756
0.0175709
-6.83452
-0.389807
0.0433467
-6.55921
-0.584498
0.0457479
-6.6635
-0.607219
0.176709
-6.54099
-0.775206
0.0821114
-6.61875
-0.477566
-0.241906
-7.01046
-0.163084
-6.13154
-0.944894
0.032786
-5.99202
-0.599985
0.0446266
-6.03327
-0.642071
0.133828
-5.90923
-0.720967
0.0238428
-6.017
-0.491761
-0.196576
-6.37937
-0.410677
-5.50759
-0.82052
0.00799
-5.29218
-0.707824
0.023917
-5.2882
-0.76099
0.10635
-5.16751
-0.824154
-0.0232928
-5.29631
-0.591045
-0.112117
-5.60479
-0.685756
-4.92487
-0.694838
-0.00508054
-4.23658
-1.05052
0.00965893
-4.24689
-1.05606
0.0840717
-4.08343
-1.15849
-0.052961
-4.26264
-0.896639
-0.12399
-4.49642
-1.03734
-3.87035
-1.17851
-0.0226901
-2.04842
-2.16546
0.0400177
-2.08777
-2.22183
0.172887
-1.94365
-2.27265
0.0890454
-2.09492
-2.08388
-0.289621
-2.22502
-1.89273
-1.89979
-2.26017
-0.0412343
0.656346
-2.66354
0.0450392
0.57913
-2.75317
0.290027
0.529145
-2.71778
0.0663148
0.635978
-2.50718
-0.86345
0.709196
-2.00445
-0.217435
-2.54581
0.0319736
2.20723
-1.58286
0.143322
2.24667
-1.77888
0.701287
2.018
-2.04682
0.413561
2.21927
-1.29556
-0.770277
2.34012
-0.447088
1.08541
-2.07312
-0.0530839
2.26031
0.0622539
2.13133
1.22541
0.854842
0.357934
3.08674
-0.190116
2.88817
0.895291
-0.253189
-3.92302
9.60711
-0.00346794
-4.41737
9.21837
-0.48595
-3.52425
10.2964
0.0194482
-4.60162
8.9368
1.07694
-5.47623
7.71578
-2.8116
10.4156
0.0350024
-6.8554
4.87574
-0.255174
-7.0758
4.6501
0.517397
-6.90504
5.21247
0.187404
-7.13952
4.4594
-1.20904
-7.61585
4.28946
-6.34051
5.3656
0.0246284
-7.2146
0.556683
-0.117299
-7.25889
0.47824
-0.106516
-7.23765
0.609538
-0.246051
-7.26417
0.487642
-0.398663
-7.83318
0.560652
-7.07435
0.97629
0.0413943
-5.96549
-1.61197
0.0454766
-5.98752
-1.64586
-0.0941372
-5.79828
-1.73272
0.0370408
-6.1248
-1.52561
0.146067
-6.87614
-1.04848
-5.71858
-1.5995
0.0527962
-4.50356
-2.09922
0.0837312
-4.50502
-2.12065
0.113903
-4.33666
-2.26699
0.241308
-4.75625
-1.97352
0.0443793
-5.38969
-1.45261
-4.18134
-2.43776
0.0282431
-3.59909
-1.5327
-0.00705883
-3.53293
-1.57886
0.0561593
-3.42602
-1.69482
0.1196
-3.90954
-1.40191
-0.195705
-4.28907
-1.19599
-3.37248
-1.82509
-0.00476729
-3.70683
-0.595311
-0.0528934
-3.62967
-0.616119
-0.00814479
-3.54593
-0.749
-0.070411
-4.01574
-0.422584
-0.215761
-4.31356
-0.515913
-3.45825
-0.824826
-0.0351695
-3.70032
-1.02186
-0.0567093
-3.68153
-0.982662
-0.000797199
-3.60874
-1.15159
-0.158254
-3.97814
-0.776777
-0.179289
-4.43568
-0.894184
-3.50017
-1.31588
-0.0814203
-3.07956
-2.70481
-0.130134
-3.07943
-2.77521
-0.0827154
-3.03667
-2.89215
-0.216637
-3.25962
-2.66848
-0.255708
-3.94177
-2.34757
-3.02884
-2.98721
-0.076772
-2.04847
-3.61785
-0.144319
-2.09836
-3.66669
-0.0947414
-2.06598
-3.73804
-0.206358
-2.18464
-3.47055
-0.263458
-2.5932
-3.29592
-2.14982
-3.68828
0.191296
-1.20284
-2.61979
0.250325
-1.16937
-2.7669
0.450952
-1.30343
-3.01
0.434162
-1.15854
-2.30487
-0.175009
-1.1689
-1.26221
-1.42555
-2.97239
0.751863
0.305616
1.57088
0.142935
2.19968
-1.07738
2.7531
1.37478
-0.344368
4.81673
-0.874634
-0.0520538
-0.456591
10.1158
-0.0456221
-0.687485
9.89943
0.322338
-0.504964
10.4334
0.391644
-0.821387
9.68889
0.00382477
-0.789519
8.89312
-0.0534211
10.4729
0.000650347
-1.98107
6.39958
-0.192136
-2.05917
6.21457
0.282663
-2.32871
6.56141
-0.0776082
-2.10001
6.09829
-0.810329
-1.91496
6.14762
-2.16766
6.66952
-0.139446
-2.85449
1.56954
-0.227459
-2.87888
1.38597
-0.553451
-3.00608
1.6129
-0.565372
-2.91311
1.31266
0.0486738
-3.21815
1.2498
-3.17212
2.02942
-0.053552
-2.96933
-1.44357
-0.0989066
-2.98377
-1.49562
-0.38787
-2.99378
-1.45606
-0.233628
-3.05031
-1.54266
0.365393
-3.28754
-1.57812
-3.07895
-1.32727
-0.00772223
-2.69534
-2.36549
-0.0292149
-2.69841
-2.38451
-0.238183
-2.67969
-2.37211
-0.0904008
-2.74911
-2.42249
0.4606
-2.87113
-2.42001
-2.69381
-2.3623
0.00068386
-2.05944
-2.16928
-0.0358917
-2.04871
-2.19198
-0.195008
-2.00977
-2.20563
-0.0270191
-2.10728
-2.21173
0.293723
-2.18616
-2.20171
-1.99161
-2.23356
-0.0246777
-1.07166
-1.55841
-0.067623
-1.06112
-1.56077
-0.220055
-1.01609
-1.59025
-0.0395238
-1.20444
-1.50595
0.19304
-1.47496
-1.45967
-0.985871
-1.63752
-0.0612182
-0.713874
-1.31843
-0.118695
-0.692907
-1.2934
-0.276849
-0.669156
-1.34036
-0.211275
-0.865755
-1.18104
0.234245
-1.64938
-1.16528
-0.702352
-1.36516
-0.054652
-1.71789
-1.64614
-0.149675
-1.69913
-1.67397
-0.228968
-1.73618
-1.74583
-0.322339
-1.77062
-1.67024
0.0850413
-2.52438
-1.87995
-1.83343
-1.77109
-0.0634959
-1.97349
-3.29876
-0.181211
-1.95916
-3.28894
-0.256666
-1.89792
-3.50084
-0.222425
-2.15414
-3.12128
0.0305702
-2.96194
-3.11136
-2.02998
-3.46117
-0.0207699
-1.33439
-3.23812
-0.15399
-1.33934
-3.2535
-0.504571
-1.21034
-3.347
-0.39062
-1.50589
-3.06707
0.444653
-2.47438
-2.58504
-1.34005
-3.21767
0.116882
-1.14566
0.122741
-1.20226
-0.667785
-1.49719
-0.149885
-0.64901
0.848175
1.34429
-1.36649
0.0124351
2.1222
7.98112
0.0324081
1.93542
7.94404
0.314647
2.06877
8.08235
0.279964
1.84081
7.88276
-0.116686
1.71282
7.57695
2.36243
7.99378
0.033204
1.86872
6.61986
-0.0878725
1.78527
6.48579
0.168396
1.67105
6.70286
-0.0317837
1.74289
6.3964
-0.457576
1.95629
6.32994
1.81325
6.76112
0.00105453
1.30043
2.13677
-0.107411
1.2598
2.01991
-0.121992
1.14779
2.15075
-0.273739
1.2303
1.97699
-0.363104
1.33106
1.9644
1.14631
2.33325
0.0202325
0.468212
-0.631581
0.0218437
0.455806
-0.693236
-0.0470961
0.401623
-0.640946
-0.0581387
0.416075
-0.717385
-0.0304246
0.432703
-0.707473
0.346536
-0.557923
0.0231266
0.139237
-2.05965
0.0436262
0.131706
-2.08091
0.0268579
0.114568
-2.06829
0.023909
0.0858986
-2.08937
0.0309465
0.0772736
-2.07162
0.0797807
-2.0646
0.0269584
0.129969
-2.18697
0.0452695
0.12101
-2.1996
0.0377064
0.11401
-2.19751
0.0304416
0.074039
-2.1926
0.028169
0.0540605
-2.17622
0.0882829
-2.2139
0.00513117
0.347156
-1.78073
0.0101466
0.337676
-1.78245
-0.0128519
0.327942
-1.78118
0.013904
0.305679
-1.76434
0.0525524
0.299926
-1.74419
0.295276
-1.79196
-0.0396951
0.581782
-1.51337
-0.0657733
0.577181
-1.50682
-0.19898
0.622282
-1.50149
-0.107641
0.50096
-1.46765
0.143234
0.291839
-1.40807
0.559611
-1.48625
-0.0053783
-0.10933
-0.949646
-0.0177536
-0.112824
-0.971583
-0.163766
0.00224864
-0.979787
-0.0400395
-0.282309
-1.01069
0.0795744
-0.720425
-0.987297
-0.108976
-1.02293
-0.012433
-1.25536
-2.14029
-0.0231357
-1.26883
-2.12223
-0.150627
-1.24624
-2.12486
-0.0688768
-1.32663
-2.15871
-0.0374405
-1.81095
-2.05227
-1.4569
-2.15068
-0.0613414
-1.13224
-3.2999
-0.187123
-1.14806
-3.24849
-0.382705
-1.15284
-3.24481
-0.290085
-1.3272
-3.15912
0.130141
-1.84633
-2.96989
-1.28136
-3.26307
-0.078887
-2.19901
-0.245236
-2.18398
-0.726558
-2.16871
-0.661241
-2.04152
0.630926
-1.79421
-2.01693
-0.000401366
3.22139
-0.362864
-8.3396e-05
3.22129
-0.363512
-0.000124799
3.22132
-0.363219
-0.000123044
3.22136
-0.363231
2.29622e-05
3.22133
-0.363379
3.22149
-0.363244
-9.61181e-05
2.9819
0.239584
-4.55964e-05
2.98186
0.239374
-7.12117e-05
2.98188
0.239462
-7.74613e-05
2.9819
0.239467
-6.3496e-05
2.9819
0.239415
2.98196
0.239468
1.28256e-06
0.195168
-1.20474e-05
0.195138
-2.89264e-05
0.195154
-3.67269e-05
0.195152
-4.20159e-05
0.195144
0.195153
-0.00064769
3.71665
-0.131032
1.72609e-05
3.71714
-0.132071
4.10321e-05
3.71684
-0.131484
-9.10354e-05
3.71686
-0.131692
0.000187083
3.71698
-0.131919
3.71685
-0.131744
-0.00036668
2.99676
0.959846
-1.24366e-05
2.99683
0.95933
-2.34373e-05
2.99678
0.959536
-0.000106953
2.99682
0.959581
2.51548e-05
2.99683
0.959436
2.99684
0.959498
-8.71874e-05
0.546562
-2.2275e-05
0.546427
-3.55947e-05
0.546477
-4.89399e-05
0.546497
-1.85389e-05
0.54645
0.546479
-0.000996144
3.48221
-0.338521
-0.000322173
3.4849
-0.338853
0.000801411
3.48413
-0.338383
3.57126e-05
3.48291
-0.339007
-3.53368e-05
3.48386
-0.339186
3.48278
-0.339158
-0.000839481
2.71127
1.73163
4.3673e-05
2.71205
1.7313
0.000459774
2.7117
1.73156
2.06734e-06
2.71156
1.73138
0.000251674
2.7118
1.73125
2.71144
1.73109
-0.00025819
1.11202
3.70196e-05
1.11192
9.29125e-05
1.11195
-5.83994e-06
1.11198
0.000111852
1.11193
1.11189
-5.38725e-05
1.02488
-1.16753
-0.000147482
1.02696
-1.16726
0.000349558
1.02623
-1.16732
-0.000105026
1.02539
-1.16751
-0.000434226
1.02614
-1.1676
1.02544
-1.16833
-9.35769e-05
1.10717
1.64943
3.78017e-05
1.10882
1.64931
0.000276542
1.10808
1.64947
-3.99866e-06
1.1078
1.64925
-0.000125568
1.10832
1.64919
1.10765
1.64876
-6.92838e-05
1.54726
6.76737e-05
1.54768
0.000149666
1.5475
6.00766e-05
1.54742
0.000107717
1.54751
1.54729
0.00105552
-0.320184
-2.67472
9.29079e-05
-0.319278
-2.67386
0.000252256
-0.319476
-2.67425
0.000161068
-0.320164
-2.67419
-0.000517806
-0.319867
-2.67411
-0.319896
-2.67501
0.000583312
-0.0773059
1.40597
0.00014617
-0.0762734
1.40674
0.000242189
-0.0767056
1.40661
-2.67141e-05
-0.0768936
1.40625
-0.000579997
-0.0765863
1.40646
-0.0770517
1.40533
0.000658601
1.7768
-3.32419e-05
1.77784
-5.2042e-06
1.77741
0.000137019
1.77714
-0.000124597
1.7775
1.77689
0.00127997
-1.45442
-4.27125
0.000238492
-1.45407
-4.27249
0.000256091
-1.454
-4.27189
0.000319366
-1.4548
-4.27141
-0.00060711
-1.4549
-4.27198
-1.45476
-4.27145
0.00178454
-0.651978
0.601735
0.000200373
-0.647982
0.602234
0.000167624
-0.649664
0.602297
0.000269604
-0.650649
0.601999
-0.000893941
-0.649324
0.602048
-0.651109
0.600786
0.000161455
1.68659
4.50121e-05
1.68883
9.87452e-05
1.68794
4.64651e-05
1.68736
-0.00011933
1.68819
1.68659
0.000704096
-2.43747
-4.95555
0.000185784
-2.4344
-4.95988
0.000395119
-2.4356
-4.95805
7.33794e-05
-2.43667
-4.95665
-0.00164779
-2.43617
-4.95753
-2.43755
-4.95706
0.000628317
-1.46446
-0.371905
0.000183824
-1.45985
-0.371862
0.000298038
-1.4618
-0.371621
0.000430802
-1.46295
-0.371862
-0.000517259
-1.46133
-0.371844
-1.46441
-0.372875
-0.000310924
1.04197
2.19165e-05
1.04425
0.00027206
1.04327
0.000182287
1.04273
0.000279686
1.04355
1.04155
0.000634971
-2.39372
-5.32545
0.000353627
-2.3901
-5.33109
0.000665724
-2.39168
-5.32872
3.12303e-05
-2.3927
-5.3264
-0.00271326
-2.39267
-5.32611
-2.3924
-5.32928
-0.000495677
-1.98734
-0.777778
0.000141804
-1.98475
-0.77784
0.000573788
-1.98605
-0.77768
0.000336911
-1.98653
-0.777794
-0.000919962
-1.98575
-0.777501
-1.98762
-0.778568
-0.000498417
0.439933
0.000110389
0.441076
0.000297473
0.440531
0.000216416
0.440333
0.000544779
0.440696
0.439497
0.00127642
-1.41011
-5.2152
0.000351587
-1.40711
-5.2203
0.000415222
-1.40841
-5.21812
4.91866e-05
-1.40959
-5.21517
-0.00221432
-1.41082
-5.21296
-1.40703
-5.22118
-0.00118386
-1.2956
-0.891103
0.000577652
-1.29497
-0.891739
0.00130779
-1.29535
-0.891465
0.00025865
-1.29552
-0.890803
-0.00280122
-1.29603
-0.889232
-1.29492
-0.893478
-0.000278611
0.275553
0.000151118
0.275892
0.000260638
0.275708
0.000233881
0.275679
5.42952e-05
0.275791
0.275312
0.00181095
-0.0170852
-5.0501
-0.000155096
-0.0148267
-5.05305
-0.000711058
-0.0158951
-5.05179
-0.000203279
-0.0171692
-5.04906
0.000730192
-0.0199189
-5.04602
-0.012832
-5.05592
-0.000747668
-0.15795
-0.749488
0.000717328
-0.15739
-0.750649
0.00150037
-0.157619
-0.750524
0.000295523
-0.158569
-0.748199
-0.00336173
-0.160828
-0.744665
-0.155191
-0.754482
-3.22694e-05
0.306663
0.00026516
0.306745
0.000525241
0.306675
0.000203795
0.30658
-0.00157248
0.306602
0.306702
0.000787486
1.32976
-3.91453
-0.000581171
1.32993
-3.91514
-0.000332871
1.32934
-3.91532
-0.000244129
1.33042
-3.91243
0.000373745
1.33065
-3.90928
1.32874
-3.91915
0.000112537
0.704429
-0.124268
-0.000565288
0.704507
-0.124546
-0.00137811
0.704227
-0.124591
-0.00042587
0.704892
-0.123624
0.00314913
0.705182
-0.122777
0.703417
-0.126006
3.33878e-05
0.916575
-4.84061e-05
0.916454
-0.000290578
0.916513
7.35643e-05
0.916372
0.000897882
0.916189
0.916635
-0.00063795
-3.2819
-1.4668
-0.000557338
-3.28401
-1.46643
0.000192649
-3.28475
-1.46615
-0.000199555
-3.28046
-1.4668
-0.00086771
-3.27823
-1.46682
-3.28777
-1.46622
0.000489154
-2.91431
-0.492342
-0.000546589
-2.91539
-0.492125
-0.00134857
-2.91552
-0.493023
4.83443e-05
-2.9135
-0.49198
0.0026111
-2.91201
-0.491557
-2.91713
-0.494042
0.000473578
-0.335204
-6.22436e-05
-0.335208
-0.000774755
-0.335649
3.95221e-05
-0.33516
0.00171355
-0.334405
-0.336722
-0.00130334
-0.486508
-0.845642
1.33345
-0.00148142
-0.488236
-0.845854
1.33427
-0.0047669
-0.484618
-0.846024
1.33393
-0.0047496
-0.47985
-0.841742
1.32158
0.00518905
-0.467787
-0.840739
1.29859
-0.472698
-0.844871
1.32276
-0.00619418
-0.589332
-0.553119
0.662137
-0.00613365
-0.591424
-0.552723
0.655854
-0.00366351
-0.587314
-0.55259
0.652819
-0.015908
-0.580241
-0.54109
0.653729
-0.028802
-0.569923
-0.536044
0.651077
-0.573763
-0.551666
0.623934
-0.00601414
-0.272361
0.390259
-0.0113813
-0.269216
0.386447
-0.0155633
-0.266049
0.383572
-0.0185967
-0.265222
0.382083
-0.0038576
-0.25783
0.370677
-0.252247
0.365384
-0.000311606
-0.289598
-0.555732
-8.49975e-05
-0.290686
-0.555395
0.00058818
-0.291193
-0.555504
0.000220688
-0.286043
-0.555332
-0.000790724
-0.284896
-0.554832
-0.289688
-0.555973
-0.00389231
-0.453954
-0.384869
-0.00618344
-0.45688
-0.384233
-0.00842105
-0.45731
-0.384231
-0.0114674
-0.447414
-0.376668
-0.0128427
-0.447602
-0.371957
-0.471443
-0.382749
-0.0034374
0.0188166
-0.00431402
0.020146
-0.0046572
0.0219532
-0.00622425
0.0206229
-0.00441823
0.0217463
0.030626
-0.000147187
-0.345937
-0.209648
2.85324e-05
-0.346151
-0.20942
0.000617975
-0.346452
-0.209642
-0.000260818
-0.345543
-0.20891
-0.0015096
-0.344865
-0.208718
-0.347717
-0.209766
-0.0011643
-0.556201
-0.173438
-0.00320843
-0.556494
-0.171842
-0.00622805
-0.55642
-0.17124
-0.000433223
-0.556771
-0.171231
0.0107872
-0.559576
-0.168462
-0.552568
-0.167109
-0.00143221
0.18646
-0.00203999
0.186745
-0.00262378
0.187889
-0.00290571
0.186831
-3.05908e-05
0.186337
0.19193
-0.000119947
-0.250039
0.0405116
0.000360118
-0.250332
0.0404321
0.0018187
-0.251411
0.0403104
-0.000248289
-0.247394
0.0405513
-0.00369339
-0.24566
0.0403868
-0.253792
0.0403331
-0.00226735
-0.558932
0.137725
-0.00260886
-0.55943
0.137601
-0.00451422
-0.558997
0.138254
-0.0030797
-0.559371
0.139314
0.00373527
-0.562111
0.141177
-0.554879
0.137714
-0.000794063
0.447994
-0.00139299
0.447945
-0.00398348
0.449039
-0.00107203
0.447944
0.00596597
0.446576
0.451798
-0.000221648
-0.432177
0.47291
-5.9262e-05
-0.432413
0.472683
0.000409721
-0.432615
0.472456
-0.000310032
-0.431623
0.472894
-0.00142541
-0.431438
0.47294
-0.433481
0.472389
-0.000871844
-0.790224
0.496645
-0.00149679
-0.790946
0.496761
-0.00346357
-0.789871
0.497479
-0.000597975
-0.791846
0.496672
0.00761949
-0.79507
0.496594
-0.787011
0.498864
-0.00047957
0.63826
-0.000648297
0.638021
-0.0020335
0.63907
-0.000450773
0.637802
0.00344097
0.636001
0.641341
-0.00039788
-0.993491
-0.000174099
-0.993969
0.000835699
-0.994707
-0.000212506
-0.992853
-0.00198402
-0.992107
-0.995811
-0.000449682
-0.988735
-0.000425929
-0.989353
-0.0015253
-0.98915
-0.000431454
-0.989253
0.0029159
-0.990416
-0.988073
-2.23599e-05
-7.15256e-05
-0.000629403
-9.54236e-05
0.00123097
0.0165713
5.47771
2.48683
0.0260509
5.49547
2.43909
0.136554
5.49317
2.47868
0.136134
5.47791
2.40527
-0.0374307
5.43511
2.3154
5.40594
2.55042
0.00541329
3.93758
1.53472
0.0159381
3.94596
1.53898
0.0379574
3.93515
1.536
0.0465925
3.93711
1.53217
0.0170319
3.94576
1.51892
3.89905
1.52392
0.00158733
0.516713
0.00541807
0.522451
0.00704828
0.516749
0.00826907
0.522319
0.0095118
0.528965
0.503477
0.0363329
5.67348
3.39688
-0.0120848
5.62943
3.34387
0.105932
5.70391
3.35961
0.0163128
5.59138
3.29991
-0.184577
5.54803
3.2982
5.68788
3.43908
0.0190292
4.42889
2.76027
0.00905409
4.42495
2.75344
0.0518011
4.43242
2.76475
0.0235073
4.41472
2.73713
-0.0347587
4.40991
2.71531
4.40854
2.7685
0.00482493
1.15604
0.00504581
1.16115
0.0138635
1.1586
0.0090472
1.16053
-0.000811979
1.16269
1.14481
0.0361071
2.60398
2.89356
-0.0197363
2.55771
2.86191
0.0128392
2.61538
2.8624
-0.0821334
2.54335
2.82853
-0.214994
2.54279
2.85267
2.65664
2.9007
0.0214906
2.4745
2.86826
0.00265821
2.46653
2.86346
0.0305134
2.47663
2.87565
-0.00632924
2.46422
2.8531
-0.0715468
2.47117
2.85215
2.47165
2.88195
0.00347695
1.27057
0.00187672
1.2733
0.00903342
1.27367
0.00340285
1.27442
-0.00418124
1.27854
1.26632
0.0247664
-0.0843838
2.3216
-0.00527114
-0.109143
2.30785
-0.00667979
-0.0887683
2.31163
-0.058185
-0.119584
2.28223
-0.0926185
-0.11584
2.29547
-0.0716619
2.32181
0.01353
0.575278
2.19508
0.00380608
0.570211
2.19383
0.0173752
0.573047
2.20026
-0.00683652
0.569508
2.18822
-0.0434446
0.576129
2.19679
0.568216
2.19862
0.00133497
0.925252
0.00041551
0.926593
0.00354309
0.926341
0.000731883
0.928726
-0.00106271
0.933617
0.921947
0.0115383
-1.31933
1.56974
0.00139441
-1.32904
1.56612
0.000906934
-1.32571
1.56955
-0.0213587
-1.33337
1.5485
-0.0227674
-1.33066
1.55593
-1.33049
1.56494
0.00704978
-0.466692
1.33539
0.00410063
-0.468828
1.33657
0.01135
-0.4695
1.3368
-0.000400725
-0.468864
1.33547
-0.0130005
-0.464829
1.34355
-0.47603
1.33116
-0.000255076
0.505199
-0.000928824
0.505847
-0.00156709
0.505078
-0.000441585
0.507113
0.00528913
0.509519
0.502823
0.00428552
-1.57884
0.957321
-0.00278805
-1.58297
0.956565
-0.00434632
-1.58309
0.956694
-0.00953169
-1.5853
0.946376
0.00353072
-1.58362
0.950268
-1.59252
0.947096
0.00270675
-0.921523
0.675368
0.00289422
-0.922489
0.675908
0.00473363
-0.922447
0.674317
0.00214433
-0.922263
0.675028
0.00342344
-0.919723
0.67837
-0.926346
0.668408
-0.00063081
0.232803
-0.00129544
0.232808
-0.00232136
0.232506
-0.00101042
0.232758
0.00389879
0.233188
0.231453
-0.0048074
-1.3565
0.537903
-0.0124828
-1.35714
0.53894
-0.0189268
-1.3562
0.538166
-0.0144561
-1.3557
0.533264
0.0175971
-1.35268
0.526712
-1.35939
0.532126
-0.000629914
-0.989258
0.308759
-0.000838822
-0.989053
0.30803
-0.000941
-0.987848
0.306067
-1.68189e-05
-0.98656
0.304967
0.00393868
-0.983079
0.304816
-0.987682
0.300638
-0.00110791
0.0988934
-0.00224734
0.0987933
-0.00295387
0.0986978
-0.00226742
0.0983034
0.00166664
0.0979328
0.0983954
-0.0159839
-1.23363
0.274148
-0.0299512
-1.23109
0.277175
-0.0397991
-1.22634
0.272864
-0.0320535
-1.21492
0.272785
0.0114279
-1.19929
0.274462
-1.2174
0.274706
-0.00555635
-1.20918
0.289877
-0.00998629
-1.20745
0.288828
-0.0126187
-1.2048
0.287167
-0.0111334
-1.20102
0.289592
-0.00100884
-1.19684
0.292246
-1.19901
0.28124
-0.00201093
0.0594125
-0.00355549
0.0593476
-0.00414258
0.0591701
-0.00336059
0.0589948
-0.000398296
0.0583681
0.0590362
0.00237611
-0.824211
0.146341
-0.0127786
-0.822476
0.143228
-0.0600982
-0.818021
0.158422
-0.0457582
-0.802534
0.0502906
0.107569
-0.780341
-0.0858189
-0.809513
0.168861
-0.00992066
-0.966167
0.441757
-0.0167411
-0.966107
0.439282
-0.0155433
-0.965273
0.433223
-0.0155221
-0.961041
0.44808
-0.0126278
-0.951521
0.460533
-0.965489
0.424588
-0.000804907
0.141988
-0.00217286
0.141412
-0.00471463
0.140768
-0.00393647
0.137396
0.00533226
0.132726
0.138694
-0.0267078
-1.24633
-0.72091
-0.0293896
-1.23957
-0.736745
-0.073881
-1.2286
-0.693342
-0.0559823
-1.25779
-0.868533
0.125997
-1.27671
-1.04335
-1.24368
-0.612146
-0.0113604
-1.43496
0.641754
-0.0105508
-1.43466
0.633563
0.00628108
-1.43191
0.619705
-0.00177953
-1.42507
0.623428
-0.0222833
-1.40698
0.611308
-1.4312
0.589828
-0.00322431
0.197085
-0.00764028
0.195949
-0.0142541
0.195339
-0.0102148
0.192544
0.0106268
0.188647
0.190641
-0.00206894
-1.65895
-2.35979
0.029397
-1.63715
-2.37955
0.0374855
-1.63191
-2.31434
0.0913481
-1.52381
-2.55771
0.0641937
-1.30801
-2.67808
-1.61108
-2.19994
-0.0430511
-1.4999
0.52576
-0.0799167
-1.49736
0.530637
-0.124136
-1.49378
0.525792
-0.107953
-1.45052
0.533955
0.0454894
-1.36239
0.512241
-1.48023
0.504469
-0.00835984
0.296863
-0.021241
0.29755
-0.049292
0.299101
-0.0405925
0.30691
0.0407208
0.315613
0.295647
0.00634189
-3.23169
0.00567008
-3.22859
0.019407
-3.16286
0.0215988
-3.27985
-0.0268616
-3.12524
-2.92098
-0.0304803
-2.01331
-0.0626192
-2.00995
-0.0575799
-1.98928
-0.123115
-2.02663
-0.0923764
-1.99266
-1.88495
-0.0156768
-0.0285883
-0.0238464
-0.0534145
-0.0664041
)
;

boundaryField
{
    seabed_topleft_surface
    {
        type            calculated;
        value           uniform 0;
    }
    seabed_topright_surface
    {
        type            calculated;
        value           uniform 0;
    }
    breakwater_top_surface
    {
        type            calculated;
        value           uniform 0;
    }
    breakwater_left_surface
    {
        type            calculated;
        value           uniform 0;
    }
    breakwater_right_surface
    {
        type            calculated;
        value           uniform 0;
    }
    water_front_surface
    {
        type            calculated;
        value           uniform 0;