/*--------------------------------*- C++ -*----------------------------------*\
| =========                 |                                                 |
| \\      /  F ield         | OpenFOAM: The Open Source CFD Toolbox           |
|  \\    /   O peration     | Version:  v1612+                                |
|   \\  /    A nd           | Web:      www.OpenFOAM.com                      |
|    \\/     M anipulation  |                                                 |
\*---------------------------------------------------------------------------*/
FoamFile
{
    version     2.0;
    format      ascii;
    class       surfaceScalarField;
    location    "2.25";
    object      phi;
}
// * * * * * * * * * * * * * * * * * * * * * * * * * * * * * * * * * * * * * //

dimensions      [0 3 -1 0 0 0 0];

internalField   nonuniform List<scalar> 
2916
(
-6.13225e-06
0.643956
-0.64395
-2.26382e-06
0.643959
-0.643962
-1.25052e-06
0.643958
-0.643959
-2.32745e-06
0.643958
-0.643957
-5.16363e-07
0.643959
-0.643961
0.643958
-0.643958
-8.3689e-06
1.33393
-0.689962
-3.20132e-06
1.33393
-0.68998
-2.9723e-06
1.33393
-0.689975
-2.55454e-06
1.33393
-0.689974
2.92839e-06
1.33393
-0.689978
1.33393
-0.689968
-5.37974e-06
1.77524
-0.441309
-2.62845e-06
1.77525
-0.441321
-4.31759e-06
1.77525
-0.441316
-4.36449e-06
1.77525
-0.441317
1.83131e-06
1.77525
-0.441323
1.77524
-0.44131
-4.93113e-06
2.0942
-0.318958
-4.99353e-06
2.09422
-0.318966
-7.9047e-06
2.09422
-0.318962
-7.19374e-06
2.09421
-0.318966
-7.58716e-08
2.09421
-0.318973
2.0942
-0.31896
-8.10061e-06
2.34391
-0.249702
-8.2049e-06
2.34393
-0.24971
-1.06431e-05
2.34393
-0.249707
-8.73479e-06
2.34392
-0.249712
-1.58415e-06
2.34393
-0.249719
2.34391
-0.249708
-1.21355e-05
2.5655
-0.221572
-1.07494e-05
2.56551
-0.221583
-1.19593e-05
2.56551
-0.221581
-9.89693e-06
2.56551
-0.221585
-2.42894e-06
2.56551
-0.221593
2.56549
-0.221583
-8.903e-06
2.7823
-0.216791
-6.77817e-06
2.78231
-0.216805
-7.13506e-06
2.78231
-0.216802
-5.79607e-06
2.78231
-0.216805
1.24719e-06
2.78232
-0.216812
2.78229
-0.216804
-1.16302e-06
2.99642
-0.214124
3.02333e-06
2.99645
-0.214141
2.20366e-06
2.99645
-0.214135
3.12423e-06
2.99645
-0.214137
8.4911e-06
2.99645
-0.214143
2.99643
-0.214129
-1.78613e-06
2.94023
0.0561915
8.99889e-06
2.94027
0.0561648
7.86474e-06
2.94027
0.0561752
7.27753e-06
2.94027
0.0561774
1.54459e-05
2.94028
0.0561672
2.94024
0.056205
-9.8357e-07
2.26392
0.676315
6.25083e-06
2.26397
0.676296
8.00931e-06
2.26396
0.676306
8.11648e-06
2.26396
0.676309
7.76433e-06
2.26398
0.676303
2.26393
0.67632
4.80579e-06
1.0542
1.20971
1.06454e-06
1.05426
1.20971
4.11723e-06
1.05424
1.20972
1.56526e-06
1.05425
1.20972
-6.50726e-06
1.05427
1.20971
1.05421
1.20971
-4.78376e-05
1.05425
-2.41643e-05
1.05424
-1.96074e-05
1.05424
-1.37349e-05
1.05424
8.53827e-06
1.05425
1.05422
-6.3765e-06
0.756447
-1.40039
-4.26808e-06
0.756446
-1.40041
-2.7991e-06
0.756447
-1.40041
-9.40553e-06
0.75645
-1.4004
-1.28958e-05
0.75645
-1.40041
0.756442
-1.40041
2.62361e-06
1.49019
-1.42371
-4.7712e-06
1.4902
-1.42373
-6.79382e-06
1.4902
-1.42373
-7.88866e-06
1.4902
-1.42373
-8.89973e-06
1.4902
-1.42373
1.49019
-1.42373
7.5011e-06
1.91207
-0.863193
-5.9268e-06
1.91209
-0.863195
-1.1263e-05
1.91209
-0.863195
-1.27837e-05
1.91209
-0.863199
-1.85907e-05
1.91209
-0.863205
1.91207
-0.863202
8.32181e-06
2.27376
-0.680654
-5.53404e-06
2.27379
-0.68065
-1.04805e-05
2.27378
-0.680652
-1.1083e-05
2.27378
-0.68066
-1.87012e-05
2.27379
-0.680665
2.27376
-0.68067
1.59487e-05
2.50485
-0.480816
2.66599e-06
2.5049
-0.480806
-2.43495e-06
2.50489
-0.480809
-4.08642e-06
2.50489
-0.480819
-1.47253e-05
2.5049
-0.48082
2.50487
-0.480832
2.12604e-05
2.84248
-0.559219
1.02118e-05
2.84255
-0.559222
6.66851e-06
2.84254
-0.559223
4.87247e-06
2.84254
-0.559229
-6.16927e-06
2.84255
-0.559229
2.84251
-0.559236
2.777e-05
3.34393
-0.718272
1.29655e-05
3.34404
-0.718281
9.70319e-06
3.34402
-0.718282
9.4794e-06
3.34402
-0.718289
-1.02826e-06
3.34404
-0.718292
3.34399
-0.718278
3.26303e-05
3.90647
-0.776692
2.28481e-06
3.90662
-0.776689
-8.64981e-06
3.90658
-0.776683
-7.9187e-06
3.90658
-0.776695
-1.1622e-05
3.9066
-0.776703
3.90653
-0.77668
5.47624e-05
4.16202
-0.199413
1.40166e-05
4.16219
-0.199365
-1.41986e-05
4.16213
-0.199345
-1.84654e-05
4.16212
-0.199363
-1.5756e-05
4.16215
-0.199382
4.16207
-0.199351
3.74792e-05
3.6528
1.18549
1.91261e-05
3.65295
1.18556
-6.08656e-06
3.65289
1.18557
-1.96136e-05
3.65289
1.18556
-1.26992e-05
3.6529
1.18555
3.65284
1.18553
9.33628e-06
1.72561
3.1369
1.84099e-05
1.72573
3.13692
3.58612e-07
1.72569
3.13693
-6.15224e-06
1.72569
3.13692
3.07105e-05
1.72567
3.1369
1.72568
3.1369
-4.9087e-05
2.77991
-1.01947e-05
2.77993
-2.32775e-06
2.77992
1.86332e-05
2.77991
5.75404e-05
2.77988
2.77995
9.2647e-08
0.451022
-1.85141
-7.70487e-06
0.451016
-1.85142
2.44551e-07
0.451023
-1.85144
-9.6543e-06
0.451022
-1.85141
-3.38175e-05
0.451019
-1.8514
0.451024
-1.85147
1.25393e-05
1.48729
-2.45999
-1.11734e-05
1.4873
-2.45999
-1.40074e-06
1.48729
-2.46
-1.60197e-06
1.48729
-2.46
-2.49258e-05
1.4873
-2.45999
1.48728
-2.46001
1.51751e-05
2.14161
-1.51753
3.21796e-06
2.14161
-1.5175
1.36759e-05
2.1416
-1.51752
2.31422e-05
2.14161
-1.51753
1.26286e-06
2.14163
-1.51751
2.14164
-1.51756
7.836e-05
2.87963
-1.41875
5.81822e-05
2.87966
-1.41868
5.47957e-05
2.87966
-1.4187
4.21625e-05
2.87968
-1.41872
1.20677e-06
2.87971
-1.4187
2.87974
-1.41877
0.000132138
3.89451
-1.49583
0.000173701
3.89464
-1.49583
0.000162377
3.89469
-1.49583
0.000123134
3.89473
-1.49583
5.67674e-05
3.89476
-1.49579
3.8948
-1.49583
0.000124777
6.26639
-2.93122
0.000224074
6.26657
-2.93125
0.000221149
6.26663
-2.93116
0.0001792
6.26664
-2.9311
0.000147163
6.26662
-2.93106
6.26669
-2.93098
6.70852e-05
8.37396
-2.82591
0.000108145
8.37419
-2.82594
0.000113441
8.37422
-2.82588
9.05995e-05
8.37415
-2.82577
2.66874e-05
8.37411
-2.82572
8.37395
-2.82551
-4.75067e-05
8.96859
-1.37128
-0.00015542
8.96881
-1.3712
-0.000249886
8.96877
-1.37114
-0.000281803
8.96859
-1.37109
-0.000484915
8.96874
-1.37113
8.96786
-1.37108
-0.000237435
7.02112
1.74829
-0.000486951
7.02126
1.74843
-0.000697949
7.02114
1.74849
-0.000756422
7.02094
1.74834
-0.000689526
7.02119
1.7481
7.02016
1.74766
9.40128e-06
3.37935
4.82726
-4.12835e-05
3.37961
4.82726
-0.000175736
3.3795
4.82734
-0.000284436
3.37946
4.82716
-3.23151e-05
3.3796
4.82689
3.37919
4.82648
-1.23789e-05
1.15253
5.36372
3.60097e-05
1.15273
5.36376
-2.40411e-05
1.15266
5.36383
-5.81116e-05
1.15265
5.36376
0.000168212
1.15273
5.36354
1.15253
5.36373
-5.926e-05
3.9325
1.58957e-05
3.93258
4.58134e-05
3.93256
7.31905e-05
3.93254
3.89361e-05
3.93265
3.93252
-2.90627e-06
0.188257
-2.03967
-1.45316e-05
0.188261
-2.03967
9.34903e-06
0.188272
-2.03974
4.13694e-05
0.188236
-2.03968
3.50112e-05
0.188222
-2.03962
0.188316
-2.03975
-7.47098e-05
1.00306
-3.27471
-6.14761e-05
1.00301
-3.27475
-1.61948e-05
1.00298
-3.27476
-3.03591e-05
1.003
-3.27474
-6.28886e-05
1.00302
-3.27476
1.00297
-3.27473
-4.6351e-05
1.27467
-1.78909
5.25787e-05
1.27449
-1.78909
0.000102762
1.27451
-1.78911
0.000130601
1.27455
-1.7891
0.000163273
1.27459
-1.78911
1.27471
-1.78914
9.56834e-05
1.00636
-1.15054
0.000196851
1.0063
-1.15058
0.000197839
1.00637
-1.15056
0.000145315
1.00643
-1.15055
0.000102659
1.00647
-1.15054
1.00656
-1.15051
0.00016177
0.227419
-0.717058
0.000296746
0.227457
-0.717119
0.000293787
0.227626
-0.717078
0.000216793
0.227722
-0.71704
0.000156339
0.227742
-0.717003
0.227825
-0.716938
-0.000165418
-0.892051
-1.81158
-0.000137626
-0.892134
-1.81168
-0.000114088
-0.891942
-1.81161
-4.95064e-05
-0.891885
-1.81155
8.593e-05
-0.891926
-1.81152
-0.891712
-1.81136
-0.000289647
-1.32113
-2.39653
-0.000415214
-1.32127
-2.39668
-0.000468097
-1.32114
-2.39663
-0.000397269
-1.32118
-2.39655
-0.000228827
-1.32129
-2.39652
-1.3212
-2.39625
-0.000195359
-0.374751
-2.31747
-0.000320665
-0.374715
-2.31763
-0.000462209
-0.37457
-2.31757
-0.00049222
-0.37473
-2.31752
-0.000745411
-0.374735
-2.31744
-0.375545
-2.31748
5.48189e-05
0.978875
0.394619
-0.000140901
0.979312
0.394607
-8.85994e-05
0.979106
0.394763
-7.29073e-05
0.97895
0.394644
-0.000483814
0.979007
0.394769
0.978071
0.393562
0.000393716
1.12816
4.67757
0.000128948
1.12874
4.67809
0.000178401
1.12831
4.67808
0.000138613
1.12833
4.67781
-0.000317999
1.12839
4.67796
1.12829
4.67594
0.000482783
1.09636
5.39504
0.000368946
1.09666
5.39596
0.000180665
1.09651
5.39582
0.000166298
1.09648
5.39563
0.000492227
1.09673
5.39488
1.09623
5.39628
1.06996e-05
5.02885
7.88668e-05
5.02918
9.43782e-05
5.02906
3.19549e-05
5.02908
-9.07623e-05
5.0295
5.02866
5.40091e-07
0.00115059
-0.00115113
6.33029e-08
0.00115049
-0.00115116
-1.55315e-07
0.00115045
-0.00115117
-2.13226e-07
0.00115038
-0.00115121
-1.83737e-07
0.00115033
-0.00115123
0.00115023
-0.00115129
4.24469e-07
0.00234439
-0.00119492
-8.66058e-08
0.00234426
-0.00119482
-3.49814e-07
0.00234419
-0.00119481
-4.59037e-07
0.00234406
-0.00119486
-4.50809e-07
0.00234394
-0.00119491
0.00234377
-0.001195
5.3822e-07
0.00361862
-0.00127538
-1.52527e-07
0.00361834
-0.00127482
-5.93921e-07
0.00361809
-0.00127469
-8.04223e-07
0.00361778
-0.0012747
-7.16257e-07
0.00361744
-0.00127477
0.00361706
-0.00127489
6.50028e-07
0.00501211
-0.00139473
-4.70699e-07
0.00501135
-0.0013932
-1.33885e-06
0.00501062
-0.00139277
-1.73909e-06
0.00500982
-0.00139271
-1.45424e-06
0.00500896
-0.00139285
0.00500805
-0.0013932
3.19614e-07
0.00658241
-0.00157117
-1.78768e-06
0.00658026
-0.00156795
-3.45691e-06
0.00657834
-0.00156703
-4.10616e-06
0.00657647
-0.00156692
-3.25602e-06
0.00657453
-0.00156733
0.0065725
-0.00156834
-1.90164e-06
0.00844003
-0.00185618
-5.94267e-06
0.00843498
-0.00185179
-8.60244e-06
0.00843085
-0.00185077
-9.19727e-06
0.00842715
-0.00185097
-6.90086e-06
0.00842351
-0.00185214
0.00841949
-0.00185454
-7.98193e-06
0.0106325
-0.00218493
-1.48834e-05
0.0106225
-0.00218194
-1.81674e-05
0.0106154
-0.00218235
-1.77622e-05
0.0106098
-0.00218404
-1.2677e-05
0.0106045
-0.00218703
0.010598
-0.00219196
-1.8536e-05
0.0129618
-0.0023113
-2.73185e-05
0.0129454
-0.00231571
-2.91804e-05
0.0129363
-0.00232036
-2.60695e-05
0.0129305
-0.00232508
-1.75813e-05
0.0129254
-0.00233055
0.0129177
-0.002338
-2.7258e-05
0.0149191
-0.00193071
-3.33471e-05
0.0148976
-0.00194802
-3.03736e-05
0.0148895
-0.00195774
-2.33919e-05
0.0148865
-0.00196439
-1.38511e-05
0.0148843
-0.00196973
0.0148784
-0.0019754
-1.92169e-05
0.0146203
0.000317158
-1.72742e-05
0.014594
0.000299601
-9.39037e-06
0.0145867
0.000293299
-1.72679e-06
0.0145856
0.000291752
2.1758e-06
0.0145859
0.000293154
0.0145832
0.00029638
-6.31455e-07
0.0118399
0.00278017
7.90987e-06
0.0118171
0.00276626
1.68423e-05
0.0118101
0.00276587
2.18499e-05
0.0118079
0.00277108
1.87111e-05
0.0118073
0.0027801
0.0118071
0.00279333
1.77557e-05
0.0118212
1.80927e-05
0.0118151
1.42394e-05
0.0118125
1.02712e-05
0.0118105
6.46423e-06
0.0118097
0.0118123
4.14222e-07
0.00116209
-0.00231434
-5.67987e-08
0.00116194
-0.00231432
-2.53148e-07
0.00116187
-0.0023143
-3.27861e-07
0.00116178
-0.00231431
-3.51364e-07
0.00116171
-0.00231431
0.00116161
-0.00231434
1.53838e-07
0.00238088
-0.00241512
-3.43806e-07
0.00238059
-0.00241497
-5.25718e-07
0.00238039
-0.00241491
-6.04942e-07
0.00238019
-0.00241492
-6.28755e-07
0.00238003
-0.00241494
0.00237986
-0.00241502
-2.19673e-07
0.00371038
-0.00260584
-8.3934e-07
0.00370977
-0.00260518
-1.08127e-06
0.00370929
-0.00260494
-1.13408e-06
0.00370884
-0.00260486
-9.77528e-07
0.00370843
-0.00260489
0.00370805
-0.00260501
-1.06545e-06
0.00519512
-0.00287951
-2.00146e-06
0.00519372
-0.00287775
-2.35389e-06
0.00519263
-0.00287711
-2.26986e-06
0.00519162
-0.00287687
-1.69445e-06
0.00519069
-0.00287695
0.0051898
-0.00287735
-2.94452e-06
0.00680668
-0.00318074
-4.62984e-06
0.00680352
-0.00317727
-5.10457e-06
0.00680108
-0.00317606
-4.68581e-06
0.00679898
-0.00317569
-3.22999e-06
0.00679701
-0.00317608
0.00679505
-0.00317736
-6.78264e-06
0.00832813
-0.00337167
-9.71804e-06
0.00832097
-0.00336739
-1.02023e-05
0.00831611
-0.00336627
-9.0059e-06
0.00831233
-0.00336645
-6.02444e-06
0.00830891
-0.00336795
0.0083052
-0.00337125
-1.32628e-05
0.00954327
-0.00338769
-1.70458e-05
0.00952848
-0.00338698
-1.63979e-05
0.00952027
-0.00338831
-1.34385e-05
0.00951491
-0.00339069
-8.49901e-06
0.00951047
-0.00339458
0.00950506
-0.00340091
-1.93276e-05
0.0103751
-0.00312493
-2.09409e-05
0.010348
-0.00313534
-1.65514e-05
0.0103363
-0.00314222
-1.08579e-05
0.0103309
-0.00314806
-5.55467e-06
0.0103276
-0.00315422
0.0103229
-0.00316207
-1.70212e-05
0.0108755
-0.00241541
-9.785e-06
0.0108312
-0.00244054
1.56091e-06
0.0108173
-0.00245178
9.62234e-06
0.0108147
-0.00245785
1.00075e-05
0.0108172
-0.00246115
0.0108196
-0.00246301
-1.34523e-09
0.0110745
0.00011664
2.04149e-05
0.0110238
8.41663e-05
3.95582e-05
0.0110125
7.70203e-05
4.75561e-05
0.0110162
8.04789e-05
3.73716e-05
0.0110277
9.09687e-05
0.0110441
0.00010767
3.2722e-05
0.0100878
0.00373249
5.61544e-05
0.0100434
0.00372046
6.90842e-05
0.0100345
0.00372845
6.90842e-05
0.010039
0.00374588
5.03359e-05
0.0100532
0.00377088
0.0100795
0.00380619
3.56721e-05
0.0218716
2.44291e-05
0.0218672
5.4289e-06
0.0218637
-9.45278e-06
0.0218619
-1.41398e-05
0.021865
0.0218765
4.85868e-07
0.00112164
-0.00343713
-2.99108e-08
0.00112149
-0.0034371
-2.35314e-07
0.00112143
-0.00343708
-3.24147e-07
0.00112136
-0.00343709
-3.60209e-07
0.00112131
-0.00343709
0.00112128
-0.00343716
1.73645e-07
0.00231108
-0.00360607
-3.44449e-07
0.00231083
-0.00360593
-5.17295e-07
0.00231067
-0.00360588
-5.91924e-07
0.00231053
-0.00360588
-6.28133e-07
0.00231043
-0.0036059
0.00231045
-0.00360599
-2.8226e-07
0.00363316
-0.00392885
-8.69839e-07
0.00363269
-0.00392827
-1.0459e-06
0.00363236
-0.00392805
-1.03148e-06
0.00363206
-0.00392796
-8.7722e-07
0.00363184
-0.00392798
0.0036318
-0.00392812
-1.21046e-06
0.00515955
-0.00440573
-1.97269e-06
0.00515858
-0.00440421
-2.10878e-06
0.00515785
-0.00440361
-1.85988e-06
0.00515721
-0.00440336
-1.3315e-06
0.00515673
-0.00440343
0.00515646
-0.00440386
-2.97359e-06
0.00705463
-0.0050736
-4.04375e-06
0.00705232
-0.00507073
-3.98194e-06
0.00705071
-0.00506967
-3.23543e-06
0.00704946
-0.00506934
-1.99439e-06
0.00704853
-0.00506976
0.00704797
-0.00507116
-6.07947e-06
0.00974678
-0.00605828
-7.36949e-06
0.00974113
-0.00605549
-6.60249e-06
0.00973796
-0.0060548
-4.87865e-06
0.00973593
-0.00605517
-2.68219e-06
0.00973472
-0.00605686
0.00973423
-0.00606043
-1.01951e-05
0.0137065
-0.00733775
-1.04056e-05
0.013694
-0.00734038
-7.45608e-06
0.0136889
-0.00734289
-4.01385e-06
0.0136872
-0.00734597
-1.41948e-06
0.0136874
-0.00735043
0.0136889
-0.00735722
-1.19895e-05
0.0188389
-0.00824612
-6.27903e-06
0.0188155
-0.00826364
2.33028e-06
0.0188105
-0.00827326
8.46056e-06
0.0188129
-0.00828069
8.65894e-06
0.0188199
-0.00828763
0.0188298
-0.0082948
-5.56671e-08
0.0247779
-0.00835535
1.8363e-05
0.0247456
-0.00839056
3.56887e-05
0.0247449
-0.00840476
4.28907e-05
0.0247576
-0.008411
3.3587e-05
0.0247788
-0.00841203
0.0248069
-0.00840759
2.9156e-05
0.0281945
-0.00333035
6.15811e-05
0.0281598
-0.00336467
8.24602e-05
0.0281669
-0.00336784
8.45777e-05
0.0281921
-0.003358
6.0574e-05
0.0282301
-0.0033383
0.0282809
-0.00330747
4.95285e-05
0.0271458
0.00473011
6.70534e-05
0.0271247
0.00473508
6.95338e-05
0.0271372
0.00475287
5.90915e-05
0.0271662
0.00477933
3.56607e-05
0.0272093
0.00481217
0.027267
0.00485414
-7.38474e-06
0.0490229
-4.12091e-05
0.0490234
-7.11632e-05
0.0490287
-8.28768e-05
0.0490377
-6.86234e-05
0.0490578
0.0490747
4.4296e-07
0.0010238
-0.00446217
-5.71836e-08
0.00102367
-0.00446219
-2.42278e-07
0.00102361
-0.00446218
-3.23047e-07
0.00102355
-0.00446219
-3.60448e-07
0.00102351
-0.00446219
0.00102349
-0.00446222
8.90993e-08
0.0021318
-0.00471562
-3.74795e-07
0.00213152
-0.00471556
-5.00842e-07
0.00213138
-0.00471552
-5.58355e-07
0.00213129
-0.0047155
-6.19364e-07
0.00213125
-0.00471551
0.00213129
-0.00471555
-4.63499e-07
0.00342376
-0.00522163
-8.79103e-07
0.00342321
-0.0052213
-9.00561e-07
0.00342294
-0.00522113
-8.06834e-07
0.00342278
-0.00522104
-6.97836e-07
0.00342274
-0.00522102
0.00342282
-0.00522109
-1.40208e-06
0.00502476
-0.00600629
-1.68612e-06
0.00502362
-0.00600539
-1.42665e-06
0.00502313
-0.00600497
-1.0049e-06
0.00502289
-0.00600476
-6.2542e-07
0.00502286
-0.00600475
0.00502304
-0.00600503
-2.39027e-06
0.00701189
-0.00705888
-2.36145e-06
0.00700982
-0.00705734
-1.61167e-06
0.00700908
-0.0070567
-7.53491e-07
0.00700888
-0.00705651
-2.08348e-07
0.007009
-0.00705679
0.00700925
-0.00705768
-2.72975e-06
0.00915323
-0.00819713
-1.65803e-06
0.00914926
-0.00819609
9.90076e-08
0.00914846
-0.00819605
1.50929e-06
0.00914886
-0.00819669
1.74929e-06
0.00914985
-0.0081981
0.009151
-0.00820041
4.30792e-07
0.0111885
-0.00937368
4.48048e-06
0.0111814
-0.00937675
8.11226e-06
0.0111813
-0.00937949
9.68308e-06
0.0111838
-0.00938261
7.66835e-06
0.0111877
-0.00938633
0.0111921
-0.00939067
1.11112e-05
0.0130805
-0.0101497
2.16027e-05
0.0130692
-0.0101624
2.79417e-05
0.0130717
-0.0101704
2.83288e-05
0.0130795
-0.0101772
2.03216e-05
0.0130907
-0.010183
0.0131045
-0.0101872
3.02346e-05
0.0150008
-0.0103066
4.84671e-05
0.014989
-0.0103295
5.60754e-05
0.0149991
-0.0103407
5.24544e-05
0.0150184
-0.0103472
3.53172e-05
0.015044
-0.0103493
0.0150766
-0.0103453
4.1413e-05
0.0182685
-0.00664049
5.808e-05
0.0182673
-0.00666142
6.02067e-05
0.0182906
-0.00666319
4.94587e-05
0.0183251
-0.00665576
2.80165e-05
0.0183662
-0.00664095
0.0184133
-0.00661716
1.15302e-05
0.0169371
0.00604832
2.33277e-06
0.016952
0.0060571
-1.29286e-05
0.0169851
0.00607145
-2.80703e-05
0.0170263
0.00609107
-3.23638e-05
0.0170674
0.00611318
0.0171015
0.00613323
-7.21575e-05
0.06603
-0.000122889
0.066024
-0.000149754
0.0660387
-0.000138304
0.066051
-0.000102463
0.0660883
0.0660738
-4.67193e-05
-2.06029
0.0206729
-1.32095e-05
-2.06033
0.0206299
-1.21109e-05
-2.06038
0.0206389
3.95206e-05
-2.06034
0.020611
0.000133535
-2.06033
0.0206161
-2.0604
0.0207874
6.46499e-06
-1.98105
-0.0792479
5.42031e-05
-1.98112
-0.079258
5.54815e-05
-1.98111
-0.0792634
7.11027e-05
-1.98108
-0.0792795
0.000105252
-1.98107
-0.0792865
-1.98104
-0.0792592
-3.29425e-06
-0.030488
-2.25992e-05
-0.0304923
-3.69792e-05
-0.0304916
-4.10195e-05
-0.0304851
-3.23867e-05
-0.0304816
-0.0304935
-5.46322e-05
-2.57844
-0.675551
1.59601e-05
-2.57849
-0.675702
6.05295e-05
-2.57845
-0.675712
4.94489e-05
-2.57843
-0.675692
2.51984e-05
-2.57845
-0.675662
-2.57835
-0.675566
-4.80587e-05
-2.26742
-0.39022
-5.36119e-05
-2.26749
-0.390255
-3.86415e-05
-2.26746
-0.390266
-1.42152e-05
-2.26745
-0.390279
-3.07663e-06
-2.26747
-0.390282
-2.26737
-0.390236
2.09986e-05
-0.186581
9.82452e-06
-0.186578
3.01287e-06
-0.186583
5.24811e-08
-0.186582
-1.3383e-05
-0.186581
-0.186596
-3.05715e-05
-1.20081
-1.2638
-1.72136e-05
-1.20084
-1.26397
-2.91423e-05
-1.20082
-1.26398
-1.56912e-05
-1.20082
-1.26399
3.76151e-05
-1.20084
-1.26399
-1.20078
-1.26388
-6.90488e-06
-1.15154
-0.439488
-1.75963e-05
-1.15157
-0.439512
-2.31298e-05
-1.15155
-0.439534
-2.15635e-05
-1.15155
-0.439553
-2.01929e-05
-1.15156
-0.439563
-1.15149
-0.439546
1.1328e-05
-0.056477
9.61223e-06
-0.0564699
1.11872e-05
-0.0564738
1.0238e-05
-0.0564738
-7.56941e-07
-0.0564732
-0.0564851
-1.43145e-06
-1.51176
-0.902576
-2.52353e-05
-1.51187
-0.90266
-4.94404e-05
-1.51184
-0.902687
-4.68996e-05
-1.51183
-0.902716
5.07448e-08
-1.51185
-0.902731
-1.51172
-0.902679
-6.69171e-06
-1.677
-0.274243
-4.64173e-05
-1.67709
-0.274247
-6.17307e-05
-1.67709
-0.274269
-6.34188e-05
-1.67709
-0.274285
-5.82293e-05
-1.67711
-0.274299
-1.67701
-0.274313
2.55912e-05
-0.0167783
2.03196e-05
-0.0167711
1.19669e-05
-0.0167732
-1.08528e-06
-0.0167737
-2.04041e-05
-0.0167742
-0.0167819
-8.3897e-05
-1.19389
-0.425662
-7.12646e-05
-1.19402
-0.425766
-4.25518e-05
-1.19399
-0.425805
-1.03137e-05
-1.19395
-0.425832
4.31359e-05
-1.19395
-0.425834
-1.1938
-0.425775
-7.4338e-06
-1.4136
-0.0545186
-6.08563e-05
-1.4137
-0.0545182
-8.6843e-05
-1.4137
-0.0545223
-8.08293e-05
-1.41371
-0.0545274
-5.91397e-05
-1.41373
-0.0545326
-1.41364
-0.0545285
8.81363e-06
-0.0315878
1.47733e-06
-0.0315874
-5.67447e-06
-0.0315889
-1.28075e-05
-0.0315899
-2.16307e-05
-0.0315905
-0.031593
-0.000120441
-1.65718
-0.579939
-0.000139017
-1.65731
-0.580117
-0.000116488
-1.6573
-0.580137
-7.49396e-05
-1.65728
-0.58014
-9.03659e-06
-1.65729
-0.580136
-1.65714
-0.579999
7.792e-06
-1.60947
-0.102239
-2.84526e-05
-1.60955
-0.10224
-4.99005e-05
-1.60955
-0.102249
-5.71036e-05
-1.60955
-0.102253
-5.14424e-05
-1.60957
-0.10226
-1.60948
-0.10224
-2.59948e-06
-0.125761
-1.30726e-05
-0.125763
-1.80455e-05
-0.125763
-1.95442e-05
-0.125764
-2.28806e-05
-0.125765
-0.125762
-0.000127219
-1.84613
-1.13021
-0.000114756
-1.84623
-1.13058
-0.000138026
-1.84621
-1.13053
-0.000118034
-1.84619
-1.13052
-4.55503e-05
-1.84619
-1.13054
-1.84604
-1.13025
-4.51256e-05
-1.4966
-0.451725
-7.29321e-05
-1.49665
-0.451791
-6.75654e-05
-1.49665
-0.45182
-5.0494e-05
-1.49664
-0.451823
-1.43308e-05
-1.49663
-0.451851
-1.49657
-0.45173
-1.45651e-05
-0.177968
-1.83357e-05
-0.177972
-1.8733e-05
-0.177974
-1.53041e-05
-0.177977
-6.90107e-06
-0.177985
-0.177968
1.40509e-05
-1.84259
-1.6051
1.39366e-05
-1.84272
-1.60549
-4.1221e-05
-1.84266
-1.60538
-5.41546e-05
-1.84265
-1.60537
-9.48318e-05
-1.84253
-1.60541
-1.84266
-1.60517
-3.49709e-05
-1.21583
-1.07845
-7.87016e-05
-1.21586
-1.0786
-6.46642e-05
-1.21587
-1.07863
-3.65146e-05
-1.21587
-1.07863
6.55e-05
-1.21583
-1.07866
-1.21587
-1.07846
-3.04702e-05
-0.272925
-2.6986e-05
-0.272966
-2.72259e-05
-0.27298
-1.32324e-05
-0.273004
5.73847e-05
-0.273034
-0.272964
0.000559836
-0.917595
-0.293453
0.000321239
-0.91762
-0.293036
0.000419872
-0.91745
-0.293269
0.000366162
-0.917451
-0.293228
-5.95076e-05
-0.916812
-0.293403
-0.918629
-0.293037
0.000200876
-0.70088
-1.29537
0.000124275
-0.700843
-1.2953
0.000200296
-0.700842
-1.29532
0.000229155
-0.70083
-1.29529
0.00046724
-0.700548
-1.29517
-0.70126
-1.29536
-0.000150407
-0.289734
-0.000139369
-0.289937
-0.000150703
-0.289949
-9.09313e-05
-0.290044
0.000195012
-0.289971
-0.290095
0.000754266
3.18034
1.20304
0.000495083
3.18126
1.20406
0.000687652
3.18119
1.20343
0.000656891
3.18111
1.2035
6.95588e-05
3.1818
1.20335
3.17892
1.20405
0.000309186
1.56108
0.323575
0.000578938
1.56181
0.323884
0.000802328
1.56192
0.323726
0.000815932
1.56196
0.323847
0.00105788
1.56241
0.323984
1.561
0.323617
-0.000220074
0.423724
-6.6226e-05
0.423604
9.16423e-06
0.423664
0.000124131
0.423601
0.000339123
0.423793
0.423322
0.00168355
4.11426
2.48213
0.00164175
4.11651
2.48356
0.00125961
4.1166
2.48303
0.000824851
4.11633
2.48323
0.00269332
4.11236
2.484
4.12076
2.48226
0.000490289
1.92999
2.50735
0.00099098
1.93192
2.50797
0.00120389
1.93247
2.50764
0.000974319
1.93253
2.50788
0.00187665
1.92786
2.50758
1.93803
2.50823
-0.000693264
1.84854
-0.000459929
1.84863
-0.000165721
1.84881
-0.000163304
1.84884
-0.0010262
1.847
1.85076
0.000323941
2.94334
4.56732
0.000339529
2.94495
4.56777
0.000220652
2.94458
4.56763
0.000262039
2.94453
4.56773
0.000362417
2.9436
4.5698
2.94625
4.56503
0.000747643
0.63575
4.81419
0.000859301
0.637918
4.81489
0.000519135
0.637807
4.81476
0.000490684
0.637909
4.81453
0.00374611
0.6318
4.81612
0.645029
4.8132
-0.000395351
4.14097
-0.00015146
4.14166
-0.000133177
4.14175
-2.4368e-05
4.14166
-0.0012184
4.14118
4.14228
-2.73708e-05
-0.13289
0.448389
-0.315472
-2.76737e-05
-0.132883
0.448341
-0.315459
-6.1149e-05
-0.132881
0.44841
-0.315496
-2.05399e-05
-0.13288
0.448273
-0.315435
-5.62267e-05
-0.132837
0.448399
-0.315525
-0.132938
0.448294
-0.315412
7.95399e-05
-0.271672
0.351689
-0.212987
5.70879e-05
-0.271699
0.351885
-0.213048
3.36711e-05
-0.271727
0.351964
-0.213096
7.57691e-05
-0.27167
0.351746
-0.213
-0.00106162
-0.271849
0.353702
-0.213553
-0.271478
0.349936
-0.212459
-0.000102314
-0.688713
0.454043
-6.0518e-05
-0.688871
0.454061
-0.000250918
-0.688803
0.454183
1.83614e-05
-0.689033
0.454013
0.00192014
-0.691355
0.45446
-0.686216
0.453626
-4.52318e-06
-0.278183
0.726577
-1.67982e-05
-0.278153
0.726505
-4.35493e-05
-0.27815
0.726586
-2.83748e-05
-0.278154
0.726411
-0.000256014
-0.278008
0.726633
-0.278331
0.726367
0.000343798
-0.0730482
0.146209
0.000186532
-0.0726062
0.146494
0.000484207
-0.0730496
0.146565
0.000451365
-0.0725085
0.146132
-0.00449414
-0.0670098
0.147647
-0.0788546
0.145964
-0.000115896
-1.37792
-5.19895e-05
-1.37851
-0.000645992
-1.37767
-8.75825e-05
-1.3792
0.00410617
-1.38834
-1.36791
-9.08933e-05
-0.413355
1.14002
-8.87314e-05
-0.413561
1.14006
-0.000231411
-0.413431
1.14016
-0.000134512
-0.413515
1.13983
-7.22109e-05
-0.414233
1.1408
-0.412899
1.13919
0.000449294
1.19284
-1.46043
0.000247276
1.1933
-1.46016
0.000628919
1.19277
-1.46001
0.000395003
1.19339
-1.46054
-0.00504844
1.19996
-1.4611
1.18553
-1.45751
0.000440467
-3.52802
0.000281186
-3.52889
0.00067175
-3.52796
0.000266732
-3.52942
-0.00456708
-3.5425
-3.51369
-9.42022e-05
0.554744
0.585372
-3.56418e-05
0.554753
0.585249
-0.000316796
0.554601
0.585839
-4.60541e-05
0.55482
0.584738
0.00106904
0.556647
0.58304
0.552151
0.588111
-7.86939e-06
3.30627
-4.21195
4.3713e-05
3.30666
-4.21212
-0.000134367
3.30632
-4.21156
0.000218878
3.3066
-4.21268
-8.48229e-05
3.31199
-4.21614
3.30034
-4.20579
0.000358843
-5.48745
0.00029535
-5.48822
0.00103598
-5.48794
0.000297376
-5.4882
-0.00660488
-5.49696
-5.47845
-6.39677e-05
2.15965
-1.57421
-0.000114134
2.15986
-1.57456
0.000139534
2.15946
-1.57388
-0.000230184
2.15985
-1.57475
-0.00183267
2.16318
-1.57854
2.15584
-1.56957
-4.56217e-05
3.61884
-5.67109
-4.56006e-05
3.61921
-5.67147
0.000107505
3.61909
-5.67133
-0.000451478
3.6192
-5.67146
-0.00075836
3.62152
-5.67418
3.6173
-5.668
0.000197512
-5.97402
0.000197494
-5.97471
0.000607258
-5.97476
0.000121358
-5.97442
-0.00452449
-5.97878
-5.96998
-6.5685e-05
2.99318
-0.00016155
2.99331
0.00033269
2.99325
3.9439e-05
2.99328
-0.00306827
2.99437
2.99239
5.20662e-05
2.13622
6.24331e-05
2.13672
0.000287252
2.13646
-0.000244293
2.13688
-0.0011315
2.1372
2.13646
0.000224634
0.000174161
0.000240544
0.000220589
-0.00299866
3.57421e-07
-0.00520231
0.000738896
-8.33463e-08
-0.00520239
0.000738821
-2.53506e-07
-0.00520238
0.000738785
-3.43637e-07
-0.00520238
0.000738747
-4.02351e-07
-0.00520237
0.000738717
-0.00520235
0.000738686
1.82387e-07
-0.00567021
0.00046686
-1.06235e-07
-0.00567026
0.000466823
-2.31235e-07
-0.00567024
0.000466802
-3.19465e-07
-0.00567022
0.000466781
-3.975e-07
-0.00567018
0.000466761
-0.00567014
0.000466733
-7.53252e-10
0.000155573
-7.82561e-08
0.000155562
-1.17561e-07
0.000155555
-1.63822e-07
0.000155549
-2.26129e-07
0.000155542
0.000155534
6.3545e-08
-0.00552083
0.00154256
-3.07222e-07
-0.00552088
0.00154247
-4.24401e-07
-0.00552086
0.00154242
-4.99986e-07
-0.00552084
0.00154239
-5.95661e-07
-0.00552082
0.00154239
-0.00552077
0.00154242
1.74959e-08
-0.00603052
0.00097531
-2.20295e-07
-0.00603054
0.00097527
-3.25046e-07
-0.0060305
0.000975256
-4.21314e-07
-0.00603046
0.000975252
-5.37555e-07
-0.0060304
0.000975261
-0.00603033
0.000975287
-5.10849e-08
0.000313517
-1.1098e-07
0.000313507
-1.46594e-07
0.000313506
-1.94244e-07
0.000313508
-2.62467e-07
0.000313513
0.000313529
-3.05415e-07
-0.0061756
0.00249563
-5.6122e-07
-0.00617561
0.00249553
-5.59944e-07
-0.00617554
0.00249551
-5.13149e-07
-0.00617549
0.00249554
-4.93307e-07
-0.00617546
0.00249562
-0.00617538
0.00249572
-1.08258e-07
-0.00678407
0.00158293
-2.79771e-07
-0.00678405
0.00158291
-3.45655e-07
-0.006784
0.00158292
-3.97708e-07
-0.00678395
0.00158296
-4.62355e-07
-0.0067839
0.00158301
-0.00678384
0.00158307
-8.66404e-08
0.000463487
-1.21459e-07
0.000463478
-1.40844e-07
0.000463489
-1.65662e-07
0.000463506
-2.00631e-07
0.000463527
0.000463561
-6.81445e-07
-0.00723601
0.00372525
-6.92061e-07
-0.00723582
0.00372523
-4.53672e-07
-0.0072357
0.00372537
-2.13892e-07
-0.00723562
0.00372559
-1.15794e-07
-0.00723561
0.00372583
-0.00723565
0.00372608
-2.48637e-07
-0.00803401
0.00238066
-2.51239e-07
-0.00803395
0.00238067
-1.99849e-07
-0.0080339
0.00238075
-1.55087e-07
-0.00803386
0.00238086
-1.61534e-07
-0.00803384
0.00238097
-0.00803383
0.00238108
-7.06192e-08
0.000544408
-6.77651e-08
0.000544408
-6.52638e-08
0.000544437
-6.97728e-08
0.000544474
-8.65618e-08
0.000544513
0.000544557
-6.08639e-07
-0.00881985
0.00548657
-1.40674e-07
-0.00881957
0.00548694
4.54976e-07
-0.00881947
0.00548748
8.67431e-07
-0.00881949
0.00548808
7.93802e-07
-0.00881961
0.00548864
-0.00881982
0.00548906
-9.01762e-08
-0.0099697
0.00353054
1.09822e-07
-0.00996964
0.00353064
2.85218e-07
-0.00996965
0.00353083
3.53056e-07
-0.0099697
0.00353106
2.49924e-07
-0.00996977
0.00353126
-0.00996985
0.00353142
-1.65365e-12
0.000364449
6.11643e-08
0.000364437
9.86184e-08
0.000364492
1.01609e-07
0.00036456
7.02645e-08
0.000364623
0.000364719
7.9029e-07
-0.0111387
0.00842744
2.17222e-06
-0.0111388
0.00842842
3.18742e-06
-0.011139
0.00842955
3.52658e-06
-0.0111394
0.00843061
2.71574e-06
-0.01114
0.00843146
-0.0111405
0.00843201
5.07096e-07
-0.0129451
0.00533653
1.02721e-06
-0.0129451
0.00533673
1.30412e-06
-0.0129453
0.00533709
1.25207e-06
-0.0129456
0.00533744
8.16534e-07
-0.0129459
0.00533773
-0.0129461
0.00533797
1.32923e-07
-0.000558583
2.91266e-07
-0.00055862
3.72207e-07
-0.000558533
3.52229e-07
-0.000558416
2.59132e-07
-0.000558335
-0.000558143
5.07619e-06
-0.0146373
0.013686
7.57086e-06
-0.0146382
0.0136876
8.40304e-06
-0.0146395
0.0136889
7.72414e-06
-0.0146409
0.0136898
5.20158e-06
-0.0146424
0.0136902
-0.0146435
0.0136902
1.61213e-06
-0.0175957
0.00829354
2.63899e-06
-0.0175961
0.00829382
3.00244e-06
-0.0175967
0.00829418
2.66698e-06
-0.0175973
0.00829445
1.7096e-06
-0.0175979
0.00829453
-0.0175984
0.00829462
3.98973e-07
-0.00347002
7.31526e-07
-0.00347016
9.21701e-07
-0.00347011
8.1093e-07
-0.00346986
6.41703e-07
-0.00346989
-0.00346935
1.13059e-05
-0.0199326
0.0234576
1.38973e-05
-0.0199359
0.0234586
1.30469e-05
-0.0199388
0.0234583
1.00825e-05
-0.0199415
0.0234571
5.55622e-06
-0.0199437
0.0234554
-0.0199451
0.0234534
3.2714e-06
-0.0255754
0.0139333
4.41955e-06
-0.0255763
0.0139333
4.44803e-06
-0.0255774
0.013933
3.40263e-06
-0.0255784
0.0139326
1.82535e-06