/*--------------------------------*- C++ -*----------------------------------*\
| =========                 |                                                 |
| \\      /  F ield         | OpenFOAM: The Open Source CFD Toolbox           |
|  \\    /   O peration     | Version:  v1612+                                |
|   \\  /    A nd           | Web:      www.OpenFOAM.com                      |
|    \\/     M anipulation  |                                                 |
\*---------------------------------------------------------------------------*/
FoamFile
{
    version     2.0;
    format      ascii;
    class       volScalarField;
    location    "3.6";
    object      p;
}
// * * * * * * * * * * * * * * * * * * * * * * * * * * * * * * * * * * * * * //

dimensions      [1 -1 -2 0 0 0 0];

internalField   nonuniform List<scalar> 
320
(
14724.8
14724.8
14724.8
14724.8
4.95092
4.95062
4.94902
4.94912
4.9485
4.94925
4.9491
4.95022
4.95028
4.95073
4.9505
4.94969
4914.85
4914.88
4914.88
4914.81
4914.8
4914.84
4914.84
4914.88
4914.88
4914.87
4914.84
4914.83
14724.8
14724.8
14724.8
14724.8
14724.8
14724.8
14724.8
14724.8
14724.8
14724.8
14724.8
14724.8
24534.8
24534.8
24534.8
24534.8
24534.8
24534.8
24534.8
24534.8
24534.8
24534.8
24534.8
24534.8
24534.8
24534.8
24534.8
24534.8
4.95042
4.95048
4.95051
4.95
4.94919
4.94839
4.94809
4.9487
4.94939
4.94922
4.94998
4.94978
4.95058
4.95123
4.95539
4.94859
4.95043
4.94979
4.94969
4.9506
4914.8
4914.8
4914.87
4914.85
4914.82
4914.82
4914.8
4914.81
4914.8
4914.8
4914.83
4914.83
4914.86
4914.84
4914.9
4914.83
4914.84
4914.81
4914.79
4914.82
14724.8
14724.8
14724.8
14724.8
14724.8
14724.8
14724.8
14724.8
14724.8
14724.8
14724.8
14724.8
14724.8
14724.8
14724.8
14724.8
14724.8
14724.8
14724.8
14724.8
24534.8
24534.8
24534.8
24534.8
24534.8
24534.8
24534.8
24534.8
24534.8
24534.8
24534.8
24534.8
24534.8
24534.8
24534.8
24534.8
24534.8
24534.8
24534.8
24534.8
34344.8
34344.8
34344.8
34344.8
34344.8
34344.8
34344.8
34344.8
34344.8
34344.8
34344.8
34344.8
34344.8
34344.8
34344.8
34344.8
34344.8
34344.8
34344.8
34344.8
34344.8
34344.8
34344.8
34344.8
34344.8
34344.8
34344.8
34344.8
34344.8
34344.8
34344.8
34344.8
34344.8
34344.8
34344.8
34344.8
4.95213
4.94972
4.95031
4.9503
4.9493
4.94817
4.94837
4.9494
4.94819
4.94723
4.94847
4.95031
4.94917
4.9492
4.94961
4.94899
4.95076
4.94953
4.94865
4.94922
4.95013
4.94929
4.94885
4.94956
4.94862
4.95149
4.95163
4.95746
4914.86
4914.82
4914.86
4914.81
4914.78
4914.79
4914.85
4914.85
4914.8
4914.86
4914.85
4914.81
4914.78
4914.81
4914.78
4914.87
4914.89
4914.86
4914.85
4914.81
4914.83
4914.88
4914.88
4914.87
4914.81
4914.87
4914.87
4914.9
14724.8
14724.8
14724.8
14724.8
14724.8
14724.8
14724.8
14724.8
14724.8
14724.8
14724.8
14724.8
14724.8
14724.8
14724.8
14724.8
14724.8
14724.8
14724.8
14724.8
14724.8
14724.8
14724.8
14724.8
14724.8
14724.8
14724.8
14724.8
24534.8
24534.8
24534.8
24534.8
24534.8
24534.8
24534.8
24534.8
24534.8
24534.8
24534.8
24534.8
24534.8
24534.8
24534.8
24534.8
24534.8
24534.8
24534.8
24534.8
24534.8
24534.8
24534.8
24534.8
24534.8
24534.8
24534.8
24534.8
34344.8
34344.8
34344.8
34344.8
34344.8
34344.8
34344.8
34344.8
34344.8
34344.8
34344.8
34344.8
34344.8
34344.8
34344.8
34344.8
34344.8
34344.8
34344.8
34344.8
34344.8
34344.8
34344.8
34344.8
34344.8
34344.8
34344.8
34344.8
4.94979
4.95105
4.94702
4.95171
4914.86
4914.88
4914.87
4914.83
)
;

boundaryField
{
    top_fluid_surface
    {
        type            calculated;
        value           nonuniform List<scalar> 
64
(
-2.81538e-09
-9.60162e-09
-1.32958e-08
0
0
-3.37406e-10
-9.58082e-10
-8.73493e-10
-2.66631e-08
-1.5139e-08
0
-3.27168e-10
0
0
-6.83484e-09
-6.33158e-10
0
0
0
0
0
0
0
0
-7.50974e-09
0
-2.45594e-09
0
0
0
0
0
-2.25508e-09
0
-9.55952e-09
0
0
0
-6.20212e-09
-1.45831e-09
0
-2.45117e-08
-1.90401e-08
-5.39643e-11
0
0
0
-3.56378e-09
-1.9272e-08
-2.16618e-09
-2.72034e-09
0
-4.47437e-10
-5.06146e-09
-2.92845e-10
-2.81958e-08
0
-7.23332e-10
-2.77167e-09
-6.00234e-10
-5.08493e-09
-1.02382e-10
-2.6971e-09
0
)
;
    }
    bottom_fluid_surface
    {
        type            calculated;
        value           nonuniform List<scalar> 
64
(
39249.8
39249.8
39249.8
39249.8
39249.8
39249.8
39249.8
39249.8
39249.8
39249.8
39249.8
39249.8
39249.8
39249.8
39249.8
39249.8
39249.8
39249.8
39249.8
39249.8
39249.8
39249.8
39249.8
39249.8
39249.8
39249.8
39249.8
39249.8
39249.8
39249.8
39249.8
39249.8
39249.8
39249.8
39249.8
39249.8
39249.8
39249.8
39249.8
39249.8
39249.8
39249.8
39249.8
39249.8
39249.8
39249.8
39249.8
39249.8
39249.8
39249.8
39249.8
39249.8
39249.8
39249.8
39249.8
39249.8
39249.8
39249.8
39249.8
39249.8
39249.8
39249.8
39249.8
39249.8
)
;
    }
    lateral_surface_1
    {
        type            calculated;
        value           nonuniform List<scalar> 
40
(
4.95213
4.94972
4.95031
4.9503
4.9493
4.94817
4.94837
4.95746
4914.86
4914.82
4914.86
4914.81
4914.78
4914.79
4914.85
4914.9
14724.8
14724.8
14724.8
14724.8
14724.8
14724.8
14724.8
14724.8
24534.8
24534.8
24534.8
24534.8
24534.8
24534.8
24534.8
24534.8
34344.8
34344.8
34344.8
34344.8
34344.8
34344.8
34344.8
34344.8
)
;
    }
    lateral_surface_2
    {
        type            calculated;
        value           nonuniform List<scalar> 
40
(
4.9492
4.94961
4.94899
4.95076
4.94953
4.94865
4.94922
4.95013
4914.81
4914.78
4914.87
4914.89
4914.86
4914.85
4914.81
4914.83
14724.8
14724.8
14724.8
14724.8
14724.8
14724.8
14724.8
14724.8
24534.8
24534.8
24534.8
24534.8
24534.8
24534.8
24534.8
24534.8
34344.8
34344.8
34344.8
34344.8
34344.8
34344.8
34344.8
34344.8
)
;
    }
    lateral_surface_3
    {
        type            calculated;
        value           nonuniform List<scalar> 
40
(
4.94837
4.9494
4.94819
4.94723
4.94847
4.95031
4.94917
4.9492
4914.85
4914.85
4914.8
4914.86
4914.85
4914.81
4914.78
4914.81
14724.8
14724.8
14724.8
14724.8
14724.8
14724.8
14724.8
14724.8
24534.8
24534.8
24534.8
24534.8
24534.8
24534.8
24534.8
24534.8
34344.8
34344.8
34344.8
34344.8
34344.8
34344.8
34344.8
34344.8
)
;
    }
    lateral_surface_4
    {
        type            calculated;
        value           nonuniform List<scalar> 
40
(
4.95013
4.94929
4.94885
4.94956
4.94862
4.95149
4.95163
4.95746
4914.83
4914.88
4914.88
4914.87
4914.81
4914.87
4914.87
4914.9
14724.8
14724.8
14724.8
14724.8
14724.8
14724.8
14724.8
14724.8
24534.8
24534.8
24534.8
24534.8
24534.8
24534.8
24534.8
24534.8
34344.8
34344.8
34344.8
34344.8
34344.8
34344.8
34344.8
34344.8
)
;
    }
}


// ************************************************************************* //
