/*--------------------------------*- C++ -*----------------------------------*\
| =========                 |                                                 |
| \\      /  F ield         | OpenFOAM: The Open Source CFD Toolbox           |
|  \\    /   O peration     | Version:  v1612+                                |
|   \\  /    A nd           | Web:      www.OpenFOAM.com                      |
|    \\/     M anipulation  |                                                 |
\*---------------------------------------------------------------------------*/
FoamFile
{
    version     2.0;
    format      ascii;
    class       surfaceScalarField;
    location    "3.6";
    object      phi;
}
// * * * * * * * * * * * * * * * * * * * * * * * * * * * * * * * * * * * * * //

dimensions      [0 3 -1 0 0 0 0];

internalField   nonuniform List<scalar> 
816
(
-3.22876e-06
-5.78298e-06
5.72109e-06
-8.17958e-07
-2.84588e-06
6.95376e-06
-6.00863e-07
4.80432e-06
3.10723e-07
4.89166e-06
-1.26568e-05
-1.88032e-06
3.35695e-06
3.08304e-06
6.6218e-06
-1.69873e-05
-5.70246e-07
2.5949e-06
4.52936e-06
-9.05521e-06
0.000134359
-8.6996e-06
-1.21717e-05
9.25273e-05
-5.42117e-05
0.00027597
-2.84718e-06
0.000201968
-7.77672e-05
3.90459e-05
8.51548e-06
0.000128642
0.000400177
8.61862e-05
-3.73606e-06
9.42008e-05
-0.000199425
2.19118e-05
2.02941e-05
0.000254308
-0.000322652
-0.000249485
1.27386e-05
0.000237699
3.09499e-05
-0.000272472
2.00305e-05
-9.55872e-05
0.000140891
-0.000169672
-1.35768e-05
-4.27121e-05
5.59046e-05
0.000146496
1.3791e-07
4.08477e-05
9.44701e-05
0.000376238
-1.27137e-05
-8.2072e-05
0.000223377
0.000301152
-1.09453e-06
4.84231e-05
7.57677e-06
1.06683e-05
0.000351139
-3.33591e-05
1.19615e-06
1.35457e-06
-2.13196e-05
1.85324e-07
5.9655e-06
5.04593e-06
-1.5427e-05
5.90484e-06
1.35951e-06
-3.64784e-07
-1.56459e-06
6.4358e-06
8.34061e-06
-3.95259e-06
3.7635e-06
-7.4824e-06
1.38692e-06
-1.22593e-06
1.30862e-05
-6.57352e-07
-1.10761e-07
-1.14455e-06
-7.39211e-06
1.08297e-05
9.08056e-06
2.57018e-07
2.99025e-06
1.97153e-06
9.19342e-06
-3.69436e-06
2.71553e-06
-8.20146e-06
5.29655e-06
4.62592e-06
-1.73806e-05
2.76625e-06
5.77743e-06
8.99986e-06
-1.05832e-05
-3.3801e-06
4.9624e-06
5.72886e-06
1.29854e-06
-1.86005e-06
2.66128e-06
8.08754e-06
9.77869e-06
-4.07401e-07
-1.30461e-06
-5.5612e-06
-1.00481e-05
1.29097e-06
-4.61726e-06
-7.75935e-06
4.27527e-07
-1.8505e-06
-8.93479e-07
4.77367e-07
-3.91462e-06
-2.95922e-07
1.74972e-06
7.45403e-07
3.15154e-06
6.51778e-06
2.5295e-06
-1.79326e-06
-3.94645e-06
1.92055e-06
-4.20114e-07
5.0913e-07
2.09596e-06
1.16667e-06
1.16126e-06
9.57812e-07
4.46335e-06
-1.06426e-06
-8.5668e-06
-1.33629e-06
-5.25956e-06
-4.17415e-06
-4.7623e-06
3.5812e-07
-2.54165e-06
3.46698e-07
-1.527e-06
4.74079e-06
-2.59964e-06
-2.16562e-06
-1.7785e-06
-3.01642e-06
3.30593e-06
-9.1652e-07
-4.61239e-07
-1.28935e-06
2.98556e-06
-3.61367e-07
1.73057e-06
-1.3321e-06
1.98221e-06
1.229e-06
1.72296e-06
-7.90907e-07
9.05967e-07
1.76566e-06
1.29512e-07
-4.50149e-06
7.10027e-07
-3.11008e-06
-3.0612e-06
3.37008e-08
-1.61742e-06
-1.42287e-06
4.22026e-08
-2.55025e-06
-3.69084e-08
-1.45294e-07
-2.4413e-07
3.49783e-07
2.28402e-06
1.45481e-06
1.84938e-06
-9.35781e-07
5.14824e-07
-7.17877e-08
-1.16944e-06
7.14625e-07
7.4307e-07
5.92408e-07
8.26874e-07
2.57201e-06
2.44551e-07
-5.35877e-07
-1.21168e-06
-3.7151e-06
-2.29701e-06
-2.72963e-06
-3.0291e-07
-1.05069e-06
-1.94264e-06
-1.32015e-06
-6.80741e-08
-1.27969e-06
-1.58051e-06
1.14739e-06
-8.49006e-05
-0.000128594
2.04088e-06
0.000172299
1.53188e-05
-7.73078e-06
-3.39509e-05
0.000124769
-4.58423e-06
0.000325275
0.000102456
-7.85341e-06
0.000244556
1.662e-05
-6.13885e-06
3.50775e-05
-9.86268e-05
-2.40626e-05
8.15225e-07
8.22661e-05
-2.79473e-05
2.80814e-06
-0.000175035
-0.000158619
7.9716e-06
-0.000158012
-8.60354e-05
-1.24116e-05
5.40075e-05
-0.000339311
-6.98206e-06
0.000224426
-8.80353e-05
-0.00029917
-9.98921e-06
-5.69482e-05
-0.000372359
4.58089e-06
-0.000267925
-0.000177427
-2.48797e-06
5.50962e-06
-0.000139457
-4.13605e-07
-3.95438e-05
0.000128654
1.05905e-05
3.04535e-05
-0.000137653
7.87345e-05
3.12129e-06
1.11606e-05
0.000123399
-9.69919e-07
-0.00020517
8.36247e-05
6.2922e-06
-3.7144e-05
1.76302e-05
5.67453e-06
-0.000106351
-4.65372e-06
-0.000106843
-0.000209752
-1.36569e-06
-4.40836e-06
1.49795e-05
3.12602e-06
1.29419e-06
-8.07542e-06
-1.78804e-06
2.38745e-06
-8.64141e-06
8.85051e-06
-3.51653e-06
-7.90833e-07
6.71218e-06
2.15424e-06
8.72331e-06
-7.60128e-06
-1.32395e-05
-1.29001e-06
1.40565e-05
-2.22084e-06
4.53126e-07
9.52848e-06
-1.67439e-05
-5.33609e-06
2.89455e-05
-1.60435e-05
-1.28027e-05
5.56012e-06
1.01996e-06
-3.71018e-07
-2.01533e-05
8.37484e-06
-8.07423e-06
-2.45836e-06
5.04463e-07
1.27807e-06
-8.76412e-06
1.40744e-05
-2.86494e-06
7.81572e-07
-1.73137e-05
-3.16263e-06
1.10756e-06
4.30055e-06
-8.23576e-06
3.91734e-06
2.59922e-06
-1.045e-07
4.09725e-07
4.03318e-06
4.36136e-06
3.48465e-06
3.43439e-07
9.33848e-06
-1.10583e-05
-2.20265e-06
1.73861e-05
-9.63976e-06
-9.81157e-08
6.6979e-06
-5.20664e-06
-2.68974e-07
-5.97099e-07
-8.16734e-06
2.87597e-06
3.08355e-06
7.92129e-06
-1.50676e-06
1.48128e-07
-3.62223e-06
-4.35236e-07
-1.25269e-06
-4.13878e-06
-2.67862e-06
8.86497e-07
-9.82099e-07
-1.48307e-06
-4.44838e-06
3.82812e-06
4.72502e-06
5.50071e-06
-1.75326e-06
6.2158e-06
1.22213e-06
4.13189e-07
4.93861e-06
3.16508e-06
8.2165e-06
1.29345e-05
1.07401e-05
8.20973e-06
2.8098e-06
4.68138e-06
-4.00627e-06
-9.14934e-06
-3.42689e-06
4.63751e-06
-2.22429e-06
2.2374e-07
-1.92191e-06
3.27511e-06
6.46931e-06
3.25699e-06
-1.00256e-06
-8.2309e-06
-3.48431e-07
-1.59337e-06
1.85379e-06
1.68745e-06
-3.59752e-06
1.18535e-06
3.36607e-06
6.30413e-08
-2.10091e-06
2.95051e-06
-5.37315e-06
4.68473e-07
4.32727e-06
2.78431e-06
4.80408e-06
8.75464e-06
2.76428e-06
4.68058e-06
4.13641e-06
5.15735e-07
-5.43246e-07
2.91189e-06
5.12068e-06
2.1461e-06
2.30899e-06
2.16763e-06
1.9089e-08
5.68335e-07
-1.35056e-06
1.71186e-08
-9.7191e-07
-5.33426e-07
-2.0433e-06
2.50844e-07
-3.46589e-07
-1.82456e-06
-2.74848e-06
9.27273e-07
2.55987e-06
3.3308e-06
-1.35032e-06
2.16861e-06
9.29047e-08
3.6912e-09
2.06378e-06
1.28024e-06
4.53019e-06
3.74968e-06
6.12299e-06
4.69768e-06
6.85902e-07
2.49012e-06
-1.82759e-06
-2.35773e-06
-2.63135e-06
2.36926e-06
-1.09618e-06
3.63296e-07
-9.26021e-07
2.03715e-06
1.93847e-06
2.1454e-06
-1.00052e-06
-2.10856e-06
-4.95561e-07
-1.2681e-06
6.18659e-07
2.72749e-07
-2.03166e-06
2.46831e-07
1.60808e-06
9.39346e-08
-1.20247e-06
1.48132e-06
-3.0709e-06
-2.01525e-07
1.5511e-06
1.46978e-06
2.86227e-06
2.71849e-06
1.65026e-06
3.72615e-06
1.06727e-06
6.17348e-07
-4.29259e-07
2.42679e-06
3.46763e-06
-7.70628e-07
-1.38777e-06
1.87034e-06
-1.98304e-07
-3.03416e-07
1.10501e-06
1.58663e-07
-6.92108e-07
7.32277e-07
2.85573e-07
-8.3006e-08
8.68163e-07
-3.49914e-07
-1.77398e-06
8.85176e-07
-1.02956e-06
1.6464e-07
-7.16505e-07
5.54164e-07
-9.05971e-07
-2.40585e-07
3.66358e-08
8.97213e-07
6.41271e-07
-7.2788e-07
5.37395e-07
-6.98041e-08
1.82275e-07
5.59691e-07
1.32608e-07
1.03907e-06
-4.21201e-07
-7.56296e-08
-1.66161e-06
-9.64248e-07
-2.09142e-07
-6.30615e-07
-5.94707e-07
-6.25486e-07
-6.38539e-07
7.11507e-07
1.07979e-06
-2.54695e-07
-6.92729e-08
3.05308e-07
-9.00047e-08
-3.57989e-07
3.20861e-07
-2.09617e-07
-1.49463e-06
1.15033e-06
1.58707e-06
-6.75935e-07
4.38961e-07
2.53688e-07
1.17717e-06
2.28163e-06
2.36923e-06
2.07917e-06
1.43855e-06
-1.13198e-06
-4.32446e-07
1.29528e-06
-6.41532e-07
-1.75218e-07
7.79599e-07
1.08946e-06
-3.65004e-07
9.53679e-08
-4.37695e-07
6.30083e-07
-1.27944e-06
9.86625e-07
1.11777e-07
-4.48194e-07
-9.92375e-07
2.85687e-07
6.09196e-07
1.77095e-06
6.39842e-07
1.94544e-06
2.49812e-07
1.18818e-06
1.40107e-06
0.000210608
-0.000196023
2.76168e-06
3.97055e-05
8.33882e-06
0.000263089
2.95821e-06
0.000170034
-1.14753e-05
-1.49759e-05
-6.94415e-06
-0.000165593
-1.24648e-06
1.56766e-05
8.65828e-06
1.87123e-05
-4.23179e-06
-0.000148618
-3.04321e-06
2.05578e-05
3.12162e-05
0.000206791
2.49102e-06
0.000300118
-2.52464e-05
1.52115e-05
-6.28214e-06
-0.000226775
8.83979e-07
-0.000418191
-7.40248e-06
-0.000323406
6.63535e-06
-0.000184587
-5.75283e-06
-7.27894e-05
5.66577e-06
-1.94551e-05
1.18462e-05
-4.94368e-05
-8.65155e-06
2.69427e-05
-1.1178e-05
3.41292e-05
-1.88842e-06
6.58664e-05
1.43158e-05
0.000289369
9.12086e-06
0.000160254
8.7572e-06
8.11648e-05
1.53213e-05
-5.08975e-06
1.38677e-06
-1.79103e-05
2.92548e-07
1.35952e-06
-5.25707e-06
-6.86484e-07
1.27061e-05
8.34979e-06
-7.55829e-06
-9.94868e-07
8.11585e-06
-1.26908e-05
1.18716e-05
-1.40508e-05
-8.15866e-06
6.27968e-06
-1.21801e-05
3.37586e-06
-1.53013e-05
-1.10235e-05
9.21496e-06
6.6903e-07
2.9044e-06
1.74916e-05
-2.99105e-05
1.20739e-05
-1.86525e-05
-8.69595e-07
1.53889e-05
-6.26841e-06
5.5465e-06
-7.85098e-07
-1.93025e-05
-1.0463e-06
7.49115e-06
-7.69403e-06
-1.39738e-06
-3.4464e-06
-4.97018e-07
4.92979e-06
-3.22988e-06
-8.29548e-07
-3.25457e-06
5.50198e-06
-1.5574e-05
-1.44868e-06
5.68372e-06
-7.09579e-06
2.31273e-05
1.2237e-06
-9.22955e-06
4.03797e-06
-6.08143e-06
8.0476e-06
6.40477e-06
9.08924e-06
-1.44331e-05
-1.35617e-05
-3.64835e-06
4.51044e-06
-3.21572e-06
1.81246e-06
5.68322e-06
-1.9669e-06
-4.22037e-06
-3.41131e-07
3.79893e-06
3.70804e-06
6.32595e-06
3.3836e-06
-3.11936e-06
-2.22298e-06
-6.57634e-06
-4.39666e-06
-7.63271e-06
1.26423e-06
4.77412e-06
5.28369e-06
2.04876e-06
-5.7519e-07
-1.33107e-05
-6.00718e-06
-8.5366e-06
-1.48043e-06
7.43688e-06
2.18563e-06
1.88162e-06
-4.34003e-06
-8.13251e-06
-1.50909e-06
2.7473e-06
1.58728e-06
-1.22781e-06
1.04529e-06
-2.96515e-07
7.43602e-07
-1.26101e-06
2.10602e-06
-1.25288e-06
-7.46097e-06
-6.00651e-06
-3.57278e-06
1.84164e-06
4.1481e-06
1.00292e-05
1.6752e-06
-3.97788e-06
5.8343e-07
-2.23458e-06
4.58522e-06
2.91721e-06
2.34117e-06
-7.08028e-06
-6.70704e-06
-2.42265e-06
2.74061e-06
-1.15504e-06
1.04559e-06
2.21248e-06
-1.5195e-06
-1.65031e-06
-6.35231e-07
8.62954e-07
2.62544e-06
1.23416e-06
2.86699e-06
-8.07667e-07
-1.73254e-06
-1.98383e-06
-3.60768e-06
-2.43809e-06
2.10969e-07
1.05161e-06
3.58067e-06
-3.22357e-08
-4.74097e-07
-3.12927e-06
-3.71992e-06
-2.79122e-06
-3.31471e-07
1.42991e-06
1.37958e-06
1.70663e-07
-1.79565e-06
-2.57261e-06
-7.36355e-07
7.74753e-07
4.60721e-07
-2.61591e-07
-3.36113e-08
-2.75181e-07
-1.07829e-07
-9.09031e-07
7.11185e-07
-4.59648e-07
-3.29684e-06
-1.99717e-06
-1.75082e-06
3.89999e-07
2.41381e-06
2.79772e-06
8.35707e-07
-9.27691e-07
5.71344e-07
-3.29278e-07
3.36439e-06
7.29072e-07
1.85944e-06
-2.16679e-06
-2.10987e-06
-1.20209e-06
1.21691e-06
7.39702e-07
-6.14996e-07
-1.15911e-07
9.04903e-07
1.24689e-06
-7.36642e-07
-1.59263e-06
-9.83296e-08
1.05458e-06
2.9833e-07
-1.05065e-06
-4.4054e-08
1.28279e-07
-1.13893e-06
-5.31205e-07
3.04498e-07
1.3863e-07
-1.34246e-07
3.89858e-07
-1.60649e-06
-1.09313e-06
7.14456e-07
3.94742e-07
6.98997e-07
1.67771e-06
8.94985e-07
0.000158246
3.48105e-05
-1.77053e-05
-8.25639e-05
6.83078e-06
0.00039881
6.29713e-06
1.96089e-06
2.9745e-06
3.71569e-06
-3.98358e-06
2.40913e-06
)
;

boundaryField
{
    top_fluid_surface
    {
        type            calculated;
        value           nonuniform List<scalar> 
64
(
-0.000151412
-0.000264061
-0.000305329
6.1556e-05
0.000108501
-1.87823e-05
-4.37087e-05
-0.000111282
-0.000437595
-0.000360449
3.39939e-05
-4.10573e-05
0.000390901
3.24516e-05
-0.000234597
-8.65677e-05
0.000157099
0.000357017
0.000264615
0.000526318
0.000118277
0.000123837
5.5781e-05
0.000235379
-0.000229763
4.48421e-05
-0.000173935
6.5637e-05
9.46014e-05
0.000115337
0.000132878
0.000207012
-0.000121966
0.000321151
-0.000258882
0.000430195
0.00043609
0.000188541
-0.000189067
-9.84375e-05
0.000249942
-0.000378661
-0.000349143
-1.33457e-05
0.000510994
0.000241709
0.000112261
-0.000162308
-0.000400922
-0.000118222
-0.00011719
8.93131e-06
-6.53041e-05
-0.000210277
-3.38861e-05
-0.000441084
8.15363e-05
-3.86951e-05
-0.000129153
-0.000178556
-0.000229153
-2.94741e-05
-9.96805e-05
0.000155656
)
;
    }
    bottom_fluid_surface
    {
        type            calculated;
        value           uniform 0;
    }
    lateral_surface_1
    {
        type            calculated;
        value           uniform 0;
    }
    lateral_surface_2
    {
        type            calculated;
        value           uniform 0;
    }
    lateral_surface_3
    {
        type            calculated;
        value           uniform 0;
    }
    lateral_surface_4
    {
        type            calculated;
        value           uniform 0;
    }
}


// ************************************************************************* //
