/*--------------------------------*- C++ -*----------------------------------*\
| =========                 |                                                 |
| \\      /  F ield         | OpenFOAM: The Open Source CFD Toolbox           |
|  \\    /   O peration     | Version:  v1612+                                |
|   \\  /    A nd           | Web:      www.OpenFOAM.com                      |
|    \\/     M anipulation  |                                                 |
\*---------------------------------------------------------------------------*/
FoamFile
{
    version     2.0;
    format      ascii;
    class       volScalarField;
    location    "3.3";
    object      alpha.water;
}
// * * * * * * * * * * * * * * * * * * * * * * * * * * * * * * * * * * * * * //

dimensions      [0 0 0 0 0 0 0];

internalField   nonuniform List<scalar> 
320
(
1
1
1
1
8.19202e-06
8.37467e-06
8.41653e-06
8.65962e-06
8.30031e-06
9.5301e-06
8.70987e-06
8.02774e-06
1.03642e-05
9.78832e-06
8.37211e-06
9.06941e-06
0.999987
0.99999
0.999992
0.99999
0.999995
0.99999
0.999993
0.999992
0.999988
0.999987
0.999995
0.99999
1
1
1
1
1
1
1
1
1
1
1
1
1
1
1
1
1
1
1
1
1
1
1
1
1
1
1
1
7.23643e-06
9.36723e-06
7.69279e-06
8.00711e-06
7.28669e-06
6.69375e-06
8.10772e-06
6.18084e-06
7.66962e-06
7.22431e-06
7.56573e-06
7.88822e-06
9.82339e-06
7.83532e-06
8.51981e-06
8.86648e-06
8.13603e-06
8.32855e-06
8.77764e-06
7.68132e-06
0.999995
0.999988
0.999989
0.999987
0.999993
0.999997
0.999994
0.999999
0.999988
0.999989
0.999992
0.999997
0.999988
0.999995
0.999994
0.999995
0.999995
0.999994
0.999991
0.999994
1
1
1
1
1
1
1
1
1
1
1
1
1
1
1
1
1
1
1
1
1
1
1
1
1
1
1
1
1
1
1
1
1
1
1
1
1
1
1
1
1
1
1
1
1
1
1
1
1
1
1
1
1
1
1
1
1
1
1
1
1
1
1
1
1
1
1
1
1
1
1
1
1
1
1
1
8.3931e-06
7.77736e-06
9.29379e-06
6.37195e-06
7.3438e-06
8.43973e-06
9.13378e-06
8.08608e-06
8.11472e-06
1.15185e-05
9.79104e-06
6.63809e-06
6.35048e-06
7.29499e-06
8.5758e-06
8.53331e-06
8.89228e-06
8.67725e-06
1.04191e-05
8.64152e-06
9.5941e-06
7.95198e-06
8.90729e-06
1.154e-05
9.11257e-06
8.71442e-06
7.6134e-06
6.9763e-06
0.999989
0.999997
0.999988
0.999995
0.999992
0.999991
0.999989
0.999988
0.999994
0.999993
0.999986
0.999986
0.999992
0.999993
0.999987
0.999994
0.999988
0.999993
0.999991
0.99999
0.999984
0.999993
0.999997
0.999989
0.999993
0.999995
0.99999
0.999988
1
1
1
1
1
1
1
1
1
1
1
1
1
1
1
1
1
1
1
1
1
1
1
1
1
1
1
1
1
1
1
1
1
1
1
1
1
1
1
1
1
1
1
1
1
1
1
1
1
1
1
1
1
1
1
1
1
1
1
1
1
1
1
1
1
1
1
1
1
1
1
1
1
1
1
1
1
1
1
1
1
1
1
1
8.74525e-06
7.40144e-06
8.24256e-06
8.53092e-06
0.999986
0.999994
0.999997
0.999996
)
;

boundaryField
{
    top_fluid_surface
    {
        type            inletOutlet;
        inletValue      uniform 0;
        value           nonuniform List<scalar> 
64
(
0
8.37467e-06
0
0
0
0
0
8.02774e-06
0
0
8.37211e-06
9.06941e-06
7.23643e-06
9.36723e-06
7.69279e-06
8.00711e-06
7.28669e-06
6.69375e-06
0
6.18084e-06
7.66962e-06
7.22431e-06
7.56573e-06
7.88822e-06
0
7.83532e-06
8.51981e-06
0
8.13603e-06
0
0
7.68132e-06
8.3931e-06
7.77736e-06
0
6.37195e-06
7.3438e-06
0
0
8.08608e-06
0
0
0
6.63809e-06
6.35048e-06
7.29499e-06
0
8.53331e-06
8.89228e-06
0
0
0
9.5941e-06
7.95198e-06
8.90729e-06
0
0
0
7.6134e-06
6.9763e-06
0
7.40144e-06
8.24256e-06
0
)
;
    }
    bottom_fluid_surface
    {
        type            zeroGradient;
    }
    lateral_surface_1
    {
        type            zeroGradient;
    }
    lateral_surface_2
    {
        type            zeroGradient;
    }
    lateral_surface_3
    {
        type            zeroGradient;
    }
    lateral_surface_4
    {
        type            zeroGradient;
    }
}


// ************************************************************************* //
