/*--------------------------------*- C++ -*----------------------------------*\
| =========                 |                                                 |
| \\      /  F ield         | OpenFOAM: The Open Source CFD Toolbox           |
|  \\    /   O peration     | Version:  v1612+                                |
|   \\  /    A nd           | Web:      www.OpenFOAM.com                      |
|    \\/     M anipulation  |                                                 |
\*---------------------------------------------------------------------------*/
FoamFile
{
    version     2.0;
    format      ascii;
    class       surfaceScalarField;
    location    "3.3";
    object      alphaPhi;
}
// * * * * * * * * * * * * * * * * * * * * * * * * * * * * * * * * * * * * * //

dimensions      [0 3 -1 0 0 0 0];

internalField   nonuniform List<scalar> 
816
(
-2.96121e-06
-2.98964e-06
3.41011e-06
-9.18527e-07
-1.53416e-06
4.99886e-06
-1.97899e-06
4.12048e-06
-1.71288e-06
2.98235e-06
-6.35915e-06
-3.02032e-06
3.45664e-06
2.18235e-06
3.44365e-06
-9.06636e-06
-2.1219e-06
2.02161e-06
2.72665e-06
-7.60115e-06
7.87329e-10
-8.52989e-10
1.64358e-06
7.48673e-10
-7.2663e-10
4.49784e-10
-9.82028e-06
1.69508e-09
-1.51412e-09
-5.85245e-10
4.07442e-05
1.02855e-09
5.65407e-10
2.25511e-11
1.71025e-06
-1.01076e-09
1.03248e-09
1.71783e-10
3.53694e-06
1.31201e-09
-1.19564e-09
-5.11257e-10
4.43747e-07
1.93601e-09
1.36541e-09
-7.91262e-10
3.52012e-06
-2.31988e-10
1.59153e-09
-1.61383e-09
2.78766e-12
-8.5223e-10
5.11905e-10
1.62685e-09
-9.39014e-06
-2.98164e-11
4.48611e-10
3.1495e-09
-9.87363e-06
-1.31179e-09
2.12312e-09
2.76528e-09
-7.99194e-06
-4.82133e-10
7.59488e-10
-0.000110873
2.51467e-09
-7.47543e-10
1.0016e-05
-2.5658e-07
-1.50569e-05
1.43969e-06
1.06528e-05
6.90758e-06
-2.06379e-05
1.28274e-06
2.57161e-06
-2.15366e-06
-8.79495e-06
-2.52221e-06
-2.93878e-07
-4.05182e-06
6.24909e-06
-4.56269e-06
6.96018e-06
-1.33401e-06
1.21926e-05
-1.61305e-06
2.28202e-06
1.62257e-06
-7.87742e-06
-3.43221e-07
7.33263e-06
2.17983e-06
2.89387e-06
2.19909e-06
7.41302e-06
1.75173e-07
1.73838e-06
-7.086e-06
5.30955e-06
3.84515e-06
-1.99663e-05
-9.82487e-08
6.48062e-06
3.78977e-06
-9.87275e-06
-3.20506e-06
6.68297e-06
9.2211e-07
-1.79364e-06
-3.5345e-06
3.20122e-06
1.42142e-05
7.30957e-06
2.80067e-06
1.57681e-06
-6.84797e-06
-7.08719e-06
7.30412e-07
-4.66089e-06
-9.11833e-06
-1.18896e-06
-2.34676e-06
-4.15696e-06
-1.47946e-06
-5.47288e-06
-3.96855e-07
2.88826e-06
-2.90244e-07
3.11301e-06
4.93142e-06
1.64837e-06
6.68802e-07
-4.50944e-06
-1.21068e-06
2.99989e-07
2.8011e-06
1.43711e-06
1.35904e-06
2.85293e-06
1.04096e-06
4.09174e-06
-1.94535e-06
-9.58869e-06
-1.56159e-06
-4.02886e-06
-5.58394e-06
-4.15341e-06
1.74398e-08
-4.72901e-06
-1.39405e-06
-2.17073e-06
6.60294e-06
-2.60714e-06
-1.31152e-06
-1.85305e-06
-1.36808e-06
1.8638e-06
2.15256e-08
-2.05217e-07
-8.98105e-07
2.03276e-06
-9.9793e-07
9.71387e-07
-1.57704e-06
1.90421e-06
1.05416e-06
7.08993e-07
-1.7188e-06
8.66304e-07
1.09671e-06
9.20908e-07
-4.06766e-06
1.79599e-07
-2.25202e-06
-2.77858e-06
-9.7267e-07
-2.40709e-06
-1.14834e-06
-1.51005e-06
-3.21388e-06
-1.06391e-06
7.7638e-08
-4.46356e-10
6.74939e-07
1.70701e-06
2.72404e-07
1.31777e-06
7.21229e-07
-2.15788e-06
-1.56927e-07
-1.20793e-06
1.90379e-06
6.64525e-07
4.74303e-07
2.11072e-06
2.76457e-06
-1.8013e-08
-1.10754e-06
-9.99769e-07
-2.46518e-06
-2.91739e-06
-3.19074e-06
8.62626e-08
-1.10644e-06
-3.24347e-06
-8.74089e-07
-4.3703e-07
-1.67661e-06
-8.07152e-07
1.80651e-06
-2.68536e-10
-5.75535e-11
1.51466e-10
8.30578e-10
2.13116e-10
-0.000127346
6.51629e-11
-4.50286e-10
-4.99628e-06
1.11397e-09
-3.82653e-10
-6.8126e-07
5.14543e-10
-2.85474e-10
-2.62091e-06
-6.70543e-10
-9.88977e-10
-1.19437e-09
-2.00387e-06
-1.09424e-09
-2.74165e-11
3.36036e-06
-2.95902e-09
-6.31215e-10
2.82316e-11
-1.52647e-09
-4.37227e-10
1.72697e-06
8.25998e-10
-1.62114e-09
8.7675e-08
1.0706e-09
-1.04825e-09
-1.68959e-09
-2.38993e-06
2.21155e-10
-2.34876e-09
1.00045e-06
-8.95334e-10
-4.75257e-10
-7.14842e-07
1.31122e-10
-6.84031e-11
-5.48473e-06
-2.00684e-09
-2.25605e-10
-7.07954e-06
4.49692e-11
-2.09841e-10
5.05381e-10
-3.10705e-07
3.20452e-10
8.8889e-10
-5.19875e-06
-2.77937e-09
1.37352e-09
4.08368e-06
-9.45214e-10
1.94729e-09
5.69955e-06
-2.78064e-10
-5.08845e-07
7.24675e-10
-5.15926e-11
5.88747e-08
-2.6069e-06
1.93827e-05
5.73563e-06
4.36121e-06
-2.93354e-06
6.14529e-06
-9.37172e-08
-8.49776e-06
1.49193e-06
-3.93064e-06
2.86209e-06
-3.36879e-06
2.33184e-06
7.81776e-06
-1.08511e-05
-1.09669e-05
-2.69817e-06
1.04642e-05
-8.12295e-06
-1.33507e-06
1.19156e-05
-4.80965e-06
-1.13578e-05
2.51412e-05
-1.30411e-05
-1.09543e-05
1.37019e-05
-4.16181e-06
5.02805e-06
-1.43523e-05
5.53883e-06
-7.37989e-06
2.70728e-06
1.57647e-06
5.6101e-06
-4.85277e-06
1.1227e-05
2.30794e-06
7.88264e-07
-1.6829e-05
-3.12366e-07
1.81869e-06
2.18344e-06
-6.86425e-06
3.26787e-06
-1.66647e-06
-8.44625e-06
6.34771e-07
1.74025e-06
9.23212e-07
9.46158e-06
-3.95603e-06
7.32922e-06
-5.19392e-06
-3.93858e-06
2.07674e-05
-6.22865e-06
1.52573e-06
1.31144e-05
3.36684e-06
-1.1177e-06
3.55568e-06
-3.75553e-06
2.38203e-06
4.88699e-06
9.12163e-06
4.12869e-07
7.06082e-07
-1.6767e-06
1.15402e-06
-2.2175e-06
-3.36418e-06
-3.38247e-06
7.79458e-07
2.1797e-06
-3.82038e-06
-3.5264e-06
4.1135e-06
2.77447e-06
5.21579e-06
-2.58582e-06
4.82634e-06
-7.47832e-07
-5.25702e-07
5.48285e-06
4.11594e-06
5.60145e-06
1.11221e-05
9.53869e-06
7.36375e-06
7.10629e-06
3.66811e-06
-5.85685e-07
-5.65424e-06
-4.39783e-06
3.63975e-06
2.99135e-07
1.09315e-06
-1.25424e-07
4.41289e-06
4.80213e-06
3.67715e-06
-2.48665e-07
-8.16927e-06
9.09342e-08
-1.04092e-06
1.06725e-06
3.41334e-07
-2.97684e-06
-7.95083e-07
7.98036e-07
2.44002e-07
-3.42448e-06
4.92293e-07
-3.19465e-06
-2.63814e-06
3.56862e-06
2.96062e-06
3.24635e-06
9.19984e-06
3.52629e-06
5.80723e-06
6.06452e-06
3.18699e-06
-7.29056e-07
3.92e-06
6.39011e-06
1.28807e-06
2.85929e-06
2.74384e-06
5.75102e-07
9.35002e-08
-6.4055e-07
3.64657e-07
-1.88959e-06
-2.07547e-07
-2.15593e-06
5.87489e-07
4.82116e-07
-2.26134e-06
-1.70461e-06
1.15493e-06
1.94712e-06
3.32568e-06
-1.34728e-06
1.6311e-06
-3.60666e-07
-6.32164e-07
2.27443e-06
2.5149e-06
2.49949e-06
3.30085e-06
4.97466e-06
4.23774e-06
2.13425e-06
1.11087e-06
4.78888e-07
-1.11776e-06
-3.05773e-06
2.28948e-06
7.25275e-07
5.1014e-07
1.91977e-07
2.91609e-06
1.35218e-06
1.9202e-06
-4.38074e-07
-2.33631e-06
2.53737e-07
-8.89488e-07
2.23784e-07
2.62635e-07
-1.32959e-06
-3.02752e-07
-1.30835e-08
-8.20833e-08
-1.91917e-06
4.51635e-07
-1.86586e-06
-1.65313e-06
1.27218e-06
2.10249e-06
1.48561e-06
2.77333e-06
2.42146e-06
3.07694e-06
1.71196e-06
1.96746e-06
-2.8887e-07
2.0667e-06
3.43567e-06
-1.05416e-06
-3.84924e-07
9.94583e-07
2.36141e-07
-7.25719e-08
6.13535e-07
-6.0197e-07
-1.09434e-06
9.47524e-07
4.81608e-07
-8.68595e-07
8.1984e-07
2.92604e-08
-1.6105e-06
3.3904e-07
-1.24897e-06
-4.90917e-07
-5.85528e-07
-3.14392e-07
-1.40608e-06
-1.14049e-08
-4.72241e-07
6.89391e-07
-2.28297e-07
5.9351e-07
-1.06549e-06
-3.42648e-08
1.28309e-06
6.2129e-07
1.06072e-06
1.16737e-06
-9.49517e-07
-1.6669e-08
-9.1805e-07
-1.55448e-06
-1.34805e-08
-1.45228e-06
-2.93027e-07
-9.60126e-07
-2.74602e-07
2.84956e-07
1.4988e-06
8.15928e-09
-4.14214e-07
4.09328e-07
-6.12289e-07
-5.01349e-07
1.89595e-07
-6.27147e-07
-9.58624e-07
8.67652e-07
1.44853e-06
-7.17278e-07
7.38677e-09
-1.09004e-08
1.11824e-06
1.34783e-06
1.7351e-06
1.81337e-06
6.3219e-07
4.71491e-07
-1.00581e-06
1.23299e-06
6.8663e-07
2.74934e-07
1.61649e-06
1.04893e-06
1.23491e-07
3.10511e-07
-1.46952e-07
4.40271e-07
-1.0212e-06
3.58308e-07
1.57271e-07
-1.07293e-06
-4.61564e-07
-7.02856e-07
9.10525e-07
8.21784e-07
9.79672e-07
1.46773e-06
8.08343e-07
1.05343e-06
1.62227e-06
-1.58536e-10
7.25527e-10
-4.9459e-06
-2.2012e-10
-8.91115e-07
1.21175e-09
-5.65634e-06
-7.70745e-10
1.272e-11
-1.29558e-09
6.72897e-06
-1.30646e-09
3.48171e-06
2.62042e-10
-3.69471e-06
-8.65403e-10
-3.21795e-06
-2.22722e-09
3.08614e-06
1.99809e-09
-8.68869e-08
2.92298e-09
-3.99098e-06
1.26167e-09
6.38752e-08
4.10769e-11
8.80321e-11
-1.5217e-09
-3.02893e-06
-1.56615e-09
2.69816e-06
-1.32957e-09
-4.90551e-06
-1.80193e-09
-1.1552e-05
-1.58991e-09
-2.52905e-07
5.57525e-10
-3.66683e-06
4.46797e-10
-3.91961e-06
4.75657e-10
-0.000120129
-8.72996e-10
-2.04848e-05
-9.00341e-10
-4.70684e-06
3.13022e-09
-2.22214e-07
2.97013e-09
1.80324e-06
2.99119e-09
-1.92347e-06
1.44562e-09
-6.51004e-06
-4.64595e-06
2.70475e-06
-4.63461e-06
-7.78896e-06
-1.06983e-06
8.74388e-06
-1.29909e-07
-1.09627e-05
-6.48433e-06
7.96659e-06
-7.63938e-06
1.8918e-05
-3.37413e-06
-3.21292e-06
2.34353e-06
-1.51873e-05
3.25275e-06
-1.38349e-05
-1.80657e-06
1.22713e-05
-4.4578e-06
-3.24838e-06
3.50337e-06
-2.91216e-05
8.65548e-06
-1.04893e-05
4.46273e-06
1.99616e-05
-5.37731e-06
4.48148e-06
8.8267e-06
-1.12744e-05
3.93524e-06
7.03132e-07
-1.05261e-05
-5.16652e-06
-6.89639e-06
-3.56487e-06
-2.44406e-06
-3.86351e-06
-3.79478e-06
2.76038e-06
1.54024e-05
-6.8975e-06
5.30116e-06
2.44679e-06
-8.75203e-06
1.19704e-05
-2.95462e-06
-1.07603e-05
2.59078e-06
-5.55452e-06
1.77058e-06
-3.03953e-07
1.02742e-06
-1.52947e-05
-8.74404e-06
-3.8382e-06
3.52689e-06
-3.54879e-06
1.61162e-06
3.7336e-06
-3.21138e-06
-5.00076e-06
-2.38071e-06
3.75185e-06
4.06636e-06
8.66314e-06
5.47907e-06
-1.80727e-06
-2.55238e-06
-7.16649e-06
-4.92e-06
-6.22929e-06
1.69051e-06
4.93691e-06
4.68461e-06
-2.07362e-06
-2.58302e-06
-1.23155e-05
-6.07833e-06
-3.31335e-06
4.23348e-08
9.48055e-06
2.48217e-06
2.02058e-06
-2.36897e-07
-4.90249e-06
6.2343e-07
-2.44831e-07
1.37274e-06
-2.24111e-06
3.80651e-07
-2.49736e-06
-5.82571e-07
-2.56044e-06
1.49728e-06
1.39915e-06
-3.48841e-06
-1.92485e-06
-1.8761e-06
1.07992e-06
1.96371e-06
4.92649e-06
-2.9221e-07
-5.52546e-06
5.83177e-07
-2.87652e-06
3.86306e-06
-3.04672e-07
1.25845e-06
-6.29053e-06
-3.96679e-06
-2.01611e-06
1.76874e-06
-1.22589e-06
6.47189e-07
1.67631e-06
-2.17129e-06
-1.84409e-06
-1.39718e-06
8.17504e-07
2.88815e-06
2.12393e-06
3.32903e-06
-2.84165e-07
-1.63132e-06
-2.16621e-06
-2.58207e-06
-1.93336e-06
8.30784e-07
1.16305e-06
1.73295e-06
-4.76787e-07
-2.65637e-06
-2.94568e-06
-3.61493e-06
-1.23501e-06
4.00774e-07
2.4167e-06
1.92555e-06
4.84101e-07
7.13182e-07
-1.38163e-06
8.80402e-07
-2.09834e-07
1.2178e-06
-6.53514e-07
-5.37601e-08
-9.9016e-07
-1.29536e-06
-1.02507e-06
-4.14509e-08
1.54052e-07
-1.05612e-06
-9.23922e-07
-1.90909e-07
2.63367e-08
1.81632e-06
1.05879e-06
-1.79015e-07
-1.43871e-06
-1.78389e-07
-4.42087e-07
1.41266e-06
2.36139e-08
5.94073e-07
-2.01507e-06
-1.60916e-06
-1.27165e-06
1.09626e-06
4.43348e-07
-9.93501e-07
-6.80354e-07
8.17195e-07
1.40058e-06
-7.53923e-07
-1.22134e-06
-3.60206e-08
6.2123e-07
-5.90175e-07
-1.18748e-06
2.45321e-07
7.25114e-07
5.83938e-07
6.59959e-07
1.05333e-06
3.35549e-07
-2.90588e-07
2.11647e-07
-7.24117e-07
-5.79532e-07
2.08241e-08
-5.02156e-07
4.67959e-08
8.93007e-07
5.20319e-07
6.28467e-10
-3.01832e-10
-4.18038e-06
-2.21151e-09
-4.83174e-06
1.61373e-09
-7.42577e-06
1.48772e-06
4.26571e-06
6.61596e-06
-8.00189e-06
-3.10962e-07
)
;

boundaryField
{
    top_fluid_surface
    {
        type            calculated;
        value           nonuniform List<scalar> 
64
(
0
7.11893e-10
0
0
0
0
0
5.04312e-10
0
0
4.5787e-10
1.16427e-10
1.23562e-09
8.79038e-11
1.24498e-09
2.32143e-10
1.51191e-09
1.98688e-09
0
2.35787e-09
3.52239e-10
8.94909e-10
9.47301e-10
5.304e-10
0
1.07624e-09
4.26941e-10
0
5.99132e-10
0
0
9.6188e-10
4.63215e-10
8.72929e-10
0
2.35753e-09
5.21191e-10
0
0
8.7948e-11
0
0
0
1.65946e-09
2.06874e-09
1.44529e-09
0
9.94384e-11
6.61504e-11
0
0
0
2.79654e-10
2.03681e-09
3.65934e-11
0
0
0
1.38417e-09
1.95148e-09
0
2.09596e-09
1.12937e-09
0
)
;
    }
    bottom_fluid_surface
    {
        type            calculated;
        value           uniform 0;
    }
    lateral_surface_1
    {
        type            calculated;
        value           uniform 0;
    }
    lateral_surface_2
    {
        type            calculated;
        value           uniform 0;
    }
    lateral_surface_3
    {
        type            calculated;
        value           uniform 0;
    }
    lateral_surface_4
    {
        type            calculated;
        value           uniform 0;
    }
}


// ************************************************************************* //
