/*--------------------------------*- C++ -*----------------------------------*\
| =========                 |                                                 |
| \\      /  F ield         | OpenFOAM: The Open Source CFD Toolbox           |
|  \\    /   O peration     | Version:  v1612+                                |
|   \\  /    A nd           | Web:      www.OpenFOAM.com                      |
|    \\/     M anipulation  |                                                 |
\*---------------------------------------------------------------------------*/
FoamFile
{
    version     2.0;
    format      ascii;
    class       volScalarField;
    location    "3.3";
    object      p;
}
// * * * * * * * * * * * * * * * * * * * * * * * * * * * * * * * * * * * * * //

dimensions      [1 -1 -2 0 0 0 0];

internalField   nonuniform List<scalar> 
320
(
14724.8
14724.8
14724.8
14724.8
4.94604
4.94717
4.94838
4.9455
4.94532
4.94535
4.94564
4.94603
4.94681
4.9466
4.94536
4.94497
4914.83
4914.81
4914.89
4914.85
4914.87
4914.86
4914.86
4914.81
4914.86
4914.85
4914.83
4914.78
14724.8
14724.8
14724.8
14724.8
14724.8
14724.8
14724.8
14724.8
14724.8
14724.8
14724.8
14724.8
24534.8
24534.8
24534.8
24534.8
24534.8
24534.8
24534.8
24534.8
24534.8
24534.8
24534.8
24534.8
24534.8
24534.8
24534.8
24534.8
4.94603
4.94534
4.94643
4.94521
4.94494
4.94435
4.9448
4.94462
4.9445
4.94439
4.94495
4.94587
4.94667
4.94634
4.94683
4.94663
4.94576
4.94615
4.94647
4.94621
4914.82
4914.77
4914.79
4914.79
4914.81
4914.82
4914.86
4914.82
4914.79
4914.79
4914.81
4914.84
4914.85
4914.82
4914.83
4914.87
4914.83
4914.86
4914.86
4914.82
14724.8
14724.8
14724.8
14724.8
14724.8
14724.8
14724.8
14724.8
14724.8
14724.8
14724.8
14724.8
14724.8
14724.8
14724.8
14724.8
14724.8
14724.8
14724.8
14724.8
24534.8
24534.8
24534.8
24534.8
24534.8
24534.8
24534.8
24534.8
24534.8
24534.8
24534.8
24534.8
24534.8
24534.8
24534.8
24534.8
24534.8
24534.8
24534.8
24534.8
34344.8
34344.8
34344.8
34344.8
34344.8
34344.8
34344.8
34344.8
34344.8
34344.8
34344.8
34344.8
34344.8
34344.8
34344.8
34344.8
34344.8
34344.8
34344.8
34344.8
34344.8
34344.8
34344.8
34344.8
34344.8
34344.8
34344.8
34344.8
34344.8
34344.8
34344.8
34344.8
34344.8
34344.8
34344.8
34344.8
4.94673
4.946
4.94733
4.94589
4.94528
4.94484
4.94536
4.94495
4.94399
4.94536
4.94519
4.9447
4.9444
4.94493
4.94507
4.94614
4.94658
4.94668
4.94619
4.94682
4.94484
4.94619
4.948
4.94708
4.94612
4.94642
4.94621
4.9462
4914.8
4914.84
4914.85
4914.8
4914.81
4914.85
4914.85
4914.8
4914.86
4914.9
4914.84
4914.77
4914.79
4914.81
4914.83
4914.83
4914.81
4914.86
4914.88
4914.84
4914.76
4914.81
4914.85
4914.88
4914.87
4914.87
4914.8
4914.78
14724.8
14724.8
14724.8
14724.8
14724.8
14724.8
14724.8
14724.8
14724.8
14724.8
14724.8
14724.8
14724.8
14724.8
14724.8
14724.8
14724.8
14724.8
14724.8
14724.8
14724.8
14724.8
14724.8
14724.8
14724.8
14724.8
14724.8
14724.8
24534.8
24534.8
24534.8
24534.8
24534.8
24534.8
24534.8
24534.8
24534.8
24534.8
24534.8
24534.8
24534.8
24534.8
24534.8
24534.8
24534.8
24534.8
24534.8
24534.8
24534.8
24534.8
24534.8
24534.8
24534.8
24534.8
24534.8
24534.8
34344.8
34344.8
34344.8
34344.8
34344.8
34344.8
34344.8
34344.8
34344.8
34344.8
34344.8
34344.8
34344.8
34344.8
34344.8
34344.8
34344.8
34344.8
34344.8
34344.8
34344.8
34344.8
34344.8
34344.8
34344.8
34344.8
34344.8
34344.8
4.94684
4.94639
4.94606
4.94604
4914.83
4914.81
4914.84
4914.87
)
;

boundaryField
{
    top_fluid_surface
    {
        type            calculated;
        value           nonuniform List<scalar> 
64
(
-9.45368e-11
0
-8.5272e-11
-1.03319e-09
-6.64809e-10
-1.01215e-08
-2.72529e-09
0
-1.32533e-08
-6.62534e-09
0
0
0
0
0
0
0
0
-2.79509e-10
0
0
0
0
0
-1.02773e-08
0
0
-6.98817e-10
0
-3.59143e-10
-2.8369e-09
0
0
0
-1.23574e-09
0
0
-2.4342e-09
-3.42577e-09
0
-4.5695e-10
-5.07384e-08
-1.36e-08
0
0
0
-3.18686e-09
-4.76695e-11
-3.92978e-12
-4.04735e-10
-2.09752e-08
-1.43217e-11
0
0
0
-4.73937e-08
-4.99539e-09
-1.43683e-10
0
0
-3.70882e-11
0
0
-2.81266e-10
)
;
    }
    bottom_fluid_surface
    {
        type            calculated;
        value           nonuniform List<scalar> 
64
(
39249.8
39249.8
39249.8
39249.8
39249.8
39249.8
39249.8
39249.8
39249.8
39249.8
39249.8
39249.8
39249.8
39249.8
39249.8
39249.8
39249.8
39249.8
39249.8
39249.8
39249.8
39249.8
39249.8
39249.8
39249.8
39249.8
39249.8
39249.8
39249.8
39249.8
39249.8
39249.8
39249.8
39249.8
39249.8
39249.8
39249.8
39249.8
39249.8
39249.8
39249.8
39249.8
39249.8
39249.8
39249.8
39249.8
39249.8
39249.8
39249.8
39249.8
39249.8
39249.8
39249.8
39249.8
39249.8
39249.8
39249.8
39249.8
39249.8
39249.8
39249.8
39249.8
39249.8
39249.8
)
;
    }
    lateral_surface_1
    {
        type            calculated;
        value           nonuniform List<scalar> 
40
(
4.94673
4.946
4.94733
4.94589
4.94528
4.94484
4.94536
4.9462
4914.8
4914.84
4914.85
4914.8
4914.81
4914.85
4914.85
4914.78
14724.8
14724.8
14724.8
14724.8
14724.8
14724.8
14724.8
14724.8
24534.8
24534.8
24534.8
24534.8
24534.8
24534.8
24534.8
24534.8
34344.8
34344.8
34344.8
34344.8
34344.8
34344.8
34344.8
34344.8
)
;
    }
    lateral_surface_2
    {
        type            calculated;
        value           nonuniform List<scalar> 
40
(
4.94493
4.94507
4.94614
4.94658
4.94668
4.94619
4.94682
4.94484
4914.81
4914.83
4914.83
4914.81
4914.86
4914.88
4914.84
4914.76
14724.8
14724.8
14724.8
14724.8
14724.8
14724.8
14724.8
14724.8
24534.8
24534.8
24534.8
24534.8
24534.8
24534.8
24534.8
24534.8
34344.8
34344.8
34344.8
34344.8
34344.8
34344.8
34344.8
34344.8
)
;
    }
    lateral_surface_3
    {
        type            calculated;
        value           nonuniform List<scalar> 
40
(
4.94536
4.94495
4.94399
4.94536
4.94519
4.9447
4.9444
4.94493
4914.85
4914.8
4914.86
4914.9
4914.84
4914.77
4914.79
4914.81
14724.8
14724.8
14724.8
14724.8
14724.8
14724.8
14724.8
14724.8
24534.8
24534.8
24534.8
24534.8
24534.8
24534.8
24534.8
24534.8
34344.8
34344.8
34344.8
34344.8
34344.8
34344.8
34344.8
34344.8
)
;
    }
    lateral_surface_4
    {
        type            calculated;
        value           nonuniform List<scalar> 
40
(
4.94484
4.94619
4.948
4.94708
4.94612
4.94642
4.94621
4.9462
4914.76
4914.81
4914.85
4914.88
4914.87
4914.87
4914.8
4914.78
14724.8
14724.8
14724.8
14724.8
14724.8
14724.8
14724.8
14724.8
24534.8
24534.8
24534.8
24534.8
24534.8
24534.8
24534.8
24534.8
34344.8
34344.8
34344.8
34344.8
34344.8
34344.8
34344.8
34344.8
)
;
    }
}


// ************************************************************************* //
