/*--------------------------------*- C++ -*----------------------------------*\
| =========                 |                                                 |
| \\      /  F ield         | OpenFOAM: The Open Source CFD Toolbox           |
|  \\    /   O peration     | Version:  v1612+                                |
|   \\  /    A nd           | Web:      www.OpenFOAM.com                      |
|    \\/     M anipulation  |                                                 |
\*---------------------------------------------------------------------------*/
FoamFile
{
    version     2.0;
    format      ascii;
    class       volScalarField;
    location    "3.3";
    object      p_rgh;
}
// * * * * * * * * * * * * * * * * * * * * * * * * * * * * * * * * * * * * * //

dimensions      [1 -1 -2 0 0 0 0];

internalField   nonuniform List<scalar> 
320
(
-9800.21
-9800.2
-9800.2
-9800.19
0.000899505
0.00112933
0.00214273
-0.00192957
-0.000349928
-0.0063508
-0.00203519
0.00169331
-0.00897648
-0.00636111
-0.000661712
-0.00447139
-9799.98
-9800.05
-9800
-9800.01
-9800.06
-9799.99
-9800.03
-9800.07
-9799.97
-9799.96
-9800.1
-9800.07
-9800.22
-9800.21
-9800.2
-9800.21
-9800.2
-9800.21
-9800.2
-9800.2
-9800.2
-9800.2
-9800.2
-9800.22
-9800.21
-9800.21
-9800.2
-9800.2
-9800.21
-9800.22
-9800.21
-9800.21
-9800.2
-9800.21
-9800.2
-9800.2
-9800.2
-9800.21
-9800.2
-9800.21
0.00556622
-0.00555836
0.00373603
0.000979202
0.00423164
0.00654963
7.39485e-05
0.00932929
0.0019173
0.00399261
0.0028759
0.00221678
-0.0064678
0.00294822
8.42878e-05
-0.00181899
0.000888511
0.000335022
-0.00154037
0.00356786
-9800.1
-9800.04
-9800.04
-9800.02
-9800.09
-9800.14
-9800.05
-9800.17
-9800.03
-9800.05
-9800.08
-9800.12
-9799.97
-9800.1
-9800.08
-9800.06
-9800.1
-9800.05
-9800.01
-9800.1
-9800.22
-9800.23
-9800.22
-9800.22
-9800.22
-9800.2
-9800.2
-9800.21
-9800.23
-9800.23
-9800.22
-9800.2
-9800.21
-9800.2
-9800.2
-9800.19
-9800.2
-9800.2
-9800.21
-9800.21
-9800.21
-9800.22
-9800.22
-9800.22
-9800.22
-9800.21
-9800.2
-9800.21
-9800.22
-9800.22
-9800.22
-9800.21
-9800.21
-9800.2
-9800.2
-9800.19
-9800.2
-9800.2
-9800.21
-9800.21
-9800.21
-9800.21
-9800.21
-9800.21
-9800.21
-9800.21
-9800.21
-9800.21
-9800.21
-9800.21
-9800.21
-9800.21
-9800.2
-9800.21
-9800.21
-9800.21
-9800.21
-9800.22
-9800.22
-9800.22
-9800.22
-9800.21
-9800.21
-9800.21
-9800.22
-9800.22
-9800.21
-9800.21
-9800.21
-9800.2
-9800.2
-9800.2
-9800.2
-9800.2
-9800.21
-9800.21
0.000603912
0.00288626
-0.00320726
0.00966376
0.00429848
-0.00151155
-0.0043953
0.000325104
-0.000769411
-0.016081
-0.00778333
0.00717251
0.00828285
0.00418788
-0.0019473
-0.000669383
-0.00199045
-0.000840791
-0.00986532
-0.000528833
-0.0071701
0.00222408
-0.000647144
-0.0144659
-0.00353292
-0.00128396
0.00390716
0.00701432
-9800.04
-9800.12
-9799.98
-9800.12
-9800.08
-9800.01
-9799.99
-9800.03
-9800.05
-9799.99
-9799.95
-9800.03
-9800.1
-9800.09
-9799.97
-9800.08
-9800.02
-9800.04
-9799.99
-9800
-9800.01
-9800.09
-9800.11
-9799.96
-9800.02
-9800.05
-9800.06
-9800.05
-9800.22
-9800.2
-9800.22
-9800.21
-9800.22
-9800.21
-9800.21
-9800.23
-9800.21
-9800.21
-9800.22
-9800.23
-9800.23
-9800.22
-9800.22
-9800.21
-9800.22
-9800.2
-9800.21
-9800.21
-9800.23
-9800.21
-9800.19
-9800.2
-9800.2
-9800.21
-9800.22
-9800.22
-9800.22
-9800.21
-9800.22
-9800.22
-9800.22
-9800.21
-9800.22
-9800.22
-9800.21
-9800.2
-9800.22
-9800.23
-9800.22
-9800.22
-9800.22
-9800.21
-9800.22
-9800.2
-9800.2
-9800.21
-9800.22
-9800.21
-9800.2
-9800.2
-9800.2
-9800.2
-9800.22
-9800.22
-9800.22
-9800.21
-9800.22
-9800.21
-9800.22
-9800.21
-9800.22
-9800.22
-9800.21
-9800.21
-9800.22
-9800.22
-9800.22
-9800.22
-9800.22
-9800.21
-9800.21
-9800.2
-9800.2
-9800.2
-9800.21
-9800.2
-9800.2
-9800.2
-9800.2
-9800.21
-9800.21
-9800.21
-0.00101107
0.00511888
0.000675037
-0.000762741
-9799.97
-9800.1
-9800.12
-9800.06
)
;

boundaryField
{
    top_fluid_surface
    {
        type            totalPressure;
        rho             rho;
        psi             none;
        gamma           1;
        p0              uniform 0;
        value           nonuniform List<scalar> 
64
(
-9.45368e-11
0
-8.5272e-11
-1.03319e-09
-6.64809e-10
-1.01215e-08
-2.72529e-09
0
-1.32533e-08
-6.62534e-09
0
0
0
0
0
0
0
0
-2.79509e-10
0
0
0
0
0
-1.02773e-08
0
0
-6.98817e-10
0
-3.59143e-10
-2.8369e-09
0
0
0
-1.23574e-09
0
0
-2.4342e-09
-3.42577e-09
0
-4.5695e-10
-5.07384e-08
-1.36e-08
0
0
0
-3.18686e-09
-4.76695e-11
-3.92978e-12
-4.04735e-10
-2.09752e-08
-1.43217e-11
0
0
0
-4.73937e-08
-4.99539e-09
-1.43683e-10
0
0
-3.70882e-11
0
0
-2.81266e-10
)
;
    }
    bottom_fluid_surface
    {
        type            fixedFluxPressure;
        gradient        uniform 0;
        value           nonuniform List<scalar> 
64
(
-9800.21
-9800.21
-9800.21
-9800.21
-9800.21
-9800.21
-9800.21
-9800.21
-9800.21
-9800.21
-9800.21
-9800.21
-9800.2
-9800.21
-9800.21
-9800.21
-9800.21
-9800.22
-9800.22
-9800.22
-9800.22
-9800.21
-9800.21
-9800.21
-9800.22
-9800.22
-9800.21
-9800.21
-9800.21
-9800.2
-9800.2
-9800.2
-9800.2
-9800.2
-9800.21
-9800.21
-9800.22
-9800.21
-9800.22
-9800.21
-9800.22
-9800.21
-9800.22
-9800.22
-9800.21
-9800.21
-9800.22
-9800.22
-9800.22
-9800.22
-9800.22
-9800.21
-9800.21
-9800.2
-9800.2
-9800.2
-9800.21
-9800.2
-9800.2
-9800.2
-9800.2
-9800.21
-9800.21
-9800.21
)
;
    }
    lateral_surface_1
    {
        type            fixedFluxPressure;
        gradient        uniform 0;
        value           nonuniform List<scalar> 
40
(
0.000603912
0.00288626
-0.00320726
0.00966376
0.00429848
-0.00151155
-0.0043953
0.00701432
-9800.04
-9800.12
-9799.98
-9800.12
-9800.08
-9800.01
-9799.99
-9800.05
-9800.22
-9800.2
-9800.22
-9800.21
-9800.22
-9800.21
-9800.21
-9800.22
-9800.22
-9800.21
-9800.22
-9800.22
-9800.22
-9800.21
-9800.22
-9800.22
-9800.22
-9800.21
-9800.22
-9800.21
-9800.22
-9800.21
-9800.22
-9800.21
)
;
    }
    lateral_surface_2
    {
        type            fixedFluxPressure;
        gradient        uniform 0;
        value           nonuniform List<scalar> 
40
(
0.00418788
-0.0019473
-0.000669383
-0.00199045
-0.000840791
-0.00986532
-0.000528833
-0.0071701
-9800.09
-9799.97
-9800.08
-9800.02
-9800.04
-9799.99
-9800
-9800.01
-9800.22
-9800.22
-9800.21
-9800.22
-9800.2
-9800.21
-9800.21
-9800.23
-9800.22
-9800.22
-9800.21
-9800.22
-9800.2
-9800.2
-9800.21
-9800.22
-9800.22
-9800.22
-9800.21
-9800.21
-9800.2
-9800.2
-9800.2
-9800.21
)
;
    }
    lateral_surface_3
    {
        type            fixedFluxPressure;
        gradient        uniform 0;
        value           nonuniform List<scalar> 
40
(
-0.0043953
0.000325104
-0.000769411
-0.016081
-0.00778333
0.00717251
0.00828285
0.00418788
-9799.99
-9800.03
-9800.05
-9799.99
-9799.95
-9800.03
-9800.1
-9800.09
-9800.21
-9800.23
-9800.21
-9800.21
-9800.22
-9800.23
-9800.23
-9800.22
-9800.22
-9800.22
-9800.21
-9800.2
-9800.22
-9800.23
-9800.22
-9800.22
-9800.22
-9800.22
-9800.21
-9800.21
-9800.22
-9800.22
-9800.22
-9800.22
)
;
    }
    lateral_surface_4
    {
        type            fixedFluxPressure;
        gradient        uniform 0;
        value           nonuniform List<scalar> 
40
(
-0.0071701
0.00222408
-0.000647144
-0.0144659
-0.00353292
-0.00128396
0.00390716
0.00701432
-9800.01
-9800.09
-9800.11
-9799.96
-9800.02
-9800.05
-9800.06
-9800.05
-9800.23
-9800.21
-9800.19
-9800.2
-9800.2
-9800.21
-9800.22
-9800.22
-9800.22
-9800.21
-9800.2
-9800.2
-9800.2
-9800.2
-9800.22
-9800.22
-9800.21
-9800.2
-9800.2
-9800.2
-9800.2
-9800.21
-9800.21
-9800.21
)
;
    }
}


// ************************************************************************* //
