/*--------------------------------*- C++ -*----------------------------------*\
| =========                 |                                                 |
| \\      /  F ield         | OpenFOAM: The Open Source CFD Toolbox           |
|  \\    /   O peration     | Version:  v1612+                                |
|   \\  /    A nd           | Web:      www.OpenFOAM.com                      |
|    \\/     M anipulation  |                                                 |
\*---------------------------------------------------------------------------*/
FoamFile
{
    version     2.0;
    format      ascii;
    class       surfaceScalarField;
    location    "8.95";
    object      alphaPhi;
}
// * * * * * * * * * * * * * * * * * * * * * * * * * * * * * * * * * * * * * //

dimensions      [0 3 -1 0 0 0 0];

internalField   nonuniform List<scalar> 
816
(
-6.64994e-07
-1.11668e-05
6.21333e-06
-1.69981e-05
-1.82468e-05
4.08687e-05
6.19105e-06
2.45686e-06
-1.28088e-05
-8.52305e-07
4.34688e-06
-7.82497e-06
8.654e-08
-2.81307e-07
2.46473e-06
-5.61818e-06
-1.17803e-05
2.88022e-06
-2.49019e-06
9.78053e-06
1.15283e-08
-6.92062e-09
2.76356e-07
-1.87769e-09
3.34645e-09
1.33133e-08
-1.08755e-06
3.32295e-09
-2.09308e-09
9.27601e-10
9.78562e-07
-1.38717e-09
1.53785e-08
1.54329e-09
1.44442e-06
1.1998e-08
-1.09667e-08
5.2519e-09
6.90432e-07
1.10239e-08
-1.25518e-08
-6.38966e-09
1.88416e-06
5.63367e-09
5.58291e-09
-5.68569e-09
1.25863e-06
6.00833e-09
-4.32224e-09
4.60436e-10
-3.59616e-07
4.29711e-09
-3.90442e-09
-3.17785e-09
-3.07428e-06
1.01158e-08
2.98384e-09
-8.52181e-10
-1.35316e-06
1.57473e-09
1.61707e-09
-3.91451e-09
-1.00429e-06
1.66055e-10
5.01603e-10
4.31943e-07
-4.25424e-09
-3.27381e-09
2.25867e-05
-2.44685e-06
-3.12506e-05
-1.48806e-07
1.5032e-05
3.68397e-05
-4.19475e-05
2.49737e-05
1.15484e-06
-1.23689e-06
-3.91622e-06
1.23253e-06
4.38405e-05
-7.14255e-06
2.05022e-05
6.40459e-06
-1.65671e-05
1.45394e-05
-1.58738e-05
1.58521e-05
-1.49738e-05
-1.00877e-06
-2.40082e-05
1.08393e-05
3.12009e-05
9.18664e-06
-3.08359e-05
1.76505e-05
7.38599e-06
2.80335e-05
-1.01754e-05
-1.03016e-05
2.60116e-06
8.30298e-06
-5.39953e-05
2.55492e-05
4.22805e-05
2.65865e-05
-3.20473e-05
1.70347e-05
-4.0069e-06
-1.73377e-05
6.66759e-05
8.66454e-06
-3.33912e-05
-1.7855e-05
-3.73057e-06
4.6268e-06
-1.14474e-05
1.45292e-06
-1.58597e-05
7.95581e-07
-2.25027e-05
-1.80608e-05
-1.0533e-05
-3.58075e-07
-2.11128e-06
-2.45926e-07
-2.36476e-05
3.17894e-06
9.36171e-06
-5.19826e-06
-6.84495e-06
-6.78779e-06
-1.08958e-05
2.32299e-06
-1.20866e-05
-6.05027e-06
-1.50451e-05
-1.08894e-06
-1.49534e-05
-9.674e-06
-1.10847e-05
-4.07908e-06
4.01124e-06
-5.82467e-06
-2.48685e-05
-1.44843e-05
-1.99108e-05
-1.5879e-05
-1.52104e-05
-7.11649e-06
7.78444e-06
2.80353e-05
-2.00712e-06
-9.61219e-06
2.46917e-06
-1.54835e-06
-1.38826e-06
-5.96994e-06
3.82107e-06
-8.72685e-06
-5.99237e-06
3.27934e-06
1.31769e-06
-8.3097e-06
1.49136e-06
-4.33656e-06
5.85509e-07
-1.31799e-07
3.72067e-07
-6.43385e-06
1.25208e-06
1.6947e-06
-6.18796e-06
3.31648e-07
-5.52553e-07
-5.71346e-06
-1.27356e-05
-6.99652e-06
-3.34656e-06
-4.53189e-07
-5.95256e-07
-1.33239e-05
-4.13667e-07
3.07316e-06
-2.71093e-06
3.73759e-07
-3.01419e-06
-5.29681e-06
-1.88105e-06
1.57447e-06
-3.9343e-06
-8.73119e-06
-4.02798e-06
-7.21932e-07
-5.56738e-06
-5.97282e-06
-5.31898e-06
3.06052e-06
-1.95318e-06
-2.46765e-06
-9.08213e-06
-1.11875e-05
-7.45844e-06
-8.93508e-06
-4.29281e-06
-4.54365e-06
3.71512e-06
-1.24906e-06
7.95502e-06
4.36842e-07
-1.97919e-06
-4.12733e-06
6.52418e-09
-1.12428e-09
-5.60509e-07
-3.60233e-09
1.17488e-08
-5.88907e-07
-3.73713e-09
9.43384e-09
-8.70981e-06
-1.34718e-10
1.16815e-08
-1.1995e-06
-3.63889e-09
2.28732e-09
-4.0289e-06
-6.53557e-09
-9.14923e-10
-8.97683e-10
9.22451e-10
5.96744e-12
-4.34503e-09
1.07538e-10
-1.65472e-09
-9.44833e-09
1.19609e-06
-3.17303e-09
-5.23836e-09
-5.00402e-06
1.99095e-09
4.28073e-09
-0.000171866
-2.10481e-09
-8.55806e-10
-3.70051e-09
-1.7e-05
-3.44566e-09
-8.39943e-09
3.15042e-07
-4.47091e-09
-1.16395e-09
9.33206e-07
-1.94923e-11
-1.43214e-09
-1.97177e-06
-4.9406e-10
-6.95712e-10
-3.5534e-06
-6.87913e-09
-8.4102e-09
-4.62916e-09
-4.20417e-06
-6.40301e-09
-8.29755e-09
-2.59449e-06
-3.75309e-09
-8.06231e-09
-1.4355e-06
-3.26704e-09
-2.26202e-09
6.91795e-07
-2.78312e-09
5.02283e-11
-5.32375e-09
-4.81197e-09
-1.45428e-05
8.91676e-06
-9.24831e-07
4.04777e-06
1.61916e-05
-3.13516e-05
1.30829e-07
1.22601e-05
2.2752e-06
2.11946e-05
1.23223e-05
-6.59183e-06
6.2564e-06
2.08242e-05
6.5765e-05
-4.1044e-05
-3.31843e-05
-3.41554e-06
8.54222e-05
-1.36045e-05
-2.48414e-05
8.3187e-05
-5.01876e-05
-5.49332e-05
0.00010689
-5.57965e-05
-2.94958e-05
-1.00985e-05
-6.32748e-06
4.05659e-05
-1.82253e-05
-3.2331e-05
-1.70403e-05
-5.08477e-06
9.13141e-05
-1.61056e-05
-3.44279e-05
8.9909e-05
-3.74701e-05
1.66387e-05
-5.10631e-05
-4.72217e-06
6.02612e-06
5.71612e-05
-2.23698e-05
3.05919e-05
6.06313e-05
-5.44563e-05
-3.54972e-05
-5.3533e-06
7.49142e-05
-5.29222e-06
-3.57657e-05
7.30455e-05
-3.27808e-05
-2.76896e-05
1.81792e-05
-1.72194e-05
-2.75183e-06
-9.02878e-06
-6.32809e-06
6.94657e-05
-2.40995e-05
-3.61876e-05
8.41952e-06
-5.8704e-06
7.03343e-07
-1.74374e-06
-8.29174e-06
-1.50296e-05
1.5037e-06
-9.18767e-06
2.41544e-06
-1.01061e-05
-6.54977e-06
-2.96104e-06
-6.56377e-06
-1.42608e-05
3.05308e-05
2.29695e-05
2.01162e-05
-8.30739e-07
3.76837e-05
1.0578e-05
1.31163e-05
3.66602e-05
2.72458e-05
3.26116e-05
4.69841e-05
2.94916e-05
1.85194e-05
-4.60992e-06
2.70622e-06
-2.27699e-05
-6.72074e-06
1.65244e-05
1.33752e-05
2.19512e-06
4.00165e-05
1.1091e-05
2.1455e-05
3.91239e-05
2.19017e-05
-4.82936e-06
-2.2601e-05
1.8533e-06
-2.47904e-07
2.62231e-05
1.18248e-05
-1.64145e-05
2.709e-05
2.93241e-05
2.03651e-05
2.29607e-06
3.24731e-05
3.90704e-06
1.7226e-05
3.25194e-05
1.84143e-05
1.11151e-05
8.74077e-06
1.34906e-05
2.16858e-07
-4.33706e-06
4.84219e-06
3.13031e-05
1.3453e-05
1.90779e-05
4.70606e-06
-3.39684e-06
1.13491e-06
-1.32528e-06
-4.99398e-06
-4.93918e-06
-4.859e-07
-5.70103e-06
2.80023e-06
-6.92331e-06
-3.16582e-06
-1.51424e-06
-4.8671e-06
-7.13593e-06
1.04237e-05
1.24403e-05
1.14379e-05
-4.4994e-07
1.40015e-05
3.85953e-06
7.12343e-06
1.20567e-05
1.43766e-05
1.68423e-05
1.55901e-05
1.62741e-05
9.20661e-06
-1.27097e-06
3.77545e-07
-1.19567e-05
4.14135e-07
7.93757e-06
6.05993e-06
2.48013e-06
1.13402e-05
5.46544e-06
1.1914e-05
1.26846e-05
1.13745e-05
-3.59012e-06
-4.71493e-06
7.48238e-07
-3.97359e-07
8.22856e-06
5.78234e-06
-8.97307e-06
7.90064e-06
1.57932e-05
1.17315e-05
1.12809e-06
1.02386e-05
8.94862e-07
9.23155e-06
1.02758e-05
9.9633e-06
5.55467e-06
3.86672e-06
7.22133e-06
-9.76248e-07
-1.16522e-06
1.47845e-06
8.52986e-06
7.29418e-06
1.15315e-05
-1.23593e-06
-3.5985e-06
2.5935e-06
-3.74025e-06
2.7991e-06
-7.47887e-08
-2.47965e-06
-4.81877e-06
-3.74271e-07
1.9615e-06
-3.58235e-06
3.47913e-06
-6.25669e-06
2.36765e-06
6.57038e-07
-6.72661e-06
-3.25888e-06
-3.58891e-07
5.52386e-07
-7.48499e-06
-6.06414e-08
-2.31941e-06
-1.5803e-06
-3.86771e-06
9.57143e-07
-2.27949e-06
-4.25229e-06
1.54899e-08
-1.56138e-06
-2.77572e-06
4.40358e-07
-2.15607e-06
-3.18147e-06
-4.90193e-06
-4.03359e-06
-7.4577e-07
1.59041e-06
-1.25495e-06
-6.22007e-07
5.51331e-07
1.19956e-06
-7.79095e-07
3.49218e-07
-3.70017e-06
1.17009e-06
-2.02549e-06
-1.83338e-06
-2.17412e-06
-7.62608e-07
-2.90272e-06
4.96361e-06
5.98232e-06
7.95325e-07
2.6494e-06
4.16468e-06
6.35351e-06
9.16404e-06
6.62692e-06
4.40592e-06
1.00866e-06
-3.78481e-06
4.08916e-06
4.43553e-06
1.37212e-06
2.2457e-06
6.16235e-06
6.33452e-06
2.93227e-07
1.61407e-06
1.14632e-06
4.46101e-06
-3.67861e-06
7.03728e-06
5.82198e-06
1.34748e-07
1.1421e-06
4.36559e-06
5.27435e-06
3.9414e-06
2.94184e-06
6.86831e-07
2.70555e-06
4.08464e-06
5.46985e-06
5.33108e-09
-6.77938e-09
-8.99533e-09
9.57636e-09
1.19298e-06
1.44403e-08
-8.51111e-06
7.41931e-09
-1.36796e-05
1.02773e-08
-0.00017651
-1.42075e-09
-2.07785e-05
5.76208e-09
-6.94904e-06
1.99881e-09
-3.70448e-06
-1.81748e-09
-1.44526e-06
-1.81571e-09
2.74588e-06
-1.74386e-09
2.97361e-06
2.22877e-09
-0.000114514
6.11628e-10
-1.62912e-05
-3.23236e-09
1.75085e-10
-4.59301e-09
-1.31223e-05
-5.4765e-09
6.05896e-06
-3.21734e-09
1.42584e-06
-1.56362e-09
6.5501e-07
-3.5548e-09
-3.29454e-06
-3.99664e-09
-1.10638e-06
6.34377e-10
-1.40626e-06
-3.9054e-09
-3.40407e-06
-5.75775e-10
-2.0795e-06
-3.13941e-09
-2.60564e-06
-6.09408e-09
4.0203e-05
-6.21138e-09
-7.13026e-07
-7.16408e-09
1.07885e-06
1.01583e-06
1.68098e-05
-3.43508e-05
-8.67343e-06
1.49484e-05
7.24588e-06
3.29075e-05
-2.51262e-05
-1.77635e-06
4.69274e-05
-2.29253e-05
4.4971e-05
-4.1875e-05
-1.69962e-05
3.44675e-05
-8.4945e-05
1.74425e-05
-2.22772e-05
-3.23228e-05
2.43004e-05
-1.54045e-05
-5.63638e-05
1.22549e-05
-7.34063e-05
1.8681e-05
-1.07937e-05
1.65528e-05
-2.66853e-05
-1.1758e-05
3.27685e-05
-9.95371e-06
-3.3066e-05
-5.67619e-06
-2.20864e-05
3.97708e-07
-4.22804e-05
6.24487e-06
-5.89417e-06
-1.01051e-05
-1.00537e-05
-1.70958e-05
-4.68218e-05
3.69379e-05
-5.33551e-05
1.12354e-05
-1.44209e-05
-4.22745e-06
8.19447e-06
-4.45787e-07
-3.80653e-05
-1.89095e-05
-1.30886e-05
-2.32106e-05
-6.35248e-07
-2.18252e-05
-3.32221e-05
-5.16406e-05
-8.12935e-06
1.7237e-05
-4.5482e-06
-6.34361e-06
3.31975e-06
-1.84288e-05
-1.08447e-05
-3.77408e-06
2.19625e-05
1.46062e-05
1.98648e-05
2.71467e-05
-6.76408e-06
-2.08552e-05
-3.68637e-05
-1.08513e-05
-1.18848e-05
1.13015e-05
1.26954e-05
5.94334e-06
-2.39765e-05
-5.0856e-06
-3.30205e-05
-8.09437e-06
-5.08723e-06
-8.2347e-06
-1.0071e-05
1.00913e-05
1.45152e-05
4.25819e-06
-1.40664e-05
1.94755e-06
-8.90186e-06
6.50687e-07
-1.90508e-05
5.67729e-07
-3.89795e-06
7.26766e-06
-4.91787e-06
1.02033e-05
-2.05488e-05
-1.87348e-05
-2.45791e-05
-5.92866e-06
-6.5077e-06
2.03249e-06
4.46151e-06
-4.95534e-07
-1.71681e-05
4.80543e-06
-4.98934e-06
9.53165e-06
-5.97309e-07
1.14703e-05
-1.60339e-05
-2.2583e-05
-3.95704e-06
8.40354e-06
-2.11073e-06
-4.41709e-06
8.87636e-07
-1.04741e-05
-4.21653e-06
-1.99134e-06
6.98039e-06
9.22322e-06
3.78178e-06
1.46885e-05
1.31511e-08
-1.12098e-05
-1.13499e-05
-6.83864e-06
-4.64318e-06
6.79972e-06
3.1967e-06
4.62557e-06
-7.21341e-06
-3.82366e-06
-8.4306e-06
-5.73499e-06
-2.93374e-06
-5.45791e-06
-2.65054e-06
6.54636e-06
2.70649e-06
3.54404e-06
-4.6035e-06
2.1719e-06
-2.20487e-06
5.2246e-07
-6.1518e-06
1.37034e-07
-2.79155e-06
4.34049e-06
-3.21731e-06
5.70337e-06
-5.79169e-06
-1.02092e-05
-9.21368e-06
-3.70063e-06
-1.87298e-06
1.48462e-06
3.76111e-07
-4.48898e-07
-5.08143e-06
2.14037e-06
-3.36846e-07
5.24413e-06
-2.50808e-06
4.84048e-06
-4.46429e-06
-8.55662e-06
-2.33928e-06
4.56781e-06
-3.3285e-06
-6.87057e-06
-1.82186e-06
1.38167e-06
6.80416e-06
-4.59858e-06
-3.43321e-06
2.33575e-06
1.52697e-06
-1.58225e-07
-1.98064e-06
-9.16572e-07
1.50826e-06
1.54057e-06
1.67466e-06
1.88194e-06
4.79092e-07
1.50162e-06
3.35975e-06
-5.44536e-06
-1.78486e-06
-3.41517e-07
-1.10399e-07
2.57419e-06
2.3294e-06
2.42746e-06
6.50735e-09
4.59641e-09
-1.98497e-06
-1.44826e-09
7.52108e-07
7.44433e-09
-5.82177e-07
-2.65498e-07
-4.85233e-06
2.1671e-05
-1.38503e-05
8.79404e-06
)
;

boundaryField
{
    top_fluid_surface
    {
        type            calculated;
        value           nonuniform List<scalar> 
64
(
0
0
0
0
0
0
0
0
0
0
2.51348e-09
0
0
0
4.55255e-09
3.75062e-10
1.31713e-08
1.44468e-08
1.38042e-08
1.44758e-08
0
1.61639e-09
1.43101e-08
1.20427e-08
0
9.11211e-09
1.18261e-08
1.13873e-08
8.22342e-09
2.38456e-09
0
5.65633e-09
0
0
0
5.25475e-09
4.3572e-09
4.02191e-09
0
2.02585e-09
3.61695e-09
0
0
3.25025e-09
0
2.63172e-09
6.60038e-10
0
0
0
1.34625e-09
0
0
0
0
0
0
0
0
0
0
0
0
0
)
;
    }
    bottom_fluid_surface
    {
        type            calculated;
        value           uniform 0;
    }
    lateral_surface_1
    {
        type            calculated;
        value           uniform 0;
    }
    lateral_surface_2
    {
        type            calculated;
        value           uniform 0;
    }
    lateral_surface_3
    {
        type            calculated;
        value           uniform 0;
    }
    lateral_surface_4
    {
        type            calculated;
        value           uniform 0;
    }
}


// ************************************************************************* //
