/*--------------------------------*- C++ -*----------------------------------*\
| =========                 |                                                 |
| \\      /  F ield         | OpenFOAM: The Open Source CFD Toolbox           |
|  \\    /   O peration     | Version:  v1612+                                |
|   \\  /    A nd           | Web:      www.OpenFOAM.com                      |
|    \\/     M anipulation  |                                                 |
\*---------------------------------------------------------------------------*/
FoamFile
{
    version     2.0;
    format      ascii;
    class       surfaceScalarField;
    location    "2.5";
    object      alphaPhi;
}
// * * * * * * * * * * * * * * * * * * * * * * * * * * * * * * * * * * * * * //

dimensions      [0 3 -1 0 0 0 0];

internalField   nonuniform List<scalar> 
2916
(
-8.41182e-06
0.612162
-0.531572
-4.1529e-06
0.612164
-0.531587
-3.79306e-06
0.612163
-0.531582
-6.95119e-06
0.612165
-0.53158
-2.39138e-06
0.612166
-0.531589
0.61216
-0.531581
-7.51192e-06
1.22336
-0.530607
-4.52355e-06
1.22336
-0.530622
-6.27768e-06
1.22336
-0.530618
-5.7312e-06
1.22336
-0.530619
3.42502e-06
1.22337
-0.530627
1.22336
-0.530615
-7.02423e-06
1.63493
-0.33027
-4.09156e-06
1.63494
-0.330285
-5.92438e-06
1.63494
-0.33028
-5.81371e-06
1.63494
-0.330281
2.21226e-06
1.63494
-0.330288
1.63493
-0.330274
-6.47094e-06
1.91958
-0.203089
-4.74841e-06
1.91959
-0.2031
-7.19506e-06
1.91959
-0.203094
-7.11072e-06
1.91959
-0.203096
5.82018e-07
1.91959
-0.203103
1.91957
-0.203089
-7.12192e-06
2.14175
-0.147921
-6.59448e-06
2.14177
-0.147925
-9.1441e-06
2.14176
-0.147921
-8.13953e-06
2.14176
-0.14792
1.73923e-07
2.14176
-0.147923
2.14174
-0.147918
-9.17429e-06
2.32859
-0.119627
-8.376e-06
2.3286
-0.119624
-1.02489e-05
2.3286
-0.119625
-8.87786e-06
2.3286
-0.119625
-6.24888e-07
2.3286
-0.119627
2.32857
-0.119624
-1.06727e-05
2.48168
-0.0875332
-7.98595e-06
2.48169
-0.0875458
-8.6e-06
2.48169
-0.0875357
-7.64232e-06
2.48169
-0.0875374
-6.60745e-07
2.48169
-0.0875461
2.48166
-0.0875341
-6.57639e-06
2.60502
-0.0583713
-2.24693e-06
2.60504
-0.0583982
-1.8821e-06
2.60504
-0.0583873
-1.30607e-06
2.60504
-0.0583831
2.74984e-06
2.60504
-0.0583947
2.60501
-0.0583739
-2.8564e-06
2.42211
0.11234
6.42774e-06
2.42212
0.112318
7.23314e-06
2.42213
0.112325
6.08255e-06
2.42213
0.112328
7.82208e-06
2.42213
0.112323
2.42209
0.112341
-8.74914e-07
1.75085
0.600459
7.65572e-06
1.75087
0.600417
1.0694e-05
1.75088
0.600432
9.84831e-06
1.75088
0.600435
7.02998e-06
1.75089
0.600426
1.75083
0.600446
5.4535e-06
0.679752
0.999806
1.98874e-07
0.679792
0.999789
5.11794e-06
0.679792
0.999796
6.30816e-06
0.67979
0.999795
2.71547e-07
0.679813
0.999787
0.679749
0.999796
-3.3459e-05
0.636638
-2.31325e-05
0.636637
-1.47124e-05
0.636637
-8.27781e-06
0.636638
1.13727e-05
0.63665
0.636609
-1.39947e-06
0.512812
-0.541867
-5.28229e-06
0.512806
-0.541864
-6.54701e-06
0.51281
-0.541863
-1.07647e-05
0.512813
-0.541868
-1.34056e-05
0.512811
-0.541873
0.512806
-0.541869
1.37349e-05
0.776287
-0.0550648
-5.35852e-06
0.776286
-0.0550616
-1.05447e-05
0.776285
-0.0550629
-7.52456e-06
0.776287
-0.0550624
-1.49755e-05
0.776288
-0.0550613
0.77628
-0.0550681
1.36898e-05
1.09937
-0.00179832
-1.98211e-06
1.09938
-0.00179822
-7.17905e-06
1.09938
-0.00179825
-5.98979e-06
1.09938
-0.00179822
-1.35401e-05
1.09938
-0.0017982
1.09937
-0.00179843
1.59254e-05
1.3748
-0.000116391
2.87591e-06
1.37483
-0.00011638
-2.06585e-06
1.37482
-0.000116378
-4.49714e-06
1.37482
-0.000116382
-1.42951e-05
1.37482
-0.000116384
1.3748
-0.000116389
1.6854e-05
1.52687
-1.11808e-05
6.92685e-06
1.5269
-1.11796e-05
3.4763e-06
1.52689
-1.11795e-05
-9.83715e-07
1.52689
-1.11797e-05
-1.19582e-05
1.5269
-1.11798e-05
1.52687
-1.11802e-05
1.61719e-05
1.56643
-1.35451e-06
1.02683e-05
1.56647
-1.35438e-06
9.593e-06
1.56646
-1.35438e-06
5.10816e-06
1.56646
-1.35442e-06
-4.36906e-06
1.56647
-1.35445e-06
1.56644
-1.35452e-06
1.64936e-05
1.44944
-1.91827e-07
1.42592e-05
1.44949
-1.91811e-07
1.57128e-05
1.44947
-1.91814e-07
1.20518e-05
1.44947
-1.91821e-07
3.99993e-06
1.44947
-1.91825e-07
1.44945
-1.91841e-07
1.3982e-05
1.21456
-3.15973e-08
1.3536e-05
1.21461
-3.15938e-08
1.44948e-05
1.21459
-3.15954e-08
1.15462e-05
1.21458
-3.15969e-08
3.9438e-06
1.21458
-3.15972e-08
1.21457
-3.16006e-08
7.79145e-06
1.11904
0.00250196
6.82829e-06
1.11908
0.0025001
6.55372e-06
1.11907
0.00250168
5.07672e-06
1.11906
0.00250327
-8.09424e-07
1.11906
0.0025043
1.11905
0.00250636
1.23372e-05
1.35131
0.0872784
4.99274e-06
1.35135
0.0872669
3.71538e-06
1.35134
0.0872685
1.68943e-06
1.35134
0.0872675
-5.38876e-06
1.35133
0.0872639
1.35131
0.0872696
3.2958e-05
1.26655
0.642976
1.56088e-05
1.26665
0.64294
1.28294e-05
1.26662
0.64295
7.89382e-06
1.26661
0.642944
-7.26386e-06
1.26662
0.642932
1.26656
0.642948
-3.94126e-05
1.7346
-5.77481e-06
1.73461
4.30544e-06
1.7346
1.12906e-05
1.7346
2.66808e-05
1.7346
1.73455
1.21867e-06
0.0569301
-3.87765e-06
-1.09057e-06
0.0569268
-3.87726e-06
-1.40789e-06
0.0569281
-3.87651e-06
9.9183e-07
0.0569276
-3.88106e-06
9.53783e-07
0.0569264
-3.88119e-06
0.0569335
-3.87788e-06
-7.47765e-09
0.00192642
-6.09166e-05
-2.68597e-08
0.00192631
-6.09074e-05
1.46397e-09
0.00192635
-6.09085e-05
1.66605e-08
0.00192631
-6.09049e-05
-1.60671e-08
0.00192629
-6.09016e-05
0.00192655
-6.09255e-05
1.03461e-10
0.000127818
-1.53809e-07
-5.10605e-10
0.000127812
-1.51798e-07
3.70601e-10
0.000127813
-1.55229e-07
8.33408e-10
0.000127811
-1.54197e-07
-3.91569e-10
0.00012781
-1.5238e-07
0.000127827
-1.52253e-07
1.47578e-10
1.23358e-05
-1.16086e-06
2.7311e-10
1.23349e-05
-1.15682e-06
3.33274e-10
1.23349e-05
-1.15356e-06
3.2076e-10
1.23349e-05
-1.15922e-06
2.57032e-10
1.23351e-05
-1.16027e-06
1.23362e-05
-1.1515e-06
2.91351e-11
1.58352e-06
-4.16185e-07
5.85682e-11
1.5834e-06
-4.15743e-07
6.47815e-11
1.5834e-06
-4.1561e-07
5.7239e-11
1.58344e-06
-4.1574e-07
4.42657e-11
1.58347e-06
-4.15745e-07
1.58358e-06
-4.15081e-07
2.01482e-12
2.29912e-07
-1.03166e-09
6.91864e-12
2.29893e-07
-1.00788e-09
8.34915e-12
2.29897e-07
-1.00768e-09
7.79991e-12
2.29905e-07
-1.0156e-09
7.91931e-12
2.2991e-07
-1.0163e-09
2.29929e-07
-9.82454e-10
8.18186e-14
3.80781e-08
-1.39011e-11
6.9424e-13
3.80751e-08
-1.39259e-11
9.42368e-13
3.80762e-08
-1.39025e-11
8.89283e-13
3.80779e-08
-1.39046e-11
1.25127e-12
3.80783e-08
-1.39099e-11
3.80828e-08
-1.38982e-11
6.50852e-14
6.00838e-09
-3.47785e-11
7.12426e-14
6.00768e-09
-3.4784e-11
7.88884e-14
6.0081e-09
-3.47842e-11
5.53964e-14
6.00863e-09
-3.48043e-11
6.1055e-14
6.00884e-09
-3.48303e-11
6.0099e-09
-3.48421e-11
-4.043e-10
0.00241056
0.000147486
-4.7499e-09
0.00240886
0.000147379
-1.9665e-09
0.00241029
0.000147474
2.2736e-09
0.00241176
0.000147572
4.88281e-10
0.00241272
0.000147643
0.00241459
0.000147759
-9.56379e-08
0.0803265
0.00819928
-1.50721e-07
0.0803133
0.00819921
-4.18714e-08
0.080316
0.00819939
2.47234e-08
0.0803166
0.00819926
-4.1024e-08
0.0803139
0.00819923
0.0803218
0.00819904
1.54961e-06
0.262459
0.160269
-6.15262e-09
0.262443
0.160277
-1.94035e-07
0.262443
0.160276
-8.11465e-07
0.26244
0.160271
-2.05027e-06
0.262427
0.160269
0.262443
0.160274
5.1673e-06
1.77244
1.59569e-05
1.77237
2.30484e-05
1.77237
3.39544e-05
1.77235
7.03624e-06
1.77229
1.77248
-9.37467e-12
5.60405e-08
-4.22978e-06
-5.15903e-12
5.6029e-08
-4.23004e-06
5.46868e-14
5.60251e-08
-4.23084e-06
7.24933e-12
5.60428e-08
-4.23169e-06
1.45471e-11
5.60298e-08
-4.23173e-06
5.60211e-08
-4.23106e-06
-6.97456e-11
4.77303e-07
-6.17815e-05
-2.76136e-11
4.76185e-07
-6.17737e-05
1.86844e-11
4.76489e-07
-6.17744e-05
1.41776e-11
4.77129e-07
-6.17686e-05
3.50253e-12
4.77118e-07
-6.17669e-05
4.77218e-07
-6.17935e-05
-2.38151e-12
-3.99953e-09
-1.18138e-07
8.02263e-13
-3.99955e-09
-1.17961e-07
1.82157e-12
-3.99874e-09
-1.17865e-07
2.34506e-12
-4.00218e-09
-1.18107e-07
4.46504e-12
-4.00015e-09
-1.18019e-07
-3.9869e-09
-1.17799e-07
1.04655e-12
-2.98036e-08
-1.62873e-06
8.71421e-12
-2.97744e-08
-1.6259e-06
1.03421e-11
-2.97642e-08
-1.62424e-06
9.91712e-12
-2.9763e-08
-1.62687e-06
1.0967e-11
-2.97503e-08
-1.62774e-06
-2.96949e-08
-1.6216e-06
2.55592e-13
-3.57373e-10
-9.90284e-07
7.069e-12
-3.48088e-10
-9.90332e-07
9.0654e-12
-3.47602e-10
-9.90284e-07
8.86861e-12
-3.50698e-10
-9.90221e-07
1.02741e-11
-3.50932e-10
-9.90199e-07
-3.37483e-10
-9.89703e-07
-7.42053e-15
-7.20533e-12
-1.40297e-09
-7.09556e-15
-7.20553e-12
-1.36994e-09
-6.18794e-15
-7.20427e-12
-1.36925e-09
-3.5984e-15
-7.20462e-12
-1.38027e-09
2.68433e-15
-7.20475e-12
-1.38122e-09
-7.19898e-12
-1.33392e-09
-1.22817e-15
-1.92276e-11
-1.41017e-11
-1.53718e-15
-1.92359e-11
-1.41078e-11
-1.74535e-15
-1.92355e-11
-1.41055e-11
-1.60154e-15
-1.92475e-11
-1.41035e-11
-6.55352e-16
-1.92644e-11
-1.41052e-11
-1.92618e-11
-1.40859e-11
-1.735e-15
1.70114e-09
-1.52644e-09
-4.99797e-15
1.70121e-09
-1.52578e-09
-1.02927e-14
1.70147e-09
-1.52665e-09
-1.36239e-14
1.7028e-09
-1.52824e-09
-2.42732e-14
1.70421e-09
-1.52983e-09
1.70517e-09
-1.53086e-09
-2.97877e-10
0.000154505
3.68255e-06
-5.18328e-10
0.000154408
3.67924e-06
-1.12565e-09
0.000154494
3.68205e-06
-1.54959e-09
0.000154585
3.68463e-06
-3.65544e-09
0.000154653
3.68759e-06
0.000154753
3.6871e-06
-6.28962e-08
0.00717351
0.00111482
-1.03195e-07
0.00717315
0.00111498
-6.44351e-08
0.00717339
0.00111495
-4.88917e-09
0.00717336
0.00111491
1.69921e-09
0.00717352
0.00111484
0.00717323
0.00111505
1.13447e-06
0.125455
0.0414935
-3.9539e-07
0.125467
0.041492
-3.01873e-07
0.125464
0.0414919
2.03569e-08
0.125459
0.0414919
8.88327e-07
0.125459
0.0414895
0.125458
0.0414966
6.50194e-07
1.67338
-2.25618e-06
1.67325
3.84681e-05
1.67327
3.1853e-05
1.67326
-7.13071e-05
1.67312
1.67355
-1.87428e-67
3.58669e-64
-5.37676e-61
-1.72376e-67
3.59348e-64
-5.38701e-61
-1.72144e-67
3.59289e-64
-5.38635e-61
-1.46092e-67
3.59281e-64
-5.3866e-61
-8.80314e-68
3.59386e-64
-5.38853e-61
3.58658e-64
-5.37782e-61
-2.94105e-63
1.70076e-59
-1.30839e-56
-4.63882e-63
1.70342e-59
-1.31038e-56
-6.14238e-63
1.70294e-59
-1.3101e-56
-6.04946e-63
1.70281e-59
-1.31016e-56
-3.69931e-63
1.70326e-59
-1.3107e-56
1.69991e-59
-1.30837e-56
-2.90736e-59
3.32405e-55
-1.71884e-52
-1.02268e-58
3.32623e-55
-1.71964e-52
-1.6006e-58
3.32416e-55
-1.71873e-52
-1.72948e-58
3.32328e-55
-1.71863e-52
-1.21937e-58
3.32383e-55
-1.71941e-52
3.31745e-55
-1.71678e-52
-6.69396e-55
3.94968e-51
-1.5147e-48
-2.1146e-54
3.9468e-51
-1.5133e-48
-3.15874e-54
3.94236e-51
-1.51193e-48
-3.39176e-54
3.9405e-51
-1.51179e-48
-2.47723e-54
3.94121e-51
-1.51288e-48
3.93497e-51
-1.51166e-48
-1.43288e-50
3.08387e-47
-9.19686e-45
-3.08841e-50
3.07737e-47
-9.18088e-45
-4.0902e-50
3.07275e-47
-9.17286e-45
-4.16983e-50
3.07135e-47
-9.17546e-45
-3.00717e-50
3.07296e-47
-9.1888e-45
3.07062e-47
-9.19387e-45
-1.611e-46
1.51898e-43
-3.8719e-41
-2.59521e-46
1.51649e-43
-3.87425e-41
-2.9827e-46
1.51508e-43
-3.87637e-41
-2.81041e-46
1.51553e-43
-3.88327e-41
-1.94448e-46
1.51827e-43
-3.90064e-41
1.51824e-43
-3.89828e-41
-9.08139e-43
5.22191e-40
-2.00858e-37
-1.21375e-42
5.24189e-40
-2.02786e-37
-1.21684e-42
5.25267e-40
-2.03742e-37
-1.03586e-42
5.27084e-40
-2.05073e-37
-6.58075e-43
5.31905e-40
-2.08766e-37
5.28056e-40
-2.04662e-37
-2.73089e-39
1.32915e-36
-7.21595e-34
-2.91341e-39
1.35399e-36
-7.3924e-34
-2.26376e-39
1.36463e-36
-7.46387e-34
-1.41154e-39
1.37532e-36
-7.53308e-34
-5.90952e-40
1.40118e-36
-7.7036e-34
1.36414e-36
-7.42418e-34
-1.3931e-36
9.6582e-34
-4.98053e-31
-6.91609e-37
1.00249e-33
-5.19185e-31
3.55123e-37
1.01291e-33
-5.24655e-31
1.14117e-36
1.01778e-33
-5.26772e-31
1.21868e-36
1.03118e-33
-5.33258e-31
9.80533e-34
-5.02511e-31
5.11057e-38
1.31599e-34
3.87955e-36
2.6055e-37
1.3162e-34
3.68448e-36
4.41489e-37
1.31657e-34
3.68537e-36
5.19133e-37
1.31827e-34
3.768e-36
4.1679e-37
1.32159e-34
3.91868e-36
1.32275e-34
4.14276e-36
2.56784e-34
8.37792e-32
2.35728e-32
4.21479e-34
8.38861e-32
2.36904e-32
5.07432e-34
8.39021e-32
2.37982e-32
5.11598e-34
8.397e-32
2.39414e-32
3.83193e-34
8.4132e-32
2.4146e-32
8.42635e-32
2.44057e-32
6.9527e-32
4.00676e-29
6.1866e-32
4.02174e-29
3.95723e-32
4.02343e-29
1.87493e-32
4.02449e-29
4.52671e-33
4.02793e-29
4.02749e-29
-2.53116e-64
5.49992e-61
-6.43101e-58
-2.48399e-64
5.50955e-61
-6.44328e-58
-2.35339e-64
5.50817e-61
-6.44248e-58
-1.74715e-64
5.50767e-61
-6.44264e-58
-6.58464e-65
5.50907e-61
-6.44485e-58
5.49763e-61
-6.43193e-58
-7.79223e-60
2.64925e-56
-1.57799e-53
-1.00664e-59
2.65332e-56
-1.58069e-53
-1.04286e-59
2.6524e-56
-1.58041e-53
-8.46521e-60
2.65199e-56
-1.58043e-53
-4.01966e-60
2.65254e-56
-1.581e-53
2.64715e-56
-1.57805e-53
-1.95506e-55
5.09327e-52
-2.01386e-49
-2.79189e-55
5.0984e-52
-2.01623e-49
-2.96428e-55
5.09548e-52
-2.0155e-49
-2.56318e-55
5.09397e-52
-2.01536e-49
-1.514e-55
5.09456e-52
-2.0161e-49
5.08431e-52
-2.01265e-49
-3.39579e-51
5.74491e-48
-1.66339e-45
-4.77987e-51
5.74615e-48
-1.66428e-45
-5.00511e-51
5.74105e-48
-1.66337e-45
-4.35333e-51
5.73841e-48
-1.6632e-45
-2.74044e-51
5.73882e-48
-1.66404e-45
5.72821e-48
-1.66192e-45
-3.67316e-47
4.05712e-44
-9.12237e-42
-4.8943e-47
4.05482e-44
-9.1258e-42
-4.90505e-47
4.05026e-44
-9.1219e-42
-4.15974e-47
4.04826e-44
-9.12316e-42
-2.62845e-47
4.04911e-44
-9.13155e-42
4.04327e-44
-9.12715e-42
-2.28646e-43
1.8487e-40
-4.86978e-38
-2.80371e-43
1.84774e-40
-4.88018e-38
-2.5887e-43
1.84617e-40
-4.88229e-38
-2.04441e-43
1.8466e-40
-4.89314e-38
-1.23969e-43
1.85124e-40
-4.93876e-38
1.84481e-40
-4.87505e-38
-1.39609e-39
1.02338e-36
-6.25026e-34
-1.36895e-39
1.02716e-36
-6.2997e-34
-9.44211e-40
1.02852e-36
-6.31797e-34
-4.92114e-40
1.03259e-36
-6.35596e-34
-1.65346e-40
1.04863e-36
-6.49536e-34
1.02493e-36
-6.27333e-34
-3.27868e-36
4.21357e-33
-2.74992e-30
-2.82676e-37
4.26082e-33
-2.79262e-30
3.57552e-36
4.27833e-33
-2.80714e-30
5.9041e-36
4.30546e-33
-2.8264e-30
5.31782e-36
4.39646e-33
-2.88879e-30
4.23412e-33
-2.76512e-30
3.68257e-33
4.22033e-30
-2.38122e-27
1.08838e-32
4.29971e-30
-2.43583e-27
1.64449e-32
4.31689e-30
-2.44553e-27
1.81213e-32
4.33272e-30
-2.45191e-27
1.39474e-32
4.40304e-30
-2.48696e-27
4.18262e-30
-2.34569e-27
5.73908e-34
1.92259e-31
1.18971e-32
9.85594e-34
1.9176e-31
1.16061e-32
1.19684e-33
1.91777e-31
1.16885e-32
1.16382e-33
1.92191e-31
1.19438e-32
8.1061e-34
1.93041e-31
1.23642e-32
1.93481e-31
1.29234e-32
5.28259e-31
1.17607e-28
6.08391e-29
6.54692e-31
1.17689e-28
6.12379e-29
6.09822e-31
1.17812e-28
6.15027e-29
4.74594e-31
1.18083e-28
6.18021e-29
2.64295e-31
1.1853e-28
6.22201e-29
1.18948e-28
6.26945e-29
-2.31579e-30
7.47761e-26
-8.63469e-29
7.50323e-26
-1.65704e-28
7.50749e-26
-1.97756e-28
7.51008e-26
-1.5682e-28
7.51624e-26
7.51159e-26
-9.8414e-62
3.18218e-58
-2.7203e-55
-9.3404e-62
3.18794e-58
-2.72556e-55
-8.02148e-62
3.18731e-58
-2.72525e-55
-4.65518e-62
3.18716e-58
-2.72533e-55
-2.22473e-64
3.18814e-58
-2.72625e-55
3.18173e-58
-2.72071e-55
-3.54864e-57
1.54863e-53
-6.65252e-51
-4.39153e-57
1.55125e-53
-6.66472e-51
-4.08581e-57
1.55087e-53
-6.6638e-51
-2.7769e-57
1.55076e-53
-6.66395e-51
-8.03553e-58
1.55121e-53
-6.66628e-51
1.54819e-53
-6.65347e-51
-9.43651e-53
2.90417e-49
-8.12908e-47
-1.21084e-52
2.90827e-49
-8.14176e-47
-1.12633e-52
2.90725e-49
-8.13991e-47
-8.13624e-53
2.90685e-49
-8.13969e-47
-3.53971e-53
2.90758e-49
-8.1425e-47
2.9021e-49
-8.12769e-47
-1.45676e-48
3.12174e-45
-6.23979e-43
-1.77216e-48
3.12483e-45
-6.24776e-43
-1.567e-48
3.12328e-45
-6.24588e-43
-1.09386e-48
3.12266e-45
-6.24566e-43
-4.958e-49
3.12347e-45
-6.24826e-43
3.11808e-45
-6.23853e-43
-1.2812e-44
2.12671e-41
-3.14669e-39
-1.39192e-44
2.12792e-41
-3.15093e-39
-1.08007e-44
2.1267e-41
-3.15037e-39
-6.38031e-45
2.12637e-41
-3.15077e-39
-2.30277e-45
2.12724e-41
-3.15281e-39
2.12432e-41
-3.14926e-39
-8.72467e-41
1.40835e-37
-5.92512e-35
-7.06211e-41
1.40942e-37
-5.93915e-35
-2.91602e-41
1.40878e-37
-5.93791e-35
7.38183e-42
1.41082e-37
-5.95888e-35
2.27372e-41
1.42269e-37
-6.07049e-35
1.40254e-37
-5.86454e-35
-7.21132e-37
2.28649e-33
-1.35575e-30
2.80603e-37
2.29362e-33
-1.36245e-30
1.46841e-36
2.29511e-33
-1.36374e-30
2.14191e-36
2.30565e-33
-1.3707e-30
1.87063e-36
2.35376e-33
-1.40148e-30
2.27117e-33
-1.34351e-30
6.45174e-33
1.37606e-29
-6.08241e-27
1.89042e-32
1.38405e-29
-6.12881e-27
2.84665e-32
1.38622e-29
-6.13812e-27
3.12946e-32
1.39389e-29
-6.17073e-27
2.40576e-32
1.42495e-29
-6.30491e-27
1.36633e-29
-6.01657e-27
3.08914e-29
2.04824e-26
-6.48683e-24
5.38462e-29
2.06297e-26
-6.54048e-24
6.52711e-29
2.06427e-26
-6.53941e-24
6.29863e-29
2.07298e-26
-6.56057e-24
4.39155e-29
2.11416e-26
-6.67995e-24
2.0143e-26
-6.33102e-24
6.55732e-27
3.29159e-24
-7.29619e-22
8.70723e-27
3.31613e-24
-7.33033e-22
8.40166e-27
3.29204e-24
-7.2539e-22
6.46015e-27
3.26688e-24
-7.1772e-22
3.3057e-27
3.27685e-24
-7.16941e-22
3.06406e-24
-6.6718e-22
2.33251e-28
2.58804e-25
7.95666e-26
9.88514e-29
2.59452e-25
8.02266e-26
-1.03483e-28
2.59635e-25
8.05237e-26
-2.61492e-28
2.59915e-25
8.07961e-26
-2.84556e-28
2.60503e-25
8.11872e-26
2.59982e-25
8.12983e-26
-8.22171e-26
7.13569e-23
-1.46338e-25
7.1538e-23
-1.84824e-25
7.15629e-23
-1.78085e-25
7.15664e-23
-1.28089e-25
7.15992e-23
7.14816e-23
-1.59968e-59
8.30808e-56
-4.17413e-53
-1.3387e-59
8.323e-56
-4.18224e-53
-8.20288e-60
8.32158e-56
-4.1818e-53
-5.72553e-61
8.32156e-56
-4.18193e-53
6.82588e-60
8.32448e-56
-4.18336e-53
8.30781e-56
-4.17474e-53
-7.47056e-55
4.04583e-51
-9.98333e-49
-7.48233e-55
4.05281e-51
-1.00024e-48
-4.88917e-55
4.05207e-51
-1.00012e-48
-1.36773e-55
4.05209e-51
-1.00015e-48
1.72083e-55
4.05354e-51
-1.0005e-48
4.04579e-51
-9.98528e-49
-1.91094e-50
7.31158e-47
-1.14227e-44
-1.75496e-50
7.32309e-47
-1.1443e-44
-9.81534e-51
7.32157e-47
-1.14412e-44
-1.20443e-51
7.32158e-47
-1.14412e-44
4.30588e-51
7.32426e-47
-1.1445e-44
7.31078e-47
-1.14232e-44
-1.92579e-46
7.3462e-43
-7.92441e-41
-1.34124e-46
7.35627e-43
-7.93757e-41
-1.69036e-47
7.35464e-43
-7.9362e-41
8.65015e-47
7.35477e-43
-7.93619e-41
1.18248e-46
7.35771e-43
-7.93896e-41
7.34511e-43
-7.92484e-41
-4.48508e-43
4.50837e-39
-3.51151e-37
3.50007e-43
4.5138e-39
-3.51745e-37
1.34295e-42
4.51295e-39
-3.51716e-37
1.9307e-42
4.51345e-39
-3.51748e-37
1.66986e-42
4.51577e-39
-3.51906e-37
4.50901e-39
-3.51348e-37
2.84128e-38
9.70712e-35
-7.91992e-32
6.49465e-38
9.71905e-35
-7.93425e-32
9.20665e-38
9.71305e-35
-7.9275e-32
9.94181e-38
9.74515e-35
-7.95857e-32
7.55531e-38
9.92522e-35
-8.13148e-32
9.58485e-35
-7.78019e-32
2.43853e-33
2.52412e-30
-1.58356e-27
4.00502e-33
2.52941e-30
-1.58786e-27
4.7437e-33
2.52919e-30
-1.58725e-27
4.58264e-33
2.54102e-30
-1.59454e-27
3.24008e-33
2.59789e-30
-1.63002e-27
2.4912e-30
-1.55693e-27
2.31524e-29
1.39416e-26
-5.97191e-24
3.2939e-29
1.39857e-26
-5.99251e-24
3.49192e-29
1.39892e-26
-5.99025e-24
3.07657e-29
1.4063e-26
-6.01945e-24
1.99244e-29
1.43831e-26
-6.15157e-24
1.37572e-26
-5.86099e-24
3.74619e-26
2.26583e-23
-6.31017e-21
4.54673e-26
2.27427e-23
-6.33012e-21
4.04447e-26
2.27378e-23
-6.32158e-21
2.91224e-26
2.28539e-23
-6.3496e-21
1.36642e-26
2.33563e-23
-6.48142e-21
2.22699e-23
-6.15805e-21
8.09351e-24
1.19496e-20
-1.97938e-18
4.86927e-24
1.19854e-20
-1.98096e-18
-9.86404e-25
1.19504e-20
-1.97135e-18
-5.33154e-24
1.19653e-20
-1.97049e-18
-6.95202e-24
1.21537e-20
-1.9941e-18
1.15591e-20
-1.89796e-18
-3.1535e-25
1.18233e-22
7.17511e-22
-5.27863e-25
1.18658e-22
7.20328e-22
-6.50004e-25
1.18622e-22
7.19661e-22
-6.18749e-25
1.18704e-22
7.23958e-22
-4.66403e-25
1.19454e-22
7.37689e-22
1.17317e-22
7.02011e-22
-1.27691e-25
2.62797e-22
-1.67409e-25
2.74071e-22
-1.88948e-25
2.64065e-22
-1.45826e-25
2.6357e-22
-1.62003e-25
2.70756e-22
2.62371e-22
-5.07023e-11
-2.61087e-06
-6.88701e-07
1.65061e-11
-2.61109e-06
-6.89098e-07
3.09041e-11
-2.61158e-06
-6.89131e-07
5.82496e-11
-2.61211e-06
-6.89271e-07
1.25099e-10
-2.6122e-06
-6.8926e-07
-2.61173e-06
-6.8865e-07
9.17925e-12
3.17592e-14
6.99966e-10
8.0044e-12
3.47887e-14
6.9798e-10
-5.80058e-12
3.57087e-14
6.95299e-10
-9.55362e-12
3.49143e-14
6.93684e-10
5.72852e-12
3.47085e-14
6.93812e-10
3.55361e-14
6.87648e-10
-2.86438e-19
-1.47168e-17
-1.35238e-19
-1.60878e-17
1.9619e-20
-1.64998e-17
1.3157e-19
-1.6175e-17
2.7447e-19
-1.61022e-17
-1.63463e-17
-7.09195e-10
-3.99248e-05
-2.49102e-07
-2.06576e-10
-3.99251e-05
-2.46882e-07
1.34762e-10
-3.99249e-05
-2.46715e-07
2.45941e-10
-3.99248e-05
-2.50416e-07
4.31774e-10
-3.99249e-05
-2.49321e-07
-3.99243e-05
-2.46634e-07
-1.2786e-10
2.03763e-13
-1.17289e-08
-3.36777e-10
2.23187e-13
-1.1771e-08
-3.96605e-10
2.291e-13
-1.17528e-08
-2.77154e-10
2.24003e-13
-1.17702e-08
-2.59054e-10
2.22682e-13
-1.18179e-08
2.28008e-13
-1.17494e-08
-1.7266e-18
1.92735e-14
-1.00835e-18
2.11086e-14
-5.81395e-19
2.16685e-14
-3.25014e-20
2.11852e-14
1.428e-18
2.10596e-14
2.1571e-14
7.05673e-13
-1.75812e-07
-6.39392e-07
-4.46537e-14
-1.75668e-07
-6.39433e-07
-1.24359e-12
-1.75577e-07
-6.39358e-07
-1.72714e-12
-1.75864e-07
-6.39532e-07
-6.89015e-13
-1.76255e-07
-6.39489e-07
-1.76227e-07
-6.39299e-07
4.28209e-13
9.98356e-13
-5.18325e-08
-6.89432e-13
1.09356e-12
-5.17807e-08
-9.33798e-13
1.12251e-12
-5.17948e-08
-1.33531e-12
1.09753e-12
-5.17493e-08
-2.80294e-12
1.09108e-12
-5.17217e-08
1.1171e-12
-5.19019e-08
-1.04824e-17
-2.47934e-14
-8.82792e-18
-2.71601e-14
-7.18808e-18
-2.78791e-14
-2.98975e-18
-2.72594e-14
7.49182e-18
-2.70995e-14
-2.7741e-14
-1.03725e-11
-1.45213e-06
-2.98391e-07
-2.77287e-11
-1.45215e-06
-2.98395e-07
-3.7464e-11
-1.45199e-06
-2.98398e-07
-3.40571e-11
-1.45224e-06
-2.9845e-07
-1.33448e-11
-1.4522e-06
-2.98445e-07
-1.45178e-06
-2.98411e-07
1.16017e-11
1.03777e-12
-3.59281e-08
-2.37779e-12
1.13668e-12
-3.5908e-08
-1.13113e-11
1.16674e-12
-3.59115e-08
-1.85745e-11
1.14076e-12
-3.59079e-08
-2.93914e-11
1.13404e-12
-3.59086e-08
1.16102e-12
-3.5943e-08
-1.27603e-17
-8.87179e-15
-1.09919e-17
-9.71752e-15
-7.99197e-18
-9.97435e-15
-1.76877e-18
-9.75206e-15
1.18762e-17
-9.69452e-15
-9.92547e-15
-3.93581e-11
-1.04781e-06
-2.80224e-10
-6.5119e-11
-1.04788e-06
-2.82349e-10
-6.47435e-11
-1.04786e-06
-2.83461e-10
-4.99705e-11
-1.04785e-06
-2.87162e-10
-1.94031e-11
-1.04784e-06
-2.8816e-10
-1.04789e-06
-3.1201e-10
1.40013e-11
8.09088e-15
-7.476e-10
-5.5566e-12
8.8874e-15
-7.45151e-10
-2.0202e-11
9.15427e-15
-7.44247e-10
-2.64407e-11
8.94185e-15
-7.43324e-10
-3.27569e-11
8.87515e-15
-7.43644e-10
8.76217e-15
-7.42906e-10
-7.97454e-20
-3.33562e-18
-4.70345e-20
-3.33694e-18
-1.9225e-20
-3.33704e-18
2.42268e-20
-3.33723e-18
1.16878e-19
-3.34026e-18
-3.33313e-18
-4.79853e-14
-8.30706e-09
-3.20528e-11
-7.11424e-14
-8.30862e-09
-3.12577e-11
-7.96359e-14
-8.30795e-09
-3.12316e-11
-7.31702e-14
-8.30522e-09
-3.14762e-11
-5.71727e-14
-8.29943e-09
-3.14958e-11
-8.29709e-09
-3.03971e-11
1.46759e-13
-6.45341e-15
-3.55762e-12
5.97595e-14
-6.45557e-15
-3.54011e-12
-5.26783e-15
-6.45534e-15
-3.546e-12
-6.64723e-14
-6.4554e-15
-3.54927e-12
-1.55532e-13
-6.46082e-15
-3.55046e-12
-6.44717e-15
-3.55799e-12
7.67705e-22
-6.45674e-15
-8.2945e-22
-6.45889e-15
-1.4732e-21
-6.45867e-15
-1.83134e-21
-6.45873e-15
-2.88466e-21
-6.46415e-15
-6.45049e-15
-5.51714e-16
-2.61727e-12
1.66073e-11
-5.3068e-16
-2.61403e-12
1.66261e-11
-6.39221e-16
-2.61478e-12
1.66363e-11
-5.18247e-16
-2.61549e-12
1.66663e-11
-4.22745e-16
-2.61391e-12
1.66948e-11
-2.61723e-12
1.67143e-11
-3.18242e-17
-2.6238e-13
-5.82135e-12
-6.3911e-17
-2.62483e-13
-5.80031e-12
-4.35787e-17
-2.62462e-13
-5.80705e-12
-2.02691e-17
-2.62458e-13
-5.81105e-12
5.72004e-17
-2.6261e-13
-5.81051e-12
-2.62149e-13
-5.82206e-12
-6.51379e-20
-2.68809e-13
-5.00266e-19
-2.68914e-13
-9.47462e-19
-2.68894e-13
-1.2633e-18
-2.68889e-13
-7.79484e-19
-2.69047e-13
-2.68573e-13
-1.12843e-14
-2.86654e-10
-8.28476e-10
-9.43023e-15
-2.84874e-10
-8.30216e-10
-3.7172e-14
-2.8538e-10
-8.29986e-10
-4.20805e-14
-2.8575e-10
-8.30626e-10
-1.16116e-13
-2.85641e-10
-8.31262e-10
-2.87206e-10
-8.32599e-10
-2.16105e-15
-4.21812e-11
-2.26486e-10
-2.53709e-15
-4.21517e-11
-2.24861e-10
-3.09403e-15
-4.2161e-11
-2.25294e-10
1.09342e-15
-4.21681e-11
-2.25599e-10
1.47379e-14
-4.21874e-11
-2.25498e-10
-4.21525e-11
-2.26706e-10
-2.65603e-16
-4.24497e-11
-5.15566e-16
-4.24204e-11
-7.41891e-16
-4.24297e-11
-6.4703e-16
-4.24371e-11
5.32753e-16
-4.24576e-11
-4.24205e-11
2.73383e-11
-1.94834e-08
3.73423e-06
1.11359e-11
-1.93575e-08
3.73085e-06
-2.62261e-12
-1.93902e-08
3.73373e-06
-1.82811e-11
-1.9414e-08
3.73627e-06
-8.03956e-11
-1.9396e-08
3.73914e-06
-1.95273e-08
3.73904e-06
3.75431e-12
-5.5101e-09
-1.32286e-08
1.23901e-12
-5.50229e-09
-1.31191e-08
5.37864e-13
-5.50502e-09
-1.3157e-08
3.90656e-13
-5.50733e-09
-1.31868e-08
2.94867e-13
-5.50765e-09
-1.31774e-08
-5.51438e-09
-1.32995e-08
1.5357e-13
-5.5391e-09
-5.93153e-14
-5.53127e-09
-1.64684e-13
-5.53422e-09
-1.06945e-13
-5.53683e-09
3.83636e-13
-5.53779e-09
-5.54343e-09
2.612e-08
5.63592e-05
0.00106072
-1.10502e-08
5.64226e-05
0.00106088
-2.13333e-08
5.64124e-05
0.00106083
-2.20581e-08
5.63848e-05
0.00106081
-5.33737e-08
5.6319e-05
0.00106084
5.64762e-05
0.00106081
4.75207e-09
1.88329e-06
5.49276e-05
1.85966e-09
1.88656e-06
5.49961e-05
5.45304e-10
1.88557e-06
5.49851e-05
-1.03104e-09
1.88568e-06
5.49575e-05
-3.0576e-09
1.88416e-06
5.48933e-05
1.88494e-06
5.50452e-05
1.41772e-10
1.69027e-06
1.11732e-10
1.69351e-06
1.10241e-10
1.69253e-06
6.32781e-11
1.69274e-06
3.9706e-11
1.69107e-06
1.69253e-06
6.85081e-07
0.00299984
0.0395101
-6.12449e-08
0.00300238
0.0395076
-1.31596e-07
0.00300224
0.0395069
-1.6302e-07
0.00300005
0.0395091
1.62821e-07
0.00299565
0.0395107
0.00300777
0.0395062
1.2329e-07
0.000150479
0.00289955
6.9048e-08
0.000150961
0.00290185
4.06218e-08
0.000150824
0.00290181
1.54233e-08
0.000150842
0.00289956
1.23988e-07
0.00015048
0.00289534
0.00015117
0.00290714
7.07704e-09
0.000132444
7.24532e-09
0.000132912
6.35188e-09
0.000132782
4.91238e-09
0.000132804
1.33352e-08
0.000132449
0.000133132
0.000139374
0.221268
1.16619
6.9153e-05
0.221346
1.16623
-9.05247e-06
0.22139
1.1662
5.61326e-05
0.221276
1.16639
0.000205837
0.220824
1.1672
0.221975
1.16535
2.70577e-05
0.00573155
0.151878
8.30755e-06
0.00575378
0.152015
-1.79716e-06
0.00574882
0.151981
3.72958e-06
0.00575123
0.151943
3.77475e-05
0.00572706
0.151983
0.00577428
0.151999
2.00465e-06
0.00505051
1.2502e-06
0.00506751
5.37522e-07
0.00506395
8.52304e-07
0.00506692
5.92046e-06
0.00504641
0.0050867
-8.98475e-18
-1.89961e-10
1.7493e-10
-4.87599e-12
-8.97648e-17
-1.85584e-10
1.70236e-10
-4.84309e-12
-5.02836e-16
-1.92732e-10
1.77922e-10
-4.90015e-12
1.97653e-16
-1.78038e-10
1.62131e-10
-4.77091e-12
-3.01643e-15
-1.24192e-10
8.6587e-11
-4.40425e-12
-2.60916e-10
2.50063e-10
-5.43159e-12
1.28048e-11
-8.68681e-07
8.86172e-07
-1.79734e-08
6.96351e-12
-8.52209e-07
8.69549e-07
-1.77846e-08
3.65299e-11
-8.84321e-07
9.01965e-07
-1.81718e-08
1.39644e-11
-8.27137e-07
8.44182e-07
-1.74943e-08
-3.19502e-10
-5.74203e-07
5.88478e-07
-1.44198e-08
-1.12654e-06
1.14635e-06
-2.09432e-08
-1.98897e-09
-7.62482e-06
1.0686e-07
-7.03211e-10
-7.63204e-06
1.07041e-07
-1.99013e-08
-7.60657e-06
1.06697e-07
-7.03115e-09
-7.65349e-06
1.07591e-07
1.01366e-07
-7.7729e-06
1.09361e-07
-7.47646e-06
1.04643e-07
-8.08991e-12
-3.1652e-07
3.17622e-07
-2.22743e-12
-3.16214e-07
3.17294e-07
-2.59227e-11
-3.14919e-07
3.16042e-07
4.78404e-13
-3.16412e-07
3.1746e-07
2.16037e-10
-3.19639e-07
3.20375e-07
-3.10893e-07
3.12325e-07
4.30419e-08
0.000171432
-0.000170311
3.09312e-08
0.000171395
-0.000170233
1.42092e-07
0.000171493
-0.000170426
4.00798e-08
0.00017112
-0.000169889
-8.65685e-07
0.00017013
-0.000168312
0.000172009
-0.000171485
5.57376e-07
-0.00181284
4.68291e-07
-0.00181418
1.87115e-06
-0.00181291
6.53012e-08
-0.00181418
-1.11521e-05
-0.00182793
-0.00179838
4.66772e-11
5.72527e-05
-5.5132e-05
-4.96454e-10
5.71794e-05
-5.50613e-05
-3.73111e-09
5.70655e-05
-5.49458e-05
-6.18909e-10
5.71298e-05
-5.50166e-05
1.51356e-08
5.72813e-05
-5.5183e-05
5.66113e-05
-5.44817e-05
-2.7345e-07
0.015536
-0.0137875
-4.79953e-07
0.0155409
-0.0138101
-1.21647e-06
0.0155426
-0.013832
3.83365e-08
0.0155042
-0.0137472
4.1587e-06
0.0154817
-0.0135003
0.0155479
-0.0140603
3.58728e-06
-0.0808287
2.23978e-06
-0.0808705
2.13622e-05
-0.0808631
5.1013e-07
-0.0808925
-0.000113323
-0.0809451
-0.0807942
3.57307e-08
0.00186546
-0.001968
-5.77074e-08
0.00186484
-0.00196709
-6.19687e-07
0.00186507
-0.00196657
6.81794e-08
0.00186336
-0.00196659
5.25761e-06
0.001848
-0.00195668
0.00188007
-0.00197548
6.94364e-07
0.156067
-0.232854
-3.44478e-06
0.156141
-0.232954
-2.14768e-05
0.15614
-0.233065
-1.31564e-05
0.15617
-0.233781
5.09692e-05
0.156115
-0.232308
0.156166
-0.233669
1.54128e-05
-0.110814
9.88063e-06
-0.110964
2.52777e-05
-0.111095
-2.29554e-07
-0.111375
-0.000123143
-0.110022
-0.11249
-3.24062e-07
0.131214
-0.403179
3.96621e-06
0.131243
-0.403332
6.0694e-05
0.131168
-0.402832
-1.1357e-05
0.131343
-0.404033
-0.000187834
0.131975
-0.408396
0.130492
-0.398068
2.68882e-05
0.0903578
-0.441062
2.68932e-05
0.0904813
-0.441205
5.18954e-05
0.0906878
-0.441661
-5.89201e-05
0.0913844
-0.443351
2.46746e-05
0.0897268
-0.441279
0.0922474
-0.444419
3.84108e-06
-0.00904367
3.6428e-06
-0.00908018
2.08562e-06
-0.00907381
-2.10673e-06
-0.0090963
1.83169e-05
-0.00902803
-0.00914462
4.48323e-05
0.390192
4.36266e-05
0.390477
0.000211473
0.39011
5.70181e-05
0.39087
-0.000984187
0.393575
0.387183
4.66511e-05
0.00399552
3.39777e-05
0.00401198
6.08557e-05
0.00400943
-1.03845e-05
0.00402851
-5.68023e-05
0.00398768
0.00405147
2.36177e-06
1.67681e-06
1.24963e-06
3.84907e-07
6.44672e-06
-8.97791e-59
-8.41492e-55
7.09035e-54
-1.22817e-58
-8.43235e-55
7.10389e-54
6.1462e-60
-8.43221e-55
7.10314e-54
2.81444e-58
-8.43254e-55
7.10336e-54
4.90838e-58
-8.43492e-55
7.10594e-54
-8.41686e-55
7.09146e-54
6.32639e-60
-3.67382e-58
7.71948e-56
2.301e-60
-3.68186e-58
7.73524e-56
5.71188e-61
-3.68175e-58
7.73513e-56
-6.05419e-61
-3.68191e-58
7.73544e-56
-2.11235e-60
-3.68302e-58
7.73773e-56
-3.67481e-58
7.72127e-56
5.94673e-64
1.0084e-59
-5.61449e-66
1.01057e-59
-3.00661e-64
1.01055e-59
-8.0101e-64
1.01061e-59
-1.45261e-63
1.01094e-59
1.00871e-59
-2.37954e-53
-4.08831e-50
3.36162e-49
-1.99887e-53
-4.09656e-50
3.3681e-49
-2.54682e-54
-4.09653e-50
3.36783e-49
1.56434e-53
-4.09668e-50
3.36807e-49
2.46766e-53
-4.09774e-50
3.36937e-49
-4.08945e-50
3.36282e-49
-4.79769e-56
-2.05707e-53