/*--------------------------------*- C++ -*----------------------------------*\
| =========                 |                                                 |
| \\      /  F ield         | OpenFOAM: The Open Source CFD Toolbox           |
|  \\    /   O peration     | Version:  v1612+                                |
|   \\  /    A nd           | Web:      www.OpenFOAM.com                      |
|    \\/     M anipulation  |                                                 |
\*---------------------------------------------------------------------------*/
FoamFile
{
    version     2.0;
    format      ascii;
    class       surfaceScalarField;
    location    "2.5";
    object      phi;
}
// * * * * * * * * * * * * * * * * * * * * * * * * * * * * * * * * * * * * * //

dimensions      [0 3 -1 0 0 0 0];

internalField   nonuniform List<scalar> 
2916
(
-8.60802e-06
0.621026
-0.621017
-4.27196e-06
0.621028
-0.621032
-3.94962e-06
0.621028
-0.621028
-7.22169e-06
0.621029
-0.621026
-2.50296e-06
0.621031
-0.621035
0.621024
-0.621027
-7.76505e-06
1.24088
-0.619846
-4.63175e-06
1.24089
-0.619861
-6.49724e-06
1.24089
-0.619858
-5.97357e-06
1.24089
-0.619858
3.54625e-06
1.24089
-0.619867
1.24088
-0.619855
-7.30038e-06
1.66223
-0.421345
-4.19285e-06
1.66224
-0.42136
-6.07507e-06
1.66224
-0.421355
-5.9209e-06
1.66224
-0.421356
2.49217e-06
1.66224
-0.421364
1.66224
-0.42135
-6.71638e-06
1.95398
-0.291745
-4.8284e-06
1.954
-0.291757
-7.29535e-06
1.954
-0.291752
-7.21462e-06
1.954
-0.291753
7.10658e-07
1.954
-0.291761
1.95398
-0.291747
-7.28004e-06
2.18036
-0.226366
-6.67995e-06
2.18037
-0.226374
-9.24922e-06
2.18037
-0.22637
-8.26045e-06
2.18037
-0.226373
2.06e-07
2.18037
-0.226381
2.18035
-0.226367
-9.28778e-06
2.37088
-0.19051
-8.43503e-06
2.37089
-0.190519
-1.0405e-05
2.37089
-0.190516
-9.06572e-06
2.37089
-0.190519
-6.09307e-07
2.37089
-0.190527
2.37086
-0.190514
-1.09657e-05
2.52533
-0.154441
-8.12668e-06
2.52534
-0.154452
-8.82826e-06
2.52534
-0.154449
-7.92002e-06
2.52534
-0.154452
-6.20902e-07
2.52534
-0.154459
2.52531
-0.154448
-6.89967e-06
2.63888
-0.113548
-2.57864e-06
2.6389
-0.113565
-2.24266e-06
2.6389
-0.113559
-1.68466e-06
2.6389
-0.11356
2.56164e-06
2.6389
-0.113567
2.63887
-0.113555
-3.04904e-06
2.47999
0.158899
6.16993e-06
2.48002
0.158871
6.93413e-06
2.48002
0.15888
5.76443e-06
2.48001
0.158884
7.5111e-06
2.48002
0.158878
2.47998
0.158901
-9.08941e-07
1.78734
0.69265
7.67331e-06
1.78738
0.692629
1.07006e-05
1.78738
0.692631
9.75664e-06
1.78738
0.692637
6.83982e-06
1.78739
0.692633
1.78733
0.692649
5.10506e-06
0.687525
1.09981
-2.31297e-07
0.687571
1.09982
4.7392e-06
0.687569
1.09981
6.17311e-06
0.687567
1.09981
2.43763e-07
0.687591
1.09981
0.687524
1.09981
-3.55436e-05
0.68756
-2.50082e-05
0.68756
-1.60483e-05
0.68756
-8.98599e-06
0.68756
1.22999e-05
0.68757
0.687536
-1.24934e-06
0.628627
-1.24964
-6.13677e-06
0.628625
-1.24965
-7.9118e-06
0.628629
-1.24965
-1.22679e-05
0.628631
-1.24965
-1.51445e-05
0.628629
-1.24966
0.628624
-1.24967
2.29916e-05
1.34284
-1.33408
-8.6071e-06
1.34285
-1.33406
-1.71912e-05
1.34285
-1.33407
-1.23596e-05
1.34285
-1.33409
-2.53831e-05
1.34286
-1.33409
1.34284
-1.3341
2.35893e-05
1.78667
-0.865195
-3.36048e-06
1.7867
-0.865177
-1.21736e-05
1.78669
-0.865184
-1.00921e-05
1.78669
-0.865194
-2.31491e-05
1.7867
-0.865195
1.78667
-0.865205
2.58907e-05
2.10968
-0.614783
4.63911e-06
2.10972
-0.614763
-3.27062e-06
2.10971
-0.614766
-7.06628e-06
2.10971
-0.614771
-2.30768e-05
2.10973
-0.614772
2.10969
-0.614787
2.68251e-05
2.36438
-0.481094
1.1132e-05
2.36444
-0.481078
5.76293e-06
2.36442
-0.481081
-1.38129e-06
2.36443
-0.481084
-1.89084e-05
2.36445
-0.481084
2.3644
-0.481102
2.6742e-05
2.65805
-0.484207
1.70107e-05
2.65813
-0.484201
1.59318e-05
2.65811
-0.484203
8.42939e-06
2.65812
-0.484203
-7.30931e-06
2.65814
-0.484202
2.6581
-0.484217
3.0615e-05
3.05641
-0.552826
2.63991e-05
3.05652
-0.552835
2.91601e-05
3.05649
-0.552832
2.22368e-05
3.0565
-0.552827
7.21784e-06
3.05652
-0.552826
3.05648
-0.552825
3.29467e-05
3.55728
-0.614455
3.22482e-05
3.55742
-0.614466
3.47125e-05
3.55739
-0.614455
2.76921e-05
3.55739
-0.614444
9.61834e-06
3.55741
-0.614439
3.55736
-0.614426
3.22505e-05
3.68821
0.0279357
2.79495e-05
3.68838
0.0279204
2.73246e-05
3.68833
0.0279336
2.13816e-05
3.68833
0.0279488
-3.23913e-06
3.68836
0.0279595
3.68828
0.0279764
4.5929e-05
2.96306
1.41776
1.85305e-05
2.96324
1.4178
1.40914e-05
2.96319
1.41778
6.39371e-06
2.96319
1.41779
-2.07453e-05
2.96322
1.4178
2.96313
1.41779
5.10351e-05
1.36519
2.69763
2.41431e-05
1.36532
2.69776
1.99895e-05
1.36528
2.69772
1.21935e-05
1.36528
2.69772
-1.13753e-05
1.36529
2.69775
1.36523
2.6977
-4.43544e-05
2.05279
-7.45461e-06
2.05285
3.8684e-06
2.05283
1.14961e-05
2.05283
2.93085e-05
2.05285
2.05279
1.23914e-05
0.545441
-1.7951
-1.11358e-05
0.545424
-1.79505
-1.50101e-05
0.545442
-1.79509
1.14874e-05
0.545421
-1.7951
1.36893e-05
0.545407
-1.79507
0.545492
-1.79514
-9.47923e-06
1.92923
-2.71787
-2.5286e-05
1.92924
-2.71785
4.20039e-06
1.92923
-2.71788
2.12571e-05
1.92921
-2.71789
-1.05926e-05
1.92923
-2.71787
1.92925
-2.71786
-3.1855e-06
3.88458
-2.82053
-1.52552e-05
3.88459
-2.82052
1.5124e-05
3.88456
-2.82054
2.88216e-05
3.88457
-2.82056
-8.17675e-06
3.88461
-2.82054
3.88458
-2.82055
6.34154e-05
5.74516
-2.47543
0.000121581
5.74522
-2.47545
0.000149683
5.74522
-2.47545
0.000145531
5.74524
-2.47544
0.000116965
5.74529
-2.47542
5.74532
-2.47541
0.000132501
7.44331
-2.17938
0.00026817
7.44344
-2.17943
0.000298223
7.44349
-2.17939
0.000265261
7.44356
-2.17937
0.000206819
7.4436
-2.17934
7.44371
-2.17929
8.36558e-05
9.14961
-2.19058
0.000274091
9.1497
-2.19065
0.000325599
9.14982
-2.19059
0.000301037
9.14991
-2.19054
0.000307832
9.14991
-2.19052
9.15016
-2.19036
1.95992e-05
10.625
-2.02821
0.000185384
10.625
-2.02832
0.000246426
10.6252
-2.02822
0.000227525
10.6252
-2.02812
0.000329057
10.6251
-2.02813
10.6255
-2.0278
9.58237e-05
10.7892
-0.778758
6.91943e-05
10.7894
-0.778831
6.73731e-05
10.7894
-0.778741
3.20928e-05
10.7895
-0.778647
5.57401e-05
10.7893
-0.778662
10.7897
-0.77855
-7.95202e-07
7.29856
3.51855
-8.80091e-05
7.29879
3.51862
-4.85345e-05
7.2988
3.51854
2.06103e-05
7.29882
3.51853
3.67445e-06
7.29873
3.51857
7.29907
3.51857
-1.12001e-05
3.20892
5.50742
-7.90137e-06
3.20894
5.50764
1.61693e-05
3.20895
5.5076
1.96359e-05
3.20898
5.50763
-3.07179e-06
3.20894
5.50761
3.20909
5.50776
3.06947e-05
0.768405
5.13811
8.72297e-07
0.768432
5.1383
-2.98052e-06
0.768417
5.13826
-1.29799e-05
0.768412
5.1383
-3.85422e-05
0.768389
5.13833
0.768406
5.13835
4.88555e-06
2.82119
1.96203e-05
2.82126
2.83167e-05
2.82124
4.14562e-05
2.82123
7.72478e-06
2.82127
2.8212
-7.26999e-05
0.433633
-2.22866
-3.78266e-05
0.433622
-2.22871
3.64376e-06
0.433623
-2.22876
5.80187e-05
0.433587
-2.22874
0.000111396
0.433578
-2.2287
0.43369
-2.22872
-9.07982e-05
0.560486
-2.84463
-3.52937e-05
0.560386
-2.84467
2.5613e-05
0.560342
-2.84466
2.12461e-05
0.56036
-2.84466
7.76076e-06
0.560386
-2.84466
0.56041
-2.84457
-6.69664e-05
-0.154546
-2.10543
7.37935e-06
-0.154706
-2.1055
3.71827e-05
-0.154737
-2.1055
5.23422e-05
-0.154725
-2.10549
9.39117e-05
-0.154698
-2.1055
-0.154622
-2.10543
4.10532e-05
-0.605666
-2.02435
0.000155855
-0.605779
-2.0245
0.000172441
-0.605727
-2.02448
0.000158768
-0.605689
-2.02447
0.000170941
-0.605655
-2.02448
-0.60553
-2.02433
1.9917e-06
-1.14644
-1.6386
0.000128667
-1.14656
-1.63878
0.000164154
-1.14642
-1.63873
0.000160714
-1.14636
-1.6387
0.000192279
-1.14634
-1.63869
-1.14613
-1.6385
-0.000272719
-1.38452
-1.95224
-0.000262861
-1.38479
-1.95243
-0.000229669
-1.38465
-1.95239
-0.000136479
-1.38462
-1.95237
9.37805e-05
-1.3847
-1.95239
-1.38427
-1.95212
-0.000287121
-0.863886
-2.54855
-0.000357395
-0.864229
-2.54881
-0.000403581
-0.864089
-2.54873
-0.00036862
-0.864084
-2.54869
-0.000147231
-0.864279
-2.54878
-0.863764
-2.54845
-5.28301e-05
1.57046
-3.21306
-0.000170215
1.57032
-3.21327
-0.000344344
1.57046
-3.21312
-0.000457578
1.57043
-3.21305
-0.000837424
1.57048
-3.21304
1.57013
-3.21329
-8.42183e-05
3.9378
1.1513
-0.000132676
3.93784
1.15116
-0.00028929
3.93793
1.15124
-0.0004174
3.93788
1.15121
-0.00105302
3.93813
1.15156
3.93728
1.15037
-0.000115503
2.80955
6.63579
-0.000174205
2.8096
6.63594
-8.63164e-05
2.80967
6.63577
3.11624e-05
2.80965
6.63575
3.26647e-05
2.80977
6.63597
2.80949
6.63559
0.000179632
0.986137
6.96134
-5.27757e-05
0.986415
6.96171
-4.72238e-05
0.986353
6.96157
-2.42795e-06
0.986304
6.9616
0.000128259
0.986354
6.96162
0.986203
6.96176
3.32852e-06
3.80733
-3.37427e-06
3.80769
5.34231e-05
3.80754
4.37657e-05
3.80755
-0.000106104
3.80777
3.8073
-1.22052e-06
0.00224167
-0.00224045
-9.1291e-07
0.00224165
-0.00224037
-8.24174e-07
0.00224149
-0.0022403
-6.80021e-07
0.00224124
-0.00224029
-4.15242e-07
0.00224097
-0.00224027
0.00224065
-0.00224019
-7.5496e-07
0.00455891
-0.00231537
-1.05074e-06
0.00455845
-0.00231464
-1.43203e-06
0.00455781
-0.00231445
-1.46001e-06
0.00455705
-0.00231446
-9.1934e-07
0.00455624
-0.00231458
0.00455526
-0.00231477
-5.57837e-07
0.00701674
-0.00245645
-2.09282e-06
0.00701499
-0.00245393
-3.37468e-06
0.00701321
-0.00245322
-3.69969e-06
0.00701137
-0.00245314
-2.63859e-06
0.00700945
-0.00245343
0.00700721
-0.00245406
-1.65106e-06
0.00969183
-0.00267298
-5.43936e-06
0.00968712
-0.00266785
-8.19438e-06
0.00968294
-0.0026665
-8.82087e-06
0.00967901
-0.00266652
-6.4714e-06
0.00967506
-0.00266747
0.00967046
-0.00266947
-6.31796e-06
0.0127013
-0.00300292
-1.37447e-05
0.0126907
-0.002996
-1.82211e-05
0.0126824
-0.00299485
-1.85623e-05
0.0126754
-0.00299591
-1.34384e-05
0.0126687
-0.00299868
0.0126607
-0.00300364
-1.86338e-05
0.016171
-0.00345105
-2.99839e-05
0.0161516
-0.00344979
-3.43773e-05
0.0161388
-0.0034522
-3.22598e-05
0.0161295
-0.00345631
-2.23465e-05
0.016121
-0.00346232
0.0161095
-0.00347124
-3.75754e-05
0.0200694
-0.00386092
-4.97704e-05
0.0200404
-0.00387677
-4.94472e-05
0.0200261
-0.00388767
-4.14368e-05
0.0200188
-0.00389734
-2.63898e-05
0.0200133
-0.00390728
0.0200022
-0.00391895
-5.13096e-05
0.0239694
-0.00384883
-5.35813e-05
0.0239348
-0.00389201
-4.05684e-05
0.0239257
-0.00391246
-2.39907e-05
0.0239278
-0.00392535
-9.64704e-06
0.0239327
-0.00393361
0.0239309
-0.00393841
-3.77281e-05
0.0268713
-0.00286418
-1.65352e-05
0.0268403
-0.00292623
1.34585e-05
0.0268417
-0.00294554
3.53555e-05
0.026855
-0.00294883
3.61827e-05
0.0268726
-0.00294057
0.026887
-0.00292025
1.395e-05
0.0260676
0.00079004
5.88725e-05
0.0260474
0.000748481
9.68589e-05
0.0260545
0.000749275
0.00011234
0.0260726
0.000766607
8.94036e-05
0.0260976
0.000797489
0.0261302
0.000845874
6.87308e-05
0.0203203
0.00567885
0.000110518
0.020307
0.005699
0.000132058
0.0203071
0.00572605
0.000132307
0.0203125
0.00575954
9.84412e-05
0.0203267
0.00580433
0.020358
0.00587058
3.67445e-05
0.0202836
3.14729e-05
0.0203122
1.92311e-05
0.0203192
8.34628e-06
0.0203234
8.3384e-07
0.0203342
0.0203591
-9.01455e-07
0.00229483
-0.00453323
-7.87998e-07
0.00229445
-0.00453313
-7.20718e-07
0.00229408
-0.00453302
-5.30714e-07
0.00229372
-0.00453297
-1.86761e-07
0.00229343
-0.00453294
0.0022931
-0.00453286
-1.26861e-06
0.0046968
-0.00471453
-1.61891e-06
0.0046955
-0.00471373
-1.69117e-06
0.00469442
-0.0047134
-1.39952e-06
0.00469345
-0.00471329
-6.87951e-07
0.0046926
-0.00471336
0.00469168
-0.00471356
-2.86215e-06
0.00729854
-0.00505438
-4.07723e-06
0.00729535
-0.00505164
-4.32416e-06
0.0072929
-0.00505062
-3.74719e-06
0.00729082
-0.00505028
-2.22441e-06
0.00728896
-0.0050505
0.007287
-0.00505127
-6.353e-06
0.0101719
-0.00553957
-8.9463e-06
0.0101648
-0.0055343
-9.35923e-06
0.0101598
-0.00553258
-8.15687e-06
0.0101558
-0.00553228
-5.18454e-06
0.0101523
-0.0055333
0.0101483
-0.00553589
-1.29263e-05
0.0132846
-0.00610248
-1.72281e-05
0.01327
-0.00609687
-1.72688e-05
0.013261
-0.00609592
-1.46849e-05
0.0132544
-0.00609701
-9.38364e-06
0.0132486
-0.00610034
0.0132419
-0.00610666
-2.2083e-05
0.0164968
-0.00664128
-2.69084e-05
0.0164691
-0.00664431
-2.47441e-05
0.0164551
-0.00664873
-1.94498e-05
0.0164469
-0.00665433
-1.18321e-05
0.0164407
-0.00666208
0.0164323
-0.00667348
-2.85046e-05
0.0196496
-0.0069855
-2.73535e-05
0.0196036
-0.00701261
-1.83303e-05
0.0195868
-0.00702854
-8.90286e-06
0.0195815
-0.00704135
-2.5649e-06
0.0195806
-0.00705336
0.0195769
-0.00706607
-1.69161e-05
0.0224038
-0.0065861
8.10073e-07
0.02234
-0.00664592
2.25385e-05
0.0223254
-0.00667263
3.51008e-05
0.0223305
-0.00668674
3.05732e-05
0.022344
-0.00669245
0.0223581
-0.00668932
2.59342e-05
0.0241897
-0.00467568
6.90667e-05
0.02412
-0.00474908
0.000101158
0.0241155
-0.00476775
0.000109727
0.0241368
-0.00476407
8.24205e-05
0.0241726
-0.00474248
0.0242191
-0.00469931
7.86841e-05
0.0233244
0.00157704
0.000129644
0.0232726
0.00154516
0.00015375
0.0232834
0.00155716
0.000146811
0.0233217
0.00158814
0.000100107
0.0233794
0.00163666
0.0234586
0.00170629
9.08023e-05
0.0191098
0.00980275
0.000109467
0.0190952
0.00985743
9.94083e-05
0.0191165
0.00990271
7.53312e-05
0.0191557
0.00994956
4.01606e-05
0.0192103
0.0100086
0.0192815
0.0100882
-5.49134e-06
0.039399
-5.37494e-05
0.0394554
-9.77474e-05
0.0394796
-0.000114328
0.039496
-9.02223e-05
0.0395206
0.0395506
-3.78557e-07
0.002248
-0.00678001
-4.3903e-07
0.00224771
-0.00678
-4.20347e-07
0.00224746
-0.00677992
-2.73394e-07
0.00224723
-0.00677989
-4.08306e-08
0.0022471
-0.00677988
0.00224702
-0.00677982
-8.98738e-07
0.004639
-0.0071038
-1.21371e-06
0.0046381
-0.00710322
-1.16807e-06
0.00463742
-0.00710294
-8.32887e-07
0.00463687
-0.00710285
-3.07729e-07
0.00463654
-0.00710292
0.00463632
-0.0071031
-2.41468e-06
0.00731493
-0.00772744
-3.1052e-06
0.0073128
-0.0077253
-2.88856e-06
0.00731137
-0.00772445
-2.09436e-06
0.00731032
-0.00772417
-9.46454e-07
0.00730968
-0.00772444
0.00730935
-0.0077252
-5.18172e-06
0.010445
-0.00866426
-6.2403e-06
0.0104401
-0.00866039
-5.5181e-06
0.0104373
-0.0086591
-3.87496e-06
0.0104355
-0.00865901
-1.82799e-06
0.0104347
-0.0086602
0.0104344
-0.00866283
-9.40585e-06
0.014306
-0.00995398
-1.00585e-05
0.0142952
-0.00995144
-7.79788e-06
0.0142905
-0.00995146
-4.61971e-06
0.0142884
-0.00995314
-1.72565e-06
0.0142883
-0.00995694
0.0142894
-0.00996348
-1.31242e-05
0.0193128
-0.0116352
-1.02643e-05
0.0192918
-0.011644
-4.01055e-06
0.0192857
-0.0116504
1.45308e-06
0.0192856
-0.0116572
3.65651e-06
0.0192896
-0.0116657
0.0192962
-0.0116767
-8.39027e-06
0.0256686
-0.013333
4.42203e-06
0.0256343
-0.0133681
1.88332e-05
0.0256299
-0.0133873
2.6765e-05
0.0256377
-0.0134014
2.28334e-05
0.0256532
-0.0134131
0.0256747
-0.013422
1.82807e-05
0.0330496
-0.0139854
5.06876e-05
0.0330069
-0.0140509
7.47136e-05
0.0330116
-0.0140785
8.09616e-05
0.0330358
-0.0140914
6.0627e-05
0.0330731
-0.0140925
0.0331234
-0.014078
6.7661e-05
0.0401349
-0.0118285
0.000114438
0.0401027
-0.0118921
0.000136739
0.0401238
-0.011903
0.000130241
0.0401685
-0.0118912
8.82753e-05
0.0402302
-0.0118586
0.040311
-0.011799
9.35982e-05
0.044501
-0.00288288
0.000122042
0.0445078
-0.00288928
0.000117328
0.0445526
-0.0028676
8.96099e-05
0.0446169
-0.00283315
4.48422e-05
0.0446972
-0.00278582
0.0447877
-0.00272555
3.81933e-05
0.0417386
0.0125268
1.2271e-05
0.0417711
0.0126194
-2.37858e-05
0.0418158
0.0126753
-5.03268e-05
0.0418694
0.0127238
-5.1989e-05
0.0419298
0.0127783
0.0419822
0.0128417
-0.000103187
0.0812409
-0.000178724
0.0813025
-0.000222073
0.0813391
-0.000211812
0.0813554
-0.000150308
0.0813893
0.0813821
-8.3851e-08
0.0020768
-0.00885636
-2.4434e-07
0.00207646
-0.00885648
-2.24841e-07
0.00207628
-0.00885643
-1.12017e-07
0.00207619
-0.00885641
2.15945e-08
0.00207619
-0.00885643
0.00207623
-0.00885628
-6.81681e-07
0.00433506
-0.00936133
-8.1276e-07
0.00433418
-0.00936113
-5.76767e-07
0.00433378
-0.00936094
-2.39095e-07
0.00433364
-0.00936087
3.12742e-08
0.00433372
-0.00936092
0.00433387
-0.00936092
-1.84856e-06
0.00698062
-0.0103712
-1.71229e-06
0.00697876
-0.0103702
-9.42373e-07
0.00697812
-0.0103696
-1.21195e-07
0.00697806
-0.0103695
3.41345e-07
0.00697842
-0.0103697
0.00697888
-0.0103701
-2.87937e-06
0.0102547
-0.0119355
-1.96101e-06
0.0102511
-0.0119337
-2.19769e-07
0.0102503
-0.0119332
1.267e-06
0.0102508
-0.0119333
1.65176e-06
0.0102519
-0.0119343
0.0102533
-0.0119359
-1.80544e-06
0.0143434
-0.0140409
1.14196e-06
0.0143372
-0.0140407
4.61538e-06
0.0143369
-0.0140417
6.65896e-06
0.0143391
-0.0140437
5.77224e-06
0.0143425
-0.0140468
0.0143463
-0.0140508
5.70279e-06
0.0191661
-0.0164638
1.39157e-05
0.0191565
-0.0164716
1.98875e-05
0.0191584
-0.0164779
2.14699e-05
0.0191648
-0.0164845
1.61279e-05
0.0191738
-0.0164917
0.0191843
-0.0164986
2.60013e-05
0.0249742
-0.0191673
4.29527e-05
0.0249634
-0.0191921
5.08418e-05
0.0249709
-0.0192077
4.88267e-05
0.0249858
-0.0192205
3.38641e-05
0.025006
-0.0192307
0.0250315
-0.0192358
5.792e-05
0.032503
-0.0215722
8.16475e-05
0.0325017
-0.0216136
8.60398e-05
0.0325216
-0.0216342
7.50399e-05
0.0325508
-0.0216462
4.74042e-05
0.0325889
-0.0216487
0.0326385
-0.0216381
7.41157e-05
0.0431218
-0.0225218
8.87037e-05
0.0431522
-0.0225586
7.79075e-05
0.0431932
-0.022565
5.49697e-05
0.0432391
-0.0225576
2.47224e-05
0.0432952
-0.0225354
0.0433606
-0.0224965
3.38018e-05
0.0492238
-0.00901939
1.8368e-05
0.0492893
-0.00901228
-7.76617e-06
0.0493276
-0.00897694
-2.54374e-05
0.0493559
-0.00893301
-3.25206e-05
0.0493851
-0.00886886
0.0494094
-0.00880712
-0.000120132
0.0393601
0.0225102
-0.000197024
0.0394277
0.0225576
-0.000238963
0.0394502
0.0225945
-0.000223814
0.0394535
0.0226108
-0.000171804
0.0394575
0.0226536
0.0394348
0.0226439
-0.000152502
0.120753
-0.000194256
0.120772
-0.000212557
0.120808
-0.00015708
0.120753
-0.000185425
0.120874
0.120631
-3.78508e-05
-2.16855
-0.0600698
1.75963e-05
-2.16865
-0.0601112
2.88691e-05
-2.16865
-0.0601131
4.84612e-05
-2.16863
-0.0601287
0.000100936
-2.16862
-0.0601286
-2.16856
-0.0600601
8.67586e-06
-2.17426
0.0057017
6.00367e-06
-2.17434
0.00569815
-7.43606e-06
-2.17433
0.00569428
-1.28121e-05
-2.17431
0.00569179
-1.50575e-06
-2.17432
0.00569146
-2.17424
0.00568186
2.13109e-05
0.00257363
9.50527e-06
0.0025715
-9.56732e-07
0.00257062
-8.75813e-06
0.00257308
-1.85273e-05
0.0025744
0.00256603
-4.40058e-05
-2.44004
-0.464612
-1.18749e-05
-2.44011
-0.4647
9.96008e-06
-2.44008
-0.464714
1.61269e-05
-2.44007
-0.464724
2.68549e-05
-2.44009
-0.464718
-2.43997
-0.464636
-5.37466e-06
-2.32645
-0.107877
-1.87787e-05
-2.32653
-0.107872
-2.4378e-05
-2.32651
-0.107879
-1.93347e-05
-2.3265
-0.107887
-1.8558e-05
-2.32651
-0.107889
-2.32641
-0.107894
2.07265e-05
-0.0312128
1.12551e-05
-0.0312094
5.33884e-06
-0.0312109
-9.40452e-07
-0.031209
-1.56892e-05
-0.0312076
-0.0312205
1.34695e-05
-1.8487
-0.721355
-4.29997e-07
-1.84878
-0.721408
-2.19313e-05
-1.84876
-0.721431
-3.2805e-05
-1.84876
-0.721451
-1.55607e-05
-1.84878
-0.72146
-1.84865
-0.721425
4.19732e-06
-1.88718
-0.0694037
-6.71078e-06
-1.88725
-0.0693913
-1.0264e-05
-1.88723
-0.0694014
-1.5775e-05
-1.88723
-0.0694068
-3.02662e-05
-1.88724
-0.0694074
-1.88715
-0.0694228
2.03926e-05
0.0477725
1.55614e-05
0.047778
1.11608e-05
0.0477778
4.16168e-06
0.0477789
-1.21637e-05
0.04778
0.0477704
-1.63385e-05
-2.28069
-0.465006
-4.71493e-05
-2.28085
-0.465024
-6.55908e-05
-2.28083
-0.465058
-6.31421e-05
-2.28083
-0.46509
-2.82978e-05
-2.28087
-0.465108
-2.28066
-0.465123
2.72664e-05
-2.28566
-0.0644547
-1.90528e-06
-2.28578
-0.0644362
-2.29217e-05
-2.28577
-0.0644434
-4.04393e-05
-2.28577
-0.0644458
-6.39989e-05
-2.2858
-0.0644486
-2.28568
-0.0644708
2.85247e-05
0.0189977
2.23177e-05
0.0189981
1.50625e-05
0.0189973
3.17968e-06
0.0189968
-2.27553e-05
0.0189964
0.0189953
-6.26483e-05
-1.99339
-0.110154
-0.000105433
-1.99357
-0.11018
-0.000105473
-1.99356
-0.110228
-8.36662e-05
-1.99355
-0.110262
-3.36808e-05
-1.99358
-0.110271
-1.99336
-0.110293
2.40882e-05
-2.05267
-0.00520157
-1.01434e-05
-2.05277
-0.00519994
-3.67863e-05
-2.05278
-0.00520027
-4.7396e-05
-2.05278
-0.00519994
-6.00609e-05
-2.05281
-0.0052011
-2.0527
-0.00519778
1.83025e-05
-0.0289092
9.8106e-06
-0.0289112
3.68596e-06
-0.0289135
-5.42492e-06
-0.0289151
-2.84231e-05
-0.0289173
-0.0289165
-6.39694e-05
-2.17933
0.117008
-9.8484e-05
-2.1795
0.116924
-0.000110062
-2.1795
0.116889
-0.000102051
-2.1795
0.116863
-8.35627e-05
-2.17953
0.116859
-2.17934
0.116844
4.36441e-05
-2.20025
0.0156703
1.89053e-05
-2.20035
0.0156778
2.7449e-06
-2.20035
0.0156697
-1.51815e-05
-2.20036
0.0156756
-3.43582e-05
-2.20038
0.0156604
-2.20027
0.0156899
5.01298e-06
-0.117745
-8.66005e-06
-0.117748
-1.36724e-05
-0.117748
-1.66305e-05
-0.11775
-2.68011e-05
-0.117757
-0.117748
-0.000126144
-2.32107
-0.110345
-0.000122648
-2.32122
-0.110666
-0.00014853
-2.32121
-0.11061
-0.000118345
-2.32121
-0.110653
-9.68278e-05
-2.32124
-0.110705
-2.32105
-0.110658
-2.63994e-05
-2.13676
-0.168617
-5.03149e-05
-2.13683
-0.168685
-3.32684e-05
-2.13683
-0.168722
-1.03519e-05
-2.13683
-0.168717
4.59543e-05
-2.13682
-0.168805
-2.13673
-0.16858
1.43993e-07
-0.157852
-1.10906e-05
-0.157848
-2.04582e-05
-0.157851
-2.71848e-05
-0.157854
-1.84503e-05
-0.15788
-0.157848
-2.92813e-05
-2.85967
-0.463702
-1.72809e-05
-2.85981
-0.464134
-8.24587e-05
-2.85976
-0.463904
-9.18558e-05
-2.85971
-0.463987
-0.000276066
-2.85955
-0.464008
-2.85982
-0.464399
-3.04598e-05
-2.33212
-0.696135
-3.73425e-05
-2.33218
-0.696307
-5.14478e-05
-2.33217
-0.696295
1.25397e-05
-2.33216
-0.696325
0.000222251
-2.33209
-0.696475
-2.3321
-0.69607
-2.38837e-05
-0.365866
-5.6661e-05
-0.365866
-8.34321e-05
-0.365893
-7.53461e-05
-0.365914
5.01693e-05
-0.36598
-0.365842
0.000359857
-1.27697
1.96421
0.000156401
-1.27717
1.96439
-2.88648e-05
-1.27695
1.96447
-0.000248201
-1.2769
1.96434
-0.00110715
-1.27614
1.96455
-1.27848
1.96334
0.000714608
-1.98992
0.0160946
0.000202038
-1.99001
0.0170481
5.53271e-05
-1.98988
0.016783
3.2362e-05
-1.98982
0.0166251
-3.60983e-05
-1.98929
0.0167455
-1.99053
0.0159425
0.000120199
-0.615989
-2.85039e-05
-0.615815
-0.000104455
-0.615871
-7.91584e-05
-0.615949
0.000193165
-0.615911
-0.616134
0.000420936
4.99757
3.60201
-0.00020613
4.9981
3.60285
-0.000365576
4.9977
3.60269
-0.000365506
4.99749
3.60259
-0.000928578
4.99833
3.60275
4.99573
3.60227
0.00123931
2.83135
2.18108
0.000482338
2.83256
2.18335
0.000123874
2.83221
2.18264
-0.000316884
2.83183
2.18272
-0.000873446
2.83276
2.18286
2.82902
2.18178
0.000965396
0.720402
0.000723228
0.721709
0.000692586
0.721231
0.000374399
0.721388
0.000203909
0.721494
0.720553
0.000855615
7.23792
3.32458
-0.000123826
7.23925
3.3263
-0.000189912
7.23857
3.32576
-0.000211914
7.23841
3.32581
8.26144e-05
7.23805
3.32603
7.23868
3.32542
0.00195329
6.05327
3.36377
0.00105306
6.05617
3.36733
0.0006237
6.05533
3.36631
0.00017649
6.05483
3.36675
0.00175115
6.0534
3.36594
6.05553
3.36669
0.00123054
2.23191
0.00119443
2.23402
0.00103501
2.23345
0.000779161
2.2338
0.00208087
2.23338
2.23409
0.000352636
3.52992
3.60164
0.000165072
3.53199
3.60218
-3.70398e-05
3.53144
3.60206
0.000141769
3.53108
3.60209
0.000528693
3.52986
3.60356
3.53296
3.60029
0.00171181
3.1514
3.74057
0.000502918
3.15791
3.74262
-9.05205e-05
3.1562
3.74215
0.000256125
3.15548
3.74199
0.00208571
3.15177
3.7422
3.15955
3.74218
0.00214047
3.87806
0.00137947
3.87958
0.000740831
3.87932
0.000808809
3.8799
0.00580045
3.88015
3.88029
-4.58336e-06
0.0147415
0.330191
-0.344928
-2.27784e-05
0.0147299
0.330178
-0.344891
-8.90514e-05
0.0148054
0.330222
-0.344961
1.49119e-05
0.0146177
0.330124
-0.344847
2.40389e-05
0.0147348
0.329993
-0.344738
0.0146436
0.330605
-0.345225
0.00045289
0.00462521
0.797113
-0.78745
0.000296535
0.00504491
0.797538
-0.787696
0.00113154
0.00427008
0.797485
-0.787784
-8.85512e-05
0.00588377
0.797575
-0.787621
-0.00828155
0.0116701
0.802571
-0.791314
-0.00223073
0.792447
-0.783855
-1.32524e-05
-0.883495
0.408586
-3.15597e-05
-0.884096
0.408718
-0.000357046
-0.882537
0.408331
0.000446347
-0.885631
0.409146
0.00187615
-0.89427
0.410458
-0.873468
0.407368
-3.89318e-05
-0.0478539
0.378083
-8.94769e-07
-0.0480327
0.378172
-0.00014633
-0.0477909
0.378157
6.47123e-05
-0.0481578
0.37807
0.00164877
-0.0492835
0.377691
-0.0468669
0.37912
0.000530916
1.32562
-0.576892
0.000426911
1.32602
-0.576406
0.001917
1.32546
-0.577258
0.000575549
1.32616
-0.575397
-0.0117829
1.33261
-0.56696
1.31838
-0.58458
0.000620246
-2.88256
0.000563424
-2.8834
0.00221547
-2.88233
0.000165588
-2.8835
-0.0128602
-2.89204
-2.87351
7.46276e-05
0.57965
-0.201641
-0.000118136
0.579734
-0.201369
-0.00137051
0.580313
-0.200905
-0.000214105
0.579005
-0.202092
0.00622209
0.575033
-0.203777
0.583948
-0.198606
-9.94312e-05
2.50801
-2.50515
-0.000158819
2.50824
-2.50485
-0.000447912
2.50851
-2.50517
6.20173e-05
2.50751
-2.50441
0.00187693
2.50811
-2.50186
2.50807
-2.50682
0.000267699
-5.32242
0.000189349
-5.32298
0.00160443
-5.32257
9.4991e-05
-5.32252
-0.00835123
-5.33086
-5.31391
9.34271e-05
0.169859
-0.371594
6.71258e-05
0.169769
-0.371108
-0.000474451
0.169984
-0.370348
-1.67358e-05
0.169768
-0.372319
0.00535127
0.166659
-0.375805
0.173288
-0.366542
4.53191e-05
2.32835
-4.66369
-2.929e-05
2.32867
-4.66368
-0.000420095
2.32855
-4.66334
-0.000287654
2.3284
-4.66318
0.00140765
2.32976
-4.66665
2.32729
-4.65942
0.000454241
-6.51323
0.000378721
-6.51346
0.000703236
-6.51312
-7.93897e-05
-6.51214
-0.00209459
-6.52009
-6.50517
3.49468e-06
1.54341
-1.91501
5.35521e-05
1.54376
-1.91492
0.000660363
1.54361
-1.91457
-0.000109294
1.54381
-1.91536
-0.00202909
1.54516
-1.91904
1.54232
-1.91089
0.000336205
1.52595
-4.64657
0.000405232
1.52738
-4.64737
0.000706823
1.52707
-4.6471
-0.000605012
1.52896
-4.64702
0.000350072
1.52699
-4.64944
1.52799
-4.64475
0.0012549
-5.52109
0.00148014
-5.52215
0.00123848
-5.5226
-0.000646392
-5.52413
0.00551536
-5.52242
-5.52539
0.000143561
1.68649
0.000114729
1.68728
0.000665555
1.68694
0.000316515
1.68708
-0.00315342
1.68798
1.68625
0.000596744
0.779894
0.000432527
0.782701
0.0007859
0.781635
-0.000190875
0.783039
-0.000524353
0.781074
0.783156
0.00197925
0.00162016
0.00153351
0.000413135
0.00482326
1.59805e-07
-0.010366
0.00150935
-8.60439e-08
-0.0103663
0.00150928
-1.49464e-07
-0.0103663
0.00150926
-1.3279e-07
-0.0103663
0.00150926
-9.85469e-08
-0.0103663
0.0015093
-0.0103661
0.00150931
1.01043e-07
-0.0113203
0.000953737
-1.00858e-07
-0.0113206
0.000953721
-1.70628e-07
-0.0113206
0.000953727
-1.85631e-07
-0.0113206
0.00095374
-1.84826e-07
-0.0113206
0.000953767
-0.0113203
0.000953762
-3.72384e-08
0.000310497
-9.27824e-08
0.000310498
-1.0517e-07
0.000310506
-1.1301e-07
0.000310516
-1.20794e-07
0.000310529
0.000310531
-1.89831e-07
-0.0110164
0.00316412
-2.65253e-07
-0.0110167
0.00316411
-1.31209e-07
-0.0110166
0.00316416
1.06451e-08
-0.0110166
0.00316429
4.8817e-08
-0.0110166
0.00316446
-0.0110164
0.00316455
-3.9357e-08
-0.0120643
0.00200096
-1.20384e-07
-0.0120646
0.00200102
-1.05001e-07
-0.0120645
0.00200108
-9.20548e-08
-0.0120645
0.00200115
-1.24736e-07
-0.0120645
0.00200124
-0.0120642
0.00200125
-4.99006e-08
0.000614595
-6.47527e-08
0.000614625
-5.46221e-08
0.000614648
-5.58802e-08
0.000614676
-8.02871e-08
0.000614703
0.0006147
-4.5126e-07
-0.0123583
0.00515138
-1.30911e-07
-0.0123584
0.00515162
3.8511e-07
-0.0123583
0.00515197
7.35028e-07
-0.0123583
0.00515242
6.70973e-07
-0.0123585
0.0051529
-0.0123583
0.00515316
5.57076e-08
-0.0136366
0.00327891
1.44021e-07
-0.0136369
0.00327906
2.47158e-07
-0.0136369
0.00327921
2.61219e-07
-0.013637
0.0032794
1.1267e-07
-0.013637
0.00327957
-0.0136368
0.00327961
2.46262e-08
0.00086199
4.864e-08
0.000862025
7.20865e-08
0.000862062
5.71942e-08
0.000862108
-1.42989e-08
0.000862154
0.000862168
1.75252e-07
-0.0145311
0.00774667
1.27642e-06
-0.0145311
0.00774761
2.32799e-06
-0.0145312
0.00774865
2.77732e-06
-0.0145315
0.0077498
2.15513e-06
-0.014532
0.00775085
-0.0145322
0.00775142
3.56038e-07
-0.0162849
0.00503218
7.70564e-07
-0.0162853
0.0050325
1.03922e-06
-0.0162855
0.00503285
1.02493e-06
-0.0162857
0.00503324
6.25884e-07
-0.0162859
0.00503359
-0.0162857
0.00503372
1.1198e-07
0.000859595
2.07642e-07
0.000859648
2.61061e-07
0.000859741
2.23181e-07
0.000859859
1.01823e-07
0.000859967
0.000860048
3.10419e-06
-0.0177153
0.0114177
5.84819e-06
-0.017716
0.0114199
7.46315e-06
-0.0177168
0.011422
7.51764e-06
-0.0177179
0.0114239
5.32991e-06
-0.0177192
0.0114254
-0.0177199
0.0114259
1.24858e-06
-0.0204711
0.00778658
2.31896e-06
-0.0204718
0.00778721
2.82197e-06
-0.0204723
0.00778782
2.62911e-06
-0.0204729
0.00778841
1.66591e-06
-0.0204735
0.00778886
-0.0204734
0.00778892
2.87042e-07
6.18555e-05
5.95054e-07
6.19564e-05
7.57924e-07
6.21338e-05
6.96793e-07
6.23651e-05
4.73869e-07
6.24945e-05
6.26713e-05
1.061e-05
-0.0220259
0.0169691
1.54459e-05
-0.0220286
0.0169722
1.66941e-05
-0.0220312
0.0169741
1.48085e-05
-0.022034
0.0169754
9.44853e-06
-0.0220367
0.0169756
-0.0220381
0.0169748
3.2969e-06
-0.0269826
0.0127401
5.22348e-06
-0.0269841
0.0127411
5.72107e-06
-0.0269853
0.0127416
4.88597e-06
-0.0269866
0.0127419
2.82985e-06
-0.0269878
0.012742
-0.026988
0.0127415
7.75998e-07
-0.00261399
1.34234e-06
-0.00261398
1.60588e-06
-0.00261397
1.35441e-06
-0.00261373
9.18571e-07
-0.00261388
-0.00261349
2.1149e-05
-0.0275151
0.0252958
2.60652e-05
-0.0275224
0.0252977
2.39384e-05
-0.0275279
0.0252964
1.76148e-05
-0.0275329
0.0252938
8.67559e-06
-0.0275368
0.0252902
-0.0275383
0.0252857
6.43108e-06
-0.0374959
0.0227147
8.43668e-06
-0.0374987
0.0227154
7.91524e-06
-0.037501
0.022715
5.87552e-06
-0.037503
0.0227137
2.60543e-06
-0.0375045
0.0227126
-0.0375044
0.0227101
1.46989e-06
-0.0100709
1.98491e-06
-0.0100712
2.4483e-06
-0.0100722
1.56047e-06
-0.0100714
1.4285e-06
-0.0100729
-0.0100711
2.35571e-05
-0.0343426
0.0380425
2.19472e-05
-0.0343557
0.0380404
1.28697e-05
-0.0343627
0.038033
2.25474e-06
-0.0343671
0.0380243
-4.36772e-06
-0.0343686
0.0380159
-0.0343652
0.0380081
8.0643e-06
-0.0552349
0.0435988
7.83315e-06
-0.0552387
0.0435979
4.01357e-06
-0.0552409
0.0435963
7.75448e-07
-0.0552418
0.043591
-3.1625e-06
-0.0552424
0.04359
-0.0552399
0.0435812
1.05888e-06
-0.0278799
7.01616e-07
-0.0278806
1.69188e-06
-0.0278844
1.59997e-07
-0.0278808
2.315e-06
-0.027887
-0.027879
6.71499e-06
-0.0426017
0.0581148
-9.05293e-06
-0.0426124
0.0581083
-2.64964e-05
-0.0426137
0.0580976
-3.709e-05
-0.0426101
0.0580861
-3.23343e-05