/*--------------------------------*- C++ -*----------------------------------*\
| =========                 |                                                 |
| \\      /  F ield         | OpenFOAM: The Open Source CFD Toolbox           |
|  \\    /   O peration     | Version:  v1612+                                |
|   \\  /    A nd           | Web:      www.OpenFOAM.com                      |
|    \\/     M anipulation  |                                                 |
\*---------------------------------------------------------------------------*/
FoamFile
{
    version     2.0;
    format      ascii;
    class       volVectorField;
    location    "2.5";
    object      U;
}
// * * * * * * * * * * * * * * * * * * * * * * * * * * * * * * * * * * * * * //

dimensions      [0 1 -1 0 0 0 0];

internalField   nonuniform List<vector> 
1116
(
(0.624078 -1.01061e-05 -0.540756)
(0.624078 -5.22406e-06 -0.540776)
(0.624076 -4.19049e-06 -0.540771)
(0.624082 -4.06119e-06 -0.54077)
(0.624084 -8.41879e-06 -0.540778)
(0.624063 2.23968e-06 -0.540767)
(1.87347 -9.01246e-06 -0.484851)
(1.87348 -4.21874e-06 -0.484876)
(1.87348 -6.22759e-06 -0.484868)
(1.87348 -6.66257e-06 -0.48487)
(1.87349 -3.12692e-06 -0.484879)
(1.87348 7.99724e-06 -0.48486)
(2.91987 -8.24088e-06 -0.30481)
(2.91989 -3.96566e-06 -0.304833)
(2.91989 -5.60622e-06 -0.304824)
(2.91989 -6.86008e-06 -0.304826)
(2.91989 -3.17061e-06 -0.304835)
(2.91988 6.6532e-06 -0.304813)
(3.66096 -8.09839e-06 -0.206788)
(3.66099 -3.55581e-06 -0.206803)
(3.66099 -7.08913e-06 -0.206796)
(3.66099 -7.69676e-06 -0.206798)
(3.66099 -5.08458e-06 -0.206805)
(3.66096 5.79164e-06 -0.206786)
(4.16518 -8.79836e-06 -0.148698)
(4.16521 -4.15366e-06 -0.148707)
(4.16521 -1.01217e-05 -0.148702)
(4.1652 -8.5983e-06 -0.148705)
(4.1652 -6.27517e-06 -0.148713)
(4.16517 6.33502e-06 -0.148695)
(4.55739 -1.03844e-05 -0.081498)
(4.55742 -6.03191e-06 -0.081505)
(4.55742 -1.20649e-05 -0.0815009)
(4.55741 -9.04852e-06 -0.0815041)
(4.55741 -7.44401e-06 -0.0815132)
(4.55737 5.62298e-06 -0.0814951)
(4.89353 -1.20533e-05 0.00992091)
(4.89356 -7.27613e-06 0.00991417)
(4.89355 -1.04541e-05 0.00991765)
(4.89355 -7.69405e-06 0.00991384)
(4.89355 -6.75125e-06 0.00990302)
(4.8935 4.94906e-06 0.00991875)
(5.15087 -9.37944e-06 0.0986858)
(5.15089 -2.81886e-06 0.0986709)
(5.15088 -2.94274e-06 0.0986773)
(5.15088 -1.81222e-06 0.0986737)
(5.15089 -1.3824e-06 0.0986623)
(5.15083 6.66389e-06 0.0986788)
(5.34552 -7.92802e-06 0.351824)
(5.34557 2.71927e-06 0.351814)
(5.34556 8.34213e-06 0.351816)
(5.34556 4.82573e-06 0.351813)
(5.34557 6.0357e-06 0.351803)
(5.3455 1.04381e-05 0.351818)
(4.82661 -7.69467e-06 0.76227)
(4.82669 4.99571e-06 0.762268)
(4.82668 1.26532e-05 0.76226)
(4.82667 8.31523e-06 0.762255)
(4.82669 7.73013e-06 0.762244)
(4.82659 9.24859e-06 0.762247)
(2.81227 3.10462e-06 1.06349)
(2.81236 3.35858e-06 1.0635)
(2.81237 -2.31774e-06 1.06348)
(2.81236 9.52911e-06 1.06347)
(2.81239 1.34256e-06 1.06346)
(2.81226 -5.81688e-07 1.06345)
(0.561751 -3.06917e-05 0.409235)
(0.561854 -3.44469e-05 0.409221)
(0.561834 -1.55106e-05 0.409223)
(0.561835 -1.68298e-05 0.409218)
(0.561896 3.47493e-06 0.409211)
(0.561746 1.45052e-05 0.409213)
(0.163388 1.79099e-07 -1.99659)
(0.163357 -2.99306e-06 -1.99662)
(0.163376 -8.92802e-06 -1.99661)
(0.163379 -4.5658e-06 -1.9966)
(0.163365 -1.92106e-05 -1.99664)
(0.16338 -1.30568e-05 -1.99661)
(2.02359 3.2974e-05 -2.26078)
(2.0236 3.71874e-06 -2.26083)
(2.0236 -1.67718e-05 -2.26082)
(2.02361 -1.31333e-05 -2.26082)
(2.02361 -1.52516e-05 -2.26085)
(2.02358 -2.87577e-05 -2.26081)
(3.19542 3.30382e-05 -1.58681)
(3.19545 7.02992e-06 -1.58685)
(3.19544 -1.17809e-05 -1.58684)
(3.19545 -1.05432e-05 -1.58684)
(3.19547 -1.20318e-05 -1.58686)
(3.19541 -2.81287e-05 -1.58682)
(3.874 3.2648e-05 -1.08028)
(3.87407 1.3675e-05 -1.08031)
(3.87404 -3.00782e-06 -1.0803)
(3.87404 -4.04232e-06 -1.0803)
(3.87408 -1.18992e-05 -1.08033)
(3.874 -2.85102e-05 -1.08028)
(4.40594 3.14142e-05 -0.828982)
(4.40604 1.79857e-05 -0.829009)
(4.40601 5.79385e-06 -0.828997)
(4.40601 4.01195e-06 -0.829007)
(4.40606 -7.4216e-06 -0.829031)
(4.40597 -2.64927e-05 -0.828993)
(4.93623 2.93994e-05 -0.736819)
(4.93636 2.0367e-05 -0.736851)
(4.93633 1.5181e-05 -0.736841)
(4.93634 1.30325e-05 -0.736852)
(4.93638 4.03491e-06 -0.736876)
(4.93629 -1.86433e-05 -0.736842)
(5.51929 3.122e-05 -0.695817)
(5.51947 2.58156e-05 -0.69586)
(5.51943 2.81435e-05 -0.695851)
(5.51944 2.46088e-05 -0.695859)
(5.51948 2.06835e-05 -0.69588)
(5.51941 -8.26901e-06 -0.69585)
(6.50844 3.63202e-05 -0.659089)
(6.5087 2.83435e-05 -0.659148)
(6.50864 3.48197e-05 -0.65913)
(6.50865 2.86773e-05 -0.659132)
(6.50869 2.70242e-05 -0.65915)
(6.5086 -8.92228e-06 -0.659115)
(7.20162 3.97788e-05 0.0165581)
(7.20191 2.48485e-05 0.0164761)
(7.20183 2.88524e-05 0.0165032)
(7.20184 2.16382e-05 0.0165174)
(7.20188 1.67555e-05 0.0165079)
(7.20178 -1.94855e-05 0.0165664)
(7.38806 4.39593e-05 1.38759)
(7.38838 2.83212e-05 1.38751)
(7.3883 1.67879e-05 1.38753)
(7.3883 8.5897e-06 1.38755)
(7.38835 -1.38567e-06 1.38755)
(7.38819 -2.68999e-05 1.38761)
(5.52925 5.05202e-05 2.89794)
(5.52959 3.87281e-05 2.89795)
(5.52949 1.4707e-05 2.89794)
(5.52948 2.02674e-05 2.89795)
(5.52952 1.0212e-06 2.89794)
(5.52935 -2.0053e-05 2.89798)
(1.89317 -3.66626e-05 2.61819)
(1.89343 -3.23012e-05 2.61821)
(1.89335 1.27535e-05 2.61821)
(1.89335 -3.48293e-06 2.61821)
(1.89337 2.49584e-05 2.61826)
(1.89323 3.17427e-05 2.61812)
(-0.975339 6.54566e-05 -3.09262)
(-0.975398 -4.64148e-05 -3.09263)
(-0.97532 2.12693e-05 -3.09266)
(-0.975401 -4.28799e-05 -3.09264)
(-0.975456 6.75825e-05 -3.09264)
(-0.975128 -4.76296e-05 -3.09269)
(1.7695 8.60174e-05 -4.17999)
(1.76951 -0.000103213 -4.17989)
(1.76951 5.68397e-05 -4.17995)
(1.76949 -5.42352e-05 -4.17999)
(1.76948 9.50024e-05 -4.17996)
(1.76951 -0.000103844 -4.18004)
(7.00899 9.19185e-05 -3.05449)
(7.00906 -7.91539e-05 -3.05437)
(7.00898 4.21498e-05 -3.05441)
(7.00898 -2.19665e-05 -3.05446)
(7.00907 7.68326e-05 -3.05443)
(7.00891 -9.17247e-05 -3.05452)
(9.66067 0.000116481 -2.25313)
(9.66069 4.98809e-05 -2.25302)
(9.66064 0.000166739 -2.25304)
(9.66066 0.000101223 -2.25306)
(9.66075 0.000188971 -2.25303)
(9.66077 1.20639e-05 -2.25314)
(13.1186 0.000142634 -1.76102)
(13.1188 0.000162625 -1.76093)
(13.1188 0.000327245 -1.76094)
(13.1189 0.000224557 -1.76094)
(13.119 0.000285919 -1.76091)
(13.1191 6.67754e-05 -1.76102)
(16.2646 8.20716e-05 -1.66622)
(16.2649 0.000130116 -1.66616)
(16.2651 0.000351721 -1.66616)
(16.2652 0.000253046 -1.66613)
(16.2653 0.000354851 -1.66611)
(16.2656 0.000136271 -1.66618)
(18.955 1.24491e-05 -1.71802)
(18.9551 5.02785e-05 -1.71802)
(18.9554 0.000276685 -1.71798)
(18.9556 0.000162455 -1.71792)
(18.9555 0.000336352 -1.71789)
(18.9562 0.000181358 -1.71783)
(21.5673 4.01039e-05 -0.850642)
(21.5674 4.65521e-05 -0.850663)
(21.5677 0.000150907 -0.850614)
(21.5679 -1.82747e-05 -0.850543)
(21.5676 9.07978e-05 -0.850483)
(21.5685 3.57215e-05 -0.850438)
(19.3861 2.14449e-05 1.2326)
(19.3869 -7.1171e-05 1.23266)
(19.3868 -2.15407e-05 1.23265)
(19.3867 -6.73588e-05 1.23263)
(19.3863 5.97125e-05 1.23264)
(19.3869 -2.21218e-05 1.23256)
(11.1076 2.68363e-05 3.71681)
(11.1077 -2.41185e-05 3.71713)
(11.1078 1.29183e-05 3.71708)
(11.1079 2.95505e-06 3.7171)
(11.1079 3.33026e-05 3.71716)
(11.1085 -2.9028e-05 3.71699)
(4.22565 4.19832e-05 6.04409)
(4.22566 7.87418e-06 6.04435)
(4.22563 -1.59351e-06 6.04427)
(4.22561 -5.94851e-06 6.04429)
(4.22559 -1.96403e-05 6.04436)
(4.22556 -3.42814e-05 6.04425)
(2.57544 -7.76437e-07 4.68081)
(2.57581 7.31297e-06 4.68098)
(2.57571 3.2701e-05 4.68092)
(2.57572 3.23652e-05 4.68092)
(2.57566 2.34046e-05 4.68091)
(2.5757 2.88546e-06 4.68087)
(-0.24502 5.86052e-05 -3.70846)
(-0.24502 -0.000160455 -3.70838)
(-0.244946 7.21223e-05 -3.7085)
(-0.245095 -6.74248e-05 -3.70851)
(-0.245158 0.000200223 -3.70841)
(-0.244711 -3.21707e-05 -3.70858)
(1.57533 -6.74222e-05 -4.71591)
(1.57527 -0.000105703 -4.71589)
(1.57521 4.71645e-05 -4.71592)
(1.57523 1.0806e-05 -4.71596)
(1.57526 2.96941e-05 -4.71592)
(1.57525 -2.16113e-05 -4.7158)
(-0.0597314 -6.12073e-05 -5.10566)
(-0.0600732 -3.83308e-05 -5.10571)
(-0.0601819 4.83414e-05 -5.10574)
(-0.060141 2.55569e-05 -5.10576)
(-0.0600584 7.827e-05 -5.10572)
(-0.0599479 7.64219e-05 -5.10568)
(-1.06947 7.2419e-06 -5.02553)
(-1.06978 8.22275e-05 -5.0257)
(-1.0698 0.00017702 -5.02568)
(-1.0698 0.000134862 -5.02565)
(-1.06976 0.000169309 -5.02562)
(-1.06955 0.000112319 -5.02548)
(-2.00293 -2.8992e-05 -4.74332)
(-2.00308 4.30241e-05 -4.7436)
(-2.00285 0.000169819 -4.74347)
(-2.0027 0.000123363 -4.7434)
(-2.00259 0.000188647 -4.74335)
(-2.00228 0.000130709 -4.74306)
(-3.54878 -0.000188773 -5.38416)
(-3.54916 -0.000271345 -5.3845)
(-3.54887 -0.000245288 -5.38432)
(-3.54878 -0.000209328 -5.38419)
(-3.54882 -7.76673e-06 -5.38418)
(-3.54824 0.000126081 -5.38356)
(-3.05698 -0.000184126 -5.51792)
(-3.05777 -0.000304073 -5.51835)
(-3.05746 -0.000377137 -5.51809)
(-3.05743 -0.000364387 -5.51785)
(-3.05779 -0.000268487 -5.51799)
(-3.0566 -9.37803e-05 -5.51698)
(-2.47796 -3.30318e-05 -3.56333)
(-2.47879 -7.97454e-05 -3.56361)
(-2.4784 -0.000278794 -3.56329)
(-2.47833 -0.000269746 -3.56298)
(-2.47886 -0.000735095 -3.56315)
(-2.47757 -0.000675721 -3.56274)
(8.86744 -4.02275e-06 7.71901)
(8.86771 -9.39917e-05 7.71909)
(8.86787 -0.000232414 7.71887)
(8.86776 -0.000193768 7.71897)
(8.86849 -0.000782747 7.71923)
(8.86611 -0.000930159 7.71937)
(11.3728 -3.29682e-05 14.5834)
(11.3732 -0.000172969 14.5838)
(11.3734 -0.000138473 14.5837)
(11.3734 -5.24739e-06 14.5837)
(11.3738 8.94207e-05 14.5836)
(11.373 -0.00010063 14.5843)
(4.54294 0.000107546 11.5038)
(4.54344 3.26555e-05 11.5043)
(4.54331 -3.94393e-05 11.5042)
(4.54317 -3.80822e-05 11.5043)
(4.54323 7.92009e-05 11.5043)
(4.54295 3.804e-05 11.5044)
(4.55499 -5.14206e-06 6.13728)
(4.55533 -1.55082e-06 6.13737)
(4.55532 4.15077e-06 6.13734)
(4.55533 9.47237e-05 6.13732)
(4.5555 -3.28747e-05 6.1375)
(4.55509 -0.000136233 6.1372)
(-0.0022126 -5.55805e-07 -0.00224074)
(-0.00221257 -1.14867e-06 -0.00224067)
(-0.00221241 -9.17542e-07 -0.00224061)
(-0.00221216 -7.21481e-07 -0.0022406)
(-0.00221189 -6.16978e-07 -0.00224058)
(-0.00221156 -2.20779e-07 -0.0022405)
(-0.00671266 -2.11997e-07 -0.00231434)
(-0.00671222 -8.87062e-07 -0.0023136)
(-0.00671145 -1.3204e-06 -0.00231341)
(-0.00671047 -1.42936e-06 -0.00231343)
(-0.00670942 -1.29914e-06 -0.00231355)
(-0.00670814 -5.42189e-07 -0.00231375)
(-0.0114252 1.0168e-07 -0.00244939)
(-0.0114233 -1.08754e-06 -0.00244674)
(-0.011421 -2.86053e-06 -0.002446)
(-0.0114185 -3.5796e-06 -0.00244594)
(-0.0114158 -3.38508e-06 -0.00244624)
(-0.0114126 -1.5051e-06 -0.0024469)
(-0.0164853 -2.19965e-07 -0.0026465)
(-0.0164795 -3.1416e-06 -0.00264098)
(-0.0164738 -7.04864e-06 -0.00263954)
(-0.0164682 -8.62758e-06 -0.00263957)
(-0.0164624 -8.14913e-06 -0.00264056)
(-0.0164555 -3.67855e-06 -0.00264261)
(-0.0220767 -2.48301e-06 -0.00291996)
(-0.0220625 -9.67136e-06 -0.00291245)
(-0.0220504 -1.63728e-05 -0.00291116)
(-0.0220395 -1.86028e-05 -0.0029122)
(-0.0220287 -1.6986e-05 -0.002915)
(-0.0220158 -7.60031e-06 -0.00292002)
(-0.0284293 -9.24738e-06 -0.00342395)
(-0.0284002 -2.46182e-05 -0.00342055)
(-0.028379 -3.26718e-05 -0.00342272)
(-0.0283621 -3.35938e-05 -0.00342719)
(-0.0283462 -2.87807e-05 -0.00343389)
(-0.0283255 -1.25258e-05 -0.00344384)
(-0.0355992 -2.0695e-05 -0.00446742)
(-0.0355492 -4.60365e-05 -0.00448189)
(-0.0355205 -5.01729e-05 -0.00449326)
(-0.0355022 -4.56968e-05 -0.00450404)
(-0.0354866 -3.55374e-05 -0.00451554)
(-0.0354621 -1.4722e-05 -0.00452939)
(-0.0430932 -3.12253e-05 -0.00614921)
(-0.0430225 -5.84636e-05 -0.00619459)
(-0.0429954 -4.75877e-05 -0.00621719)
(-0.0429875 -3.23832e-05 -0.0062324)
(-0.0429851 -1.73213e-05 -0.00624331)
(-0.0429707 -5.36835e-06 -0.00625152)
(-0.050208 -2.79648e-05 -0.00819783)
(-0.0501295 -3.61599e-05 -0.00826829)
(-0.0501178 -8.36246e-07 -0.00829171)
(-0.0501325 2.60414e-05 -0.00829813)
(-0.0501562 4.05252e-05 -0.0082927)
(-0.0501712 2.17382e-05 -0.00827571)
(-0.0517781 -1.56172e-06 -0.0092815)
(-0.0517132 2.95496e-05 -0.00934453)
(-0.0517216 7.99493e-05 -0.0093494)
(-0.0517578 0.000105928 -0.00933212)
(-0.0518082 0.000108383 -0.00929747)
(-0.0518658 5.10922e-05 -0.00924217)
(-0.0497594 3.35059e-05 -0.00796261)
(-0.0497211 8.96274e-05 -0.00795461)
(-0.0497309 0.000122229 -0.00792831)
(-0.0497606 0.000132639 -0.00789142)
(-0.0498111 0.000122877 -0.00784063)
(-0.0498971 5.62077e-05 -0.0077645)
(-0.0266762 2.47819e-05 0.00405099)
(-0.0266635 4.00628e-05 0.00407751)
(-0.0266616 2.4957e-05 0.00408399)
(-0.0266653 1.33848e-05 0.00408786)
(-0.0266815 3.99992e-06 0.00409803)
(-0.026725 -1.69619e-07 0.00412632)
(-0.00221713 -4.70558e-07 -0.00659522)
(-0.00221675 -9.67312e-07 -0.00659505)
(-0.00221639 -8.01104e-07 -0.00659488)
(-0.00221604 -5.99561e-07 -0.00659482)
(-0.00221574 -3.42344e-07 -0.00659476)
(-0.00221543 -2.31969e-08 -0.0065946)
(-0.00675215 -6.66117e-07 -0.00684277)
(-0.00675054 -1.55695e-06 -0.00684126)
(-0.00674915 -1.6872e-06 -0.00684075)
(-0.00674784 -1.51331e-06 -0.00684066)
(-0.00674673 -1.03312e-06 -0.00684084)
(-0.00674552 -3.17269e-07 -0.00684122)
(-0.0115741 -1.54142e-06 -0.00730516)
(-0.01157 -3.60651e-06 -0.0072999)
(-0.0115666 -4.19075e-06 -0.00729818)
(-0.0115637 -3.95787e-06 -0.00729779)
(-0.011561 -3.02532e-06 -0.0072983)
(-0.0115582 -1.19455e-06 -0.00729968)
(-0.0168415 -3.43634e-06 -0.00797501)
(-0.0168321 -7.88353e-06 -0.00796442)
(-0.016825 -9.05785e-06 -0.00796131)
(-0.016819 -8.61053e-06 -0.00796102)
(-0.0168135 -6.74389e-06 -0.00796297)
(-0.0168074 -2.74528e-06 -0.00796752)
(-0.0225909 -7.13747e-06 -0.00879983)
(-0.0225706 -1.5635e-05 -0.00878682)
(-0.0225569 -1.70041e-05 -0.0087845)
(-0.0225462 -1.57051e-05 -0.00878649)
(-0.0225364 -1.21801e-05 -0.00879247)
(-0.0225248 -4.97903e-06 -0.00880367)
(-0.0286612 -1.26399e-05 -0.00960905)
(-0.0286195 -2.58943e-05 -0.00960854)
(-0.0285958 -2.54293e-05 -0.00961491)
(-0.0285799 -2.171e-05 -0.00962472)
(-0.0285663 -1.58211e-05 -0.00963897)
(-0.0285488 -6.27239e-06 -0.00966032)
(-0.0348649 -1.77247e-05 -0.00978487)
(-0.0347863 -3.11957e-05 -0.00982639)
(-0.0347519 -2.25097e-05 -0.00985367)
(-0.034735 -1.32549e-05 -0.00987726)
(-0.0347244 -5.33442e-06 -0.00990091)
(-0.0347083 -1.0861e-06 -0.0099281)
(-0.0408949 -1.44779e-05 -0.00783914)
(-0.0407689 -1.27515e-05 -0.00794535)
(-0.0407297 1.29781e-05 -0.00799534)
(-0.0407244 2.92872e-05 -0.00802516)
(-0.0407337 3.53018e-05 -0.00804231)
(-0.0407423 1.73145e-05 -0.00804863)
(-0.0467127 5.61131e-06 -0.00205416)
(-0.0465506 4.14165e-05 -0.0022001)
(-0.0465226 8.5738e-05 -0.00224368)
(-0.0465473 0.000104823 -0.00224733)
(-0.0466003 0.00010053 -0.00222098)
(-0.0466694 4.57123e-05 -0.00216165)
(-0.0494737 3.34485e-05 0.0124282)
(-0.0493249 9.98481e-05 0.0123274)
(-0.0493315 0.000142303 0.0123349)
(-0.0494022 0.000149266 0.0123872)
(-0.0495147 0.000129946 0.012477)
(-0.0496674 5.65562e-05 0.0126138)
(-0.054284 5.07389e-05 0.0313083)
(-0.0542243 0.000105323 0.0313728)
(-0.0542754 0.000103768 0.0314438)
(-0.0543801 8.70163e-05 0.0315267)
(-0.0545305 6.22504e-05 0.0316357)
(-0.0547354 2.45732e-05 0.0317908)
(-0.0442997 1.0092e-05 0.0797372)
(-0.044299 -1.96625e-05 0.0798157)
(-0.0443294 -7.83756e-05 0.0798407)
(-0.0443796 -0.000105865 0.0798563)
(-0.0444541 -0.000108409 0.0798872)
(-0.0445578 -5.13676e-05 0.0799437)
(-0.00212334 -1.8043e-07 -0.0107909)
(-0.00212305 -4.77411e-07 -0.0107909)
(-0.00212281 -4.74734e-07 -0.0107907)
(-0.00212259 -3.30524e-07 -0.0107906)
(-0.00212246 -1.15059e-07 -0.0107905)
(-0.00212237 5.96665e-08 -0.0107904)
(-0.00649894 -4.77992e-07 -0.0112673)
(-0.00649786 -1.12681e-06 -0.011266)
(-0.00649698 -1.19889e-06 -0.0112655)
(-0.00649623 -9.68907e-07 -0.0112653)
(-0.00649578 -4.99934e-07 -0.0112654)
(-0.00649544 -8.1952e-08 -0.0112657)
(-0.011261 -1.32643e-06 -0.012179)
(-0.0112584 -2.86533e-06 -0.0121743)
(-0.0112565 -2.93968e-06 -0.0121725)
(-0.0112549 -2.39684e-06 -0.0121719)
(-0.011254 -1.4468e-06 -0.0121724)
(-0.0112533 -4.50918e-07 -0.0121738)
(-0.0166864 -2.90428e-06 -0.0135249)
(-0.0166803 -5.94605e-06 -0.0135161)
(-0.0166764 -5.71536e-06 -0.0135132)
(-0.0166736 -4.52401e-06 -0.0135128)
(-0.016672 -2.7267e-06 -0.0135149)
(-0.0166709 -8.75179e-07 -0.0135199)
(-0.0231614 -5.50244e-06 -0.0152032)
(-0.0231472 -1.03583e-05 -0.0151951)
(-0.0231399 -8.63098e-06 -0.015194)
(-0.0231357 -5.98707e-06 -0.0151966)
(-0.0231339 -2.9232e-06 -0.0152034)
(-0.0231334 -7.11928e-07 -0.0152158)
(-0.031358 -8.37563e-06 -0.0169954)
(-0.031326 -1.33191e-05 -0.0170068)
(-0.031314 -6.88666e-06 -0.0170171)
(-0.0313101 -9.90729e-07 -0.017029)
(-0.0313115 3.45944e-06 -0.0170448)
(-0.0313158 2.49287e-06 -0.0170671)
(-0.0420878 -7.82992e-06 -0.0185982)
(-0.0420249 -4.87449e-06 -0.0186606)
(-0.0420096 1.21344e-05 -0.0186951)
(-0.0420131 2.2422e-05 -0.0187211)
(-0.0420285 2.60604e-05 -0.0187443)
(-0.0420524 1.27827e-05 -0.0187662)
(-0.0551483 3.9518e-06 -0.0190821)
(-0.055051 2.96091e-05 -0.0192091)
(-0.0550421 6.18892e-05 -0.0192628)
(-0.0550687 7.57769e-05 -0.0192884)
(-0.055119 7.25679e-05 -0.0192941)
(-0.0551916 3.29401e-05 -0.0192763)
(-0.0713976 2.93544e-05 -0.0165223)
(-0.071295 8.62605e-05 -0.0166635)
(-0.0713139 0.000123202 -0.0166929)
(-0.0713838 0.000129932 -0.0166757)
(-0.0714903 0.000111659 -0.0166193)
(-0.0716373 4.7994e-05 -0.016514)
(-0.0831772 4.96194e-05 -0.00321603)
(-0.0831362 0.000109659 -0.00326313)
(-0.0832112 0.000117559 -0.0032148)
(-0.0833395 0.000101918 -0.00312471)
(-0.0835101 6.98204e-05 -0.00299285)
(-0.0837211 2.5281e-05 -0.00281492)
(-0.101791 2.80901e-05 0.012337)
(-0.101867 3.39597e-05 0.0124712)
(-0.101989 -6.10376e-06 0.0125581)
(-0.102143 -3.55952e-05 0.0126367)
(-0.102328 -5.50691e-05 0.0127342)
(-0.102523 -3.12926e-05 0.0128598)
(-0.074835 -4.34171e-05 0.0667948)
(-0.0749083 -0.00013213 0.0669245)
(-0.0749814 -0.000196586 0.0669852)
(-0.075062 -0.000210984 0.0670245)
(-0.0751585 -0.000187286 0.0670816)
(-0.0752364 -8.58744e-05 0.06711)
(-0.00190806 -4.45892e-08 -0.014638)
(-0.00190773 -2.10149e-07 -0.0146381)
(-0.00190756 -2.62823e-07 -0.014638)
(-0.00190746 -1.65083e-07 -0.014638)
(-0.00190747 -1.78915e-08 -0.014638)
(-0.00190749 6.79277e-08 -0.0146377)
(-0.00587836 -4.1272e-07 -0.0154126)
(-0.00587722 -8.2472e-07 -0.0154119)
(-0.00587667 -6.81365e-07 -0.0154115)
(-0.00587643 -3.86614e-07 -0.0154113)
(-0.00587651 -2.14244e-08 -0.0154114)
(-0.00587667 9.35594e-08 -0.0154116)
(-0.0103343 -1.12817e-06 -0.0169398)
(-0.0103319 -1.95408e-06 -0.0169368)
(-0.0103309 -1.2758e-06 -0.0169355)
(-0.0103307 -4.93721e-07 -0.0169351)
(-0.0103311 2.57733e-07 -0.0169356)
(-0.0103316 2.9798e-07 -0.0169366)
(-0.0156782 -1.884e-06 -0.0192715)
(-0.0156733 -2.80317e-06 -0.0192663)
(-0.015672 -1.01913e-06 -0.0192645)
(-0.0156723 5.41344e-07 -0.0192646)
(-0.0156736 1.69487e-06 -0.0192666)
(-0.015675 1.04807e-06 -0.0192705)
(-0.0223051 -1.70377e-06 -0.0223814)
(-0.0222957 -1.01332e-06 -0.0223788)
(-0.0222946 2.87297e-06 -0.0223797)
(-0.0222967 5.42459e-06 -0.0223831)
(-0.0223006 6.48151e-06 -0.0223896)
(-0.0223046 3.2349e-06 -0.0223995)
(-0.0303539 1.80296e-06 -0.026094)
(-0.0303363 8.56189e-06 -0.0261102)
(-0.0303364 1.61714e-05 -0.0261224)
(-0.0303432 1.96876e-05 -0.0261353)
(-0.0303535 1.88896e-05 -0.0261504)
(-0.0303653 8.62233e-06 -0.0261677)
(-0.0399938 1.19841e-05 -0.0300813)
(-0.0399651 3.25777e-05 -0.0301408)
(-0.0399695 4.46447e-05 -0.030175)
(-0.0399866 4.73362e-05 -0.0302014)
(-0.0400119 4.09424e-05 -0.0302228)
(-0.0400449 1.77009e-05 -0.0302364)
(-0.0520949 2.92399e-05 -0.0324848)
(-0.0520638 6.82221e-05 -0.0325915)
(-0.0520824 7.97685e-05 -0.0326394)
(-0.0521212 7.65728e-05 -0.0326643)
(-0.0521772 6.04154e-05 -0.0326684)
(-0.0522547 2.46907e-05 -0.0326433)
(-0.0706608 4.03932e-05 -0.0325252)
(-0.070669 8.29358e-05 -0.0326214)
(-0.0707259 7.97017e-05 -0.0326383)
(-0.0708043 6.37958e-05 -0.0326196)
(-0.0709089 3.9575e-05 -0.0325667)
(-0.0710434 1.3066e-05 -0.0324697)
(-0.0862551 2.27296e-05 -0.0163323)
(-0.0863486 3.20582e-05 -0.0163243)
(-0.0864395 4.29191e-06 -0.0162665)
(-0.0865317 -1.63623e-05 -0.0161838)
(-0.0866425 -3.15496e-05 -0.0160749)
(-0.0867684 -2.03478e-05 -0.0159417)
(-0.108354 -5.45307e-05 0.0116452)
(-0.108539 -0.000147663 0.0117975)
(-0.108633 -0.000206655 0.0118875)
(-0.108694 -0.000218136 0.0119648)
(-0.108756 -0.000198135 0.012043)
(-0.108775 -9.33859e-05 0.0121255)
(-0.0926996 -8.01726e-05 0.194065)
(-0.0928049 -0.000172577 0.194132)
(-0.092853 -0.000198807 0.194177)
(-0.0928669 -0.000172528 0.19416)
(-0.0928825 -0.000176955 0.194173)
(-0.0928715 -0.00011113 0.194228)
(0.0495542 -4.3235e-05 -4.13603)
(0.0495516 -9.93429e-06 -4.13621)
(0.0495651 4.52455e-05 -4.13626)
(0.0495157 3.70988e-06 -4.13621)
(0.0494985 8.90441e-05 -4.13615)
(0.0495955 8.79371e-05 -4.13609)
(0.186893 8.93524e-07 -3.98678)
(0.186875 1.6893e-05 -3.98697)
(0.186866 -3.85512e-06 -3.98696)
(0.18687 -1.08881e-05 -3.98693)
(0.186873 -1.19194e-05 -3.98695)
(0.18684 9.15026e-06 -3.9868)
(0.0740578 1.58104e-05 -4.01627)
(0.0740516 1.67359e-05 -4.01637)
(0.0740497 1.58557e-06 -4.01636)
(0.074057 -3.01417e-06 -4.01633)
(0.0740597 -1.53223e-05 -4.01635)
(0.0740419 -1.3465e-05 -4.01624)
(-0.276897 -4.70266e-05 -4.84244)
(-0.277055 -1.69232e-05 -4.84258)
(-0.277078 -5.73673e-06 -4.84253)
(-0.277089 2.35558e-05 -4.8425)
(-0.277069 1.00009e-05 -4.84254)
(-0.276891 3.22704e-05 -4.84231)
(-0.171937 8.47944e-06 -4.37614)
(-0.171932 -1.28729e-05 -4.37629)
(-0.171941 -2.64781e-05 -4.37625)
(-0.171955 -1.71221e-05 -4.37623)
(-0.171961 -1.70037e-05 -4.37626)
(-0.171968 -2.13561e-05 -4.37607)
(-0.07617 1.37373e-05 -4.23136)
(-0.0761721 1.71863e-05 -4.23146)
(-0.0761733 5.83404e-06 -4.23142)
(-0.0761702 5.86014e-06 -4.2314)
(-0.0761676 -8.6465e-06 -4.23141)
(-0.0761828 -1.35766e-05 -4.23127)
(-1.82179 1.42464e-05 -3.2885)
(-1.82199 2.25251e-05 -3.28868)
(-1.82202 -2.32818e-05 -3.28864)
(-1.82205 -2.12161e-05 -3.28863)
(-1.82204 -3.87877e-05 -3.28868)
(-1.82188 7.27202e-06 -3.28846)
(-0.295095 9.42572e-06 -3.48224)
(-0.295088 2.19221e-07 -3.48238)
(-0.295111 -1.28243e-05 -3.48235)
(-0.29513 -4.17234e-06 -3.48235)
(-0.295131 -2.79082e-05 -3.48238)
(-0.295139 -2.96498e-05 -3.48217)
(0.00154597 1.31177e-05 -3.62482)
(0.00155935 1.81277e-05 -3.6249)
(0.00155542 1.25251e-05 -3.62487)
(0.00155803 9.56849e-06 -3.62486)
(0.00156003 -4.51495e-06 -3.62486)
(0.00153142 -1.18462e-05 -3.62475)
(-1.01563 6.00413e-06 -3.4114)
(-1.01564 -2.65298e-05 -3.41178)
(-1.01571 -6.69155e-05 -3.41172)
(-1.01576 -5.91525e-05 -3.41171)
(-1.01581 -4.95496e-05 -3.41178)
(-1.01585 -1.32401e-05 -3.41135)
(-0.0286046 2.4771e-05 -4.58796)
(-0.0285637 1.70112e-05 -4.5882)
(-0.0285853 -1.86706e-05 -4.58818)
(-0.0285915 -2.00485e-05 -4.58821)
(-0.0285942 -6.06526e-05 -4.58828)
(-0.0286525 -5.56573e-05 -4.58796)
(0.127599 1.79871e-05 -4.15348)
(0.127604 2.74447e-05 -4.15362)
(0.127607 1.66542e-05 -4.1536)
(0.127609 1.37094e-05 -4.1536)
(0.12761 -1.13461e-05 -4.15361)
(0.127608 -1.95581e-05 -4.1535)
(-0.702567 -3.86978e-05 -2.28712)
(-0.702639 -8.82231e-05 -2.28754)
(-0.702712 -0.00010721 -2.28748)
(-0.702781 -9.03152e-05 -2.28742)
(-0.702809 -5.81237e-05 -2.28745)
(-0.702812 -1.22746e-05 -2.28698)
(-0.145592 2.17881e-05 -4.36289)
(-0.145565 1.43695e-05 -4.36312)
(-0.145565 -3.01404e-05 -4.36312)
(-0.145565 -3.33722e-05 -4.36314)
(-0.145571 -6.17573e-05 -4.36322)
(-0.145587 -4.29337e-05 -4.36292)
(-0.0153937 1.43572e-05 -3.67242)
(-0.0153948 1.57872e-05 -3.67257)
(-0.0154005 4.91996e-06 -3.67257)
(-0.0154037 3.60062e-06 -3.67258)
(-0.0154071 -1.77758e-05 -3.67261)
(-0.0154087 -2.30438e-05 -3.67249)
(0.221056 -3.83432e-05 -2.70131)
(0.221009 -9.53443e-05 -2.70171)
(0.220881 -9.53269e-05 -2.70173)
(0.220807 -9.94018e-05 -2.70175)
(0.220803 -9.09701e-05 -2.70182)
(0.220722 -5.58186e-05 -2.7014)
(0.111097 2.8133e-05 -4.62574)
(0.111112 3.37049e-05 -4.62593)
(0.111125 3.90109e-06 -4.6259)
(0.11114 -4.25929e-07 -4.6259)
(0.111137 -3.00901e-05 -4.62595)
(0.111177 -2.22781e-05 -4.62571)
(-0.134054 7.91884e-06 -3.87352)
(-0.134062 -2.95494e-07 -3.87367)
(-0.134066 -1.26942e-05 -3.87369)
(-0.134071 -1.23504e-05 -3.87371)
(-0.134077 -2.25937e-05 -3.87372)
(-0.134073 -1.96918e-05 -3.8736)
(0.381151 -7.93864e-05 -4.15777)
(0.380803 -0.00013242 -4.15823)
(0.380774 -0.000109395 -4.15818)
(0.380728 -0.000142462 -4.1582)
(0.380715 -0.000111339 -4.1583)
(0.380726 -4.09484e-05 -4.15793)
(-0.00876071 -1.34541e-05 -4.05392)
(-0.00873707 -4.03364e-05 -4.054)
(-0.00878021 -4.08044e-05 -4.05402)
(-0.00876518 -3.28506e-05 -4.054)
(-0.00882603 2.21133e-05 -4.05402)
(-0.00873017 4.73483e-05 -4.05381)
(-0.279326 1.5738e-06 -3.8633)
(-0.279329 -3.79971e-06 -3.86343)
(-0.279329 -1.5152e-05 -3.86342)
(-0.279334 -2.33635e-05 -3.86342)
(-0.279359 -2.38762e-05 -3.86341)
(-0.27933 -1.10389e-05 -3.86329)
(-0.951342 7.36765e-06 -6.46885)
(-0.952411 -2.12502e-05 -6.46929)
(-0.952146 -4.3953e-05 -6.46907)
(-0.952291 -5.13261e-05 -6.46908)
(-0.952521 -0.000206149 -6.46882)
(-0.952296 -0.000158093 -6.46997)
(-0.621815 2.20683e-05 -4.31334)
(-0.62201 -5.27823e-05 -4.31347)
(-0.622153 -2.33556e-05 -4.31351)
(-0.622192 -9.37695e-05 -4.3134)
(-0.622515 0.000121942 -4.3131)
(-0.621758 0.000268657 -4.31325)
(-0.419294 -2.00384e-05 -3.94001)
(-0.419253 -3.89954e-05 -3.9401)
(-0.419272 -5.55364e-05 -3.94005)
(-0.419277 -0.000111017 -3.94007)
(-0.419356 -2.32076e-06 -3.94009)
(-0.419261 7.43712e-05 -3.93998)
(-1.11625 0.000440251 -1.77168)
(-1.11685 0.00034526 -1.77236)
(-1.11615 -0.000144432 -1.77176)
(-1.11635 0.000134604 -1.77197)
(-1.11622 -0.000749861 -1.77071)
(-1.11804 -0.000965472 -1.77604)
(-2.91492 0.000608638 -3.01378)
(-2.91556 0.000462008 -3.0141)
(-2.91534 3.89183e-05 -3.0138)
(-2.9154 3.12904e-05 -3.01362)
(-2.91572 -4.82857e-05 -3.01209)
(-2.91452 0.000100185 -3.01572)
(-1.07805 9.41907e-05 -3.30562)
(-1.07818 4.23145e-05 -3.30561)
(-1.07822 -5.20734e-05 -3.30546)
(-1.07829 -0.000179383 -3.30545)
(-1.07841 6.52551e-05 -3.30511)
(-1.07796 0.000251274 -3.30588)
(8.85354 0.000364749 13.3897)
(8.85524 0.000131621 13.3898)
(8.85485 -0.000399028 13.3893)
(8.85469 -0.000157463 13.3892)
(8.85535 -0.000671346 13.3901)
(8.85316 -0.000857561 13.3883)
(3.22775 0.00106252 7.42554)
(3.23052 0.000957268 7.42757)
(3.2297 1.54188e-05 7.42662)
(3.22943 0.000247812 7.42584)
(3.22999 -0.000765391 7.42806)
(3.22697 -0.00100943 7.41989)
(-1.12072 0.000715096 2.69043)
(-1.11991 0.00086836 2.69284)
(-1.12013 0.000590359 2.69257)
(-1.12036 0.000586044 2.69198)
(-1.1202 0.000227536 2.69328)
(-1.12136 5.71549e-05 2.68776)
(6.25507 0.000656166 15.2952)
(6.25807 0.000318015 15.296)
(6.25722 -0.000332168 15.2956)
(6.25714 -9.40799e-05 15.2957)
(6.25739 -3.64847e-05 15.2959)
(6.25664 -0.000172698 15.296)
(6.45769 0.00167342 13.2176)
(6.46561 0.00165912 13.2218)
(6.4632 0.000598661 13.2198)
(6.46421 6.7198e-05 13.219)
(6.46439 0.00081835 13.2177)
(6.462 0.00107572 13.2196)
(4.08992 0.000884217 8.33139)
(4.09473 0.00125325 8.33761)
(4.09314 0.00118237 8.33644)
(4.09414 0.000383015 8.33538)
(4.09447 0.00147262 8.33084)
(4.09216 0.00171269 8.33795)
(6.49577 0.000273616 8.6322)
(6.49774 0.000286833 8.63346)
(6.49714 7.61565e-05 8.63293)
(6.49725 -0.000149824 8.63296)
(6.49804 0.000417632 8.63356)
(6.49605 0.000558286 8.63222)
(5.46936 0.0012252 7.23216)
(5.47503 0.00113913 7.23827)
(5.47393 0.000280003 7.23629)
(5.47438 -0.000662972 7.23558)
(5.46899 0.00131202 7.2335)
(5.47958 0.0021851 7.23868)
(5.86441 0.00140785 2.44861)
(5.86723 0.00173614 2.46689)
(5.86695 0.00134423 2.46308)
(5.86765 -0.000556755 2.46016)
(5.86603 0.00327998 2.44358)
(5.87005 0.00469189 2.47829)
(-0.521533 -5.86483e-05 0.962612)
(-0.521395 4.58752e-05 0.962819)
(-0.521567 -0.000160573 0.963107)
(-0.521433 4.91804e-05 0.962748)
(-0.520669 7.59853e-05 0.966105)
(-0.522803 -0.000233069 0.958994)
(-1.59606 0.0003546 -1.14762)
(-1.59654 0.000865779 -1.14786)
(-1.59674 -0.000140691 -1.14769)
(-1.59668 0.00516635 -1.14795)
(-1.60508 -0.00626096 -1.15094)
(-1.58767 -0.0120406 -1.14494)
(0.388615 -0.000110064 1.3914)
(0.388821 0.000139951 1.3941)
(0.387554 4.46848e-05 1.38922)
(0.390532 -0.00193855 1.39815)
(0.39255 0.00187873 1.43582)
(0.386576 0.00378961 1.34896)
(-1.40232 -0.000221107 0.950968)
(-1.40243 0.000121827 0.950876)
(-1.4025 -8.05721e-05 0.951868)
(-1.40186 -0.000682691 0.950363)
(-1.40198 0.00145137 0.951779)
(-1.40324 0.0017181 0.949401)
(-1.75043 0.000347467 -1.6464)
(-1.75212 0.00152905 -1.64806)
(-1.75111 -0.000144241 -1.64646)
(-1.75184 0.0071827 -1.64849)
(-1.76259 -0.00825095 -1.66153)
(-1.74154 -0.0167238 -1.63482)
(2.20679 0.00044845 10.0996)
(2.20878 0.00150212 10.1036)
(2.20451 -0.000119007 10.0983)
(2.21099 0.00836383 10.1057)
(2.23715 -0.0104246 10.1579)
(2.17662 -0.0197965 10.0435)
(0.792838 -0.00017592 0.655251)
(0.792747 0.000316408 0.65531)
(0.79288 -0.000894142 0.655823)
(0.792235 -0.00343288 0.655498)
(0.793218 0.0049837 0.656915)
(0.791163 0.0070107 0.653321)
(3.27533 -0.000337952 2.29039)
(3.27499 -4.20554e-05 2.29089)
(3.27683 -0.000142155 2.294)
(3.27147 -0.00180369 2.28583)
(3.25321 0.00214416 2.26232)
(3.2928 0.00354545 2.31719)
(10.0484 0.000180524 14.4088)
(10.0499 0.000503206 14.4096)
(10.049 0.000263577 14.408)
(10.0496 0.00537778 14.4101)
(10.0694 -0.00674051 14.4325)
(10.0281 -0.0121057 14.3861)
(-0.68072 4.81195e-05 -3.88672)
(-0.681953 0.000163645 -3.8881)
(-0.684055 4.28042e-05 -3.88723)
(-0.678646 -0.00221814 -3.88661)
(-0.673263 0.00413627 -3.9052)
(-0.69073 0.00631601 -3.86809)
(8.13566 -7.88331e-05 5.72203)
(8.13539 0.000188335 5.72241)
(8.13507 -0.00037525 5.72257)
(8.13485 -0.000915631 5.72114)
(8.13809 0.000995172 5.72206)
(8.13049 0.00134084 5.72183)
(12.8086 0.000374844 10.1228)
(12.8094 0.000825901 10.1244)
(12.8095 0.00043009 10.1231)
(12.8082 0.00161494 10.1234)
(12.8183 -0.00161611 10.1301)
(12.799 -0.00319305 10.1162)
(2.53096 -2.01535e-05 3.3715)
(2.53033 2.50258e-05 3.37147)
(2.52919 0.000121616 3.37128)
(2.5322 0.0019152 3.37191)
(2.54341 -0.0022266 3.37699)
(2.51762 -0.00401023 3.366)
(9.61725 0.000322633 6.78317)
(9.61781 0.000696638 6.78512)
(9.61737 0.000533313 6.78403)
(9.61749 0.000437754 6.78424)