/*--------------------------------*- C++ -*----------------------------------*\
| =========                 |                                                 |
| \\      /  F ield         | OpenFOAM: The Open Source CFD Toolbox           |
|  \\    /   O peration     | Version:  v1612+                                |
|   \\  /    A nd           | Web:      www.OpenFOAM.com                      |
|    \\/     M anipulation  |                                                 |
\*---------------------------------------------------------------------------*/
FoamFile
{
    version     2.0;
    format      ascii;
    class       surfaceScalarField;
    location    "9";
    object      alphaPhi;
}
// * * * * * * * * * * * * * * * * * * * * * * * * * * * * * * * * * * * * * //

dimensions      [0 3 -1 0 0 0 0];

internalField   nonuniform List<scalar> 
2916
(
-0.00415973
0.0627579
-0.0479012
0.00574487
0.0451115
-0.0452914
0.0229346
0.0393329
-0.0468034
0.0107138
0.0738143
-0.0502668
-0.0178524
0.0893315
-0.0489911
0.0415918
-0.0493787
0.00426529
0.0739117
-0.00744337
-0.00050177
0.0628468
-0.00627331
-0.0102142
0.0585176
-0.00363532
-0.00200761
0.0753368
-0.00224217
0.0028048
0.0842612
0.00573662
0.0545967
-0.00455458
0.00449915
0.0996803
-0.0197327
-0.000219659
0.0937873
-0.0171945
-0.011618
0.0911195
-0.0132083
-0.00495699
0.0984879
-0.0192082
0.00556364
0.104185
-0.0188453
0.0851862
-0.0168466
0.00120976
0.147407
-0.0356463
-0.000845469
0.144243
-0.0350811
-0.0063034
0.143395
-0.0334917
-0.00435103
0.146804
-0.036987
0.00277692
0.150568
-0.0402296
0.140092
-0.0387744
-0.00113159
0.230266
-0.0686478
-0.000731328
0.227168
-0.0702483
-0.00106344
0.227865
-0.0710478
-0.00192133
0.229304
-0.0685787
-0.00122218
0.23197
-0.0690391
0.226785
-0.0748292
-0.00139894
0.320313
-0.0757205
-0.000719509
0.315769
-0.0763549
0.00051426
0.317287
-0.0777276
-0.00124871
0.318863
-0.074876
-0.0033546
0.32137
-0.0743736
0.315748
-0.0793965
0.00065818
0.403986
-0.0714053
-0.000858428
0.400973
-0.0707607
-0.00071392
0.402028
-0.0719655
-0.00125755
0.403319
-0.0709918
-0.00146138
0.403742
-0.0692466
0.400642
-0.0734344
0.0010271
0.359353
-0.055154
-0.00118624
0.360419
-0.056794
-0.00165909
0.360886
-0.0575052
-0.00152778
0.359178
-0.0553864
-0.0014204
0.354534
-0.0503804
0.362474
-0.0615365
-0.00365563
0.269422
0.0336128
-0.00105086
0.265153
0.0303384
-0.000208942
0.26694
0.0316399
-0.00275201
0.267758
0.0322537
-0.00520663
0.265793
0.0317403
0.266761
0.028912
-0.00403681
0.157489
0.137008
-0.000958169
0.144836
0.140657
-0.000351409
0.146384
0.141596
-0.000533151
0.158158
0.133947
-0.00245525
0.160986
0.131238
0.141702
0.143678
0.00152318
-0.0649836
0.150991
0.000813842
-0.0821673
0.157373
-0.000315778
-0.0805701
0.157136
0.00251329
-0.064111
0.15041
0.00193454
-0.0552526
0.148784
-0.0855082
0.15803
0.0112436
-0.0836908
-0.000194475
-0.0765751
-0.00263203
-0.0852741
0.00750364
-0.0815451
0.013432
-0.066076
-0.0788272
0.00471764
0.0454672
-0.000184258
-0.00586503
0.0594685
-7.97324e-05
-0.0216618
0.0614857
-6.01816e-05
-0.00933521
0.0336604
-0.000104608
0.013499
0.0221935
-0.000176049
0.0572282
-5.73943e-05
0.00331805
0.108361
-3.73852e-05
0.00351668
0.120626
-9.14117e-06
0.0063077
0.120778
-1.39591e-05
0.00446213
0.105351
-2.71907e-06
-0.00152204
0.103137
-1.10066e-05
0.118396
-9.53169e-06
0.00437236
0.182331
-1.97295e-06
0.00466012
0.189827
-4.5825e-07
0.00637128
0.187691
-6.59788e-07
0.00554604
0.186452
-1.73834e-07
0.00108998
0.192714
-6.30398e-07
0.188762
-4.81417e-07
0.000825568
0.338059
-1.88823e-07
0.00137905
0.341946
-4.5662e-08
0.00155075
0.339725
-6.59289e-08
0.00104771
0.342333
-1.68213e-08
0.00193134
0.349532
-5.94804e-08
0.343351
-4.99814e-08
-0.0038874
0.573154
-2.29084e-08
-0.000862824
0.576555
-5.71449e-09
0.00121299
0.57543
-8.28278e-09
-0.000381824
0.574388
-2.0633e-09
0.00054039
0.576824
-7.18025e-09
0.576593
-6.48749e-09
-0.0031118
0.789036
-2.51512e-09
-0.00200756
0.789888
1.37619e-09
-0.000524058
0.789475
9.85333e-10
-0.000968814
0.78885
1.72073e-09
0.000911336
0.790629
-9.00966e-10
0.786498
-8.60053e-10
0.000246445
0.965932
2.65564e-08
-0.002734
0.968039
2.93688e-08
-0.00232003
0.966485
2.70503e-08
-0.00190271
0.96712
2.77463e-08
0.000166842
0.969079
2.44291e-08
0.963392
3.26141e-08
0.00131506
1.08264
-0.0544132
-0.00218792
1.09377
-0.0552921
-0.00315728
1.08884
-0.0555309
-0.00101622
1.08701
-0.0556858
0.00184827
1.09005
-0.0547372
1.08636
-0.0561422
2.57372e-05
1.13921
-0.000317494
-0.000662066
1.14829
-0.000837326
0.00017167
1.14425
-0.000621612
-0.00139632
1.14705
-0.000618437
-0.00516779
1.15277
-0.000673219
1.13856
-0.000918298
0.00382477
0.467515
0.158441
-0.0003146
0.482102
0.177047
-0.000690247
0.473767
0.170589
-0.00277104
0.483727
0.165943
-0.0139275
0.493875
0.171751
0.465822
0.166457
0.00647257
0.269323
0.0277335
0.000460905
0.256172
0.0276641
-0.00119577
0.259336
0.0279159
0.00150766
0.273487
0.0269923
-0.00287979
0.271689
0.0252486
0.251326
0.029475
-0.00188742
0.196384
-0.001916
0.174321
-0.0087417
0.183259
0.00194772
0.191259
0.0292083
0.184425
0.186916
1.60013e-07
5.1969e-06
-0.000189098
-8.95458e-08
2.74514e-06
-8.18909e-05
-5.49395e-07
2.22176e-06
-6.14931e-05
-3.58769e-07
2.87106e-06
-0.000107686
8.83032e-07
3.9841e-06
-0.000180886
2.115e-06
-5.83471e-05
2.59687e-08
2.19048e-06
-3.43842e-05
7.51065e-09
5.09385e-07
-6.86805e-06
9.54732e-09
7.36109e-07
-1.24501e-05
2.96321e-09
1.91446e-07
-3.4506e-08
4.97087e-08
7.0087e-07
-7.75155e-06
5.3533e-07
-7.88605e-06
2.1995e-09
2.1533e-07
1.99117e-16
1.32211e-09
5.20127e-08
7.47578e-17
2.16044e-09
7.54818e-08
4.89398e-17
6.82936e-10
1.90896e-08
-5.44137e-15
3.23373e-09
6.7921e-08
-6.90925e-15
5.71459e-08
-2.45983e-15
3.01299e-10
2.62051e-08
3.55504e-17
9.53482e-11
6.55669e-09
1.42375e-15
1.39581e-10
9.50867e-09
1.07166e-15
5.15928e-11
2.35664e-09
-3.86087e-13
2.95795e-10
8.19904e-09
-3.26207e-12
7.46076e-09
-8.96447e-13
-7.14087e-13
3.29738e-09
1.36629e-16
-1.15395e-12
8.4264e-10
6.38025e-15
-9.30512e-13
1.22566e-09
4.67835e-15
-2.45676e-12
2.98339e-10
-3.4711e-12
6.5686e-12
1.02548e-09
-2.99838e-11
9.77542e-10
2.2967e-12
4.30617e-10
3.00098e-10
5.1442e-11
1.97848e-10
-2.67751e-08
-4.65558e-09
3.81559e-10
-1.92384e-08
-3.34156e-09
-1.43759e-12
-3.35237e-08
-5.75905e-09
-1.56544e-12
1.05616e-10
1.50943e-11
1.03701e-10
1.82894e-11
5.11026e-09
-4.18119e-07
-1.51627e-07
2.32717e-09
-4.61901e-07
-1.65307e-07
1.94041e-09
-4.24919e-07
-1.5308e-07
1.9844e-10
-4.2713e-07
-1.53727e-07
2.8925e-09
-3.76678e-07
-1.33747e-07
-5.0779e-07
-1.81922e-07
-0.000483851
0.0705386
0.000787067
-0.000187072
0.0646094
0.000579445
0.000215311
0.0653145
0.000614353
4.9384e-05
0.0701761
0.000672107
-0.000304694
0.0674161
0.000590736
0.0665405
0.000727528
-0.0016602
0.206638
0.00333734
-0.000731556
0.19697
0.00294318
0.000939789
0.198592
0.00311277
-0.000375868
0.20446
0.00320561
-0.00308381
0.201779
0.00327305
0.197678
0.00308303
0.000409502
0.435692
0.0383877
-0.00113775
0.414853
0.03051
0.000743673
0.415768
0.0345639
-0.00204817
0.430248
0.0376125
-0.00644865
0.425804
0.0364367
0.41759
0.034362
0.0197711
0.660337
0.0415804
-0.00362179
0.708108
0.0413109
-0.00807357
0.71408
0.0402142
-0.000656155
0.635521
0.041429
0.000395563
0.734276
0.0372714
0.70339
0.043951
-0.0284903
0.833245
0.00335494
0.639354
0.00420376
0.67831
-0.0137796
0.849771
0.00900881
0.721725
0.642885
2.39604e-06
-3.86016e-05
-0.000172414
1.90607e-06
-1.00243e-05
-8.88797e-05
2.96913e-06
-1.105e-05
-6.80014e-05
3.77429e-06
-5.80404e-07
-0.000123992
4.94916e-06
-2.42199e-05
-0.000161914
-8.30427e-06
-6.20445e-05
-1.12178e-07
5.22735e-17
-4.10662e-05
5.23461e-08
2.15903e-17
-1.02339e-08
6.1462e-07
1.52131e-17
9.25232e-18
1.09492e-09
-4.09982e-15
-1.38451e-09
-2.92121e-08
-7.68942e-14
-1.44473e-05
-3.35218e-14
-1.98906e-15
8.01228e-19
1.10594e-17
1.41955e-15
3.5908e-19
4.45306e-16
7.57696e-16
-1.00495e-17
3.23127e-16
5.35967e-16
-4.06863e-17
-4.13645e-15
-5.3741e-15
9.04372e-17
-3.72241e-14
-4.83164e-14
-6.67806e-15
-6.1974e-14
2.95989e-17
1.03274e-16
5.03213e-16
2.72985e-17
4.74615e-15
2.39606e-14
-2.96831e-16
3.42536e-15
1.89614e-14
-2.89111e-15
-7.64434e-14
-3.11185e-13
5.67413e-16
-7.05649e-13
-2.63905e-12
1.40882e-12
-3.2732e-12
5.36898e-16
-1.42758e-17
7.19895e-15
4.03712e-16
-9.91122e-16
3.97048e-13
-1.00303e-14
-9.59669e-16
3.12953e-13
-9.819e-14
3.27923e-12
-6.73836e-12
2.60204e-13
-1.04054e-14
-3.10494e-11
-1.25667e-12
-8.64181e-11
4.21868e-11
-1.06642e-11
-1.87419e-12
2.49708e-11
-9.13859e-10
-1.61648e-10
7.06811e-11
-7.48641e-10
-1.44377e-10
-8.65096e-14
-1.15721e-09
-1.75923e-10
-6.19399e-15
2.30701e-13
1.18135e-11
2.53898e-13
1.17087e-11
1.13672e-09
-8.34967e-08
-1.07213e-08
-2.00822e-10
-8.55235e-08
-1.02161e-08
-5.59697e-10
-8.31801e-08
-1.1134e-08
-9.43437e-10
-8.23479e-08
-8.80072e-09
-9.81469e-10
-6.97487e-08
-2.21529e-08
-1.0611e-07
-1.3285e-08
-1.27603e-05
0.000852162
-2.22663e-05
-4.50867e-07
0.000631365
-3.03634e-05
8.49946e-06
0.000677039
-3.47277e-05
-2.29418e-07
0.000761371
-3.87771e-05
3.18291e-06
0.000674528
-4.46104e-05
0.000730863
-1.18532e-07
-2.8354e-05
0.00420748
2.49573e-05
-7.30162e-06
0.00356237
1.24975e-05
7.78129e-06
0.00375768
2.34169e-05
2.03362e-08
0.00394976
3.07569e-05
3.78098e-05
0.00389109
2.89748e-05
0.00378856
4.32205e-05
0.000317408
0.0418524
0.000327169
-5.87045e-06
0.0337882
0.000522707
4.09565e-06
0.0377625
0.000459188
-1.56586e-05
0.0411084
0.000383953
4.12356e-05
0.0397657
0.00041952
0.0375863
0.000507912
0.0197926
0.304818
-0.00844604
-0.00225285
0.28643
-0.0114778
-0.0101562
0.290567
-0.0142906
0.00431015
0.311625
-0.0106237
0.0127469
0.307478
-0.0104748
0.293139
-0.016397
-0.0322909
0.142295
0.00413115
0.109965
0.0129368
0.106966
-0.00376124
0.160078
0.00300631
0.171621
0.0986043
0.00196389
0.0459271
-0.0561879
-0.0143262
0.0451631
-0.03457
-0.0111392
0.0440147
-0.0575389
-0.0246774
0.0440624
-0.0375017
-0.0320574
0.0284533
-0.0293823
0.0320733
-0.0653365
0.00266055
0.0864507
-0.051792
-0.0156321
0.0809114
-0.0224775
0.00366203
0.054554
-0.0361541
0.0103991
0.0437729
-0.0130308
-0.0238095
0.0557897
0.00110587
0.0753335
-0.0682141
0.0137455
0.100137
-0.0363073
-0.00482415
0.105282
-0.0148244
0.017206
0.0553007
-0.0255783
0.0177256
0.0434272
-0.00112838
-0.027356
0.0888471
0.0117032
0.0998594
-0.0522932
0.0432997
0.0871173
-0.0389802
0.041007
0.0886765
0.010023
0.0131246
0.00893232
0.0221126
-0.0155588
0.030238
0.00461602
-0.0371125
0.117966
-0.0072593
0.119621
-0.0566473
0.0485372
0.0735207
-0.0435565
0.0569428
0.0511349
0.0204358
0.000327644
0.00359781
0.0369106
-0.0344879
0.019419
0.0236203
-0.0400026
0.131178
-0.0073908
0.142052
-0.0621271
0.0137021
0.00971641
-0.0576402
0.00585905
0.00126489
0.012268
0.0526518
0.00071205
0.0286916
-0.0110305
0.0229491
0.024092
-0.0343114
0.0256202
0.00432107
0.0251854
-0.0261312
0.0700415
0.00139754
-0.0368842
0.0263967
-0.0731172
-0.0122374
0.00939676
-0.0338929
0.0143073
-0.00332342
0.0205631
0.0331376
-0.0274095
0.00613896
0.02294
0.00765767
-0.00261223
0.0113942
-6.80509e-05
-0.00436243
0.0118398
-0.0623701
-0.00763833
0.0102681
-0.0524245
0.00213867
0.00262841
0.0107418
0.0163324
-0.007148
0.00618119
0.0194038
-0.0215584
0.0156458
-0.00367631
-0.00268475
0.00614784
-0.0209303
-0.0146329
0.00310341
-0.00546073
-0.0624365
0.0020154
0.00151191
-0.00986665
0.0093082
0.00521861
-0.00570779
0.0112402
-0.0297254
0.0105877
-0.000326902
-0.00888923
0.00426448
-0.017697
-0.00441662
0.00731344
-0.0385679
-0.0367187
0.000572395
-0.00516066
-0.0272072
0.00367287
0.00157593
-0.0143517
0.00377989
-0.0300365
0.00380501
-0.00155639
-0.00838728
0.00186407
-0.00331555
-0.00365883
0.00322298
-0.0167345
-0.0169567
-0.00187745
-0.0119559
-0.0218409
-0.00344215
0.00597714
-0.0171637
-0.0106231
-0.0168017
-0.00343815
-0.000619196
-0.00337579
-0.00074166
-7.66232e-05
-0.00568629
-0.00688885
-0.0055615
-0.015012
-0.00137909
-0.0179899
-0.0100867
-0.00547624
0.0314271
-0.0363814
-0.0170832
0.0237158
-4.78089e-05
-0.0460594
0.00386302
1.83263e-05
-0.0501088
0.0151263
-2.69289e-06
-0.0160603
0.0246355
-0.00013251
0.0255557
-0.0461479
-0.0233623
0.0515646
-0.0137486
-0.028882
0.045905
-9.50974e-05
-0.0552496
0.0233447
7.41977e-05
-0.0531655
0.029779
-2.64089e-08
-0.00467681
0.0389672
-9.13572e-07
0.0540093
-0.000334742
-0.0296149
0.0777372
0.000324084
-0.0505202
0.0767977
-2.13148e-05
-0.0468141
0.0495162
-0.00244164
-0.0233958
0.0560367
-0.0002107
0.0105712
0.0614677
-7.72302e-08
0.0954729
-9.0803e-05
-0.0619731
0.144491
-0.00994522
-0.0406866
0.0988849
-0.00292481
-0.0236236
0.0335918
0.00386959
0.0106504
0.107992
-0.0350049
0.0418912
0.11786
-0.000838062
0.137613
-0.0128407
-0.0637163
0.170574
-0.0145528
-0.0377566
0.158318
-0.0178641
-0.0213884
0.0341644
0.0115112
-0.00652309
0.136312
-0.00712898
0.0412796
0.17243
-0.080126
0.174135
-0.0412399
-0.0048396
0.146338
-0.0322529
-0.00226525
0.193019
-0.0303995
-0.0204927
0.0587456
0.00444257
-0.0799731
0.0315548
0.0149371
-0.0223955
0.198067
-0.0554988
0.21566
-0.0733062
0.0409392
0.110324
-0.0500384
0.0556922
0.20282
-0.0405753
-0.0147442
0.0535036
0.0401256
-0.0167957
-0.00434862
0.0352656
-0.0203502
0.0136774
0.0228819
0.0471796
-0.0213434
0.0542044
-0.00422127
-0.0295724
0.0505503
0.0112343
-0.00874385
0.00410867
0.0190701
0.0233933
-0.00385321
0.00831443
0.0231067
-0.000163485
-0.000685912
0.0224871
-0.00322496
0.012881
0.0144231
-0.00020369
-0.00679651
0.0217112
-0.00158691
0.0038556
0.0128471
0.00185952
-0.00118291
0.00377361
0.000995032
0.0140937
0.00432034
-0.00153796
0.00345762
0.00369012
0.000731516
0.00232608
7.27503e-05
0.000798074
0.00645244
-0.00734679
0.0042577
0.000773923
-0.000241458
-0.000273105
0.000369994
-0.000392479
-0.000124112
0.000306444
-0.000602102
-0.000112716
0.000951399
6.91375e-05
0.000608361
-0.00164354
0.00015332
0.00025134
-0.00445924
0.00113339
-8.4697e-05
-0.00171313
-7.38154e-06
-0.000241779
-0.000725643
-0.0028258
-0.000156841
-0.000676389
-0.0103777
-0.00010303
-0.000124635
0.00203421
-0.00607831
0.000602265
-0.00323127
0.000972839
-0.00680483
7.41171e-05
-0.0145828
-0.000294281
-0.017913
-0.00438289
4.78928e-05
0.0001774
-1.09695e-06
-1.23505e-07
2.42365e-07
-3.25445e-07
-4.11642e-08
2.10107e-05
6.31227e-06
-2.41968e-06
1.00556e-08
-3.41153e-07
-0.000134937
5.96177e-07
-2.55246e-07
0.000338438
-6.34969e-07
-1.29849e-06
0.000316244
-1.10056e-05
-9.71637e-05
1.29038e-06
-1.05194e-06
-7.48342e-09
-2.64649e-06
6.64958e-07
-1.28508e-08
1.55957e-10
-3.94387e-08
1.70717e-09
1.01974e-08
-3.56306e-07
5.46455e-06
-1.43342e-06
-1.11722e-06
0.00560614
6.73821e-05
-2.12546e-05
1.0941e-06
-1.40533e-08
-2.62527e-06
-0.00246156
-1.44761e-06
-1.4625e-09
-0.000213356
-6.56867e-09
4.0609e-09
3.8108e-09
-6.96027e-08
1.29142e-06
-8.65733e-05
-0.00431015
0.00509526
0.000125858
-0.0110612
0.00580683
-2.57373e-05
-0.000818312
0.0109798
-6.93779e-06
0.000876629
0.00411361
-1.61402e-07
8.44238e-06
3.23964e-05
-2.2569e-06
0.00107131
-0.000198531
-0.0104618
0.00492198
-8.01581e-05
-0.052244
0.0485043
-0.000105649
-0.0136363
0.0724089
-1.16301e-05
0.0309092
0.0574357
-4.56595e-07
0.00652615
0.0511314
-1.84756e-06
0.0342581
-0.00112353
-0.0121898
0.0111643
-0.000753413
-0.111404
0.143898
-0.00440856
-0.037636
0.147809
-0.011149
0.0230133
0.158828
-0.0129647
0.0873276
0.158864
-0.0154623
0.179375
-0.000507956
-0.0643629
0.0375689
-0.000412965
-0.048882
0.198003
-0.0280587
-0.0469504
0.0384511
0.0177451
-0.00807927
-0.000561455
0.0255503
0.0161562
0.0780765
-0.0133988
0.245209
-0.0135869
-0.0083693
0.0566915
-0.00789394
-0.00747412
0.0898728
-0.0195502
-0.0105402
0.00208325
0.017247
-0.000437542
-0.00104098
0.0171238
0.00376323
-0.00148176
0.0205293
0.00935957
0.00983166
0.00365838
0.0280903
-0.0150194
0.00612429
-0.00360098
0.00744024
-5.78957e-05
0.00063404
0.00227932
9.56526e-05
0.000178905
0.00204516
6.72776e-05
1.63574e-05
0.0013386
0.00142718
0.00344998
0.00129151
0.00149561
-0.000872671
0.000242445
-4.29434e-05
0.00117154
2.83205e-05
0.000128067
0.000283256
-3.08744e-05
-0.00019879
0.000132001
-9.66969e-05
-0.000336722
9.06291e-05
0.000501508
0.000630018
0.000424319
0.000261076
0.000105112
0.000472904
0.000236699
0.000254873
0.00150448
-0.00113452
0.000530883
0.000387051
-0.00385496
0.00115694
-0.000392452
-0.00381803
-0.0050291
-0.000554434
0.000913034
0.00290191
-0.00751997
0.00819074
-0.00917482
0.00800309
-0.00743726
0.00431506
-0.0126833
-0.00258248
-0.015085
-0.0104191
-2.38767e-08
9.91144e-09
-1.37922e-06
-5.59356e-07
8.23316e-09
-6.89664e-08
5.00978e-06
-6.39129e-08
4.08409e-07
7.30755e-07
-9.72819e-09
-1.80159e-06
5.51032e-08
-1.35215e-08
-2.29985e-07
7.24357e-09
-1.25869e-06
-2.04469e-07
4.12058e-07
-1.18221e-05
9.2891e-08
8.75009e-07
-3.71446e-06
4.38437e-07
5.24737e-07
-5.33575e-07
1.01615e-08
1.50091e-08
-3.18908e-08
1.22936e-07
5.1816e-08
-2.33581e-06
5.21366e-06
-7.19019e-06
-5.83899e-07
7.02985e-05
-2.25294e-06
2.98815e-08
3.02523e-06
-4.03528e-06
9.32533e-09
5.75297e-08
-9.98984e-07
4.55004e-09
9.24684e-09
-3.51593e-08
3.2774e-06
7.47541e-08
-3.40539e-06
0.000250655
-1.09235e-05
1.94441e-05
0.000172728
4.63935e-06
2.3048e-07
1.31486e-06
-4.76831e-06
6.55591e-08
1.69088e-07
-6.9195e-06
4.8403e-09
1.18435e-08
-1.43061e-07
9.80672e-09
8.31433e-08
-2.30535e-06
2.1686e-05
3.25167e-07
6.33472e-05
0.000105202
-7.47067e-05
1.17603e-06
3.76878e-06
-4.62698e-05
2.11565e-07
7.15202e-07
-1.12571e-05
2.27548e-08
4.55089e-08
-3.36497e-07
1.87676e-08
8.0959e-08
-1.88674e-06
0.000316143
1.05323e-05
-6.69902e-06
0.000343452
-2.42083e-05
-0.00445147
0.000264045
-0.000222791
0.00224166
0.0344843
-8.85603e-05
0.0180975
0.0607888
-2.68654e-06
0.00033794
0.00229738
-9.56614e-08
0.00014654
6.60806e-07
-0.000275387
0.000918442
-2.52745e-05
-0.0314556
0.00488147
-0.000804379
-0.00543335
0.0638142
-0.014152
0.0120247
0.0372121
-0.0067088
0.0182329
0.0485031
-0.013907
0.088359
-0.00549313
-0.0113366
0.0162636
-0.00288823
-0.0160147
0.0412397
-0.00345498
-0.0100975
0.00520312
0.0187624
-6.86584e-06
0.000219339
0.0283721
0.0222087
0.00644346
0.0168358
0.058085
0.00439789
-0.0219754
0.0177859
-0.00476689
-0.00777487
0.0225598
0.00988707
-0.00121473
0.000290307
0.0011446
-0.000223277
0.000107646
0.000974657
-0.000305433
0.000179369
0.00381543
0.000905603
0.00857555
-0.00215884
0.00310922
0.000835901
-0.00034446
0.00271984
0.00500009
-4.78732e-05
6.85979e-05
0.00014948
-5.32294e-05
2.55437e-05
7.80034e-05
-0.000197325
0.000186268
7.75897e-05
0.000381889
0.00077911
0.000320266
0.00203829
0.000227499
0.000257954
0.0026744
0.00031411
2.54914e-05
0.00074533
6.54679e-05
2.15339e-05
0.00099296
8.20973e-05
-0.000152717
-0.00515426
0.000138736
0.0011359
0.000142832
0.00520715
-0.00926713
0.00839718
-0.00858708
0.0105301
-0.0077225
0.00695285
-0.00996806
-0.00262369
-0.01258
-0.0137589
1.36641e-05
-9.5121e-05
-1.27859e-05
4.1272e-06
-3.3217e-05
-9.29917e-08
-1.38859e-05
-2.51979e-05
2.54615e-18
-1.45887e-05
-6.21932e-05
-3.11434e-08
-4.0719e-06
-9.15635e-05
-1.57392e-05
-1.11953e-05
-1.74208e-14
-2.02028e-05
3.0924e-06
5.25636e-17
-5.15277e-06
-6.88541e-06
1.49406e-18
2.61622e-05
-9.25294e-06
-1.22609e-18
1.37092e-05
4.20256e-06
-6.67668e-16
-5.49532e-06
-7.15981e-06
-1.13605e-14
2.10882e-05
-4.89915e-15
-2.71319e-05
1.29176e-20
-3.57859e-06
-5.6251e-21
5.55396e-05
-3.68046e-19
4.11777e-05
-2.48683e-21
7.62605e-06
-4.30057e-22
-1.74884e-18
1.03226e-07
2.48997e-16
3.26112e-16
1.05116e-19
7.90137e-18
1.72434e-16
-3.04583e-20
-5.54295e-20
1.35502e-16
-3.25278e-08
-3.02359e-17
-1.28301e-13
-4.9765e-17
-6.25099e-16
-1.09997e-12
-2.07216e-16
-1.98736e-14
5.0417e-20
7.8388e-20
3.00352e-16
-8.18353e-22
-2.68707e-22
1.09851e-17
4.26699e-22
-1.74207e-20
-1.26534e-18
2.57648e-19
-1.19178e-22
-6.98161e-16
-7.79538e-18
-2.52186e-21
-1.19776e-14
-8.07883e-20
-5.11414e-15
-1.62429e-24
1.27669e-19
-1.14635e-22
-5.7808e-21
2.0137e-22
-3.85782e-19
1.02048e-24
-2.40566e-21
-1.56332e-21
-9.39847e-21
-1.83119e-18
-2.61195e-17
1.51302e-15
2.12181e-16
-3.58314e-18
6.14923e-17
1.00081e-14
-8.66788e-17
-7.08363e-18
8.0067e-15
-3.19203e-16
-3.64107e-15
-1.29801e-13
6.54812e-17
-6.03734e-14
-1.10286e-12
-3.61452e-14
-4.91638e-14
-2.3502e-17
9.59041e-19
1.8706e-17
-5.45107e-19
-4.5185e-20
-2.1698e-19
1.17511e-19
-3.08033e-18
-3.4341e-17
1.08915e-16
-1.8032e-20
-4.78439e-15
7.75119e-16
-6.94683e-20
-7.29553e-14
-2.47791e-17
-4.046e-14
-1.84556e-21
1.17382e-18
-2.22322e-22
-6.08419e-20
8.71627e-21
-6.62545e-19
-3.18386e-23
-1.35951e-21
-4.95716e-20
-2.01244e-19
-5.53793e-17
2.56628e-16
7.47756e-17
6.85255e-15
2.94393e-16
-8.88399e-19
3.87284e-13
-2.4038e-15
-1.40559e-16
3.14335e-13
-3.38976e-14
-2.61258e-13
-2.00214e-13
-1.48636e-13
-3.9021e-12
-3.5823e-13
-2.36475e-12
-1.56793e-12
-5.20638e-19
9.22452e-18
1.93853e-18
-2.22729e-19
-4.81328e-19
-2.89988e-18
3.32358e-19
-5.26591e-18
-1.72746e-16
-3.89529e-15
-1.1188e-20
-2.38174e-13
-3.105e-14
-1.39894e-17
-3.79734e-12
-1.3764e-15
-2.1411e-12
-1.49735e-21
1.20752e-20
-2.14187e-20
-1.11085e-19
-4.77975e-24
-4.60926e-19
-4.7291e-21
-3.33163e-23
-4.23159e-18
-2.10509e-19
-4.96386e-16
1.17856e-14
5.92244e-18
1.62568e-13
6.68257e-15
-9.75624e-18
1.01048e-11
-1.00353e-13
-1.08801e-14
8.27875e-12
-8.45345e-13
-2.06427e-11
-2.48762e-11
-1.14991e-11
-6.5559e-10
6.21561e-10
-2.22242e-10
-2.18844e-09
-2.61697e-20
9.28682e-20
1.01279e-17
-1.09845e-17
-8.60635e-19
-9.1838e-17
-2.17563e-14
-4.66211e-18
1.06993e-14
-2.67194e-12
-9.96294e-21
-1.82306e-11
-4.30298e-12
-6.63137e-17
-6.56109e-10
-2.66207e-13
-2.49608e-09
-4.9091e-22
1.223e-22
-9.75106e-21
-9.91913e-23
-3.60275e-25
-8.73332e-22
-7.12009e-21
-1.54748e-60
-6.64601e-17
-6.98364e-65
-2.61017e-61
4.47776e-13
2.84643e-17
-3.03878e-14
2.2484e-13
-2.57345e-16
-1.57851e-12
-1.09198e-11
-1.13643e-12
-1.7829e-12
-6.30545e-11
-5.21476e-09
1.08178e-10
-1.96897e-11
-7.98092e-08
6.99104e-09
-2.36013e-08
6.5493e-10
-6.21758e-18
1.41035e-21
-6.48389e-18
-1.83813e-14
-1.20406e-21
1.80259e-14
-8.23818e-11
-1.03919e-20
8.12377e-11
-1.40416e-09
-8.83811e-58
1.46826e-08
-1.0296e-09
-3.8617e-62
3.81642e-08
-1.52201e-58
7.15014e-09
-4.51828e-24
9.75137e-27
-3.36749e-23
8.03696e-24
-1.44208e-62
-2.94803e-32
2.44753e-62
-2.96363e-68
-9.75182e-63
-4.87919e-72
3.37892e-62
1.23964e-10
-3.71302e-07
2.36419e-08
2.04492e-11
-8.52393e-08
1.37199e-08
1.00042e-13
-9.3837e-08
1.60244e-08
1.40656e-08
-2.20873e-07
3.49017e-08
1.05319e-08
-6.85976e-07
1.1459e-06
-6.14658e-08
5.34821e-09
-1.00038e-08
1.88216e-24
1.19938e-06
-1.08206e-09
-7.9951e-24
2.60534e-07
-1.22808e-09
-6.63877e-28
3.1505e-07
-9.57381e-09
-2.52393e-64
5.74662e-07
-4.11476e-09
-2.89049e-68
3.04838e-07
-1.79311e-61
6.5984e-08
-2.48518e-26
-2.94854e-26
7.03372e-28
1.63049e-26
-1.21269e-68
4.19828e-29
-4.46185e-72
6.80166e-66
4.33634e-72
1.16693e-70
3.8549e-64
-1.17345e-07
-2.41437e-06
1.58129e-06
-1.23297e-08
-1.28501e-06
1.28929e-06
5.35407e-08
-1.40995e-06
1.76041e-06
-8.2621e-08
-1.70645e-06
2.94562e-06
-7.3966e-09
-3.25166e-06
2.11279e-06
-7.94633e-08
1.24014e-08
-6.1722e-07
-3.93261e-07
3.76174e-06
-3.26691e-08
-7.47874e-09
1.43625e-06
1.95094e-07
-1.8108e-07
1.07629e-06
-2.76161e-07
-2.14511e-07
2.09419e-06
-2.18644e-08
-8.90431e-08
2.47629e-06
-3.42017e-10
4.66844e-07
5.62537e-09
-1.09802e-06
-2.44786e-09
5.91759e-10
-8.23577e-10
-3.76196e-07
1.39896e-09
-2.16733e-07
5.73393e-09
-3.98393e-07
5.38625e-09
-1.29618e-06
1.08771e-06
5.64191e-05
-7.10495e-07
-1.9527e-06
4.47286e-05
-4.97275e-07
-4.57254e-07
4.58196e-05
-8.49628e-07
-1.00814e-07
4.60235e-05
-7.31306e-07
-6.14433e-07
3.97118e-05
-1.20524e-06
4.37534e-05
-2.46793e-06
8.78043e-06
4.34529e-06
1.32295e-07
-6.23723e-06
5.50162e-06
1.39236e-07
-7.8111e-07
4.55113e-06
-5.69763e-07
2.8504e-06
3.4905e-06
-1.57593e-06
2.03925e-06
4.27218e-06
-3.20391e-06
3.83043e-06
-5.2101e-06
-2.01511e-05
1.80956e-07
-2.05245e-06
2.73385e-06
-5.23038e-06
-3.7879e-06
-8.50046e-06
-3.94991e-06
-9.88792e-06
-1.61171e-06
1.48454e-05
1.71251e-06
0.000358128
-2.21411e-06
5.02935e-06
0.000585421
-3.37583e-06
-5.55966e-06
0.000502824
4.29351e-06
7.23861e-07
0.000406333
7.29423e-06
7.37619e-07
0.000439169
-1.30025e-06
0.000536677
8.59457e-07
2.91345e-05
-1.9159e-05
-4.81272e-08
3.27933e-05
-1.83756e-05
-3.79072e-07
2.89636e-05
-2.64986e-05
1.31211e-06
2.25048e-05
-1.64366e-05
9.84777e-07
2.56174e-05
-1.7339e-05
3.04324e-05
-2.42472e-05
-7.40494e-06
-4.9694e-05
5.21911e-07
-3.28428e-05
2.99258e-06
-3.77946e-05
-1.11893e-06
-4.54912e-05
-4.91574e-06
-4.31775e-05
-3.16748e-05
0.000430752
-0.00093227
-0.00903226
-3.62764e-05
-0.00114687
-0.00936549
1.36695e-05
-0.000894248
-0.0120309
0.000183414
-0.000816096
-0.00762692
0.000141997
-0.000975957
-0.00636515
-0.00101623
-0.0143086
-1.10544e-05
0.000208268
-0.00113068
-5.61118e-06
0.000101762
-0.00125468
5.24491e-06
0.000119185
-0.00103555
8.13092e-06
0.000202856
-0.00102117
-2.30208e-05
0.000172138
-0.00111601
9.27001e-05
-0.00113997
-7.86877e-06
-1.89149e-05
2.75872e-07
-2.18331e-05
3.54624e-06
-1.81966e-05
-1.61537e-06
-2.11023e-05
-9.17167e-06
-2.02877e-05
-1.93696e-05
-6.21489e-05
0.00160259
0.00187091
-0.00055342
0.00188799
0.00331966
-0.000510051
0.00157449
0.00163669
-0.000253586
0.00203101
0.00372112
-0.000413609
0.00224439
0.00598005
0.000877406
0.00106885
0.000104648
2.1524e-05
0.000541722
-4.72346e-05
2.77518e-05
0.000572136
-0.000213571
2.06413e-05
0.000565622
-4.96361e-05
2.5918e-05
0.00064355
0.000169759
2.56128e-05
0.000682438
1.46764e-05
0.000508837
-1.51301e-08
2.62413e-06
6.06842e-07
5.30878e-06
-1.71837e-07
3.23016e-06
1.25965e-07
4.51772e-06
7.9004e-07
4.66101e-06
3.15051e-06
0.000735651
-3.65188e-05
-0.00713289
0.00913347
0.00107316
-0.000158376
-0.00709288
0.00975109
0.000185272
-2.47658e-05
-0.00718087
0.011209
-0.00122742
-0.000181933
-0.00770082
0.012907
-0.00191188
-0.000178393
-0.00826952
0.0115913
-5.03468e-06
-0.00719595
0.00889831
2.07477e-07
-1.7363e-07
6.77318e-08
-3.66326e-05
1.39248e-06
-1.40462e-06
-2.34118e-12
-0.000158156
1.02972e-07
-3.84924e-06
-1.67903e-10
-1.96281e-05
-2.33286e-07
-2.81705e-06
-2.14015e-10
-0.000178783
-4.58468e-09
-1.04911e-06
1.37902e-06
-0.000178995
-3.34137e-08
6.71729e-08
-5.07859e-06
-4.81726e-09
3.66205e-10
-1.766e-07
-2.03465e-07
-6.48679e-09
-1.38083e-06
-1.26137e-07
5.10587e-07
-1.78761e-05
2.0216e-07
9.54623e-07
-2.52306e-05
-2.89731e-09
1.85455e-07
-5.58652e-06
3.36383e-10
-4.25027e-08
9.81012e-05
-6.8437e-08
-0.00358594
3.83991e-05
-8.07268e-10
-0.00379326
0.000128169
-4.07605e-08
-0.0039503
6.20812e-05
-8.07735e-08
-0.00388161
-9.11887e-05
-1.37684e-06
-0.00365184
-6.59299e-08
-0.00382757
3.28231e-11
-1.5888e-10
-8.99506e-10
-8.23255e-12
-4.42625e-10
-6.33713e-10
-2.47652e-10
-4.02366e-08
-9.69558e-10
-9.75182e-09
-7.06835e-08
-2.05853e-09
-3.77406e-10
-1.05427e-08
-6.14948e-10
-1.77392e-10
-9.1808e-11
-2.46792e-11
7.2458e-12
-8.24318e-09
5.00181e-11
-2.25188e-08
4.05745e-11
1.8426e-09
9.45439e-10
8.21186e-11
1.14282e-10
6.38133e-11
6.64453e-05
-1.33115e-07
-0.000286155
0.000131817
-7.55193e-08
-0.000416359
3.45429e-05
-8.70538e-08
-0.000371726
-6.58093e-05
-2.13986e-07
-0.000356347
-3.46019e-05
-1.4846e-07
-0.000315243
-4.74602e-08
-0.000310919
4.41103e-11
-1.45039e-13
-1.34181e-07
-1.80612e-11
-1.79488e-12
-7.61947e-08
-5.4909e-10
-4.0503e-11
-8.77945e-08
-5.32427e-10
-8.63654e-11
-2.21464e-07
-1.11444e-10
-1.45007e-11
-1.50118e-07
6.91533e-12
-4.77603e-08
-2.23186e-13
-1.15638e-10
-2.49042e-11
-5.07432e-11
-1.23541e-10
-3.75784e-11
-8.62241e-13
-4.45277e-11
1.73888e-12
-5.61469e-12
-1.94233e-11
3.07006e-05
-1.19212e-05
0.00294185
4.99797e-05
-6.39717e-06
0.00281226
4.00641e-05
-6.99837e-06
0.00285798
1.00529e-05
-1.90748e-05
0.00291225
-8.08415e-06
-1.49703e-05
0.00292171
-5.22626e-06
0.00291448
-7.83143e-09
-1.20447e-09
-1.20605e-05
-8.20179e-09
-3.43648e-10
-6.4813e-06
-1.27959e-08
1.20016e-10
-7.0942e-06
-1.32881e-08
6.62557e-10
-1.93312e-05
-3.53306e-09
-2.31752e-09
-1.51467e-05
-5.49844e-10
-5.28447e-06
-7.31589e-12
-1.54896e-09
-1.19059e-11
-5.58502e-10
-2.92825e-11
-3.64154e-09
-3.26579e-12
-1.3992e-08
4.65583e-12
-2.62943e-09
-7.25803e-10
-0.000171837
-0.000324572
0.00345973
0.000118982
-0.000298472
0.00375097
8.95283e-05
-0.000301655
0.00388803
-2.08846e-05
-0.000351745
0.00315592
-6.42786e-05
-0.000268037
0.00307565
-0.000287621
0.0037254
-2.22786e-07
-7.03007e-07
-0.000230944
-2.38463e-07
-5.38548e-07
-0.000305625
1.18869e-08
-6.06368e-07
-0.000309587
-2.87897e-07
-1.03678e-06
-0.000390926
-3.9681e-08
-1.00031e-06
-0.000349036
-5.77654e-07
-0.000293429
-4.49786e-10
-7.81883e-07
-2.27042e-09
-5.8155e-07
-5.94516e-09
-6.58024e-07
2.06551e-09
-1.19333e-06
7.31163e-09
-1.11508e-06
-6.1279e-07
-0.000154917
0.00338913
5.30839e-06
0.00421312
-0.000712522
0.00366748
-6.06729e-05
0.00372164
0.00112884
0.00433912
0.00367444
-6.18757e-06
4.18839e-07
-5.23482e-06
-2.86842e-06
-3.26151e-05
-8.25616e-07
-2.19136e-05
-7.68343e-08
3.1249e-05
-5.30965e-07
-9.41116e-07
-1.57944e-07
-1.50307e-08
5.08312e-09
-2.70198e-08
8.23151e-08
5.85158e-09
-7.94683e-07
-6.37483e-07
4.80661e-09
-3.46503e-07
5.18512e-09
3.74678e-06
-6.65427e-06
5.1138e-07
-4.63018e-07
-7.6152e-07
3.17834e-07
-3.78092e-08
-4.32117e-07
3.20117e-08
-1.15593e-06
4.06769e-08
2.6669e-07
-0
-5.57303e-08
1.20204e-07
-3.7461e-37
1.69577e-08
7.19196e-08
-5.07226e-42
-3.41328e-08
-4.02727e-08
-4.23293e-40
3.23177e-08
-1.48977e-07
-2.77603e-42
4.7078e-08
-1.23056e-45
3.71985e-08
0
0
-6.61239e-45
4.79258e-40
6.08482e-45
7.71687e-46
1.07324e-42
4.96809e-43
1.1601e-45
3.54882e-45
1.23081e-48
2.87418e-07
-7.61878e-06
2.01243e-06
-1.85828e-08
-1.78388e-06
2.45458e-07
9.18966e-09
-6.73018e-09
-7.75205e-09
2.94661e-07
-1.01662e-08
1.19634e-09
4.73442e-07
-2.71366e-06
1.38243e-07
-5.70874e-06
1.36359e-06
3.13115e-07
-7.94939e-205
-6.29308e-07
3.84018e-08
-4.89119e-40
-5.23964e-08
-1.45701e-10
-5.42246e-09
-4.87289e-12
9.92859e-09
-3.13048e-10
1.46391e-10
-1.50354e-07
-4.62629e-12
-2.65846e-08
-1.16673e-28
-4.13918e-07
8.48648e-208
6.04639e-208
2.83764e-43
6.48268e-43
1.30618e-10
1.44033e-10
4.62965e-12
2.40869e-11
-7.69714e-33
3.35901e-15
5.46321e-33
5.96166e-07
-4.97519e-06
2.26623e-06
4.34249e-07
-2.39435e-06
3.6322e-06
5.06392e-08
-3.82767e-08
5.70317e-07
8.20237e-09
-1.9949e-08
8.98682e-09
3.53371e-07
-2.22001e-06
1.0475e-06