/*--------------------------------*- C++ -*----------------------------------*\
| =========                 |                                                 |
| \\      /  F ield         | OpenFOAM: The Open Source CFD Toolbox           |
|  \\    /   O peration     | Version:  v1612+                                |
|   \\  /    A nd           | Web:      www.OpenFOAM.com                      |
|    \\/     M anipulation  |                                                 |
\*---------------------------------------------------------------------------*/
FoamFile
{
    version     2.0;
    format      ascii;
    class       volScalarField;
    location    "9";
    object      alpha.water;
}
// * * * * * * * * * * * * * * * * * * * * * * * * * * * * * * * * * * * * * //

dimensions      [0 0 0 0 0 0 0];

internalField   nonuniform List<scalar> 
1116
(
0.741802
0.742735
0.744301
0.740326
0.738291
0.744378
0.786533
0.787178
0.787923
0.786107
0.78509
0.788347
0.929071
0.930175
0.930419
0.929185
0.928362
0.930665
0.969535
0.96954
0.969538
0.969551
0.969554
0.969523
0.969636
0.969641
0.969642
0.969651
0.969656
0.969635
0.969666
0.96967
0.969674
0.969679
0.969683
0.969674
0.96967
0.969674
0.969679
0.969683
0.969683
0.969683
0.920898
0.920994
0.921292
0.920474
0.918911
0.922554
0.799392
0.796942
0.798093
0.798447
0.799051
0.798112
0.780682
0.779267
0.779908
0.779538
0.781301
0.780541
0.750957
0.749511
0.750176
0.751069
0.751217
0.749315
0.678525
0.677307
0.677285
0.678446
0.677577
0.676862
0.233757
0.230735
0.230069
0.235575
0.236908
0.231718
0.263971
0.266364
0.266278
0.26208
0.257723
0.267865
0.371764
0.377118
0.378806
0.370981
0.366567
0.380294
0.54777
0.552686
0.554139
0.548461
0.54705
0.557368
0.709887
0.713694
0.713718
0.710546
0.710183
0.717111
0.797761
0.800016
0.799847
0.797656
0.797225
0.798983
0.817993
0.817042
0.81788
0.817219
0.817387
0.815472
0.841918
0.839375
0.840345
0.840715
0.84117
0.839291
0.852095
0.852095
0.852018
0.851942
0.851921
0.851892
0.646396
0.658247
0.652455
0.655233
0.661486
0.652292
0.327467
0.335781
0.332756
0.329623
0.333189
0.333912
0.54534
0.520689
0.53259
0.541267
0.520955
0.529018
3.19369e-07
7.06089e-08
1.01185e-07
2.81471e-08
1.06327e-07
7.14983e-08
1.87314e-08
4.353e-09
6.26847e-09
1.65021e-09
5.98441e-09
4.5731e-09
1.59235e-21
7.22383e-22
1.35549e-21
8.44429e-17
8.66274e-16
1.22136e-15
4.25382e-23
1.30273e-23
1.87898e-23
3.47966e-15
3.09667e-14
8.14422e-15
-4.95568e-20
7.36031e-25
1.05879e-24
2.89513e-26
6.83513e-13
-4.63264e-21
3.06057e-25
-4.22355e-09
-3.00687e-09
-5.34158e-09
-6.50866e-19
-1.20632e-19
-9.36991e-08
-1.03972e-07
-9.46351e-08
-9.72465e-08
-8.56759e-08
-1.13551e-07
0.00780906
0.00691341
0.0069861
0.00784503
0.00733547
0.00723842
0.0347192
0.0322579
0.0328048
0.0345531
0.0326515
0.0333219
0.0993505
0.0989471
0.0993173
0.0979334
0.0964123
0.102343
0.181392
0.173151
0.175075
0.17829
0.170223
0.184234
0.544127
0.516103
0.52896
0.540067
0.529181
0.519385
9.12137e-05
4.28627e-05
3.25639e-05
5.74824e-05
8.38413e-05
3.22767e-05
1.12515e-05
1.80071e-06
3.48353e-06
8.49205e-17
2.2717e-06
2.35372e-06
-8.92221e-17
-3.30906e-17
-2.2315e-17
1.23877e-23
8.44424e-17
6.10689e-16
-1.93412e-17
-7.91681e-16
-6.08677e-16
-2.13583e-20
7.81873e-16
1.10995e-20
-2.30936e-16
-1.17437e-14
-8.93239e-15
-3.90881e-18
-4.51939e-18
-6.27465e-12
-1.05329e-11
-9.15065e-10
-7.18582e-10
-1.20299e-09
-1.45612e-18
2.15959e-19
-3.53952e-08
-3.74879e-08
-3.55921e-08
-3.59848e-08
-3.17569e-08
-4.35755e-08
-5.77909e-09
-8.87001e-09
-6.04793e-09
-2.09982e-12
-6.49404e-09
5.61413e-18
4.1365e-06
2.46709e-06
2.52854e-06
3.24574e-06
2.47621e-06
2.25753e-06
4.83414e-05
4.62224e-05
4.6035e-05
4.51279e-05
4.59918e-05
4.25897e-05
0.0507695
0.0243669
0.0335048
0.0425833
0.0379638
0.0318828
0.307561
0.282199
0.286601
0.311797
0.31145
0.278071
0.0964907
0.0965652
0.0970274
0.0971061
0.0948903
0.0971042
0.0967219
0.0966246
0.0974135
0.0972064
0.0967387
0.0974002
0.0969739
0.0970826
0.0975175
0.0975346
0.097553
0.0975415
0.0968249
0.0969739
0.0791558
0.0923505
0.0975713
0.0975596
0.0967259
0.0968249
0.0511224
0.0594889
0.0975713
0.0975713
0.0884334
0.0714655
0.0514553
0.0624375
0.0729858
0.0779033
0.0680977
0.0867377
0.0606975
0.0316818
0.0219662
0.0481313
0.05456
0.065007
0.0476911
0.00916923
0.0107962
0.0450413
0.020715
0.0319153
0.0345454
0.00729009
0.00884411
0.0357143
0.00948733
0.00870401
0.0339689
0.0155914
0.00917604
0.0338245
0.0116674
0.00371169
0.0187892
0.0289279
0.0236298
0.0335049
0.0123153
0.00413727
0.0175202
0.0298856
0.0323921
0.0329776
0.090476
0.0672552
0.0425546
0.0565754
0.0819329
0.0868996
0.0774071
0.0606594
0.0447084
0.0575148
0.0684542
0.0643684
0.0614842
0.0713551
0.073287
0.0635686
0.0630686
0.0718554
0.0918975
0.0666458
0.0567232
0.087859
0.0662706
0.0836678
0.0966018
0.0843845
0.0479924
0.0963283
0.0968281
0.0968719
0.0959229
0.095167
0.0506018
0.0694717
0.0967834
0.0967766
0.095167
0.0944003
0.0462562
0.0206404
0.0515843
0.0795706
0.031835
0.0412415
0.0303378
0.00788097
0.00714732
0.0122079
0.00787367
0.00554382
0.00915097
0.00739656
0.00419908
0.00463869
0.00514101
0.00561619
0.00153406
0.00106451
0.000646387
0.0011275
0.00263879
0.00315789
0.000303672
0.000322738
0.000351149
0.00105606
0.0063872
0.00280637
0.00148964
0.000351149
0.000415247
0.000619655
0.000237318
6.0251e-08
3.18911e-08
8.58979e-09
1.69821e-08
5.54452e-08
1.38183e-07
3.29656e-07
8.72283e-09
8.47208e-09
8.593e-09
1.69821e-08
0.00652288
4.66998e-07
2.14386e-08
8.07637e-09
9.42144e-09
1.0777e-08
0.00579268
0.00313066
0.00707456
0.00049935
1.04474e-08
0.000327625
0.00311438
0.0163993
0.0372537
0.0343348
0.00807573
0.00368721
0.00301546
0.0342215
0.0716952
0.0716449
0.0656064
0.0768049
0.00815926
0.0720726
0.0422851
0.0339242
0.0609051
0.0834449
0.0175234
0.0666912
0.0074789
0.00287876
0.00759917
0.0403992
0.0172678
0.0109082
0.000181403
0.00167573
7.49589e-05
0.000251068
0.00232356
9.1002e-05
2.71386e-05
2.03344e-05
3.0029e-05
6.26481e-05
0.000192152
0.000184883
0.000271905
0.00190768
0.00281733
0.000646389
0.000555656
0.00215807
0.00198747
0.00542928
0.0063729
0.00311216
6.02509e-08
5.75606e-08
4.78403e-08
5.56158e-07
7.66168e-08
8.04942e-08
7.2268e-08
6.29357e-07
2.05063e-08
2.47956e-08
1.71781e-07
8.54894e-08
1.37116e-07
1.57959e-06
8.14631e-09
8.14695e-09
8.17688e-09
0.000165279
2.61958e-07
5.08752e-08
9.09193e-09
8.06775e-09
9.09193e-09
6.68299e-07
9.34865e-07
8.69548e-08
1.28542e-08
9.09193e-09
1.28542e-08
4.75392e-05
7.62451e-05
9.3488e-07
0.00478136
0.0104113
2.45933e-08
7.20779e-08
0.00012749
4.50317e-05
0.0271142
0.0300781
0.0203306
0.023654
0.0022153
0.00934724
0.00859856
0.00691108
0.0103842
0.0297691
0.0081951
0.010958
3.27248e-05
2.03026e-05
0.000201367
0.00513842
0.00307777
0.00192646
1.28287e-05
1.44087e-05
1.56601e-05
2.45421e-05
9.33172e-05
1.28116e-05
4.25811e-06
6.97976e-06
0.00147205
5.87833e-05
0.00691837
0.00675729
0.00554066
0.00757109
0.00759003
0.0075687
0.000150257
0.000123526
0.000116456
0.000143024
0.000143454
9.07235e-05
0.000150088
7.60824e-05
6.83673e-05
0.000143609
0.00014364
5.96572e-05
0.000149944
9.095e-05
5.01152e-05
0.000144686
0.000145161
0.000137475
1.74362e-05
2.34443e-20
-3.91358e-18
-2.73822e-19
5.43239e-06
4.48257e-17
-9.95517e-17
-3.13881e-18
1.20136e-30
2.27769e-23
4.90257e-22
1.60167e-20
-2.98753e-20
4.3559e-33
7.50528e-31
9.12439e-34
9.34955e-22
5.72471e-31
-6.38986e-16
-3.21428e-16
-2.32968e-16
-3.27397e-20
7.81745e-16
2.14899e-16
-7.71556e-16
-2.99989e-17
3.49305e-18
1.76277e-17
3.75478e-18
1.42769e-17
-4.912e-19
2.28577e-20
1.56105e-18
9.15969e-21
3.50808e-20
6.88312e-18
-2.6137e-16
-1.22921e-14
-9.92627e-15
4.85803e-15
5.86309e-14
2.05598e-14
-4.36763e-17
5.08257e-19
1.774e-17
-1.03013e-15
-9.04386e-15
-5.61957e-15
-5.25561e-18
2.73876e-19
3.01067e-18
6.05686e-21
6.48053e-19
2.18016e-16
-6.82412e-15
-3.84605e-13
-3.13307e-13
2.58484e-12
6.52865e-13
9.81725e-11
-4.88207e-18
7.07573e-18
6.18484e-18
-1.09698e-18
-1.34896e-13
1.25434e-10
-6.89301e-20
6.34255e-19
2.61536e-18
1.06188e-23
7.6251e-22
8.48796e-16
-1.99385e-13
-1.24706e-11
-1.04681e-11
3.85068e-10
3.23569e-09
3.22663e-09
-3.77555e-17
4.87859e-23
-3.19196e-19
6.61532e-09
1.03141e-07
3.53678e-08
-1.20012e-21
1.01488e-21
8.85217e-21
9.94026e-65
2.46466e-71
3.63088e-67
5.70637e-09
1.00655e-09
1.10679e-09
3.45896e-09
8.72424e-07
3.48317e-09
4.87418e-07
9.88772e-08
1.17155e-07
2.50519e-07
4.21983e-07
7.2422e-08
-1.23945e-24
8.06984e-33
3.46817e-37
5.04113e-74
1.07112e-78
3.03363e-70
1.92571e-08
9.24517e-09
1.39427e-08
1.20007e-07
1.55189e-07
3.04199e-09
1.45471e-06
4.00144e-07
4.88645e-07
8.89525e-07
1.05289e-06
3.24602e-08
3.37745e-08
8.35904e-19
7.44013e-09
1.39e-17
6.54432e-09
1.10013e-18
6.15189e-07
4.9624e-07
4.30244e-07
6.92591e-07
6.80241e-07
4.37875e-09
1.37974e-06
2.78732e-06
8.45372e-07
8.68483e-07
9.41712e-07
1.40652e-06
1.40996e-05
3.52633e-06
8.24592e-06
9.03806e-06
8.70492e-06
1.78933e-06
5.35799e-06
2.91824e-06
2.98083e-06
3.68474e-06
3.00166e-06
2.66677e-06
1.55138e-06
2.44173e-06
8.772e-07
9.1724e-07
9.7648e-07
1.23621e-06
2.30156e-05
1.05079e-05
1.2758e-05
1.95604e-05
1.58867e-05
1.10546e-05
0.000300371
4.62147e-05
6.31219e-05
0.000121127
8.45335e-05
4.2568e-05
5.52339e-06
6.67183e-06
5.04537e-06
4.55278e-06
5.02656e-06
5.37608e-06
1.50615e-05
9.95168e-06
1.1259e-05
1.54997e-05
1.27676e-05
1.04929e-05
0.00684901
0.00467754
0.00451955
0.00758063
0.00925814
0.00408426
9.55086e-06
1.24751e-05
8.95499e-06
1.1688e-05
1.14574e-05
1.03619e-05
-3.24477e-14
-4.05427e-10
-2.69284e-10
-5.13083e-12
-1.33916e-13
-2.42855e-10
0.0211216
0.0212058
0.0213782
0.0212799
0.0207236
0.0200721
1.05308e-09
5.13492e-11
4.55669e-10
1.50048e-09
2.19141e-08
1.36289e-09
2.22203e-10
2.03404e-08
6.51058e-06
6.49245e-06
6.14681e-07
2.64464e-10
0.0223479
0.022256
0.0219777
0.0215895
0.02122
0.0215527
2.95152e-11
3.17615e-11
5.12007e-11
4.55669e-10
1.1482e-09
2.64464e-10
7.82959e-12
4.80171e-11
1.26989e-07
2.18813e-07
2.40405e-08
1.16678e-11
0.022741
0.0227108
0.0226435
0.0226064
0.022593
0.0225882
7.82957e-12
7.98904e-12
2.27193e-10
1.04663e-09
8.36287e-11
1.16678e-11
7.82957e-12
7.82958e-12
7.98905e-12
8.1869e-11
1.16678e-11
1.16678e-11
0.0227643
0.0227135
0.0226861
0.0226632
0.0226268
0.0225837
8.33184e-10
4.50903e-10
8.10179e-10
2.01298e-09
1.23031e-09
4.16206e-10
7.82959e-12
7.98905e-12
3.33844e-10
7.44378e-10
8.36288e-11
1.16678e-11
0.0230538
0.0230174
0.0230044
0.0230168
0.0230086
0.0229593
1.12359e-05
7.54646e-08
7.92601e-08
2.09152e-05
1.71097e-05
7.10936e-08
8.33182e-10
4.50794e-10
8.09571e-10
2.01085e-09
1.22913e-09
4.16203e-10
0.0230832
0.0227195
0.0226899
0.023079
0.0229973
0.022847
0.000368003
0.000312906
0.000313234
0.000545314
0.00050213
0.000316882
1.38145e-07
7.48985e-08
7.84624e-08
2.08579e-07
1.8256e-07
7.05952e-08
1.05542e-06
5.75606e-08
8.83912e-06
2.95336e-06
1.03203e-07
8.54222e-07
1.04867e-06
2.72455e-07
8.56951e-06
3.41899e-07
3.13968e-07
1.33559e-06
0
9.44064e-46
2.14555e-53
1.17247e-49
5.74192e-52
2.52789e-56
8.46012e-06
2.26174e-06
9.05781e-08
3.90292e-09
1.48515e-06
4.56406e-06
3.06381e-06
5.05577e-07
2.81935e-09
2.79316e-09
1.50082e-06
3.74094e-06
3.76132e-216
2.81474e-50
2.8609e-09
6.523e-11
9.15707e-23
4.29387e-40
4.31198e-06
3.63783e-06
5.32074e-07
1.10845e-08
1.91657e-06
2.35415e-07
3.44304e-06
3.75748e-07
3.85321e-09
7.09004e-09
1.14747e-06
2.16515e-06
1.73484e-67
8.0295e-41
2.90604e-08
2.34655e-09
1.95198e-21
2.12724e-25
1.08172e-12
4.03957e-06
2.1848e-06
1.12863e-08
1.2592e-06
-1.5191e-13
3.37992e-17
1.28359e-07
1.60535e-07
8.63962e-08
-1.48265e-18
-4.36849e-15
6.90592e-20
8.89444e-23
1.70185e-14
3.83458e-08
6.9601e-18
3.04682e-18
1.37374e-05
2.11471e-05
2.01195e-06
1.28542e-08
5.33418e-07
5.33128e-13
3.90977e-14
6.43584e-06
1.99068e-06
7.73835e-08
2.36054e-07
-1.52617e-17
8.23233e-20
2.58755e-22
2.36324e-19
7.0603e-08
3.93917e-07
-9.67857e-15
0.000157735
4.47375e-05
3.80244e-08
2.23514e-08
2.15968e-08
9.75957e-11
1.14371e-05
0.000124409
1.90709e-07
1.48216e-08
1.33367e-10
4.0245e-11
-3.54735e-17
2.51046e-21
9.08338e-18
2.90213e-07
2.01115e-06
8.10041e-09
0.000597492
0.000176132
0.00877791
0.0101552
0.00360183
0.0015668
0.000223131
0.000874138
0.000294128
0.000340643
0.000188462
1.33351e-10
-1.9323e-17
6.91687e-20
5.61325e-23
4.73491e-21
2.5286e-18
2.50135e-07
0.00361935
0.00805747
0.00849189
0.00943299
0.00935533
0.00982476
0.00120176
0.00333146
0.00541758
0.00337969
0.00273468
9.66279e-08
6.95692e-08
2.33739e-05
0.000934123
7.60454e-05
2.04071e-07
2.6153e-07
0.00799224
0.00766048
3.99731e-05
0.000367341
0.00172928
0.0034028
0.00241965
0.00297951
0.000591902
0.000540621
0.0008375
0.000532703
5.51893e-07
3.01405e-05
0.000415338
0.000136587
2.22572e-05
6.15724e-07
0.00270963
0.00141475
4.25774e-06
1.78176e-06
6.36253e-06
8.49413e-06
0.000968518
0.000841402
1.82285e-06
7.40388e-07
5.08455e-06
6.32275e-06
4.68541e-05
0.00012245
1.06798e-06
6.42124e-07
6.51414e-07
7.98186e-07
5.37638e-05
4.25199e-06
1.78972e-06
7.4021e-07
1.64826e-06
3.14963e-05
6.1716e-05
1.82277e-06
7.4059e-07
5.75448e-07
6.07668e-07
4.22319e-05
5.2522e-05
3.06833e-05
1.35051e-06
5.756e-07
5.756e-07
6.03739e-06
0.00668885
0.00580159
0.005537
0.0055436
0.00733211
0.00672687
6.19146e-05
0.00054021
0.00132203
0.00111319
0.000251823
7.54364e-08
2.66867e-06
1.44343e-07
1.26275e-06
5.756e-07
6.07667e-07
7.67799e-07
)
;

boundaryField
{
    seabed_topleft_surface
    {
        type            zeroGradient;
    }
    seabed_topright_surface
    {
        type            zeroGradient;
    }
    breakwater_top_surface
    {
        type            zeroGradient;
    }
    breakwater_left_surface
    {
        type            zeroGradient;
    }
    breakwater_right_surface
    {
        type            zeroGradient;
    }
    water_front_surface
    {
        type            zeroGradient;
    }
    water_back_surface
    {
        type            zeroGradient;
    }
    water_left_surface
    {
        type            zeroGradient;
    }
    water_right_surface
    {
        type            zeroGradient;
    }
    water_top_surface
    {
        type            inletOutlet;
        inletValue      uniform 0;
        value           nonuniform List<scalar> 
180
(
0.000149944
9.095e-05
0
0.000144686
0.000145161
0.000137475
0
0
0
0
0
0
0
0
0
0
0
0
0
0
0
0
0
0
0
0
0
0
0
0
0
0
0
0
0
0
0
0
0
0
0
0
0
0
0
0
0
0
1.40996e-05
0
8.24592e-06
9.03806e-06
8.70492e-06
0
2.30156e-05
1.05079e-05
1.2758e-05
1.95604e-05
1.58867e-05
1.10546e-05
1.50615e-05
9.95168e-06
1.1259e-05
1.54997e-05
1.27676e-05
1.04929e-05
0
0
0
0
0
0
2.22203e-10
0
6.51058e-06
6.49245e-06
6.14681e-07
2.64464e-10
7.82959e-12
4.80171e-11
1.26989e-07
2.18813e-07
2.40405e-08
1.16678e-11
7.82957e-12
7.82958e-12
7.98905e-12
8.1869e-11
1.16678e-11
1.16678e-11
7.82959e-12
7.98905e-12
3.33844e-10
7.44378e-10
8.36288e-11
1.16678e-11
8.33182e-10
4.50794e-10
8.09571e-10
2.01085e-09
1.22913e-09
4.16203e-10
1.38145e-07
7.48985e-08
7.84624e-08
2.08579e-07
1.8256e-07
7.05952e-08
0
0
0
0
0
0
0
0
0
0
0
0
0
0
0
0
0
0
0
0
0
0
0
0
0
0
0
0
0
0
0
0
0
0
0
0
0
0
0
0
0
0
0
0
0.000934123
7.60454e-05
2.04071e-07
2.6153e-07
5.51893e-07
3.01405e-05
0.000415338
0.000136587
2.22572e-05
6.15724e-07
4.68541e-05
0.00012245
1.06798e-06
6.42124e-07
6.51414e-07
7.98186e-07
5.2522e-05
3.06833e-05
1.35051e-06
5.756e-07
5.756e-07
6.03739e-06
0
1.44343e-07
1.26275e-06
5.756e-07
6.07667e-07
7.67799e-07
)
;
    }
}


// ************************************************************************* //
