/*--------------------------------*- C++ -*----------------------------------*\
| =========                 |                                                 |
| \\      /  F ield         | OpenFOAM: The Open Source CFD Toolbox           |
|  \\    /   O peration     | Version:  v1612+                                |
|   \\  /    A nd           | Web:      www.OpenFOAM.com                      |
|    \\/     M anipulation  |                                                 |
\*---------------------------------------------------------------------------*/
FoamFile
{
    version     2.0;
    format      ascii;
    class       volScalarField;
    location    "9";
    object      p;
}
// * * * * * * * * * * * * * * * * * * * * * * * * * * * * * * * * * * * * * //

dimensions      [1 -1 -2 0 0 0 0];

internalField   nonuniform List<scalar> 
1116
(
6553.79
6547.43
6547.48
6549.99
6547.92
6544.62
7025.37
7023.27
7012.32
6988.51
6947.71
6984.76
8352.22
8362.69
8359.79
8341.63
8328.98
8359.77
9892.58
9904.7
9906.47
9895.63
9894.79
9915.24
11058.5
11063.2
11064.7
11058.4
11058.5
11067
11805.6
11806.4
11806.7
11804
11803.6
11803.5
12331.5
12330.8
12331.3
12329.4
12328.5
12326.6
12818.3
12815.7
12816.3
12816.2
12813.5
12813.8
13170.8
13169.2
13168
13167.1
13165
13168.5
13087.9
13104.1
13098.9
13095.9
13098.9
13108.3
11644.8
11650.5
11650.1
11651.8
11659.1
11661.3
13515.4
13470.8
13486.8
13503.4
13490.5
13480.6
1137.16
1124.78
1121.27
1146.26
1155.6
1128.08
1299.63
1310.11
1307.47
1288.79
1276.5
1310.21
1797.33
1821.94
1827
1796.59
1778.95
1827.87
2594.8
2615.09
2619.64
2598.52
2592.98
2628.71
3343.06
3358.33
3358.05
3345.45
3343.84
3374.78
3832.59
3844.3
3843.72
3831.53
3828.36
3840.3
4007.85
4005.01
4007.77
4005.46
4006.05
3997.64
4297.89
4293.33
4294.52
4299.18
4301.55
4287.84
4823.52
4805.3
4805.01
4811.92
4797.89
4806.48
5026.55
5028.28
5029.13
5025.77
5013.55
5053.28
5468.46
5422.72
5439.26
5448.48
5443.63
5457.45
9079.23
8929.08
8988.42
9032.19
9005.55
8975.35
-61.6447
-61.6022
-61.729
-61.7262
-61.4812
-61.9429
-79.7498
-79.5568
-79.7425
-80.3163
-80.1741
-80.4432
-117.511
-117.578
-117.839
-117.814
-118.161
-118.61
-159.007
-159.569
-159.566
-158.94
-158.937
-159.623
-155.137
-155.118
-154.861
-154.286
-154.12
-153.268
-61.5588
-60.9825
-60.9015
-60.8686
-60.958
-59.09
95.2918
95.3104
95.3207
95.3876
94.8216
95.5479
263.047
260.84
261.213
262.542
261.07
261.519
296.896
290.567
291.911
294.657
291.98
292.534
747.919
724.34
737.231
742.249
742.274
735.717
2267.81
2104.21
2168.94
2225.52
2222.71
2128.92
6793.22
6597.88
6623.88
6811.18
6744.17
6547.42
-53.3413
-53.0587
-52.9986
-53.1087
-53.1385
-53.1334
-62.1139
-62.0796
-62.1538
-62.1803
-62.1035
-62.6243
-76.7743
-76.732
-76.947
-77.0329
-77.2162
-77.6116
-98.2168
-98.35
-98.3916
-98.3732
-98.4251
-98.8897
-106.719
-106.72
-106.597
-106.306
-106.008
-106.406
-63.8726
-64.0575
-64.1162
-64.271
-64.4128
-63.9999
9.22846
9.46503
9.50878
9.04396
9.0376
9.7752
36.0464
37.3033
37.5462
37.0491
37.7031
37.0598
27.2223
25.4248
26.1008
26.8392
26.9016
25.6743
44.7296
32.8623
35.5457
39.6474
38.4633
31.2173
55.9401
16.9772
21.8715
29.7308
32.2807
3.74304
1578.07
1622.88
1606.07
1634.92
1616.31
1667.7
1314.5
1271.48
1231.16
1211.7
1257.31
1317.87
1278.33
1239.96
1170.43
1171.08
1207.67
1278.94
1238.61
1205.27
1186.66
1191.47
1183.93
1268.48
1245.26
1180.55
1202.33
1292.08
1178.86
1286.71
1259.26
1246.04
1241.88
1342.4
1325.81
1395.74
1271.8
1259.51
1283.47
1339.98
1371.2
1429.3
1199.8
1161.86
1126.73
1049.14
1074.1
1154.65
899.871
882.53
757.832
695.307
722.668
773.644
502.011
505.938
489.326
497.716
493.73
496.827
319.271
308.059
305.37
339.542
316.726
319.142
243.791
236.465
236.182
287.063
302.919
269.736
234.624
222.095
235.715
280.778
306.563
295.613
425.213
333.455
229.529
280.495
385.847
449.29
353.321
289.747
226.703
273.302
316.556
317.402
356.269
330.834
337.853
316.165
304.714
346.598
428.176
338.82
385.71
518.11
350.017
372.787
453.055
330.118
409.063
439.549
478.601
479.343
425.6
195.722
341.613
380.664
446.164
649.89
449.674
201.738
271.49
380.145
437.391
496.373
403.544
294.311
229.813
322.382
373.746
362.982
291.269
254.551
192.361
225.133
196.315
195.968
176.588
138.451
106.862
115.154
102.831
99.8045
102.696
94.3942
93.5661
103.013
106.879
102.691
84.7134
87.6581
90.4088
104.53
114.686
109.909
-20.5193
-20.4161
-22.1011
-24.9127
-23.6452
-16.7976
-20.2784
-18.9602
-19.4022
-21.4789
-21.934
-20.4294
-6.95647
-11.0278
-11.7602
-11.767
-12.4736
-13.6998
4.5863
-8.85249
-9.13405
-4.692
-4.97729
-4.48378
12.8702
3.37009
96.0669
86.6282
14.0386
25.9129
38.3485
78.5727
271.22
275.158
206.568
281.104
51.1158
66.2765
102.56
132.255
122.11
216.462
87.0655
36.4193
63.7865
124.631
143.385
121.419
87.3651
64.0404
54.3758
75.9259
85.2022
92.4084
62.5207
49.2731
48.9644
54.5966
51.5782
58.0715
50.0887
37.5948
39.3102
43.9092
57.0133
61.1018
48.9091
37.95
30.3616
35.5275
44.4544
46.1509
-32.4816
-31.7127
-32.3092
-34.1494
-33.5036
-32.6206
-33.3523
-32.344
-33.167
-34.3577
-33.5906
-32.7605
-36.2731
-36.8367
-35.7716
-34.403
-32.987
-31.8365
-40.2803
-45.2516
-40.4014
-39.2135
-37.802
-34.8624
-44.4415
-51.5384
-41.375
-40.5339
-44.7095
-42.276
-38.3623
-46.6508
-19.8556
-17.6014
-44.3588
-44.0697
-35.6742
-38.1245
10.9387
13.5255
-9.83756
1.7245
-20.725
-33.7831
4.93831
39.5721
7.83996
3.53457
-0.896335
-18.7497
-2.05562
12.317
19.5436
21.6031
11.1553
-2.34136
-0.569989
4.52703
6.56542
11.5039
24.1267
11.7252
4.31209
2.76772
9.33472
19.2641
24.4827
3.68564
-14.0087
-19.7931
-24.7151
-6.67678
-68.9965
-69.2016
-69.383
-68.9143
-68.7182
-68.9825
-72.1801
-71.7406
-71.4007
-72.0535
-72.3003
-72.5098
-76.379
-76.1046
-75.5011
-76.4711
-76.6062
-76.7116
-74.3934
-74.4726
-74.5511
-74.4426
-74.4261
-74.4659
-76.5374
-76.5813
-76.588
-76.5308
-76.5337
-76.4782
-80.9437
-80.8332
-80.6483
-80.8793
-81.1443
-80.866
-80.8343
-80.7964
-80.8205
-80.854
-80.9473
-80.9978
-77.4805
-77.4819
-77.4795
-77.5315
-77.5647
-77.5889
-75.7363
-75.7736
-75.7482
-75.7747
-75.7769
-75.7873
-85.187
-85.2126
-85.2322
-85.1262
-85.1868
-85.2691
-78.9525
-78.959
-78.9643
-78.9441
-79.0156
-78.9444
-74.0203
-74.0192
-73.9987
-73.9986
-74.0104
-73.9636
-76.2902
-76.2692
-76.3092
-76.2385
-76.3187
-76.2174
-74.0786
-74.059
-74.0725
-74.089
-74.1334
-74.0086
-69.801
-69.8
-69.7863
-69.7858
-69.7816
-69.7562
-42.3753
-42.3258
-42.5216
-42.5735
-42.9539
-42.6392
-60.9258
-60.8171
-60.8604
-60.9614
-61.035
-60.7122
-64.3607
-64.3382
-64.2928
-64.328
-64.3676
-64.3243
-3.89
-3.75752
-3.94882
-3.11208
-3.31087
-3.77672
-45.1017
-44.6085
-44.6596
-44.7024
-44.8091
-44.4248
-60.909
-60.8504
-60.7735
-60.9151
-60.8371
-60.7556
13.3853
12.1008
11.5306
12.4875
11.7239
11.1148
-41.7458
-38.7108
-39.5667
-40.4425
-39.7051
-37.4926
-59.9689
-59.7746
-59.0864
-59.16
-59.2514
-59.5811
-14.0771
-14.7934
-14.8842
-13.8128
-14.3653
-15.8926
-62.7534
-60.7464
-62.8797
-62.7698
-62.5119
-60.6351
-74.1968
-72.3109
-72.9265
-73.5856
-73.048
-71.0037
-29.34
-33.6124
-32.048
-30.4712
-31.4513
-34.277
-48.5364
-50.5224
-49.8196
-48.7848
-50.0108
-50.5535
-64.8312
-62.9763
-64.3241
-64.763
-64.3296
-62.3003
-51.9485
-56.1376
-54.7582
-53.6951
-54.3745
-57.7087
-27.796
-28.2428
-27.03
-27.3951
-28.3411
-26.7003
-59.6938
-58.7811
-59.1179
-59.3845
-59.3868
-58.4852
52.6862
48.3836
49.6008
49.4569
47.7451
59.4325
-22.7998
-22.8776
-23.1059
-24.016
-23.8409
-23.4731
-55.526
-54.0884
-54.6725
-54.8262
-54.3821
-54.519
50.0465
54.5756
51.591
45.1234
39.8463
43.7658
-47.5983
-48.4685
-50.2172
-52.1551
-51.2581
-49.0225
-65.9086
-66.3401
-67.4885
-67.399
-65.6102
-65.0214
62.9882
62.2206
60.8353
59.7745
59.9145
61.6699
-45.6469
-45.9688
-46.8374
-47.495
-47.2323
-46.6625
-65.4305
-65.4401
-65.3044
-65.001
-64.6483
-64.53
65.9817
65.9398
65.4556
65.348
65.6629
65.7956
-44.7961
-44.9622
-45.386
-45.5936
-45.4088
-45.1899
-65.1452
-65.1182
-64.9903
-64.58
-64.3558
-64.2695
68.7858
68.8686
68.5174
68.4269
68.7248
68.6459
-42.7899
-42.8524
-42.9764
-43.207
-43.1786
-43.0649
-63.6239
-63.5277
-63.4322
-63.3071
-63.2102
-63.1723
79.2951
79.6728
78.4637
77.252
75.8686
79.3222
-41.1018
-41.3376
-41.4211
-41.8699
-41.8347
-41.5215
-60.9455
-60.6534
-60.6517
-60.7179
-60.6228
-60.6189
183.309
200.109
189.386
187.602
185.74
196.039
-30.9865
-30.2818
-31.0567
-31.9165
-31.5767
-30.9215
-57.4035
-56.5784
-56.9716
-57.3603
-56.9414
-57.056
-43.1548
-42.4237
-40.4999
-40.8884
-41.7562
-42.6292
-54.2776
-54.2761
-53.6798
-54.0166
-54.1473
-54.2316
-65.3054
-65.4968
-65.1118
-65.434
-65.7001
-65.6679
-44.0106
-43.1474
-42.0174
-42.4551
-42.8408
-43.4941
-55.0826
-54.9512
-54.9408
-55.0162
-55.0855
-55.084
-66.2129
-66.3608
-66.3177
-66.3962
-66.6096
-66.5072
-45.5014
-44.3888
-42.8348
-43.1362
-43.7762
-44.6983
-55.3621
-55.2828
-55.2996
-55.45
-55.7471
-56.0089
-66.4367
-66.8188
-66.7174
-66.9107
-67.0474
-66.8865
-45.8045
-46.2402
-46.4701
-46.6213
-47.4421
-47.2153
-54.7218
-55.2164
-56.2316
-56.9098
-57.5705
-57.2607
-67.1873
-67.854
-67.9806
-68.0996
-68.0134
-67.4683
-45.2613
-49.2089
-50.816
-50.855
-53.7528
-51.8113
-52.9797
-54.4613
-56.1292
-57.4819
-58.5763
-58.081
-67.9419
-68.8216
-69.0968
-68.832
-68.5205
-67.8426
-47.8024
-54.5629
-55.5156
-56.4201
-59.8689
-61.2439
-56.7309
-58.0639
-59.7778
-63.4058
-64.148
-64.3184
-69.336
-70.5558
-71.0302
-70.3568
-69.5326
-69.0218
-54.0841
-54.9675
-44.9909
-52.2794
-64.1946
-67.152
-69.0759
-72.9051
-77.6088
-79.9854
-80.9029
-79.774
-73.4765
-75.4894
-79.3986
-76.8808
-74.6597
-73.7969
-62.579
-77.4695
-69.3144
-62.9566
-74.1459
-64.3677
-81.0501
-89.16
-112.886
-96.2253
-91.6277
-87.9544
-78.6999
-76.9041
-84.6192
-80.4178
-78.6348
-77.6638
-22.8193
-48.5271
-31.4868
-24.8942
-24.1373
-31.6314
-55.5051
-66.647
-61.4336
-56.2784
-55.2731
-58.3831
-71.7974
-74.2309
-77.7444
-76.2375
-73.3646
-71.6978
-9.20225
-28.0919
-25.8928
-24.3768
-22.6036
-22.1052
-40.2248
-47.7577
-48.9524
-50.5145
-48.5023
-48.853
-66.6081
-68.3943
-69.3525
-70.8801
-68.7579
-67.8045
-1.98454
-7.93093
-13.0953
-15.035
-15.843
-12.7586
-40.7042
-42.7756
-46.2274
-48.3404
-48.5239
-48.3339
-66.1624
-66.8775
-68.2137
-68.63
-66.6792
-64.7179
9.04658
8.46917
-0.417674
-11.6742
-25.4895
-10.458
-45.7067
-46.9168
-52.1829
-56.1156
-56.5944
-54.5436
-63.6253
-64.7279
-66.633
-66.7351
-64.536
-63.9224
)
;

boundaryField
{
    seabed_topleft_surface
    {
        type            calculated;
        value           nonuniform List<scalar> 
72
(
10206.1
10204.3
10212.1
10195
10183
10209.6
10897.6
10898.7
10891.4
10858.7
10812.9
10865.9
12925.3
12941.2
12939.5
12915.3
12898.6
12940.7
14664.6
14676.8
14678.5
14667.8
14666.9
14687.2
15831
15835.8
15837.3
15831
15831.1
15839.5
16578.3
16579.1
16579.4
16576.7
16576.4
16576.3
17104.2
17103.6
17104.1
17102.2
17101.3
17099.4
17351.2
17349
17351.1
17347
17336.7
17354.8
17106.2
17092.7
17097.1
17098
17098.8
17097.7
16931.4
16940.6
16938.5
16933.7
16945.5
16951.1
15342.1
15340.7
15343.6
15349.7
15357.7
15350.5
16856.6
16806
16821.9
16844.2
16827
16813.6
)
;
    }
    seabed_topright_surface
    {
        type            calculated;
        value           nonuniform List<scalar> 
72
(
1793.86
1751.21
1713.16
1694.09
1728.8
1800.24
1758.82
1719.98
1654.33
1653.96
1688.25
1762.77
1720.34
1687.54
1671.07
1675.96
1668.51
1753.01
1726.26
1662.29
1596.46
1751.08
1663.53
1771.33
1739.78
1727.04
1498.17
1639.83
1810.48
1880.42
1711.54
1615.82
1541.39
1651.91
1734.99
1817.27
1539.56
1593.27
1430.1
1209.84
1187.03
1396.23
1173.06
1207.09
997.248
745.313
780.673
1000.03
608.787
667.785
664.105
538.483
542.138
677.354
370.841
355.778
477.315
421.126
366.766
490.377
306.081
259.637
333.489
434.221
424.027
439.399
300.1
247.36
326.783
432.646
470.755
462.683
)
;
    }
    breakwater_top_surface
    {
        type            calculated;
        value           nonuniform List<scalar> 
36
(
158.449
163.391
161.251
154.302
146.299
147.026
177.4
176.182
173.433
170.47
168.8
172.185
182.32
182.13
181.316
181.027
181.276
181.385
185.238
185.072
184.587
184.383
184.503
184.213
197.166
197.365
196.092
194.941
193.518
196.73
301.324
316.342
305.474
305.596
303.334
312.896
)
;
    }
    breakwater_left_surface
    {
        type            calculated;
        value           nonuniform List<scalar> 
24
(
13526.8
13482.2
13498.3
13514.8
13501.9
13492
9088.24
8937.68
8997.22
9041.13
9014.16
8984.09
6802.04
6606.25
6632.46
6819.93
6752.75
6555.84
1582.96
1627.37
1610.63
1639.88
1621.26
1672.13
)
;
    }
    breakwater_right_surface
    {
        type            calculated;
        value           nonuniform List<scalar> 
24
(
234.848
222.182
236.027
281.298
307.125
296.185
84.8353
87.7209
90.4499
104.553
114.71
109.936
48.9343
38.0011
30.4099
35.6315
44.5736
46.2175
24.6082
3.80867
-13.905
-19.6572
-24.5788
-6.54088
)
;
    }
    water_front_surface
    {
        type            calculated;
        value           nonuniform List<scalar> 
186
(
6553.79
7025.37
8352.22
9892.58
11058.5
11805.6
12331.5
12818.3
13170.8
13087.9
11644.8
13515.4
1137.16
1299.63
1797.33
2594.8
3343.06
3832.59
4007.85
4297.89
4823.52
5026.55
5468.46
9079.23
-61.6447
-79.7498
-117.511
-159.007
-155.137
-61.5588
95.2918
263.047
296.896
747.919
2267.81
6793.22
-53.3413
-62.1139
-76.7743
-98.2168
-106.719
-63.8726
9.22846
36.0464
27.2223
44.7296
55.9401
1578.07
1314.5
1278.33
1238.61
1245.26
1259.26
1271.8
1199.8
899.871
502.011
319.271
243.791
234.624
425.213
353.321
356.269
428.176
453.055
425.6
449.674
403.544
291.269
176.588
102.696
84.7134
-20.5193
-20.2784
-6.95647
4.5863
12.8702
38.3485
51.1158
87.0655
87.3651
62.5207
50.0887
48.9091
-32.4816
-33.3523
-36.2731
-40.2803
-44.4415
-38.3623
-35.6742
-20.725
-0.896335
11.1553
24.1267
24.4827
-68.9965
-72.1801
-76.379
-74.3934
-76.5374
-80.9437
-80.8343
-77.4805
-75.7363
-85.187
-78.9525
-74.0203
-76.2902
-74.0786
-69.801
-42.3753
-60.9258
-64.3607
-3.89
-45.1017
-60.909
13.3853
-41.7458
-59.9689
-14.0771
-62.7534
-74.1968
-29.34
-48.5364
-64.8312
-51.9485
-27.796
-59.6938
52.6862
-22.7998
-55.526
50.0465
-47.5983
-65.9086
62.9882
-45.6469
-65.4305
65.9817
-44.7961
-65.1452
68.7858
-42.7899
-63.6239
79.2951
-41.1018
-60.9455
183.309
-30.9865
-57.4035
-43.1548
-54.2776
-65.3054
-44.0106
-55.0826
-66.2129
-45.5014
-55.3621
-66.4367
-45.8045
-54.7218
-67.1873
-45.2613
-52.9797
-67.9419
-47.8024
-56.7309
-69.336
-54.0841
-69.0759
-73.4765
-62.579
-81.0501
-78.6999
-22.8193
-55.5051
-71.7974
-9.20225
-40.2248
-66.6081
-1.98454
-40.7042
-66.1624
9.04658
-45.7067
-63.6253
)
;
    }
    water_back_surface
    {
        type            calculated;
        value           nonuniform List<scalar> 
186
(
6544.62
6984.76
8359.77
9915.24
11067
11803.5
12326.6
12813.8
13168.5
13108.3
11661.3
13480.6
1128.08
1310.21
1827.87
2628.71
3374.78
3840.3
3997.64
4287.84
4806.48
5053.28
5457.45
8975.35
-61.9429
-80.4432
-118.61
-159.623
-153.268
-59.09
95.5479
261.519
292.534
735.717
2128.92
6547.42
-53.1334
-62.6243
-77.6116
-98.8897
-106.406
-63.9999
9.7752
37.0598
25.6743
31.2173
3.74304
1667.7
1317.87
1278.94
1268.48
1286.71
1395.74
1429.3
1154.65
773.644
496.827
319.142
269.736
295.613
449.29
317.402
346.598
372.787
479.343
649.89
496.373
362.982
195.968
99.8045
102.691
109.909
-16.7976
-20.4294
-13.6998
-4.48378
25.9129
281.104
216.462
121.419
92.4084
58.0715
61.1018
46.1509
-32.6206
-32.7605
-31.8365
-34.8624
-42.276
-44.0697
1.7245
3.53457
21.6031
11.5039
19.2641
-6.67678
-68.9825
-72.5098
-76.7116
-74.4659
-76.4782
-80.866
-80.9978
-77.5889
-75.7873
-85.2691
-78.9444
-73.9636
-76.2174
-74.0086
-69.7562
-42.6392
-60.7122
-64.3243
-3.77672
-44.4248
-60.7556
11.1148
-37.4926
-59.5811
-15.8926
-60.6351
-71.0037
-34.277
-50.5535
-62.3003
-57.7087
-26.7003
-58.4852
59.4325
-23.4731
-54.519
43.7658
-49.0225
-65.0214
61.6699
-46.6625
-64.53
65.7956
-45.1899
-64.2695
68.6459
-43.0649
-63.1723
79.3222
-41.5215
-60.6189
196.039
-30.9215
-57.056
-42.6292
-54.2316
-65.6679
-43.4941
-55.084
-66.5072
-44.6983
-56.0089
-66.8865
-47.2153
-57.2607
-67.4683
-51.8113
-58.081
-67.8426
-61.2439
-64.3184
-69.0218
-67.152
-79.774
-73.7969
-64.3677
-87.9544
-77.6638
-31.6314
-58.3831
-71.6978
-22.1052
-48.853
-67.8045
-12.7586
-48.3339
-64.7179
-10.458
-54.5436
-63.9224
)
;
    }
    water_left_surface
    {
        type            calculated;
        value           nonuniform List<scalar> 
42
(
6566.3
6559.95
6560.03
6562.47
6560.37
6557.17
1141.03
1128.6
1125.09
1150.16
1159.52
1131.92
-61.6285
-61.586
-61.7128
-61.71
-61.465
-61.9267
-53.324
-53.0421
-52.9822
-53.0919
-53.1213
-53.1171
-68.9965
-69.2016
-69.383
-68.9143
-68.7182
-68.9825
-72.1801
-71.7406
-71.4007
-72.0535
-72.3003
-72.5098
-76.379
-76.1046
-75.5011
-76.4711
-76.6062
-76.7116
)
;
    }
    water_right_surface
    {
        type            calculated;
        value           nonuniform List<scalar> 
42
(
1316.14
1273.12
1232.81
1213.35
1258.92
1319.52
426.723
334.581
230.247
281.445
387.215
450.74
-20.4993
-20.3999
-22.0849
-24.8965
-23.629
-16.7814
-32.4657
-31.6968
-32.2933
-34.1335
-33.4878
-32.6048
-43.1548
-42.4237
-40.4999
-40.8884
-41.7562
-42.6292
-54.2776
-54.2761
-53.6798
-54.0166
-54.1473
-54.2316
-65.3054
-65.4968
-65.1118
-65.434
-65.7001
-65.6679
)
;
    }
    water_top_surface
    {
        type            calculated;
        value           nonuniform List<scalar> 
180
(
-78.9563
-74.9093
-68.7798
-78.5957
-78.6282
-78.101
-82.1407
-81.8959
-81.6505
-82.0519
-82.5021
-81.7592
-75.8372
-75.9116
-75.9297
-75.8853
-75.8856
-75.9453
-74.6474
-74.6798
-74.6672
-74.6403
-74.6931
-74.5641
-72.468
-72.527
-72.5104
-72.4871
-72.4805
-72.4739
-71.5774
-71.6256
-71.5763
-71.5999
-71.6016
-71.5169
-72.7112
-72.8038
-72.6437
-72.7547
-72.6463
-72.4398
-69.9873
-76.1041
-75.2514
-72.2473
-71.4881
-75.9805
-69.6373
-72.0502
-69.2357
-69.29
-69.2672
-72.9706
-70.2489
-69.3909
-69.5452
-70.0119
-69.7598
-69.4284
-69.7032
-69.3527
-69.4424
-69.7333
-69.5459
-69.3898
-68.9485
-69.0369
-69.1705
-68.9283
-69.2874
-68.8778
-68.67
-68.6925
-69.1166
-69.1154
-68.7122
-68.67
-68.67
-68.67
-68.6787
-68.685
-68.6716
-68.67
-68.67
-68.67
-68.67
-68.67
-68.67
-68.67
-68.67
-68.67
-68.67
-68.6701
-68.67
-68.67
-68.6701
-68.67
-68.6701
-68.6701
-68.6701
-68.67
-68.6795
-68.6751
-68.6754
-68.6843
-68.6825
-68.6748
-70.3846
-70.8616
-69.485
-70.7015
-71.5343
-70.9596
-71.9231
-72.2061
-72.4724
-72.6097
-72.6798
-72.2021
-71.3191
-71.8875
-72.2277
-72.7722
-72.8321
-72.4179
-71.0681
-71.8723
-72.9241
-73.6665
-73.2374
-72.4774
-71.0773
-72.7507
-74.12
-74.6269
-73.4604
-72.2359
-72.1005
-76.6377
-78.8405
-77.0739
-74.0733
-71.6723
-71.4336
-78.5538
-85.7346
-76.4757
-70.3213
-68.9239
-68.7834
-69.6001
-132.752
-73.8868
-68.684
-68.6879
-68.7079
-70.7377
-97.1627
-78.04
-70.1969
-68.7122
-71.8843
-77.0702
-68.7433
-68.7141
-68.7147
-68.7248
-72.2731
-70.7749
-68.7626
-68.7095
-68.7095
-69.0842
-68.6753
-68.6799
-68.7566
-68.7095
-68.7117
-68.7227
)
;
    }
}


// ************************************************************************* //
