/*--------------------------------*- C++ -*----------------------------------*\
| =========                 |                                                 |
| \\      /  F ield         | OpenFOAM: The Open Source CFD Toolbox           |
|  \\    /   O peration     | Version:  v1612+                                |
|   \\  /    A nd           | Web:      www.OpenFOAM.com                      |
|    \\/     M anipulation  |                                                 |
\*---------------------------------------------------------------------------*/
FoamFile
{
    version     2.0;
    format      ascii;
    class       volScalarField;
    location    "9";
    object      p_rgh;
}
// * * * * * * * * * * * * * * * * * * * * * * * * * * * * * * * * * * * * * //

dimensions      [1 -1 -2 0 0 0 0];

internalField   nonuniform List<scalar> 
1116
(
10206.1
10204.3
10212.1
10195
10183
10209.6
10897.6
10898.7
10891.4
10858.7
10812.9
10865.9
12925.3
12941.2
12939.5
12915.3
12898.6
12940.7
14664.6
14676.8
14678.5
14667.8
14666.9
14687.2
15831
15835.8
15837.3
15831
15831.1
15839.5
16578.3
16579.1
16579.4
16576.7
16576.4
16576.3
17104.2
17103.6
17104.1
17102.2
17101.3
17099.4
17351.2
17349
17351.1
17347
17336.7
17354.8
17106.2
17092.7
17097.1
17098
17098.8
17097.7
16931.4
16940.6
16938.5
16933.7
16945.5
16951.1
15342.1
15340.7
15343.6
15349.7
15357.7
15350.5
16856.6
16806
16821.9
16844.2
16827
16813.6
4592.04
4535.19
4521.87
4627.89
4656.85
4552.96
5199.16
5244.86
5240.96
5160.49
5084.09
5267.05
7283.24
7386.63
7416.54
7270.98
7188.36
7439.31
10670.9
10763.6
10789.5
10684.8
10658.5
10846.1
13805
13876.3
13876.4
13817.1
13810.2
13943.1
15587.8
15632.7
15629.6
15585.2
15575.7
15613.5
16060.8
16044
16059.1
16047
16050.1
16013.5
16703
16661
16676.4
16686.5
16695.6
16654.2
17378.3
17360.1
17358.7
17364.5
17350.2
17358.3
14554.2
14730.3
14645.9
14683.4
14763.2
14667.6
10302.5
10379.1
10351.1
10314.2
10361.8
10386.3
17119.6
16606.7
16841.2
17012.6
16687.1
16775.5
-37.0956
-37.0593
-37.1854
-37.1843
-36.9374
-37.4
-55.2082
-55.0155
-55.2012
-55.775
-55.6328
-55.9019
-92.9703
-93.0369
-93.298
-93.273
-93.6193
-94.0689
-134.466
-135.028
-135.025
-134.399
-134.396
-135.082
-130.596
-130.577
-130.32
-129.744
-129.578
-128.727
-37.0176
-36.4414
-36.3604
-36.3275
-36.4169
-34.5488
119.831
119.849
119.86
119.926
119.361
120.086
479.041
454.875
457.03
479.417
465.452
463.522
1172.64
1105.96
1120.72
1166.32
1117.03
1134.02
3208.2
3174.73
3196.7
3167.79
3130.52
3269.36
6739.47
6373.82
6485.72
6621.15
6420.54
6670.26
20157.9
19275.5
19616.8
20076.3
19742.4
19305.5
-15.8603
-17.2369
-17.5302
-16.7852
-15.9105
-17.6749
-27.377
-27.6669
-27.6834
-27.8295
-27.6747
-28.1926
-42.4234
-42.3812
-42.5961
-42.682
-42.8653
-43.2607
-63.8659
-63.9992
-64.0407
-64.0223
-64.0743
-64.5388
-72.3685
-72.3692
-72.2457
-71.9554
-71.6575
-72.0547
-29.5217
-29.7067
-29.7653
-29.9202
-30.0619
-29.649
43.5781
43.8146
43.8584
43.3936
43.3874
44.1246
70.3971
71.6539
71.8969
71.4
72.0537
71.4107
61.7151
59.8604
60.5384
61.3014
61.3374
60.1026
80.7394
68.7993
71.4763
75.5469
74.3925
67.0297
1832.52
887.515
1205.99
1525.39
1369.42
1132.2
12166.9
11341.3
11475.6
12369.1
12338.5
11244.5
1793.86
1751.21
1713.16
1694.09
1728.8
1800.24
1758.82
1719.98
1654.33
1653.96
1688.25
1762.77
1720.34
1687.54
1671.07
1675.96
1668.51
1753.01
1726.26
1662.29
1596.46
1751.08
1663.53
1771.33
1739.78
1727.04
1498.17
1639.83
1810.48
1880.42
1711.54
1615.82
1541.39
1651.91
1734.99
1817.27
1539.56
1593.27
1430.1
1209.84
1187.03
1396.23
1173.06
1207.09
997.248
745.313
780.673
1000.03
608.787
667.785
664.105
538.483
542.138
677.354
370.841
355.778
477.315
421.126
366.766
490.377
306.081
259.637
333.489
434.221
424.027
439.399
300.1
247.36
326.783
432.646
470.755
462.683
1771.46
1337.97
870.527
1127.83
1606.37
1742.9
1507.24
1197.19
899.398
1134.47
1338.71
1279.43
1275.85
1395.68
1431.13
1266.42
1247.61
1418.81
1795.34
1334.36
1235.22
1825.84
1340.04
1618.84
1889.46
1586.72
1130.09
1871.92
1918.33
1919.72
1852.01
1611
1101.04
1417.8
1885.24
2088.86
1864.96
1605.74
966.965
698.637
1211.28
1682.13
886.783
915.985
691.02
453.096
493.664
557.374
421.875
350.87
341.765
348.718
272.844
278.966
266.978
235.834
144.17
145.552
127.075
131.129
156.262
155.6
112.767
122.494
126.778
132.965
193.444
143.69
127.063
124.43
135.529
133.76
9.84008
4.12661
2.44088
-0.371312
0.896421
7.74498
4.26618
5.58908
5.13922
3.0625
2.60739
4.11225
177.504
13.5249
12.7815
12.7744
12.0679
10.8416
171.145
92.4421
188.852
32.0916
19.5642
28.0897
113.766
429.966
1033.94
952.944
236.57
140.852
136.819
942.111
2053.49
2056.19
1839.56
2188.64
275.695
1857.8
1163.79
988.505
1639.84
2286.79
541.222
1696.01
271.685
219.75
354.233
1136.41
535.254
356.014
83.3644
141.55
111.581
123.105
144.028
76.0453
74.1709
79.6364
76.8556
84.1487
79.3408
66.6687
70.5176
115.22
150.626
101.49
87.0731
115.4
103.629
193.176
225.238
146.992
1.87137
2.64016
2.04331
0.220585
0.849858
1.73301
1.00108
2.02851
1.18458
-0.00597525
0.766201
1.59331
-1.91757
-2.43157
-1.42048
-0.0518881
1.36415
8.18621
-5.92041
-10.899
-6.05018
-4.86239
-3.45078
-0.488557
-10.0586
-17.1846
-7.02364
-6.18273
-10.3582
-6.29372
-1.39493
-12.2679
178.575
374.028
-10.0071
-9.71638
3.0517
-2.22829
975.754
1080.05
722.19
847.797
89.6474
321.333
334.362
311.087
398.542
1059.46
314.682
391.643
33.4183
47.3646
60.8047
232.287
151.125
98.1188
34.2211
39.3724
41.4537
46.697
61.6799
46.5157
38.8091
37.3581
94.2013
55.6322
296.248
269.923
210.478
274.371
270.099
287.406
-18.225
-19.6091
-20.1022
-18.4619
-18.2467
-20.8365
-10.1353
-13.6847
-13.7606
-10.3578
-10.603
-15.3392
-3.06245
-6.54595
-8.54372
-3.48944
-3.59424
-4.18924
-29.4795
-30.3276
-30.4061
-30.2976
-30.0415
-30.3209
-22.5824
-22.6263
-22.633
-22.5758
-22.5787
-22.5232
-17.1787
-17.0682
-16.8833
-17.1143
-17.3793
-17.101
-36.6893
-36.6514
-36.6755
-36.709
-36.8023
-36.8528
-23.5255
-23.5269
-23.5245
-23.5765
-23.6097
-23.6339
-11.9713
-12.0086
-11.9832
-12.0097
-12.0119
-12.0223
-41.042
-41.0676
-41.0872
-40.9812
-41.0418
-41.1241
-24.9975
-25.004
-25.0093
-24.9891
-25.0606
-24.9894
-10.2553
-10.2542
-10.2337
-10.2336
-10.2454
-10.1986
-32.1452
-32.1242
-32.1642
-32.0935
-32.1737
-32.0724
-20.1236
-20.104
-20.1175
-20.134
-20.1784
-20.0536
-6.03599
-6.03498
-6.02132
-6.02076
-6.01663
-5.99116
1.76968
1.81923
1.62344
1.57149
1.19121
1.50589
-6.97084
-6.86213
-6.90544
-7.00604
-7.07439
-6.75527
-0.595697
-0.573162
-0.527764
-0.563006
-0.60262
-0.559335
40.2552
40.3875
40.1962
41.0331
40.8726
40.3684
8.87961
9.3518
9.30168
9.26615
9.16868
9.53406
2.856
2.91463
2.99153
2.84988
2.92792
3.00945
57.5312
56.2462
55.6762
56.6378
55.8758
55.2599
12.2876
15.2657
14.4146
13.5604
14.3067
16.4642
3.79822
3.99036
4.67905
4.60496
4.514
4.18392
30.0951
29.3735
29.2797
30.3627
29.8097
28.2525
-8.72399
-6.64116
-8.87908
-8.76796
-8.50616
-6.60429
-9.53368
-8.32126
-8.63623
-9.2449
-8.72848
-7.12473
15.0413
10.6613
12.2285
13.8363
12.8261
9.98559
5.50221
3.56424
4.18267
5.21962
3.99679
3.46818
0.399878
1.45809
0.253616
0.248025
0.447386
2.16894
5.44317
-9.95453
-7.82945
-4.20827
-6.50148
-11.6864
26.4567
26.0718
27.197
26.8053
25.8848
27.5445
5.03067
5.6178
5.36436
5.36789
5.19155
5.94817
398.878
298.812
293.062
427.914
500.182
283.697
31.67
31.7498
31.3318
30.569
30.7317
31.0404
8.23896
9.67657
9.0925
8.93876
9.38288
9.24598
1025.67
1033.91
1038.53
1027.73
997.918
973.108
6.35672
5.48652
3.7378
1.79998
2.69808
4.93258
-2.14359
-2.57384
-3.30876
-3.22038
-1.80605
-1.2564
1092.69
1087.87
1074.22
1056.04
1039.88
1056.31
8.30815
7.98618
7.11765
6.46004
6.72279
7.29247
-1.66554
-1.67513
-1.53126
-1.22209
-0.881756
-0.765009
1113.02
1111.65
1108.2
1106.46
1106.18
1106.1
9.15894
8.99284
8.56898
8.36142
8.5462
8.76509
-1.3802
-1.35324
-1.22529
-0.815034
-0.590794
-0.504464
1116.85
1114.7
1113.14
1112.04
1110.73
1108.75
11.1651
11.1026
10.9786
10.7481
10.7765
10.8902
0.141122
0.237302
0.332776
0.457925
0.554787
0.592675
1140.13
1138.9
1137.12
1136.46
1134.71
1135.99
13.4588
12.6214
12.5382
13.2124
13.0426
12.4374
2.81955
3.11161
3.11332
3.04719
3.14231
3.14609
1245.44
1246.2
1234.18
1249.55
1244.08
1247.75
42.8043
40.5392
39.7819
51.4315
49.4436
40.1138
6.37027
7.19138
6.79836
6.41794
6.83522
6.71351
1.0367
1.72383
4.03494
3.38682
2.39333
1.55348
-0.266119
-0.30645
0.73707
-0.0432014
-0.175382
-0.204579
-1.54037
-1.7318
-1.34679
-1.66903
-1.93511
-1.9029
0.507503
1.09733
2.13164
1.69004
1.36969
0.852141
-0.962454
-0.968953
-0.985664
-1.06107
-1.04964
-0.927389
-2.44785
-2.59577
-2.55248
-2.63115
-2.84455
-2.74223
-1.16622
-0.0833474
1.33364
1.00927
0.453367
-0.542923
-1.22151
-1.30759
-1.34444
-1.49457
-1.7303
-1.93724
-2.6717
-3.05375
-2.95054
-3.1456
-3.28237
-3.12151
-1.65954
-1.9171
-2.22871
-2.47583
-3.24159
-3.0703
-0.766812
-1.25444
-2.26799
-2.95019
-3.61548
-3.30571
-3.42226
-4.08895
-4.21559
-4.33215
-4.24838
-3.70335
-0.510422
-4.13126
-6.58227
-6.70942
-9.58426
-7.66627
0.975302
-0.159382
-2.06688
-3.52276
-4.60859
-4.12599
-4.17687
-5.05663
-5.33184
-5.06255
-4.73045
-4.07761
3.29887
-8.44499
-11.3689
-12.2741
-15.7229
-17.0989
-2.15943
2.59687
-5.81256
-9.45003
-10.193
-10.3634
-5.57097
-6.79084
-7.26523
-6.57327
-5.63953
-5.25624
16.4108
-3.05492
386.267
439.718
138.794
46.0903
-3.09395
28.1668
-7.8
-7.66942
-16.7896
-25.819
-9.71154
-11.7244
-15.6336
-13.1158
-10.8947
-10.0159
141.183
322.017
349.33
397.191
382.577
413.058
37.681
144.364
233.082
139.899
109.73
-33.9942
-14.9305
-11.6502
38.6506
-11.8086
-14.8568
-13.8821
373.79
333.451
14.4211
35.4508
96.2704
162.58
128.872
147.907
24.4256
26.8167
43.824
24.2851
-7.99721
-8.54588
12.4781
-3.77172
-8.1818
-7.89355
154.44
78.4448
18.44
19.8468
21.822
22.4144
65.9343
51.5498
5.10087
3.48039
5.72676
5.44276
0.141554
3.17094
-5.51952
-7.07416
-4.95144
-3.98862
44.5315
36.4016
31.1286
29.1426
28.3747
32.7754
16.5774
11.2777
7.76756
5.64563
5.4639
7.89743
0.94832
-1.15796
-4.36271
-4.82833
-2.8775
-0.568309
348.176
308.469
287.914
276.948
342.008
330.348
11.5855
36.156
73.0311
57.8413
10.9341
-0.584494
0.309694
-0.953676
-2.78756
-2.93343
-0.732248
-0.108474
)
;

boundaryField
{
    seabed_topleft_surface
    {
        type            fixedFluxPressure;
        gradient        uniform 0;
        value           nonuniform List<scalar> 
72
(
10206.1
10204.3
10212.1
10195
10183
10209.6
10897.6
10898.7
10891.4
10858.7
10812.9
10865.9
12925.3
12941.2
12939.5
12915.3
12898.6
12940.7
14664.6
14676.8
14678.5
14667.8
14666.9
14687.2
15831
15835.8
15837.3
15831
15831.1
15839.5
16578.3
16579.1
16579.4
16576.7
16576.4
16576.3
17104.2
17103.6
17104.1
17102.2
17101.3
17099.4
17351.2
17349
17351.1
17347
17336.7
17354.8
17106.2
17092.7
17097.1
17098
17098.8
17097.7
16931.4
16940.6
16938.5
16933.7
16945.5
16951.1
15342.1
15340.7
15343.6
15349.7
15357.7
15350.5
16856.6
16806
16821.9
16844.2
16827
16813.6
)
;
    }
    seabed_topright_surface
    {
        type            fixedFluxPressure;
        gradient        uniform 0;
        value           nonuniform List<scalar> 
72
(
1793.86
1751.21
1713.16
1694.09
1728.8
1800.24
1758.82
1719.98
1654.33
1653.96
1688.25
1762.77
1720.34
1687.54
1671.07
1675.96
1668.51
1753.01
1726.26
1662.29
1596.46
1751.08
1663.53
1771.33
1739.78
1727.04
1498.17
1639.83
1810.48
1880.42
1711.54
1615.82
1541.39
1651.91
1734.99
1817.27
1539.56
1593.27
1430.1
1209.84
1187.03
1396.23
1173.06
1207.09
997.248
745.313
780.673
1000.03
608.787
667.785
664.105
538.483
542.138
677.354
370.841
355.778
477.315
421.126
366.766
490.377
306.081
259.637
333.489
434.221
424.027
439.399
300.1
247.36
326.783
432.646
470.755
462.683
)
;
    }
    breakwater_top_surface
    {
        type            fixedFluxPressure;
        gradient        uniform 0;
        value           nonuniform List<scalar> 
36
(
1025.67
1033.91
1038.53
1027.73
997.918
973.108
1092.69
1087.87
1074.22
1056.04
1039.88
1056.31
1113.02
1111.65
1108.2
1106.46
1106.18
1106.1
1116.85
1114.7
1113.14
1112.04
1110.73
1108.75
1140.13
1138.9
1137.12
1136.46
1134.71
1135.99
1245.44
1246.2
1234.18
1249.55
1244.08
1247.75
)
;
    }
    breakwater_left_surface
    {
        type            fixedFluxPressure;
        gradient        uniform 0;
        value           nonuniform List<scalar> 
24
(
16856.6
16806
16821.9
16844.2
16827
16813.6
17119.6
16606.7
16841.2
17012.6
16687.1
16775.5
20157.9
19275.5
19616.8
20076.3
19742.4
19305.5
12166.9
11341.3
11475.6
12369.1
12338.5
11244.5
)
;
    }
    breakwater_right_surface
    {
        type            fixedFluxPressure;
        gradient        uniform 0;
        value           nonuniform List<scalar> 
24
(
300.1
247.36
326.783
432.646
470.755
462.683
193.444
143.69
127.063
124.43
135.529
133.76
87.0731
115.4
103.629
193.176
225.238
146.992
296.248
269.923
210.478
274.371
270.099
287.406
)
;
    }
    water_front_surface
    {
        type            fixedFluxPressure;
        gradient        uniform 0;
        value           nonuniform List<scalar> 
186
(
10206.1
10897.6
12925.3
14664.6
15831
16578.3
17104.2
17351.2
17106.2
16931.4
15342.1
16856.6
4592.04
5199.16
7283.24
10670.9
13805
15587.8
16060.8
16703
17378.3
14554.2
10302.5
17119.6
-37.0956
-55.2082
-92.9703
-134.466
-130.596
-37.0176
119.831
479.041
1172.64
3208.2
6739.47
20157.9
-15.8603
-27.377
-42.4234
-63.8659
-72.3685
-29.5217
43.5781
70.3971
61.7151
80.7394
1832.52
12166.9
1793.86
1758.82
1720.34
1726.26
1739.78
1711.54
1539.56
1173.06
608.787
370.841
306.081
300.1
1771.46
1507.24
1275.85
1795.34
1889.46
1852.01
1864.96
886.783
421.875
266.978
156.262
193.444
9.84008
4.26618
177.504
171.145
113.766
136.819
275.695
541.222
535.254
144.028
79.3408
87.0731
1.87137
1.00108
-1.91757
-5.92041
-10.0586
-1.39493
3.0517
89.6474
314.682
151.125
61.6799
296.248
-18.225
-10.1353
-3.06245
-29.4795
-22.5824
-17.1787
-36.6893
-23.5255
-11.9713
-41.042
-24.9975
-10.2553
-32.1452
-20.1236
-6.03599
1.76968
-6.97084
-0.595697
40.2552
8.87961
2.856
57.5312
12.2876
3.79822
30.0951
-8.72399
-9.53368
15.0413
5.50221
0.399878
5.44317
26.4567
5.03067
398.878
31.67
8.23896
1025.67
6.35672
-2.14359
1092.69
8.30815
-1.66554
1113.02
9.15894
-1.3802
1116.85
11.1651
0.141122
1140.13
13.4588
2.81955
1245.44
42.8043
6.37027
1.0367
-0.266119
-1.54037
0.507503
-0.962454
-2.44785
-1.16622
-1.22151
-2.6717
-1.65954
-0.766812
-3.42226
-0.510422
0.975302
-4.17687
3.29887
-2.15943
-5.57097
16.4108
-3.09395
-9.71154
141.183
37.681
-14.9305
373.79
128.872
-7.99721
154.44
65.9343
0.141554
44.5315
16.5774
0.94832
348.176
11.5855
0.309694
)
;
    }
    water_back_surface
    {
        type            fixedFluxPressure;
        gradient        uniform 0;
        value           nonuniform List<scalar> 
186
(
10209.6
10865.9
12940.7
14687.2
15839.5
16576.3
17099.4
17354.8
17097.7
16951.1
15350.5
16813.6
4552.96
5267.05
7439.31
10846.1
13943.1
15613.5
16013.5
16654.2
17358.3
14667.6
10386.3
16775.5
-37.4
-55.9019
-94.0689
-135.082
-128.727
-34.5488
120.086
463.522
1134.02
3269.36
6670.26
19305.5
-17.6749
-28.1926
-43.2607
-64.5388
-72.0547
-29.649
44.1246
71.4107
60.1026
67.0297
1132.2
11244.5
1800.24
1762.77
1753.01
1771.33
1880.42
1817.27
1396.23
1000.03
677.354
490.377
439.399
462.683
1742.9
1279.43
1418.81
1618.84
1919.72
2088.86
1682.13
557.374
278.966
131.129
132.965
133.76
7.74498
4.11225
10.8416
28.0897
140.852
2188.64
2286.79
1136.41
123.105
84.1487
101.49
146.992
1.73301
1.59331
8.18621
-0.488557
-6.29372
-9.71638
847.797
1059.46
232.287
46.697
55.6322
287.406
-20.8365
-15.3392
-4.18924
-30.3209
-22.5232
-17.101
-36.8528
-23.6339
-12.0223
-41.1241
-24.9894
-10.1986
-32.0724
-20.0536
-5.99116
1.50589
-6.75527
-0.559335
40.3684
9.53406
3.00945
55.2599
16.4642
4.18392
28.2525
-6.60429
-7.12473
9.98559
3.46818
2.16894
-11.6864
27.5445
5.94817
283.697
31.0404
9.24598
973.108
4.93258
-1.2564
1056.31
7.29247
-0.765009
1106.1
8.76509
-0.504464
1108.75
10.8902
0.592675
1135.99
12.4374
3.14609
1247.75
40.1138
6.71351
1.55348
-0.204579
-1.9029
0.852141
-0.927389
-2.74223
-0.542923
-1.93724
-3.12151
-3.0703
-3.30571
-3.70335
-7.66627
-4.12599
-4.07761
-17.0989
-10.3634
-5.25624
46.0903
-25.819
-10.0159
413.058
-33.9942
-13.8821
162.58
24.2851
-7.89355
22.4144
5.44276
-3.98862
32.7754
7.89743
-0.568309
330.348
-0.584494
-0.108474
)
;
    }
    water_left_surface
    {
        type            fixedFluxPressure;
        gradient        uniform 0;
        value           nonuniform List<scalar> 
42
(
10206.1
10204.3
10212.1
10195
10183
10209.6
4592.04
4535.19
4521.87
4627.89
4656.85
4552.96
-37.0956
-37.0593
-37.1854
-37.1843
-36.9374
-37.4
-15.8603
-17.2369
-17.5302
-16.7852
-15.9105
-17.6749
-18.225
-19.6091
-20.1022
-18.4619
-18.2467
-20.8365
-10.1353
-13.6847
-13.7606
-10.3578
-10.603
-15.3392
-3.06245
-6.54595
-8.54372
-3.48944
-3.59424
-4.18924
)
;
    }
    water_right_surface
    {
        type            fixedFluxPressure;
        gradient        uniform 0;
        value           nonuniform List<scalar> 
42
(
1793.86
1751.21
1713.16
1694.09
1728.8
1800.24
1771.46
1337.97
870.527
1127.83
1606.37
1742.9
9.84008
4.12661
2.44088
-0.371312
0.896421
7.74498
1.87137
2.64016
2.04331
0.220585
0.849858
1.73301
1.0367
1.72383
4.03494
3.38682
2.39333
1.55348
-0.266119
-0.30645
0.73707
-0.0432014
-0.175382
-0.204579
-1.54037
-1.7318
-1.34679
-1.66903
-1.93511
-1.9029
)
;
    }
    water_top_surface
    {
        type            totalPressure;
        rho             rho;
        psi             none;
        gamma           1;
        p0              uniform 0;
        value           nonuniform List<scalar> 
180
(
0
0
-0.109806
0
0
0
-13.4707
-13.2259
-12.9805
-13.3819
-13.8321
-13.0892
-7.16718
-7.24162
-7.25968
-7.21529
-7.21559
-7.27526
-5.97744
-6.00983
-5.99718
-5.97033
-6.02312
-5.89406
-3.79801
-3.85703
-3.84044
-3.81713
-3.8105
-3.80392
-2.90745
-2.95555
-2.9063
-2.92994
-2.9316
-2.84691
-4.04121
-4.13382
-3.97371
-4.08469
-3.9763
-3.76985
-1.31732
-7.43409
-6.58136
-3.57734
-2.81815
-7.3105
0
-3.38024
0
0
0
-4.30065
0
0
0
0
0
0
0
0
0
0
0
0
-0.278526
-0.366857
-0.500549
-0.258261
-0.617378
-0.207777
0
-0.0225317
0
0
0
0
0
0
0
0
0
0
0
0
0
0
0
0
0
0
0
0
0
0
0
0
0
0
0
0
0
0
0
0
0
0
-1.7146
-2.19163
-0.815002
-2.03153
-2.86434
-2.28965
-3.25307
-3.53611
-3.80239
-3.93974
-4.00978
-3.53208
-2.6491
-3.21749
-3.55774
-4.10217
-4.16211
-3.7479
-2.3981
-3.20226
-4.25409
-4.99646
-4.5674
-3.8074
-2.40731
-4.08074
-5.45002
-5.95694
-4.79035
-3.5659
-3.43048
-7.96767
-10.1705
-8.40395
-5.40331
-3.00225
-2.76362
-9.88382
-17.0646
-7.80572
-1.65127
-0.253881
-0.113411
-0.930122
0
0
0
0
0
0
0
0
0
0
0
0
0
0
0
0
0
0
0
0
0
0
-0.00531168
0
0
0
0
0
)
;
    }
}


// ************************************************************************* //
