/*--------------------------------*- C++ -*----------------------------------*\
| =========                 |                                                 |
| \\      /  F ield         | OpenFOAM: The Open Source CFD Toolbox           |
|  \\    /   O peration     | Version:  v1612+                                |
|   \\  /    A nd           | Web:      www.OpenFOAM.com                      |
|    \\/     M anipulation  |                                                 |
\*---------------------------------------------------------------------------*/
FoamFile
{
    version     2.0;
    format      ascii;
    class       surfaceScalarField;
    location    "9";
    object      phi;
}
// * * * * * * * * * * * * * * * * * * * * * * * * * * * * * * * * * * * * * //

dimensions      [0 3 -1 0 0 0 0];

internalField   nonuniform List<scalar> 
2916
(
-0.00553817
0.0759181
-0.0703799
0.00773452
0.053334
-0.0666067
0.0308402
0.0459377
-0.0690434
0.0145315
0.090306
-0.0739973
-0.0240707
0.11056
-0.0719576
0.0489046
-0.0729754
0.00545171
0.0785146
-0.00804818
-0.000382112
0.0657012
-0.00653346
-0.0121994
0.0607404
-0.00298541
-0.00174824
0.08005
-0.000195155
0.00277342
0.0902545
0.0157836
0.0560332
-0.00435516
0.00471959
0.0969331
-0.0231382
-0.000182711
0.090769
-0.0201655
-0.0121765
0.088079
-0.0153448
-0.00519475
0.095565
-0.0224969
0.00565473
0.101349
-0.0219439
0.0814822
-0.0197943
0.00112128
0.144092
-0.0482806
-0.000922043
0.140797
-0.0479845
-0.0064045
0.139912
-0.0463503
-0.00450779
0.143441
-0.0497722
0.00261873
0.147289
-0.0530668
0.136315
-0.0522138
-0.00122335
0.230771
-0.085455
-0.00076722
0.227517
-0.0871764
-0.00104972
0.228183
-0.0879892
-0.00199083
0.22979
-0.0854085
-0.00137132
0.232588
-0.0859187
0.226949
-0.0920056
-0.00142882
0.325494
-0.0932943
-0.000705376
0.320822
-0.0940286
0.000586359
0.322336
-0.095444
-0.0012331
0.324027
-0.0924176
-0.0034156
0.326664
-0.0918934
0.320721
-0.0971871
0.000679282
0.413174
-0.088359
-0.000861499
0.410059
-0.087696
-0.000704494
0.411178
-0.0889994
-0.00127114
0.412503
-0.0879093
-0.00147699
0.41286
-0.0859896
0.409898
-0.0906543
0.00117626
0.467535
-0.0555373
-0.00126771
0.469488
-0.0569852
-0.00180092
0.469444
-0.0577323
-0.00163663
0.468068
-0.0557295
-0.00149393
0.463576
-0.0508587
0.47003
-0.0616262
-0.00444537
0.423933
0.0480469
-0.00129685
0.422633
0.0437066
-0.000253402
0.422962
0.0454382
-0.00340401
0.424916
0.0463028
-0.00650452
0.421002
0.0456739
0.422148
0.0413774
-0.00536447
0.209055
0.220243
-0.0012433
0.19302
0.225491
-0.000380063
0.194792
0.227307
-0.000785383
0.21036
0.214961
-0.00331117
0.214033
0.209495
0.18861
0.230227
0.00190388
-0.0985164
0.305667
0.00102531
-0.123477
0.317376
-0.000465955
-0.120928
0.317211
0.00312106
-0.0972889
0.304062
0.00256178
-0.0849024
0.299495
-0.128009
0.319181
0.0172615
-0.115778
-0.000338222
-0.105878
-0.00419112
-0.117075
0.0112477
-0.112728
0.0200723
-0.0937269
-0.107937
0.0209264
0.171891
-0.263198
-0.0257004
0.227288
-0.247268
-0.0948359
0.235351
-0.235259
-0.0402371
0.125356
-0.253952
0.0587952
0.0811474
-0.252138
0.217317
-0.231498
0.012156
0.305833
-0.154146
0.0131311
0.334009
-0.114229
0.0246144
0.333466
-0.112584
0.0170306
0.300805
-0.168061
-0.00663241
0.302273
-0.181679
0.325197
-0.118867
0.0108408
0.339385
-0.0675313
0.0121725
0.349419
-0.0369075
0.0185669
0.343795
-0.0320678
0.0155363
0.346974
-0.0656358
0.00206669
0.36102
-0.0672221
0.344647
-0.0371782
0.00125425
0.46821
-0.17836
0.00252379
0.471419
-0.171254
0.00347545
0.467903
-0.17141
0.00203663
0.473627
-0.174986
0.0030838
0.483662
-0.176756
0.471203
-0.175685
-0.0056262
0.697359
-0.308978
-0.00118027
0.699972
-0.320176
0.00188539
0.698885
-0.322037
-0.000644168
0.69884
-0.308092
0.000526689
0.701911
-0.305339
0.700174
-0.320451
-0.00416504
0.930169
-0.321939
-0.00251522
0.932051
-0.327757
-0.000505984
0.930963
-0.329531
-0.00117549
0.930675
-0.323583
0.000877173
0.932595
-0.32463
0.930087
-0.326222
1.91501e-05
1.12569
-0.283899
-0.00332355
1.13111
-0.283412
-0.00282022
1.128
-0.286537
-0.00215644
1.12826
-0.286152
8.51195e-05
1.12992
-0.285559
1.1274
-0.287886
0.00158699
1.28054
-0.211978
-0.0026669
1.29532
-0.216942
-0.00387112
1.28919
-0.217722
-0.00124966
1.28694
-0.217037
0.00235344
1.28993
-0.214472
1.28775
-0.219614
0.000333285
1.33637
-0.00811147
-0.000813579
1.35312
-0.0129486
0.000171819
1.34529
-0.011647
-0.00165716
1.34725
-0.012175
-0.005814
1.3535
-0.0137357
1.33913
-0.0158263
0.00547109
1.03538
0.515761
-0.000463858
1.04314
0.541411
-0.000785627
1.03581
0.537106
-0.00427863
1.04955
0.516147
-0.0213981
1.06009
0.520029
1.02171
0.526251
0.0203274
0.621954
0.698765
0.0013889
0.611639
0.767814
-0.00382863
0.608162
0.750081
0.00394472
0.637997
0.707848
-0.00985114
0.653244
0.720133
0.590745
0.740298
-0.00141026
0.507587
-0.00372969
0.508081
-0.0175641
0.504921
0.00446609
0.503239
0.0564232
0.50756
0.539231
0.0452673
1.5317
-1.84017
-0.0665735
1.73368
-1.86911
-0.2614
1.78735
-1.82777
-0.110197
1.44032
-1.84547
0.279219
1.29636
-1.93791
1.82335
-1.77563
0.0400227
3.68194
-2.34441
0.051774
3.87547
-2.26778
0.043082
3.90881
-2.22536
0.0520124
3.64935
-2.38603
0.246928
3.52967
-2.60991
4.02742
-2.076
0.0559883
5.87575
-2.31733
0.145565
6.09688
-2.34789
0.163296
6.14315
-2.28414
0.200175
5.90682
-2.35997
0.267686
5.79606
-2.40112
6.36765
-2.10972
0.0880154
7.61517
-2.0058
0.114572
7.8691
-1.97003
0.115644
7.90438
-1.93371
0.169053
7.68068
-2.00226
0.273192
7.56053
-2.04536
8.1845
-1.71934
0.00579719
8.128
-0.827601
0.0033585
8.33246
-0.781089
-0.0143796
8.36187
-0.761791
-0.00477776
8.1809
-0.817907
0.066201
8.06495
-0.88074
8.53238
-0.602125
-0.0986422
7.0109
0.893809
-0.0652398
7.05845
0.912849
-0.0703648
7.11639
0.921078
-0.0874567
6.98209
0.892318
-0.105317
6.92279
0.835393
7.1223
0.978542
-0.0533722
4.97918
1.80119
-0.0328392
4.97314
1.78136
-0.0268597
5.02199
1.80188
-0.0135147
4.9108
1.77179
-0.0402602
4.91451
1.74946
5.00128
1.79287
-0.0619304
3.66604
1.1631
-0.0247181
3.71724
1.00175
0.0249581
3.71351
1.04109
0.00839992
3.63881
1.07152
-0.0354787
3.71965
1.02427
3.67329
1.07289
-0.051082
2.77134
0.937666
-0.0225357
2.78438
0.891364
0.0281782
2.76656
0.884585
-0.0100409
2.77112
0.893728
-0.089022
2.86366
0.921228
2.69007
0.878377
0.000904639
1.97903
1.30717
-0.0128288
1.95421
1.38531
0.00844541
1.93074
1.35165
-0.0208701
1.99456
1.32202
-0.0636766
2.03583
1.39066
1.87482
1.27782
0.118604
1.61712
0.942074
-0.0218921
1.60344
1.25908
-0.0490994
1.59123
1.11681
-0.00283762
1.63516
1.02099
0.00368809
1.67007
1.07937
1.53238
1.08642
-0.0452332
2.16994
0.00558454
2.0607
0.00363392
2.0981
-0.0214893
2.16352
0.0238203
2.13232
2.09544
0.0444396
-0.696207
-1.18841
0.0842775
-0.753188
-1.15577
0.0570103
-0.713475
-1.08704
0.0437949
-0.672114
-1.16014
0.0854119
-0.65669
-1.32284
-0.696106
-0.994108
-0.0295152
-0.557127
-2.45397
0.0419455
-0.623317
-2.4691
0.158169
-0.652554
-2.4025
0.0836664
-0.548154
-2.43548
-0.0126854
-0.503911
-2.66633
-0.594706
-2.19009
-0.0218118
-0.554222
-2.29842
-0.0146268
-0.545907
-2.43248
-0.0591788
-0.514287
-2.37785
-0.0250077
-0.577239
-2.36506
0.0594554
-0.60028
-2.38921
-0.393624
-2.25135
-0.0366855
-0.464433
-2.0589
-0.0451277
-0.423698
-2.0838
-0.0425747
-0.404709
-2.04584
-0.0478165
-0.48197
-2.09229
0.00669922
-0.54095
-2.15921
-0.249149
-1.85712
-0.0457214
-0.000474708
-1.24583
-0.0477304
0.0214044
-1.22418
-0.0663172
0.0425162
-1.19043
-0.0780896
-0.0217951
-1.26631
-0.0334804
-0.11209
-1.35421
0.14025
-1.02501
-0.0429978
0.809192
0.127142
-0.0351467
0.796617
0.129786
-0.0557187
0.841142
0.143022
-0.0463584
0.75701
0.104159
-0.0342234
0.669589
0.0415779
0.905214
0.179355
-0.0337125
2.21102
0.433067
0.00238989
2.12527
0.416598
0.0204436
2.18167
0.443295
0.0227571
2.13137
0.395113
0.0181681
2.02163
0.402009
2.27631
0.43994
-0.159691
3.69201
-0.158201
-0.00860044
3.68038
-0.704448
0.0910818
3.72199
-0.598907
-0.00718679
3.6407
-0.339543
0.0297243
3.56519
-0.556193
3.8218
-0.442868
-0.0627884
3.78651
0.90595
-0.0211357
3.88306
0.647029
0.0154047
3.89016
0.679874
0.00133057
3.78301
0.765486
0.0846557
3.7887
0.614391
4.00195
0.782888
0.132355
2.74639
2.21494
-0.00236068
3.29736
2.10573
5.79607e-05
3.10162
2.13777
-0.00942307
2.98246
2.13206
0.0214277
2.9944
2.15412
3.26709
2.0341
0.411795
1.53992
1.73675
-0.0580923
1.99331
3.03302
-0.238028
1.80635
2.59201
0.095506
1.67753
1.99238
0.351142
1.71963
2.09851
1.88905
2.8156
-0.101264
3.81112
0.0122939
3.94045
0.0341474
3.88259
-0.00958635
3.88478
0.0138217
3.82854
3.99831
0.0261287
0.465358
-0.491487
-0.145169
0.452974
-0.281676
-0.119264
0.444772
-0.470677
-0.261603
0.440083
-0.297744
-0.345672
0.269179
-0.18511
0.325065
-0.670737
0.0318584
0.864568
-0.431068
-0.157583
0.793007
-0.150591
0.0314581
0.618864
-0.363133
0.0958451
0.458394
-0.0826983
-0.252279
0.571321
0.0459817
0.759514
-0.686728
0.135894
1.02722
-0.298545
-0.0524018
1.07393
-0.0926304
0.173079
0.666371
-0.272988
0.179478
0.464826
-0.0128305
-0.282878
0.903702
0.129976
1.0138
-0.537167
0.467054
0.960337
-0.400173
0.463509
0.956471
0.121007
0.123434
0.303501
0.702945
-0.159319
0.552013
0.195566
-0.384439
1.22264
-0.0938177
1.26501
-0.635642
0.55063
0.828863
-0.419156
0.706649
0.565634
0.234819
-0.00479025
0.0863173
0.928623
-0.366834
0.531091
0.382966
-0.420525
1.37041
-0.0940808
1.4854
-0.640923
0.608153
0.578824
-0.358114
0.943508
0.0374185
0.192861
0.556083
0.0158259
0.457916
-0.319131
1.08549
0.32082
-0.596637
1.61277
0.0351431
1.18782
-0.299056
0.782734
0.146325
-0.350235
1.46985
-0.508442
-0.141258
1.78366
-0.550009
0.252023
-0.107819
1.98914
0.987831
-0.971318
1.8719
0.604377
0.293085
-0.0765794
0.200666
0.0424984
-0.0968386
0.577143
-0.682364
-0.202556
1.18536
-1.19619
0.0379676
0.265655
1.22283
1.68601
-0.411934
0.845011
1.70447
-0.497765
0.378916
-0.208683
-0.066288
0.31747
-0.502565
-0.50484
0.116358
-0.369374
-1.42026
0.0908797
0.152588
-0.694229
1.3951
0.160388
-0.701862
1.53907
-0.842334
0.504958
-0.190955
-0.655621
0.780287
-1.02465
-0.602199
0.931057
-1.12831
-1.35576
0.0391634
-0.404207
-1.76533
0.346995
0.0659242
-1.75768
0.585685
-0.984694
0.208284
-0.329556
-0.671491
0.345427
-1.29293
-0.725298
1.08647
-1.47563
-0.878856
-0.294204
-0.719026
-1.15258
-1.36935
0.175926
-1.11895
-1.53368
-0.626463
-0.182305
-0.135205
-0.536286
-0.876454
0.0159511
-0.763439
-0.991872
-0.339287
-1.57673
-0.0495439
-1.40869
-0.676007
-0.0221608
0.403163
-0.872489
-0.236327
0.344224
-0.411733
-1.33379
0.071325
0.55546
-1.25769
0.252007
-0.625848
-0.27408
0.338626
-1.50735
0.338936
-1.28375
-0.223305
0.749014
-0.553614
-0.462787
0.682472
-0.249357
-1.32281
0.375052
0.193165
-1.05833
0.419265
-0.514442
-0.0730135
0.636804
-1.23751
0.778111
-1.19892
-0.51922
0.924229
0.0454606
-0.709915
0.936679
-0.156142
-0.622629
0.674207
-0.659429
-0.373069
0.58113
-0.424256
0.134331
0.801517
-0.542136
0.99502
-0.619745
-0.546637
1.25376
-0.183071
-0.615106
1.18914
-0.0629809
-0.382636
0.819245
0.325439
0.130059
1.15589
-0.891889
0.548377
1.17614
-0.886755
1.21886
-0.311109
-0.484111
1.62425
-0.305535
-0.454195
1.6205
-0.226461
-0.277144
0.976419
0.594398
-0.143998
1.56712
-0.161408
0.462227
1.84089
-1.36506
1.78382
-0.743655
-0.0584211
2.01902
-0.69446
-0.0571698
2.21921
-0.407105
-0.621307
1.29196
0.706514
-0.835864
1.83101
0.271486
-0.214152
2.10874
-0.854415
2.25119
-0.980578
0.753428
2.02914
-1.11379
0.703565
2.57308
-0.44526
-0.317574
1.54114
1.02399
-1.11832
2.3396
1.27999
-0.535855
1.83399
0.296656
1.95515
-0.316397
1.50626
1.30001
-0.873965
2.06748
1.98589
-0.176577
0.595109
1.62411
1.42736
-0.412147
1.77828
3.25458
-0.0759854
0.670087
2.53222
1.61899
0.639095
1.69136
0.35881
-0.432695
3.31442
-0.10099
0.580179
1.65997
1.07457
2.29487
1.47439
0.310101
3.04885
1.10528
-0.762381
3.34065
1.70461
1.52461
0.786757
0.0728917
0.27945
1.55107
-1.66767
1.73343
0.925327
-0.809746
2.54923
0.491988
-1.14622
2.23665
0.472244
-1.58299
1.42604
0.782962
1.60218
0.337025
-0.33774
0.419035
0.137983
-1.39014
1.00799
-0.229387
-1.30041
0.563832
-0.521143
-1.3051
-0.91871
-0.122045
-1.20171
-2.31407
-0.182991
0.661601
0.693211
-1.56724
1.18634
-1.86732
0.912532
-2.01848
0.160273
-2.12957
-0.39618
-2.05394
-1.25518
0.0541098
0.169964
-1.09656
0.15591
0.253398
-0.76693
-0.653918
0.0472555
1.31803
-0.944044
0.160273
-0.495993
-0.155638
0.228349
-2.5241
0.380209
-1.8196
-0.627375
0.661142
-0.417415
-0.716324
0.612503
-0.519509
-0.826775
-0.0668097
0.417686
-0.467164
0.0207622
-0.734537
0.0749642
0.397855
-1.94914
0.884312
-1.62805
-0.305748
0.798109
0.214242
-0.386251
0.505736
0.0311283
-0.610668
-0.363453
-0.138368
-0.111179
-0.173099
-0.729882
0.39056
0.358693
-1.00471
1.01369
-0.358565
-1.29235
0.921116
0.986277
-1.46323
0.626419
-0.0127853
-0.370077
0.361305
-1.49247
0.744631
0.36972
-2.54942
1.01401
0.419913
-1.21736
0.533597
1.183
-2.49361
1.26461
1.84459
-2.20616
1.44695
-1.33444
-0.318314
1.62043
-2.55258
1.40849
1.62231
-3.1408
1.96399
1.35017
-2.85082
0.92713
0.8268
-2.78718
2.02482
1.33251
-1.76688
2.2303
-2.21075
-0.518944
2.23485
-1.15584
0.370266
2.23395
-1.22936
1.19436
2.30256
-2.6309
2.32484
-1.18392
-1.52065
2.62113
-0.189452
-0.981672
2.95314
-1.70707
-1.0528
2.4637
0.866261
-0.551702
2.27825
0.73459
0.286386
2.10201
-0.340888
2.92346
-0.628634
-0.265589
3.27057
-1.25781
-0.216681
3.25594
-0.528287
-1.25646
2.63749
2.29335
-0.797133
1.54816
3.52535
0.111913
1.5337
2.19148
3.48937
0.1851
0.355233
3.63181
-1.14917
1.41466
2.25177
0.52492
0.285737
2.11159
3.94969
0.0966939
0.261264
4.52478
0.185444
0.314089
4.47152
3.60082
1.59861
0.658768
3.631
-0.378506
1.17067
1.24399
2.22931
0.547518
0.731767
4.5522
-0.386343
-0.473959
3.90573
-0.613475
-0.771828
2.73909
1.63575
2.95377
1.48806
1.63221
0.929774
1.37565
0.201893
2.16249
1.24535
-0.65478
2.08067
0.107916
-1.0031
0.747866
-0.252788
-1.04459
-1.6806
-0.210697
2.25526
1.641
-1.57603
2.14878
-2.17321
1.58763
-2.1121
0.557959
-2.10301
-0.425164
-2.11541
-1.89104
-0.378677
0.138779
-0.856663
-0.0545349
0.0970879
-1.18815
1.03597
-0.0645996
0.292137
1.24111
-0.0723206
-0.628812
0.687031
-0.0732306
-1.89679
0.079457
-1.21202
-0.337383
0.99722
-0.93847
0.139803
0.787357
-1.68696
0.838834
0.783472
-1.12942
0.979957
0.504567
-1.45255
0.617766
0.278788
-1.93897
0.618133
-1.54896
-0.179572
1.52596
-0.134924
0.0266917
1.8253
-1.21307
0.273048
1.57569
-1.17694
0.506029
1.15539
-1.61369
0.336281
1.21377
-1.76995
1.46706
-0.871211
0.193636
1.42387
0.894735
0.427415
2.30169
-0.722959
0.699939
1.86194
-2.05125
0.424733
1.20403
-2.32284
0.056536
1.91213
-1.54752
1.92413
0.782469
0.491287
1.25684
1.52033
0.70503
2.13029
-1.37678
1.34402
1.61862
-2.94825
1.41147
1.24473
-3.24895
0.511724
2.01484
-2.05379
2.00162
1.26103
-0.206251
1.69335
1.10224
-0.857642
2.50637
-1.93544
0.325998
2.4442
-3.16506
1.70644
2.45311
-3.81819
1.10356
2.23137
-2.24454
1.8777
0.0435572
-0.695677
1.98953
0.210047
-1.58446
3.05936
-1.37129
-0.426176
2.86572
-0.713543
0.561211
2.54448
-0.344172
0.925093
2.43385
-0.907247
2.61218
-0.438023
-1.50554
2.77316
-0.535894
-2.03661
3.31949
-0.257345
-1.38008
2.46862
2.03392
-0.0155098
1.90525
2.80002
0.728754
2.21766
1.6634
3.04288
0.483159
-1.35789
3.31649
-0.334617
-2.04876
3.24299
1.29228
-2.07975
1.74054
4.70877
-1.0704
0.669938
4.75075
0.00373265
1.93593
3.67911
3.15471
1.49051
-0.595686
3.29721
0.236466
-0.740106
3.30046
2.31626
-1.49054
1.85456
5.18861
-1.922
0.912367
4.09476
-1.00716
0.36278
3.3974
2.04275
3.05856
1.32267
1.2869
1.61741
2.22616
1.48405
3.07543
1.72334
0.804958
3.63308
0.088402
0.345568
2.9496
-0.911515
-0.734786
0.416879
0.561445
2.82505
0.95087
-1.24
1.41761
-1.15591
1.37776
-1.2673
0.902068
-1.28175
-0.353997
-1.59413
-1.68359
0.0927019
-0.717024
-0.564084
0.0388536
-0.472269
-0.629653
-0.117095
-0.30696
-0.624131
-0.0957063
-0.602239
-0.579293
-0.0359359
-0.797689
-0.584918
-0.303971
-0.726073
-0.178925
-0.0237959
-0.514305
-0.0661408
-0.123069
-0.461988
0.182129
-0.149839
-0.405392
0.107443
-0.0197096
-0.507842
-0.0332735
-0.0967282
-0.560242
0.155829
-0.493072
-0.27991
-0.422036
-0.0476303
-0.392083
0.437507
-0.336523
0.291003
-0.413966
0.0539421
-0.449343
-0.417453
0.00698233
-2.54523
-0.47982
-0.0272203
-2.56172
-0.50283
0.00580632
-2.51385
-0.545807
-0.00637814
-2.52237
-0.480214
-0.103092
-2.67098
-0.483555
-2.36272
-0.656536
-0.015313
-2.66613
-0.378085
-0.0352392
-2.64891
-0.354872
0.0187999
-2.62338
-0.349898
0.0208813
-2.65899
-0.373307
-0.0850664
-2.73768
-0.387594
-2.56751
-0.373349
-0.0162392
-0.255168
-0.0173033
-0.248523
0.030656
-0.24256
0.0229767
-0.257754
-0.0471531
-0.262888
-0.253979
0.0401287
-2.02379
-0.794581
0.0118554
-2.11009
-0.796945
-0.0332487
-2.08869
-0.78986
-0.0126812
-2.06579
-0.80005
0.00382412
-2.07167
-0.817599
-2.08521
-0.818856
0.0292827
-2.01021
-0.420938
0.0177138
-2.03377
-0.419616
0.0244996
-2.03037
-0.415001
0.0316582
-2.02506
-0.421193
0.0279603
-2.02449
-0.431079
-2.02613
-0.404471
0.0036341
-0.222377
-0.000307669
-0.221161
0.00532086
-0.219073
-0.000982722
-0.223081
-0.00681909
-0.228163
-0.225356
-0.0193316
-1.80201
-1.03214
-0.0284714
-1.8366
-1.03499
-0.0149834
-1.81758
-1.03161
-0.0520313
-1.81651
-1.03878
-0.130004
-1.8494
-1.04944
-1.76797
-1.03801
0.0115611
-1.824
-0.410505
-0.00266696
-1.82617
-0.415816
0.0019688
-1.81809
-0.419122
-0.00153291
-1.82133
-0.412879
-0.0316164
-1.83193
-0.41846
-1.78661
-0.417447
-0.005436
-0.1829
-0.00704417
-0.182814
-0.000835489
-0.182565
-0.00525117
-0.183223
-0.0168947
-0.183773
-0.183982
-0.0298539
-1.30664
-0.941476
-0.0210959
-1.33151
-0.936426
-0.0120282
-1.31396
-0.917149
-0.0387221
-1.31955
-0.958838
-0.108638
-1.34386
-0.989871
-1.27254
-0.899114
0.00522034
-1.40539
-0.316971
-0.00177839
-1.41485
-0.325481
-0.00199617
-1.40816
-0.324703
-0.00503594
-1.40684
-0.322545
-0.0179212
-1.40972
-0.339718
-1.38608
-0.321828
-0.00087022
-0.118501
-0.00372815
-0.114592
-0.00188683
-0.115654
-0.00586138
-0.113661
-0.0116812
-0.116617
-0.111813
-0.035263
-0.773107
-0.00596344
-0.018131
-0.793669
-0.0301082
-0.0259557
-0.772936
0.0066326
-0.010658
-0.804871
-0.0651068
-0.0126277
-0.831075
-0.115251
-0.750164
0.017778
-0.0193607
-1.18135
0.110628
-0.0114659
-1.19249
0.0654442
-0.00984051
-1.18043
0.0811691
-0.0161551
-1.191
0.0699012
-0.0266309
-1.19863
0.0383079
-1.15617
0.0575427
0.0029736
-0.0244718
-0.00422015
-0.0109094
-6.41657e-05
-0.0224934
0.00211678
-0.0238711
-0.00399368
-0.0256611
-0.00669866
0.018172
-0.797343
1.20627
0.020311
-0.825404
1.20976
-0.0147953
-0.789438
1.27448
0.0443138
-0.835881
1.10678
0.036502
-0.7937
1.08827
-0.78436
1.27858
-0.0363911
-1.45422
0.803895
-0.00795701
-1.46774
0.679347
-0.0169309
-1.43492
0.735632
-0.0253442
-1.46427
0.706707
-0.019297
-1.4359
0.674465
-1.39731
0.651197
0.018503
0.0232567
0.00457257
0.0736251
-0.00252762
0.0576384
-0.00875961
0.0476517
0.0072503
0.0309632
0.0729499
-0.397355
-1.03763
2.48305
-0.0332202
-1.69221
1.83339
0.137396
-1.6073
2.11225
-0.141471
-1.2316
2.27769
-0.417112
-1.37593
2.18364
-1.52721
1.94581
-0.558722
-1.22336
1.54835
-0.0603423
-2.23406
0.72282
0.176331
-2.15253
1.04419
-0.202174
-1.6603
1.51392
-0.535922
-1.56626
1.19854
-2.14111
0.729167
0.0401048
-0.365465
-0.0766184
0.0167941
-0.0372937
-0.200227
0.053834
-0.273425
0.108757
-0.316503
0.0858237
-0.436419
0.496516
3.32891
-0.237078
-0.370507
2.65159
-0.134084
-0.15001
2.83914
-0.269421
-0.0218967
3.20042
-0.262037
-0.246082
3.03673
-0.229738
2.6964
-0.912739
1.6143
1.34331
0.0809611
-1.38444
0.743041
0.188945
-0.0872408
0.873437
-0.649188
0.970329
1.35983
-1.27118
0.624093
0.950361
-1.46265
0.690902
-0.540874
-1.41875
0.0550583
-0.524557
0.233815
-0.983234
-0.324786
-1.25218
-0.699327
-1.35664
-0.471052
0.224066
3.52689
1.7929
-0.0478735
3.27104
1.75822
-0.0860816
3.37267
1.64245
0.072691
3.31728
1.85643
0.139069
3.34957
1.7749
3.23983
1.62974
0.175387
5.47863
-0.783814
-0.0158962
5.1464
-0.941037
-0.0627276
5.25798
-0.965038
0.169965
5.21602
-0.771592
0.151874
5.32611
-1.00808
5.04507
-0.962453
-0.287056
-2.0062
0.0570685
-1.87012
0.124176
-1.94085
-0.0462069
-1.97805
-0.248418
-2.16267
-1.71592
0.221285
3.74601
-0.437652
-0.00852132
5.22172
-0.200671
0.000284228
4.65781
-0.432151
0.133779
3.97123
-0.255911
0.116753
4.02222
-0.131776
5.07346
-0.511368
-0.0550237
4.28173
-1.26451
-0.052753
5.63041
-1.352
0.0478561
4.91578
-1.3236
0.0884435
4.36163
-1.20258
-0.179165
4.52622
-1.24448
5.2748
-1.34295
-0.317376
-1.23029
0.0103229
-1.4777
0.139849
-1.37742
-0.0649904
-1.25131
-0.366975
-1.37163
-1.35511
-0.0243074
3.20192
0.195858
-0.0311715
3.44529
0.30136
-0.0153004
3.22654
0.208034
-0.020562
3.35992
0.274216
-0.0404444
3.37194
0.344706
3.26167
0.184827
0.0855763
1.0175
0.834334
-0.0396626
1.31494
0.903592
-0.159451
1.06229
0.960443
-0.0372265
1.1282
0.906923
0.113317
1.06404
0.912878
1.17649
0.855538
-7.04378e-05
0.206646
0.0276493
0.276516
-0.0114957
0.272275
0.00997489
0.251218
0.0556931
0.250233
0.231717
0.0332135
-0.643846
-0.557903
1.16854
0.0507964
-0.654096
-0.569956
1.20647
0.0103717
-0.715436
-0.580595
1.33646
-0.0535145
-0.665607
-0.628913
1.35841
-0.09008
-0.674651
-0.671656
1.38287
-0.703002
-0.621748
1.23467
0.198123
-0.386756
0.061972
-0.517186
0.318507
-0.439262
-0.0518625
-0.283354
0.169994
-0.347301
-0.206759
-0.01286
-0.0311396
-0.199713
-0.121372
-0.143387
-0.0297761
-0.266516
0.247342
-0.65684
-0.322456
0.451348
-0.861668
-0.0686439
0.243785
-0.563988
-0.0303546
0.225517
-0.610819
-0.0060176
0.353978
-0.911823
0.0454965
0.651667
-1.35286
0.125365
0.627361
-1.31875
0.540641
-1.04665
0.00480115
-0.39724
-0.165464
0.00248494
-0.39243
-0.175209
0.00673085
-0.395967
-0.188874
0.00294576
-0.435859
-0.189269
-0.00486123
-0.485413
-0.178436
-0.455693
-0.170916
0.0201349
-0.120664
-0.234737
-0.00329299
-0.129595
-0.291267
-0.109298
-0.139034
-0.357684
-0.234474
-0.137545
-0.294509
-0.175723
-0.14643
-0.150389
-0.106613
-0.0734548
-0.0503388
0.0129245
-0.105355
0.0184732
-0.0983188
0.0730648
0.00258732
0.190458
0.0303425
0.14945
0.124599
0.00299712
-0.154217
-0.0142443
0.00602392
-0.157906
-0.0203296
0.00157835
-0.165934
-0.0184942
-0.00302925
-0.166543
-0.018119
-0.00162607
-0.163394
-0.016445
-0.156621
-0.0159207
0.0127886
-0.012934
-0.388806
-0.00358782
-0.0196615
-0.413138
-0.0707801
-0.0208846
-0.435541
-0.118318
-0.0120767
-0.401437
-0.0799896
-0.00253274
-0.349578
0.010781
-0.320846
-0.0278969
-0.0812706
-0.060498
-0.0734195
-0.0683792
-0.0611074
-0.00700011
-0.0348164
0.0100882
-0.0380913
-0.0326931
0.00135211
-0.138343
0.122747
0.00234465
-0.139442
0.118119
0.00180426
-0.138298
0.120344
0.000388239
-0.136587
0.119884
-0.000343664
-0.136001
0.120288
-0.138131
0.121866
-0.0396085
0.0196477
-0.50719
-0.0370113
0.0184757
-0.573658
-0.0195499
0.0240046
-0.615307
-0.028724
0.0277875
-0.55664
-0.0236069
0.0299147
-0.520612
0.0314658
-0.51405
-0.00985085
-0.211202
-0.0145379
-0.212394
-0.016229
-0.207807
-0.00346198
-0.201789
0.0022267
-0.202302
-0.19047
-0.00709162
-0.026463
0.156301
0.00532817
-0.0422147
0.147913
0.00463913
-0.03707
0.158103
-0.00012537
-0.0131139
0.137762
-0.00471218
-0.0058105
0.130685
-0.0513116
0.168465
-0.0321134
0.329381
-0.830921
-0.0187527
0.315599
-0.944838
-0.000695015
0.329275
-0.999714
-0.0100194
0.341723
-0.902156
-0.00787544
0.350419
-0.878987
0.31753
-0.890768
-0.00627586
-0.360412
-0.0165545
-0.380688
-0.0153477
-0.384851
0.00448805
-0.379048
0.0238497
-0.3756
-0.357789
-0.00928767
0.361447
-0.000240369
0.440226
-0.0282504
0.394147
-0.00183976
0.385567
0.0405774
0.432974
0.39387
-0.0123157
0.377179
-0.0119456
0.398613
-0.0513271
0.394257
-0.0334305
0.372437
0.052348
0.381084
0.410988
-0.0406606
-0.00248873
0.000842038
-0.00478229
0.0155673
-0.0258922
-0.737881
-0.0928884
-7.74825e-05
-1.2606
0.0466287
0.765982
-0.58545
0.111528
0.937436
-0.931614
0.13135
0.356199
-1.38498
0.0694261
-0.903682
0.0478593
0.154249
-0.869824
-0.0223048
0.0273231
-1.19562
0.0619511
0.0143366
-0.54843
-0.024032
-0.0608049
-0.954659
0.0981875
-0.204405
-1.34143
0.10006
-1.12943
0.0213463
0.0597968
0.0754421
-0.0717974
0.0710455
0.0667142
0.0112958
0.140858
0.0650565
0.0244551
0.0708878
0.0560648
0.0523285
-1.33255
0.248869
0.0283711
-1.67877
0.0623988
0.3914
-1.55273
0.171814
0.475633
-1.60817
0.20274
0.287131
-1.7765
0.0954635
-1.50282
0.288851
0.170573
-1.35419
-0.171238
0.119442
-1.46274
-0.102948
-0.0321843
-1.43362
0.00848714
-0.0716201
-1.51381
0.0432652
-0.105436
-1.63105
-0.0115792
-1.48786
-0.0990523
0.0578138
0.0440344
0.0306178
0.0750025
0.0477999
0.0516052
0.067484
0.0491313
-0.00248603
0.0419026
0.00514236
0.266344
-0.822796
0.670396
0.382667
-1.72382
0.456821
0.639915
-1.72212
0.459746
0.477599
-1.76198
0.513351
0.19169
-1.91847
0.529894
-1.38728
0.996611
0.433167
-1.17289
-0.254307
0.277688
-1.47287
-0.198416
0.0311382
-1.42741
-0.0396728
-0.0618966
-1.59268
-0.0330051
-0.123793
-1.727
-0.141151
-1.52377
-0.0863602
0.104299
0.0165759
0.0121789
0.0714841
0.0430762
0.0388392
0.0289955
0.0210538
-0.0625187
-0.0317733
-0.0989249
0.964813
-0.325433
0.925753
1.42463
-1.66633
0.940372
0.978478
-2.05341
0.908056
0.122111
-1.92068
0.967556
-0.413142
-1.85838
1.37601
-0.625244
1.99118
0.657596
-1.11574
-0.1216
0.456311
-1.58776
-0.0756996
-0.0826143
-1.69992
0.145768
-0.333618
-1.81108
0.108393
-0.468923
-1.85266
-0.011561
-1.4694
0.288869
0.140132
-0.0414201
-0.00527688
0.0111652
-0.0736755
-0.00840473
-0.107624
-0.0439594
-0.160998
-0.194226
-0.234401
1.89237
-0.396533
0.950244
2.25839
-1.87704
1.07461
1.43306
-2.24374
1.02887
0.0904293
-2.00993
1.07117
-0.724428
-1.5683
1.70537
-0.0592514
2.58703
0.655918
-1.17929
0.00523851
0.395844
-1.83607
0.143409
-0.137712
-1.96384
0.399418
-0.568445
-1.84531
0.374514
-0.721871
-1.74815
0.321722
-1.27129
0.779033
0.104901
-0.1153
-0.0896873
-0.0670503
-0.233824
-0.0329175
-0.182798
-0.0715606
-0.192081
-0.256617
-0.249066
2.16547
-0.781284
0.668302
2.27783
-2.0435
1.07031
1.5208
-2.97962
1.60046
0.0627925
-3.04673
1.75772
-0.582515
-1.63628
1.74241
-0.108821
2.1569
0.76487
-1.42333
-0.117586
0.769336
-2.40514
0.50058
0.0740423
-2.66611
0.781204
-1.07035
-2.26419
0.736364
-1.07062
-1.7293
0.415014
-1.09441
0.693998
0.145771
-0.248239
-0.00925613
-0.155865
-0.282725
0.00662208
-0.376964
-0.0367796
-0.346961
-0.244574
-0.36485
0.788396
-0.789193
0.879146
0.268576
-1.96128
2.18013
0.333059
-2.23681
3.05925
0.519683
-1.61245
2.83938
0.0882934
-0.952197
2.21875
-0.113419
1.92059
0.399887
-1.24749
-0.0591762
0.134132
-2.42805
1.2331
-0.175068
-3.06132
1.91491
-0.556674
-2.07703
1.58254
-0.901359
-0.946794
0.754296
-0.291251
-0.0295284
0.197797
-0.401571
0.0894782
-0.0864442
-0.497005
0.667331
-0.635699
0.155291
-0.539159
-0.299793
-0.799451
-1.11208
-0.250421
1.70575
-1.77122
-0.255049
2.83697
-0.751086
1.26553
2.8075
0.581049
1.92155
2.38571
0.640084
1.42368
2.39944
1.02617
2.01766
-0.745727
-0.167326
0.603457
-0.903144
-0.580345
1.71581
-1.00336
1.28837
1.99229
-0.0649067
1.09468
1.47096
-0.130381
1.34781
0.895638
1.36945
-0.503185
0.0691334
-0.349178
-0.1612
0.267155
-1.59097
0.850502
-1.30264
0.0581021
-0.648579
-0.557237
-1.07382
-2.19717
0.841618
2.72669
-3.12823
1.97655
3.08376
-2.10612
4.28933
2.20483
-0.706396
4.19827
1.53847
0.261629
3.23509
1.87544
2.2479
1.5219
-2.15952
1.93713
1.66746
-2.98056
2.39869
2.11471
-2.11414
3.84772
1.56748
-0.773743
3.5556
0.773229
0.133426
2.94732
0.276239
2.20672
-0.328577
-0.867236
0.356473
-1.50349
0.915623
-1.52985
0.700076
-0.756964
-0.0569585
-0.100829
-0.473369
-0.579643
-1.44743
1.72923
2.68135
-2.46288
3.01648
3.39899
-2.68268
5.24019
2.37305
-2.61191
4.049
1.51345
-1.26482
3.22992
0.69583
2.71793
0.597705
-1.17351
2.90412
1.66608
-2.21933
3.56378
2.61323
-2.05913
4.65278
1.9947
-1.90915
3.35866
1.31359
-1.08781
2.09683
0.588002
1.6902
-0.388667
-0.00151393
0.307052
-0.377062
1.23624
-0.257112
1.32618
-0.386755
0.929088
-0.318232
0.404074
-0.144497
0.641771
3.14299
0.514009
1.54346
4.29781
1.27491
1.76306
4.95225
0.834274
0.954049
4.67902
0.593037
-0.939377
3.24571
-0.239576
2.74323
-0.259853
0.600535
3.17692
1.0316
1.43588
4.41992
1.65578
2.01921
4.88612
1.47751
1.84097
4.65937
1.51147
0.556193
3.72495
1.39355
2.33123
0.579533
0.555865
0.110188
1.31625
0.780059
1.73706
1.35594
1.464
1.63154
0.711805
1.31475
0.610775
0.139235
0.303308
0.639132
0.825575
0.929333
0.613233
0.879724
0.719305
0.21054
0.218346
-0.498233
0.263385
0.554341
1.23057
1.23082
1.66413
1.64432
1.76283
1.9887
1.12948
1.58841
0.349111
0.176712
0.828345
1.05207
0.90054
0.753456
)
;

boundaryField
{
    seabed_topleft_surface
    {
        type            calculated;
        value           uniform 0;
    }
    seabed_topright_surface
    {
        type            calculated;
        value           uniform 0;
    }
    breakwater_top_surface
    {
        type            calculated;
        value           uniform 0;
    }
    breakwater_left_surface
    {
        type            calculated;
        value           uniform 0;
    }
    breakwater_right_surface
    {
        type            calculated;
        value           uniform 0;
    }
    water_front_surface
    {
        type            calculated;
        value           uniform 0;
    }
    water_back_surface
    {
        type            calculated;
        value           uniform 0;
    }
    water_left_surface
    {
        type            calculated;
        value           uniform 0;
    }
    water_right_surface
    {
        type            calculated;
        value           uniform 0;
    }
    water_top_surface
    {
        type            calculated;
        value           nonuniform List<scalar> 
180
(
0.67815
0.0367328
-0.298453
0.540762
0.589678
0.627225
-2.81676
-2.79141
-2.7653
-2.80752
-2.854
-2.77814
-2.04664
-2.05719
-2.05948
-2.05343
-2.05338
-2.06157
-1.85804
-1.86291
-1.86081
-1.85677
-1.86468
-1.84488
-1.46892
-1.48021
-1.47691
-1.47243
-1.47105
-1.46993
-1.27835
-1.28897
-1.27775
-1.28297
-1.28347
-1.26528
-1.52045
-1.53835
-1.50796
-1.52957
-1.50855
-1.46971
-0.87474
-2.0605
-1.93398
-1.43035
-1.27371
-2.04522
3.20846
-1.43902
0.517011
2.50769
2.03878
-1.6051
6.35313
6.14785
6.1485
6.11226
6.33434
6.04151
3.8232
4.91029
4.22282
3.83973
4.03716
4.54702
-0.419361
-0.466993
-0.548264