/*--------------------------------*- C++ -*----------------------------------*\
| =========                 |                                                 |
| \\      /  F ield         | OpenFOAM: The Open Source CFD Toolbox           |
|  \\    /   O peration     | Version:  v1612+                                |
|   \\  /    A nd           | Web:      www.OpenFOAM.com                      |
|    \\/     M anipulation  |                                                 |
\*---------------------------------------------------------------------------*/
FoamFile
{
    version     2.0;
    format      ascii;
    class       volVectorField;
    location    "9";
    object      U;
}
// * * * * * * * * * * * * * * * * * * * * * * * * * * * * * * * * * * * * * //

dimensions      [0 1 -1 0 0 0 0];

internalField   nonuniform List<vector> 
1116
(
(0.106942 0.00295812 0.0544315)
(0.0561055 -0.015392 0.0567459)
(0.040167 0.031653 0.0479626)
(0.150861 0.0308004 0.053053)
(0.199745 -0.00165817 0.0597103)
(0.0539008 -0.0481141 0.042729)
(0.174714 0.0168951 0.271625)
(0.139543 -0.0061689 0.292581)
(0.126854 0.00523785 0.305458)
(0.185061 -0.027706 0.281096)
(0.213515 0.0219177 0.289358)
(0.123113 -0.0136564 0.298755)
(0.197927 0.0103276 0.142779)
(0.18091 0.000433832 0.156217)
(0.173939 -0.000723929 0.168422)
(0.194937 -0.0250327 0.139775)
(0.21021 0.0130173 0.136166)
(0.157809 0.00111886 0.158156)
(0.235815 0.00271717 -0.0857844)
(0.227744 0.000265689 -0.0875765)
(0.224471 -0.00198295 -0.0842899)
(0.233153 -0.0122448 -0.088826)
(0.241875 0.00290046 -0.0921841)
(0.212218 0.00382667 -0.0908283)
(0.336657 -0.000600544 -0.264651)
(0.330341 -0.00139274 -0.270577)
(0.329911 0.000109623 -0.272458)
(0.335621 -0.00275288 -0.264219)
(0.34182 -0.00146135 -0.263998)
(0.32621 -0.000624736 -0.27387)
(0.510234 -0.00115804 -0.259424)
(0.502103 -0.00145447 -0.262557)
(0.504648 0.000258742 -0.265415)
(0.507418 0.000673984 -0.258027)
(0.512483 -0.00289607 -0.258944)
(0.503141 -0.00350535 -0.262444)
(0.718997 0.00161716 -0.194129)
(0.707373 -0.000445452 -0.199592)
(0.710401 -0.000988225 -0.201303)
(0.716057 -0.000645172 -0.194607)
(0.721986 -0.00181509 -0.191351)
(0.70582 -0.00112956 -0.200457)
(0.920509 0.00250748 -0.112327)
(0.916024 -0.000527445 -0.130175)
(0.917395 -0.00163912 -0.128576)
(0.920027 -0.00169708 -0.116232)
(0.917174 -0.00201733 -0.105429)
(0.915228 -0.00054145 -0.139884)
(0.950466 -0.00458748 -0.0805926)
(0.958975 -0.00352115 -0.0905502)
(0.957865 0.000733413 -0.0858204)
(0.952413 -0.00121311 -0.085767)
(0.939915 -0.00607311 -0.0893756)
(0.960331 -0.0055962 -0.0945728)
(0.645702 -0.00609158 -0.277828)
(0.635365 -0.00239052 -0.256609)
(0.638846 -0.000918136 -0.254515)
(0.646369 7.8659e-06 -0.283136)
(0.639277 -0.001641 -0.302711)
(0.634926 -0.00385779 -0.239164)
(-0.168994 -0.000250401 -0.71628)
(-0.209458 0.00459448 -0.698759)
(-0.206001 -0.00305579 -0.699521)
(-0.166127 0.00219046 -0.716587)
(-0.154045 0.0035315 -0.73799)
(-0.217048 0.00171744 -0.679447)
(-0.536756 0.0172687 -1.14646)
(-0.576371 0.00993096 -1.13966)
(-0.573268 -0.0097137 -1.14898)
(-0.53543 0.00326931 -1.14506)
(-0.512172 0.0158802 -1.14971)
(-0.57794 0.0200954 -1.12948)
(0.0282594 -0.00221903 -0.403188)
(0.169136 0.0371494 -0.390142)
(0.187732 -0.0931266 -0.392114)
(-0.130959 -0.0735765 -0.416595)
(-0.284384 0.000105145 -0.413706)
(0.144736 0.097818 -0.403056)
(0.593553 -0.024347 -0.328451)
(0.67234 0.05233 -0.340794)
(0.684529 -0.0268902 -0.333542)
(0.568456 0.070398 -0.296855)
(0.550974 -0.0446759 -0.252577)
(0.656001 0.0375902 -0.334086)
(0.646557 -0.0138191 -0.253175)
(0.678962 0.0395925 -0.251674)
(0.667613 -0.01467 -0.242481)
(0.661719 0.0454349 -0.247172)
(0.692196 -0.0214871 -0.242742)
(0.66334 0.029454 -0.25104)
(0.764069 -0.00784886 -0.0882102)
(0.772488 0.0116444 -0.0833634)
(0.761802 -0.00589014 -0.0800714)
(0.779632 0.0107652 -0.0906411)
(0.807832 -0.00809446 -0.100435)
(0.769136 0.0171202 -0.0943388)
(1.15492 -0.00597632 -0.0284251)
(1.16033 -0.00285187 -0.027522)
(1.15643 0.000478616 -0.028634)
(1.16053 0.00217678 -0.028523)
(1.17028 -0.00398074 -0.0308813)
(1.1599 0.00603799 -0.0408392)
(1.60673 -0.00229725 -0.0593363)
(1.60979 -0.00445555 -0.0580817)
(1.60861 -0.000169893 -0.0604578)
(1.60741 -0.0013758 -0.0575046)
(1.61128 -0.000812374 -0.0547385)
(1.60662 0.00325 -0.0702152)
(2.0451 0.00184317 -0.121742)
(2.04907 -0.00194096 -0.114126)
(2.04599 -0.00352051 -0.116911)
(2.04662 -0.00273071 -0.119695)
(2.05116 -0.000439258 -0.115485)
(2.04296 0.000396036 -0.124902)
(2.39865 0.00395837 -0.0966747)
(2.42137 -0.00128198 -0.084329)
(2.41073 -0.00351446 -0.0882898)
(2.40922 -0.00370203 -0.0933693)
(2.41375 0.00164046 -0.0858013)
(2.40852 0.0018781 -0.0921131)
(2.73377 0.00277996 0.266466)
(2.7737 -0.00254698 0.260705)
(2.75815 0.00106322 0.26265)
(2.74924 -0.00040816 0.265204)
(2.75625 -0.00407791 0.265829)
(2.75606 -0.00519981 0.256278)
(2.74446 0.00612297 1.1667)
(2.76915 0.00307728 1.16743)
(2.75441 -0.00372263 1.17207)
(2.77023 0.00271244 1.15088)
(2.78695 -0.0137281 1.14837)
(2.73529 -0.0203324 1.17095)
(1.76347 0.0125021 2.01035)
(1.78897 0.0161918 2.04587)
(1.77102 -0.0111972 2.04363)
(1.79062 0.0051989 2.00438)
(1.82268 -0.000546869 2.00835)
(1.73186 -0.0162333 2.03178)
(1.77496 -0.0151547 0.7241)
(1.71809 0.00571355 0.749349)
(1.71443 -0.00745132 0.721412)
(1.81499 -0.0212626 0.728741)
(1.86792 0.0271864 0.799765)
(1.6786 0.0696146 0.738363)
(1.01325 -0.053147 -1.17072)
(1.40398 0.148844 -1.1166)
(1.57735 -0.293626 -1.05493)
(0.679275 -0.190308 -1.11383)
(0.403619 0.0234701 -1.11675)
(1.53664 0.435459 -1.02185)
(4.9642 -0.116904 -0.811522)
(5.38948 0.211833 -0.588683)
(5.42399 -0.12107 -0.580489)
(4.88991 0.173195 -0.92103)
(4.6009 -0.0428592 -1.06561)
(5.56617 0.472082 -0.584951)
(9.43348 -0.178534 -0.637981)
(9.79796 0.285855 -0.512726)
(9.90583 -0.0364077 -0.489889)
(9.44595 0.384272 -0.650536)
(9.23584 -0.021113 -0.680774)
(10.2374 0.490408 -0.475377)
(13.3736 -0.177155 -1.25034)
(13.8786 0.313088 -1.20669)
(13.9671 -0.100113 -1.20405)
(13.4948 0.357521 -1.22843)
(13.2987 -0.042138 -1.23161)
(14.5669 0.519669 -1.19484)
(16.6299 -0.176722 -1.7806)
(17.1533 0.188088 -1.81264)
(17.2077 -0.184791 -1.81522)
(16.7732 0.170735 -1.76423)
(16.4885 -0.196081 -1.74967)
(17.7574 0.352346 -1.77892)
(16.399 -0.148636 -0.909925)
(16.6761 -0.00251553 -0.927687)
(16.7398 -0.139682 -0.930979)
(16.4501 0.0097595 -0.904238)
(16.2774 -0.220978 -0.903545)
(16.8272 0.0897348 -0.895355)
(11.6226 -0.0613623 -0.0877716)
(11.5266 -0.0312032 -0.0968928)
(11.6955 -0.0387584 -0.100941)
(11.4499 0.00061096 -0.0939147)
(11.3834 -0.04351 -0.0987237)
(11.6385 -0.00420631 -0.0965966)
(7.80376 -0.0740923 -0.549715)
(7.90229 -0.050821 -0.577553)
(7.91911 0.00886006 -0.573968)
(7.70889 0.0405213 -0.58477)
(7.79053 -0.0301729 -0.574004)
(7.90276 -0.0318012 -0.581062)
(6.32971 -0.0648323 -0.32498)
(6.4059 -0.0479035 -0.345778)
(6.37679 0.0117137 -0.339748)
(6.30354 0.0504056 -0.345022)
(6.52874 -0.0759755 -0.352982)
(6.2366 -0.0876119 -0.355656)
(4.70752 0.00247135 0.583441)
(4.69304 -0.00666805 0.674032)
(4.64896 -0.00946592 0.653252)
(4.71759 0.0266109 0.604168)
(4.8708 -0.066304 0.626222)
(4.48846 -0.0628853 0.61301)
(3.48727 0.110182 0.518994)
(3.45229 0.0595878 0.742469)
(3.40243 -0.0796638 0.681412)
(3.54611 -0.00642761 0.565087)
(3.56825 0.00442039 0.614637)
(3.34 -0.00701217 0.650163)
(4.18875 -0.0855099 1.47596)
(4.25087 -0.0249114 1.46456)
(4.22207 0.0391459 1.47566)
(4.22875 -0.0222277 1.46373)
(4.35811 -0.0129268 1.4116)
(4.04739 0.0443493 1.57686)
(-1.98677 -0.0751822 -4.14631)
(-2.01021 0.177363 -4.25867)
(-1.61292 -0.0301916 -4.17615)
(-1.99919 0.123637 -4.20648)
(-2.11284 -0.0424972 -4.50698)
(-1.59959 0.198087 -4.04122)
(-1.21922 -0.0131804 -5.86523)
(-1.44864 -0.0346833 -5.85044)
(-1.68024 0.104609 -5.7325)
(-1.12199 0.179149 -5.89167)
(-0.947179 0.0053897 -6.43485)
(-1.62078 -0.0446303 -5.25851)
(-1.60078 -0.044842 -5.69665)
(-1.63578 0.0148515 -5.9517)
(-1.52147 -0.052176 -5.78788)
(-1.67011 -0.0452845 -5.81344)
(-1.70653 0.000307149 -5.88469)
(-1.31099 0.0888859 -5.26692)
(-1.66859 -0.0485356 -4.17775)
(-1.61454 -0.0323258 -4.13194)
(-1.57198 -0.0530425 -4.03351)
(-1.7053 -0.0149769 -4.19973)
(-1.77621 -0.0571278 -4.33388)
(-1.18686 0.0580573 -3.39311)
(-1.06952 -0.0606116 -0.524078)
(-0.92879 -0.029726 -0.361854)
(-0.876432 -0.0622838 -0.300601)
(-1.09569 -0.0552147 -0.529083)
(-1.28822 -0.0888923 -0.754553)
(-0.460587 0.024352 0.168758)
(1.43475 -0.0512113 3.29499)
(1.44991 -0.0261801 3.36521)
(1.52826 -0.0423348 3.39527)
(1.36081 -0.0522733 3.26391)
(1.14205 -0.0554641 3.07488)
(1.67136 0.0116909 3.52222)
(3.53028 -0.0370174 4.5139)
(3.47675 -0.0127178 4.48256)
(3.59077 0.0210258 4.53832)
(3.38363 0.00166498 4.43107)
(3.19487 0.0314226 4.36543)
(3.72931 0.0297297 4.52607)
(6.24657 -0.1817 3.46657)
(5.91809 -0.10127 2.99102)
(6.04787 0.0846923 3.11751)
(6.03723 0.052491 3.231)
(5.80136 -0.0432703 3.0693)
(6.24135 0.0672257 3.22985)
(8.6353 -0.143433 3.26182)
(8.95788 -0.0363081 3.04021)
(8.95675 0.0226188 3.03826)
(8.62108 0.0195956 3.12048)
(8.54011 -0.0118074 3.16122)
(9.33153 0.118444 3.05938)
(7.6667 0.0166484 3.15318)
(7.88976 0.0544736 3.28553)
(7.82164 0.0149461 3.19071)
(7.78706 0.0204298 3.14)
(7.86718 -0.0329139 3.30224)
(7.94048 0.00167248 3.03262)
(4.33893 0.350783 2.4812)
(5.87226 0.310924 3.17961)
(5.30358 -0.378729 2.81984)
(4.9156 -0.0774099 2.66019)
(4.95929 0.273277 2.78267)
(5.61132 0.323715 2.74181)
(4.52215 -0.160519 5.7839)
(5.29985 0.00913601 5.43386)
(4.88566 0.00324214 5.5402)
(4.63624 0.0549094 5.77692)
(4.81848 -0.0760906 5.73129)
(4.94873 0.110252 5.43712)
(-0.432048 0.050065 -0.664442)
(-0.557088 -0.0105407 -0.157364)
(-0.462782 -0.297911 -0.936659)
(-0.522505 0.0323449 -0.172097)
(-0.187985 -0.500384 0.0291437)
(-0.167034 -0.130334 -0.736089)
(-1.34991 0.0719164 -0.705929)
(-1.20659 -0.0131108 0.136947)
(-1.18459 -0.354178 -0.637078)
(-1.14167 0.427586 -0.0904845)
(-0.829161 -0.239527 0.223416)
(-1.0926 -0.190268 -0.775785)
(-1.98339 0.152796 -0.514769)
(-1.90195 0.079094 0.145486)
(-1.31728 -0.179121 -0.353403)
(-0.709506 0.552958 -0.282)
(-1.45497 -0.257627 0.254471)
(-1.81943 -0.207966 -0.700136)
(-2.13058 0.218793 -0.493739)
(-2.41736 0.59633 0.0199483)
(-1.31779 0.301342 0.719354)
(-1.23325 0.029093 0.276101)
(-2.19075 -0.462019 0.073319)
(-2.16459 -0.1545 -0.896699)
(-1.7045 0.213335 -0.325918)
(-1.56142 0.876319 0.245102)
(-0.0806358 0.366858 0.84396)
(-1.15082 -0.337446 0.554079)
(-2.95418 -0.518322 0.407895)
(-2.95133 -0.222719 -0.529792)
(-1.70494 0.317271 -0.0248944)
(-0.85748 0.813605 0.187132)
(-0.409564 1.08211 -0.189086)
(-1.18797 0.0428685 0.0420039)
(-2.73329 -0.74649 0.300326)
(-3.08864 -0.30928 0.00351151)
(-0.708063 0.408314 -0.0528324)
(0.772586 1.05099 -0.752644)
(0.49004 1.97633 -0.929321)
(-2.93823 1.2161 0.158193)
(-3.54254 -1.4 0.443321)
(-1.41004 -0.259326 -0.457898)
(0.122533 -0.0452947 0.289396)
(1.66255 0.501968 -1.02762)
(2.34041 0.477253 -1.71368)
(-4.56425 1.52864 0.906635)
(-3.67035 -0.824329 0.953653)
(0.512317 0.140869 -0.577602)
(-0.422403 -0.107333 0.832552)
(1.5401 -0.271463 -0.622885)
(2.96402 -0.806016 -1.81953)
(-0.876891 0.193353 0.404961)
(-0.0400915 0.0247849 0.0248655)
(1.60877 0.345143 -0.685269)
(0.35619 0.2834 1.29072)
(0.702552 -0.737549 0.787759)
(3.48471 -1.28284 -1.97156)
(4.17521 -0.700679 -2.38101)
(3.57604 -0.301516 -1.70476)
(2.12088 0.483287 -0.79192)
(1.52062 0.121722 0.90371)
(0.838259 -0.881065 2.6211)
(2.50639 -1.66555 -1.25919)
(3.57465 -0.993672 -2.58251)
(3.65023 -0.392108 -2.56686)
(1.92726 0.646838 -0.689806)
(0.652312 0.166558 0.269014)
(0.680757 -0.561003 1.85084)
(1.28076 -0.946892 -0.810786)
(1.89178 -0.398314 -1.77041)
(1.74296 -0.267134 -1.44854)
(0.624904 0.133679 -0.252494)
(-0.161694 -0.285871 -1.31022)
(-0.0680215 0.231666 -1.06641)
(0.492534 -0.819769 -1.19823)
(-0.0511363 -1.54654 -1.14831)
(-0.190518 -0.719321 -0.720601)
(0.0230145 0.156046 -1.91201)
(-1.29624 -0.552714 -1.09947)
(-1.16302 0.0854474 -0.838733)
(-0.672501 -1.11768 -1.00728)
(-0.854055 -1.25068 -0.310942)
(-1.04567 -0.719017 -0.0859137)
(-1.17136 0.563428 -2.06929)
(-1.65554 -0.741473 -0.757855)
(-1.61412 -0.355315 -0.552639)
(-0.893114 -0.920361 -0.753542)
(-0.842214 -0.321831 0.209359)
(-1.52045 -0.459147 0.192871)
(-1.82505 0.779926 -1.50882)
(-2.05104 -0.757698 -0.998345)
(-2.1679 -0.462688 0.417262)
(-1.92101 -0.635792 1.82466)
(-1.71635 0.0547788 0.540436)
(-1.7551 0.083733 -0.418433)
(-1.95751 1.09646 -1.62655)
(-2.74438 -0.707871 -1.23556)
(-2.71692 -0.393711 0.578)
(-1.7707 -0.336807 2.29336)
(-2.94668 -0.26768 0.728911)
(-2.94042 -0.0334082 -0.762979)
(-2.77261 0.974811 -1.94963)
(-3.51052 -0.411201 -1.4235)
(-3.79211 0.233721 0.373519)
(-2.42837 -0.286788 1.52934)
(-3.4403 -1.02941 0.886761)
(-4.23612 -0.64471 -0.257339)
(-4.01168 0.343931 -1.27993)
(-4.10264 0.0565283 -1.35665)
(-4.98295 1.13456 0.0688036)
(-2.98553 0.377888 1.63574)
(-4.30311 -0.87538 3.03554)
(-4.44208 -1.29047 1.43723)
(-4.56663 0.198859 0.0865956)
(-3.78307 0.376146 -0.646625)
(-5.55044 2.18343 0.0832396)
(-3.55355 1.46304 1.78857)
(-6.14755 0.0085991 4.7503)
(-3.88942 -0.753204 4.92162)
(-3.41205 0.526498 1.83626)
(-1.17245 0.246093 0.521495)
(-2.5004 2.87588 1.20382)
(-3.90492 2.76838 2.17973)
(-2.3846 1.12998 4.27983)
(-0.0217644 1.18928 4.96282)
(-3.04575 1.1944 2.42666)
(-0.516121 0.648423 1.55289)
(2.44514 0.600237 2.4477)
(-0.45568 1.80629 2.2375)
(0.111963 0.642025 3.2789)
(2.23113 -0.046247 3.15822)
(-3.79296 1.12127 1.65513)
(-0.0801052 0.31171 0.181172)
(3.19871 0.201511 0.883971)
(2.73469 -0.0369442 -0.0191877)
(3.44626 -0.191356 -2.46664)
(3.23547 -0.743025 -4.09442)
(-0.481632 0.37565 0.232533)
(1.71962 0.462561 -2.72276)
(2.2016 0.860315 -1.97935)
(2.98229 1.23435 -3.38832)
(3.46754 0.767048 -4.25873)
(3.62687 -0.34348 -3.98335)
(1.76803 -0.670688 -2.12637)
(0.617658 -0.334162 -1.91082)
(0.574059 0.470869 -0.81033)
(0.818016 -0.209079 2.8846)
(0.137738 -1.26114 -1.70857)
(0.160286 -0.571746 -5.30715)
(0.149442 0.419442 -3.15078)
(-1.12466 -0.839713 -0.774057)
(-1.43539 -0.272548 0.047984)
(-1.12097 -1.12665 1.63465)
(-0.613223 -0.634977 -1.70258)
(-0.686944 -0.346047 -4.58127)
(-1.35372 0.552357 -2.85372)
(-1.71676 -1.26261 0.888705)
(-1.37503 0.525416 0.255384)
(1.29653 -1.12602 -1.21827)
(0.614856 0.0961263 -1.65298)
(-0.903809 -0.329802 -1.9709)
(-2.39488 0.99397 -0.617385)
(-1.58401 -1.49763 0.471278)
(-0.328853 -1.28552 -0.592298)
(0.591846 -1.23219 -0.815143)
(0.779745 0.58541 -4.30692)
(0.0591512 0.698009 -2.91854)
(-1.35923 1.38518 0.871696)
(-2.04307 -2.58632 0.368088)
(-2.09835 -2.57852 -1.25811)
(-2.26721 -1.144 0.301512)
(-2.16437 0.513021 -1.21463)
(-1.21009 1.83801 -4.306)
(-0.563061 2.16764 -0.712664)
(-3.15573 -2.8088 -0.73494)
(-3.4952 -2.32524 -1.58555)
(-4.3461 -0.770426 1.71658)
(-4.15814 -0.303375 0.478307)
(-3.74835 0.952724 -2.69836)
(-3.41817 1.43116 -2.17703)
(-4.34412 -1.66914 -2.55458)
(-4.92224 -1.16347 -1.51942)
(-4.92447 -0.744424 2.73372)
(-4.96328 -1.10002 2.30165)
(-4.8226 -0.114357 -0.0382214)
(-5.15518 0.756086 -1.15262)
(-5.44986 -0.824719 -2.9348)
(-6.3483 0.210765 -0.667128)
(-5.50661 -0.713004 4.06078)
(-5.80376 -1.20016 7.89205)
(-4.44412 -0.470202 4.79804)
(-6.05964 0.57002 0.40878)
(-6.6095 -0.69743 -2.44258)
(-7.06626 1.3192 0.56813)
(-6.88724 0.677517 5.90585)
(-2.53628 0.220991 7.68538)
(-3.22615 -0.0872929 8.6837)
(-8.19567 0.533542 3.68676)
(-7.24273 -0.421197 -0.759475)
(-2.53982 1.29861 4.45428)
(-4.32208 1.16695 6.91711)
(-1.19121 0.186851 6.3239)
(-0.195978 -1.27809 3.4443)
(-7.51139 0.485122 4.75904)
(-7.67427 0.533778 1.59226)
(-4.02121 1.61383 3.24326)
(-0.351817 1.40174 1.92592)
(1.85676 0.874598 -1.48063)
(2.77064 -0.561841 -4.23497)
(-1.37911 0.106011 1.96221)
(1.58566 0.848133 -3.09497)
(3.44202 1.92782 -4.79146)
(3.6892 1.967 -4.58756)
(3.54827 1.25598 -4.28495)
(3.58172 -0.0998194 -4.16659)
(2.76878 -0.777955 -3.26995)
(0.502258 -0.217384 -2.10645)
(0.205247 -0.363511 -1.76315)
(1.02617 0.246666 2.84376)
(0.693257 1.44098 0.24923)
(0.294159 1.02049 -4.06285)
(0.197249 0.373334 -3.5007)
(-1.05344 -0.413057 -1.00929)
(-0.578253 -0.0884637 -2.2467)
(-0.858821 0.290127 -0.0613855)
(-0.399602 1.11649 -1.28334)
(0.138829 0.841947 -3.13756)
(-0.358168 0.372389 -3.00186)
(-2.91128 -0.675759 0.182557)
(-2.52971 0.259501 -0.382578)
(-2.37795 -0.181416 0.371171)
(-1.64961 0.727157 -1.58206)
(-1.17747 0.22691 -2.39208)
(-2.14848 0.436135 -0.9931)
(-3.15257 -0.694308 2.65894)
(-4.49539 0.833678 0.443115)
(-3.64489 0.273803 -4.13939)
(-2.56632 0.940984 -5.13072)
(-3.34613 -0.28447 -2.29004)
(-3.8064 0.465494 2.77097)
(-2.91795 -0.778825 5.33367)
(-4.31539 1.25625 -3.32328)
(-2.14768 0.584439 -8.7189)
(-0.519235 1.70907 -9.59455)
(-3.36222 0.466262 -6.24072)
(-4.28525 0.758158 3.24421)
(-3.63784 -0.332779 4.66881)
(-3.74394 -0.45473 -5.90666)
(-3.26798 -0.449295 -5.83083)
(-3.39491 1.02167 -4.95752)
(-3.15365 1.58813 -6.26505)
(-3.29044 0.959324 -1.36487)
(-3.49258 -0.477986 1.43775)
(-5.06125 -1.38145 -3.24469)
(-5.75895 -0.86018 0.557053)
(-5.73384 -0.000305743 0.717836)
(-5.05651 0.93861 -1.11941)
(-4.47505 0.92041 -1.03364)
(-4.57961 -1.16167 -1.58129)
(-6.36162 -1.96193 -0.985899)
(-6.35224 -1.54525 4.52453)
(-5.72859 -0.708563 5.86578)
(-5.22961 0.581425 3.83634)
(-5.86776 0.854118 0.499524)
(-6.09598 -1.26301 -1.6669)
(-7.1665 -1.49088 1.66424)
(-5.78789 -2.14271 9.18429)
(-4.001 -1.55132 9.51817)
(-6.01087 -0.633584 8.00532)
(-7.16472 0.630728 2.17645)
(-6.49663 -0.877629 -0.555062)
(-6.70861 -0.503617 3.69564)
(-4.71031 -0.763735 9.6318)
(-2.10542 -1.77249 7.87238)
(-3.80535 -1.9024 6.42927)
(-6.25916 0.295622 5.81392)
(-7.52622 0.274036 2.04922)
(-8.96836 1.72299 5.08953)
(-6.64701 2.30876 6.05545)
(-4.67069 0.708877 4.25453)
(1.03174 -0.428514 -1.95895)
(-5.50851 -0.914168 6.31093)
(2.93037 0.431815 -2.85992)
(3.18513 1.15232 -3.1504)
(3.36218 1.3682 -3.24969)
(3.54263 1.35616 -3.478)
(3.75348 0.140377 -3.90994)
(3.22092 -0.635437 -3.50526)
(-1.98834 -0.012531 -0.998108)
(-2.18723 0.173659 -0.796046)
(-1.96351 -0.121964 -0.623616)
(-2.07802 -0.0551818 -0.846167)
(-2.12722 -0.121173 -1.16475)
(-2.01948 0.0349258 -0.361812)
(-2.01216 -0.197579 -1.31731)
(-1.91266 -0.0882288 -0.640184)
(-1.68708 -0.00297522 -0.252581)
(-1.99107 0.274584 -1.06123)
(-2.17119 -0.0613143 -1.45003)
(-1.81308 -0.00782253 -0.55225)
(-1.77825 -0.262363 1.24787)
(-1.66586 -0.241417 0.0988515)
(-1.44871 0.189928 -0.469306)
(-1.71749 0.510216 0.999077)
(-1.88731 0.0820503 1.0898)
(-1.7399 0.00475857 1.16579)
(-0.470567 0.0304724 -4.24336)
(-0.547066 -0.0196044 -4.32469)
(-0.747035 -0.0390813 -4.18896)
(-0.452373 0.0557843 -4.1645)
(-0.424748 -0.069644 -4.49768)
(-1.12281 -0.12121 -3.83877)
(-0.279547 0.0119893 -4.84985)
(-0.187766 -0.0437436 -4.83082)
(-0.186108 -0.0252869 -4.78447)
(-0.277294 0.06468 -4.83831)
(-0.300155 -0.0323367 -5.03937)
(-0.375266 -0.112842 -4.58013)
(-0.173887 -0.00474707 -5.19137)
(-0.163304 -0.0243647 -5.14404)
(-0.150485 0.0025599 -5.09614)
(-0.194058 0.0441593 -5.17434)
(-0.182102 -0.0145661 -5.26066)
(-0.182793 -0.0506474 -5.11745)
(-1.56518 0.0366898 -3.97084)
(-1.56895 0.0442731 -4.23147)
(-1.5365 -0.0248195 -4.17965)
(-1.57139 -0.0314028 -4.09887)
(-1.61659 0.0023627 -4.12062)
(-1.60314 0.00504254 -4.20195)
(-1.10611 0.0289347 -3.53415)
(-1.09396 0.0225407 -3.59929)
(-1.06841 0.0136533 -3.57717)
(-1.09129 0.0273514 -3.57538)
(-1.13178 0.0298632 -3.57517)
(-1.01047 0.0230905 -3.55843)
(-0.651223 0.00574229 -3.78723)
(-0.639755 -0.0013383 -3.80688)
(-0.629638 0.00180733 -3.81162)
(-0.644939 0.00567854 -3.79992)
(-0.669798 -0.00683845 -3.79995)
(-0.645109 -0.00679291 -3.81557)
(-1.90342 -0.00100072 -4.10907)
(-1.91419 -0.0345427 -4.24713)
(-1.91902 -0.0224718 -4.20362)
(-1.91636 0.00314549 -4.18098)
(-1.93539 -0.111077 -4.28471)
(-1.96139 -0.11856 -4.1051)
(-0.753053 0.0166775 -2.98935)
(-0.760459 0.00322075 -2.98616)
(-0.767437 -0.00894091 -2.95827)
(-0.764096 0.0145187 -2.97841)
(-0.766962 -0.0200509 -2.99769)
(-0.773219 -0.0276485 -2.87701)
(-0.354317 -0.00291558 -3.45856)
(-0.357709 -0.00811656 -3.46788)
(-0.35714 -0.00304946 -3.4642)
(-0.360192 0.00120403 -3.45641)
(-0.360424 -0.0131462 -3.47164)
(-0.367295 -0.0133457 -3.43425)
(-2.2051 -0.0129713 -3.59443)
(-2.20369 -0.0353107 -3.68214)
(-2.18522 -0.0117025 -3.62951)
(-2.2188 -0.00314673 -3.65084)
(-2.24259 -0.0827253 -3.72868)
(-2.15852 -0.0953282 -3.53064)
(-0.851132 0.0121708 -1.96671)
(-0.864395 -0.000164791 -1.97848)
(-0.869867 -0.00408932 -1.96018)
(-0.851749 0.00134516 -1.96172)
(-0.86668 -0.0147944 -1.97395)
(-0.861858 -0.00946192 -1.8938)
(-0.326125 0.000909351 -2.7567)
(-0.323267 -0.0028912 -2.77798)
(-0.323518 -0.00285522 -2.77199)
(-0.323191 -0.00120261 -2.7636)
(-0.323541 -0.0106009 -2.76125)
(-0.319032 -0.00831358 -2.75891)
(-1.0915 -0.0209173 -2.39842)
(-1.07288 -0.0310813 -2.46301)
(-1.02146 -0.012735 -2.39594)
(-1.14114 -0.0220548 -2.51086)
(-1.22556 -0.00347233 -2.58965)
(-0.984989 -0.0108009 -2.34555)
(-0.268675 -0.00603136 -1.28543)
(-0.290244 -0.0207374 -1.30741)
(-0.281307 -0.00457751 -1.28526)
(-0.291439 -0.0151664 -1.30729)
(-0.337567 -0.024215 -1.33504)
(-0.277896 -0.00900476 -1.234)
(-0.0883806 0.00549721 -2.41177)
(-0.0779067 -0.00133303 -2.43162)
(-0.0814815 -0.00413931 -2.4113)
(-0.0726939 0.00354269 -2.42114)
(-0.0853791 -0.00110776 -2.42186)
(-0.0725768 -0.00389788 -2.38662)
(1.32376 0.0115409 -2.14907)
(1.19751 0.0294443 -2.2218)
(1.32 -0.0125035 -2.13007)
(1.09472 0.00533675 -2.28247)
(0.904068 0.0499067 -2.16824)
(1.34052 0.0194517 -2.14258)
(0.926155 -0.0129515 -1.72909)
(0.725845 -0.0296916 -1.7656)
(0.79544 0.00656577 -1.70328)
(0.75889 -0.041038 -1.76488)
(0.64879 -0.0215248 -1.69973)
(0.668078 0.00244895 -1.66592)
(-0.0128853 0.0266184 -2.84318)
(0.0287046 0.0102282 -2.87555)
(-0.00921311 0.00250823 -2.81934)
(-0.0304893 -0.0112421 -2.85846)
(-0.0230837 0.00021784 -2.82026)
(0.0367841 0.0169625 -2.74604)
(3.47127 -0.476295 -2.81543)
(3.64385 -0.226776 -3.86843)
(3.74615 0.140858 -3.68708)
(3.32839 0.194308 -3.06585)
(3.44276 -0.506701 -3.52531)
(3.74498 -0.314334 -3.36646)
(2.45081 -0.482406 -2.09535)
(2.30465 -0.304977 -3.44171)
(2.46208 0.131521 -3.32318)
(2.32395 0.128032 -2.55409)
(2.35028 -0.515258 -2.59761)
(2.31492 -0.301878 -3.20686)
(0.17988 0.0548526 -1.62354)
(0.376812 0.00550294 -3.85628)
(0.354239 -0.113885 -3.6284)
(0.32989 0.0258714 -2.67518)
(0.232807 0.0772847 -2.37443)
(0.360759 0.101571 -3.82411)
(5.34438 -0.553965 0.811598)
(2.74698 -0.294672 0.0462888)
(3.69685 -0.191291 0.172122)
(4.73215 0.0174581 0.40212)
(4.28943 -0.492887 -0.215667)
(3.06916 -0.08681 0.5054)
(2.60628 -1.05411 0.477374)
(-0.226733 -0.319542 -1.94165)
(0.695664 0.38317 -1.1375)
(2.56748 0.0455489 -0.708562)
(1.39372 -1.34663 -1.16837)
(-0.236341 -0.757129 -1.78762)
(-2.13519 -0.761682 6.01857)
(-0.459241 -0.0633825 -2.60098)
(-1.51534 0.119371 1.03944)
(-1.85148 0.254228 4.72122)
(-1.94574 -0.884418 3.84953)
(-0.216411 -0.23927 -2.93381)
(8.83082 0.059999 5.98999)
(8.59744 0.174067 5.55597)
(8.44335 -0.204574 5.77015)
(8.8736 0.0834299 5.77274)
(8.61601 0.0182639 5.76734)
(8.47324 0.172029 5.46597)
(3.42853 0.0234779 8.24613)
(3.65815 0.213214 7.59273)
(3.36879 -0.220498 7.81974)
(3.54447 0.148976 7.67071)
(2.95559 0.0865307 7.77164)
(3.42864 0.221796 7.57294)
(-2.90633 -0.372632 11.7526)
(-1.21613 -0.0191094 11.3484)
(-1.83671 0.0675528 11.369)
(-2.54416 0.155813 11.3082)
(-2.86211 -0.260456 11.7093)
(-1.27603 -0.095472 11.1428)
(-2.97132 0.129244 5.57948)
(-2.8583 0.123523 9.38777)
(-3.10821 -0.0934133 8.26382)
(-2.80695 0.108009 6.38101)
(-2.86359 0.121797 6.55381)
(-3.21985 0.0257005 9.17732)
(-5.98402 -0.0935542 6.89819)
(-6.76434 -0.0295222 9.86663)
(-6.56587 -0.0236576 8.44047)
(-6.02228 0.115758 7.10227)
(-6.31485 -0.0131519 7.38242)
(-6.56849 -0.215782 9.143)
(-5.03657 -0.350418 7.11115)
(-6.27773 -0.153186 9.10627)
(-5.84849 0.156353 7.84669)
(-5.25647 0.106926 7.13909)
(-5.72669 -0.250551 7.50077)
(-5.62387 -0.354056 8.43852)
(2.24742 -0.089947 7.35838)
(2.95349 0.030618 7.45196)
(2.39146 -0.0582256 7.31874)
(2.67269 0.0352279 7.59922)
(3.07643 -0.0875955 7.53789)
(2.28748 0.0571598 7.47942)
(0.48407 0.059353 4.74311)
(0.840655 0.0688222 6.19737)
(0.759032 -0.120841 5.33033)
(0.738545 -0.167328 5.1441)
(0.872393 0.121615 5.2273)
(0.643697 0.0457187 5.53305)
(-0.0324388 0.0195055 -0.74624)
(0.281166 0.0133707 -0.856184)
(0.219842 0.0022565 -1.00016)
(0.0995546 -0.0293672 -0.718504)
(0.128055 0.0590248 -1.11103)
(0.103315 0.0234107 -0.643816)
(1.87363 0.0349214 -0.174408)
(1.94456 0.0870818 -0.297137)
(1.93055 0.0592251 -0.373597)
(2.08931 -0.0351223 -0.301207)
(2.30661 -0.137285 -0.199067)
(2.1241 -0.0956484 -0.159734)
(-0.757988 0.0681655 -3.02871)
(-0.527138 0.490074 -3.04673)
(-0.227724 0.409585 -3.29211)
(-0.346674 -0.00412771 -3.05167)
(-1.27949 -0.04273 -3.17281)
(-1.67889 0.00956797 -3.42087)
(-1.14921 -0.0883711 0.0690179)
(-1.07699 -0.0968735 -0.212671)
(-1.51644 -0.0445291 0.626509)
(-2.37447 0.0243411 1.40645)
(-2.30883 0.172063 1.07418)
(-2.00613 0.158296 0.968788)
(0.444642 0.0110721 -0.269146)
(0.454174 0.00202525 -0.270224)
(0.515567 0.00430908 -0.263519)
(0.528672 0.0135496 -0.29389)
(0.493473 -0.00466761 -0.313681)
(0.469626 -0.00581457 -0.303391)
(0.424221 0.0210261 -1.6251)
(0.654247 0.0461493 -1.60187)
(0.92182 -0.0698313 -1.6529)
(0.733741 -0.298757 -1.87314)
(0.247791 -0.343877 -2.15674)
(-0.014462 -0.134024 -1.98843)
(0.0513041 -0.0339469 0.547566)
(0.046603 -0.118765 0.461813)
(-0.102742 -0.210967 0.462331)
(-0.484444 -0.0635117 0.717988)
(-0.369087 0.0740185 0.957162)
(-0.280433 0.01628 1.06645)
(0.258289 0.00164096 0.029934)
(0.273831 0.00841666 0.030374)
(0.270352 0.0074596 0.0268611)
(0.271635 -0.00291589 0.0364857)
(0.270259 -0.00474783 0.036786)
(0.261573 -0.000451768 0.0255174)
(0.615646 0.0122943 -0.641426)
(0.64073 0.0300113 -0.663793)
(0.662622 -0.050021 -0.707643)
(0.593043 -0.161792 -0.727922)
(0.443593 -0.16084 -0.713363)
(0.35602 -0.0638363 -0.665129)
(-0.0760963 -0.0180544 0.393745)
(-0.083567 -0.07105 0.379476)
(-0.103717 -0.125716 0.424373)
(-0.158056 -0.0507784 0.50913)
(-0.152631 0.0279247 0.555078)
(-0.157074 0.00445365 0.585627)
(-0.190916 0.00169643 0.0398125)
(-0.178833 0.00315842 0.0388816)
(-0.183669 0.00267393 0.0362793)
(-0.186193 0.00224851 0.0384912)
(-0.192515 -0.000427817 0.0401621)
(-0.185736 -0.00101079 0.0297471)
(0.907332 -0.0390465 -0.569531)
(0.975211 -0.0693871 -0.578305)
(1.02092 -0.0411456 -0.571126)
(0.956521 -0.0325325 -0.568354)
(0.910342 -0.0433531 -0.569906)
(0.883908 -0.019725 -0.570111)
(0.387738 -0.00932287 0.53166)
(0.367666 -0.0165727 0.538042)
(0.340964 -0.0281437 0.566768)
(0.305141 -0.0164061 0.592571)
(0.315876 0.00622727 0.610599)
(0.299844 0.0014754 0.619705)
(-0.230797 -0.0147695 -0.142242)
(-0.220028 -0.00126194 -0.145118)
(-0.226193 0.0132537 -0.148573)
(-0.20985 0.00191373 -0.143596)
(-0.193031 -0.00414833 -0.141475)
(-0.230238 -0.0057783 -0.157897)
(1.14606 -0.0289107 0.107929)
(1.37224 -0.0545811 0.0392413)
(1.49488 0.00637441 0.069247)
(1.35272 -0.0165505 0.161816)
(1.26549 -0.00388897 0.188982)
(1.23018 -0.00882342 0.00730395)
(0.475473 0.00228223 1.47588)
(0.512914 -0.0132325 1.49862)
(0.512317 -0.0374997 1.53099)
(0.509323 -0.0175752 1.51136)
(0.50787 0.0370595 1.52585)
(0.477826 0.0301174 1.54078)
(-0.615869 -0.00666827 -0.440611)
(-0.625498 -0.00269843 -0.551778)
(-0.640594 -0.0133261 -0.50165)
(-0.577198 -0.0493452 -0.405162)
(-0.56939 0.0397186 -0.359656)
(-0.682995 0.0637755 -0.590323)
(2.22316 0.00456977 1.98235)
(2.35152 -0.0160507 2.37821)
(2.51115 -0.0391785 2.15997)
(2.29303 -0.154599 2.06263)
(2.24513 0.0837699 2.23469)
(2.29933 0.0572834 2.22042)
(0.776894 -0.0423017 0.802376)
(0.812608 -0.0347369 0.771613)
(0.83679 0.0152561 0.839836)
(0.829062 -0.020627 0.751313)
(0.807436 0.0194685 0.703266)
(0.767585 0.0198724 0.908055)
(0.358909 0.198006 -1.33019)
(-0.190286 -0.255244 -2.39431)
(-0.0343028 0.289305 -1.59455)
(-0.0942315 0.975942 -2.23678)
(-0.0942092 0.654386 -2.75647)
(0.064286 -0.0595626 -1.12434)
(0.0398716 0.219556 -1.47037)
(-0.169448 0.0300926 -2.38235)
(0.350517 0.0497464 -0.836351)
(-0.103019 -0.0402178 -1.54483)
(-0.180544 -0.0754997 -2.58001)
(-0.0712903 -0.293972 -2.1624)
(-0.126879 0.111631 -1.85138)
(-0.100807 -0.0283989 -2.0932)
(0.10766 -0.065847 -1.27627)
(-0.0979984 0.161135 -2.01526)
(-0.117846 0.0793646 -2.39301)
(-0.0957525 -0.0237938 -2.13946)
(-0.00899354 0.166749 -2.53884)
(-0.00376215 -0.0435882 -3.60463)
(-0.372275 0.130207 -3.69235)
(-0.389487 0.490477 -3.61943)
(-0.173717 0.386004 -3.61887)
(-0.262538 0.076178 -2.59364)
(0.0753456 0.127306 -2.4774)
(-0.0505603 0.211199 -2.73915)
(-0.22174 0.00896823 -2.39318)
(-0.245281 -0.0727461 -2.6482)
(-0.188052 -0.0679766 -3.12555)
(-0.00229256 -0.126034 -2.88953)
(-0.135995 0.0411004 -2.55022)
(-0.150721 0.049653 -2.65886)
(-0.136348 0.0179545 -2.75716)
(-0.12842 0.0754481 -2.80652)
(-0.132092 0.0300767 -2.83136)
(-0.0981222 -0.0298342 -2.65733)
(-0.90641 0.186792 -0.812104)
(-0.260448 0.341231 -3.47457)
(-0.410338 0.488593 -4.09524)
(-0.520689 0.578133 -3.75096)
(-0.270234 0.271138 -3.63904)
(-0.950618 0.0264103 -2.21582)
(0.614594 0.392707 -2.20378)
(0.449119 0.411814 -3.05845)
(0.176312 0.0941991 -2.5953)
(0.0416208 -0.0345234 -2.94274)
(0.212176 -0.0967942 -3.42334)
(0.405116 -0.134462 -2.81529)
(-0.0660158 0.110022 -2.30112)
(-0.177454 0.0462276 -2.53606)
(-0.102891 -0.0112049 -2.66684)
(-0.0931219 0.0773214 -2.86371)
(-0.0563735 -0.033306 -2.88461)
(0.0724643 -0.0613915 -2.73731)
(-1.866 0.353167 1.11125)
(-1.58668 1.31143 -2.57718)
(-1.31135 1.34586 -3.8777)
(-1.41713 0.561459 -3.37018)
(-1.77324 -0.395726 -2.78964)
(-3.09641 -0.264867 0.478467)
(0.366679 0.521211 -2.28265)
(0.343949 0.647118 -3.7041)
(0.0154434 0.130503 -3.5904)
(0.12405 -0.260803 -3.57369)
(0.416131 -0.429247 -3.86351)
(-0.0376035 -0.336886 -2.63138)
(0.00817824 0.130382 -2.18927)
(-0.084506 0.0799376 -2.53)
(-0.0315203 -0.0811062 -2.91621)
(0.0239259 -0.0659313 -3.16057)