/*--------------------------------*- C++ -*----------------------------------*\
| =========                 |                                                 |
| \\      /  F ield         | OpenFOAM: The Open Source CFD Toolbox           |
|  \\    /   O peration     | Version:  v1612+                                |
|   \\  /    A nd           | Web:      www.OpenFOAM.com                      |
|    \\/     M anipulation  |                                                 |
\*---------------------------------------------------------------------------*/
FoamFile
{
    version     2.0;
    format      ascii;
    class       surfaceScalarField;
    location    "6.7";
    object      alphaPhi;
}
// * * * * * * * * * * * * * * * * * * * * * * * * * * * * * * * * * * * * * //

dimensions      [0 3 -1 0 0 0 0];

internalField   nonuniform List<scalar> 
2916
(
-8.47137e-05
-0.217199
0.154978
1.6583e-05
-0.217352
0.154944
1.95649e-05
-0.217268
0.15496
-3.37497e-06
-0.217237
0.154955
3.79823e-05
-0.21729
0.154943
-0.217239
0.154971
-7.88022e-06
-0.361052
0.120805
1.1676e-05
-0.361218
0.120766
-1.48495e-05
-0.361103
0.120793
-1.2757e-05
-0.361102
0.120798
1.31896e-05
-0.361157
0.120768
-0.361098
0.120809
0.000134343
-0.511554
0.150393
-1.01089e-05
-0.511716
0.150667
-7.68176e-05
-0.511587
0.150577
-1.65775e-05
-0.511635
0.150498
-1.89191e-05
-0.511665
0.150536
-0.511583
0.150491
0.000129929
-0.756699
0.245041
1.09203e-06
-0.757025
0.245463
-3.97676e-05
-0.756824
0.245303
-7.5456e-06
-0.756897
0.245255
-6.59747e-05
-0.756977
0.245396
-0.756703
0.245079
-0.00027983
-0.882718
0.115346
4.6643e-05
-0.883462
0.11525
0.000235778
-0.883098
0.115223
3.12925e-05
-0.883122
0.115443
-0.000248262
-0.883255
0.115535
-0.882879
0.115102
-0.00071558
-0.880319
0.0282426
6.87898e-05
-0.882198
0.0280579
0.000598286
-0.881517
0.0280059
9.41535e-05
-0.881105
0.0283671
-0.000750004
-0.880936
0.0283732
-0.881465
0.0279821
-0.000660064
-0.803559
-0.0278883
1.65298e-05
-0.806543
-0.0280026
0.000710417
-0.805834
-0.028054
8.35939e-05
-0.804507
-0.0277849
-0.000935831
-0.803842
-0.0278522
-0.806046
-0.0280266
0.00111705
-0.700377
-0.0519592
-0.000124283
-0.701432
-0.0516114
-0.000764018
-0.701452
-0.0516119
-0.000162243
-0.700783
-0.051912
0.00173114
-0.700903
-0.052216
-0.70082
-0.0514557
0.0016654
-0.553997
-0.0894012
-0.00013868
-0.551415
-0.0893229
-0.00160676
-0.552242
-0.0891353
-0.000322886
-0.553579
-0.0896069
0.00253486
-0.555466
-0.089367
-0.550154
-0.0894817
-0.00128893
-0.333341
-0.150887
0.00025023
-0.330871
-0.153255
0.00103003
-0.332157
-0.152278
-0.000104818
-0.332159
-0.151606
-0.00362359
-0.334089
-0.1493
-0.330861
-0.154399
0.00120501
-0.108028
-0.159294
-0.000181747
-0.108393
-0.153752
-0.00146571
-0.108618
-0.155082
3.24983e-05
-0.107699
-0.158662
0.00386256
-0.107756
-0.162687
-0.109883
-0.149952
0.00431294
-0.0474081
-0.000827518
-0.0381934
-0.0050191
-0.0394861
-0.00121527
-0.0465219
0.00999347
-0.0524012
-0.033336
-0.000155479
-0.363167
0.505711
5.98329e-06
-0.363329
0.505528
1.911e-05
-0.36323
0.505589
-1.16786e-06
-0.36325
0.505626
7.82575e-05
-0.363294
0.505555
-0.3632
0.505657
6.12964e-05
-0.455565
0.189491
-1.23448e-05
-0.455715
0.189548
-3.75619e-05
-0.455625
0.18955
-6.46943e-06
-0.455668
0.189525
7.25563e-06
-0.455728
0.18952
-0.455593
0.189551
0.000251384
-0.226454
-0.00904444
-3.77831e-05
-0.226513
-0.00864241
-0.000134601
-0.226475
-0.00877871
1.71623e-05
-0.226552
-0.00892695
6.52307e-05
-0.226634
-0.00883238
-0.226418
-0.00885977
-0.000109777
-0.0619598
0.00368526
-2.95644e-05
-0.0624136
0.00372142
2.26423e-05
-0.0622477
0.00370438
2.01469e-05
-0.0621591
0.00369629
4.25958e-05
-0.062262
0.00370475
-0.0621034
0.00369425
0.000161119
0.0341821
-0.014055
-6.61451e-05
0.0338451
-0.0139363
-0.000173341
0.0340041
-0.0139864
-1.9987e-05
0.033993
-0.0140165
8.82026e-05
0.0339071
-0.0139921
0.0341526
-0.0140208
0.000228335
0.102334
-0.00338611
-5.44125e-05
0.102048
-0.0034155
-0.000185717
0.102092
-0.0034157
-4.97078e-05
0.102223
-0.00340119
0.000205093
0.102355
-0.00337277
0.102084
-0.00343697
-9.82774e-05
0.147692
-0.00220822
-3.62207e-05
0.148837
-0.00136856
9.2791e-05
0.14855
-0.00152556
0.000148559
0.147985
-0.00195431
-0.00020078
0.147316
-0.00261214
0.149036
-0.0011977
0.000308842
0.131627
-0.00254939
-6.26699e-05
0.133866
-0.00257211
-0.000684918
0.133489
-0.00265807
-0.000152255
0.131866
-0.00251597
0.00129384
0.130163
-0.00240503
0.134697
-0.00274302
-0.000824378
0.10072
-0.00802612
2.74408e-07
0.102349
-0.00802201
-0.000204945
0.102786
-0.00810882
-9.05822e-05
0.10015
-0.0079465
0.000715928
0.0979221
-0.00757577
0.104469
-0.00836125
-0.00323621
0.100526
-0.026432
0.000322497
0.0948813
-0.0276765
0.00303838
0.0966405
-0.027504
8.87059e-05
0.0992954
-0.0264929
-0.00679077
0.102832
-0.0261707
0.0918062
-0.0275212
-0.00141302
0.0909797
-0.0338047
0.000381649
0.074196
-0.0293407
0.00310881
0.0771815
-0.03074
0.000840411
0.0892828
-0.0328558
-0.00348372
0.10181
-0.0363334
0.0667519
-0.0276855
0.00475884
-0.00707598
-0.000687767
0.00540056
-0.00476411
0.00114
-0.000950676
-0.00708353
0.00978612
-0.00722768
-0.00339498
7.38482e-05
-0.0242558
0.518882
4.29047e-07
-0.0242843
0.51888
-1.8122e-05
-0.0242757
0.51887
-1.27043e-05
-0.0242894
0.518889
-1.82257e-05
-0.0242976
0.518837
-0.0242695
0.518894
0.000189194
0.120073
-0.067127
6.72473e-06
0.12027
-0.067162
-0.000126091
0.120216
-0.067166
2.36656e-06
0.120114
-0.0671343
0.000153426
0.120107
-0.067114
0.120224
-0.0671796
0.000128596
0.0462198
-4.99498e-08
-1.69755e-06
0.0462385
-4.71865e-08
-5.80957e-05
0.046224
-4.35795e-08
-3.01586e-06
0.0462266
-5.07662e-08
6.89826e-05
0.0462117
-5.7846e-08
0.0462417
-3.56071e-08
-1.96484e-05
0.0177331
-4.83093e-07
-1.26038e-05
0.0175675
-4.24927e-07
1.64549e-05
0.0176392
-4.06039e-07
-3.75127e-06
0.0176804
-4.68194e-07
-2.64915e-05
0.017652
-5.51698e-07
0.0176797
-3.38642e-07
2.20942e-05
0.0036784
-2.32828e-05
-3.30446e-06
0.00367413
-1.82093e-05
-6.16189e-06
0.00367279
-1.78357e-05
-2.96045e-06
0.00368104
-2.12839e-05
1.09013e-06
0.00367984
-2.53434e-05
0.00367467
-1.49998e-05
8.48912e-06
0.000205772
1.53393e-05
-6.44872e-08
0.000213296
1.21332e-05
-3.29474e-06
0.0002083
1.18851e-05
-2.06232e-06
0.000208796
1.40884e-05
7.87629e-06
0.000205521
1.69116e-05
0.00020996
9.27695e-06
7.94941e-06
-0.00155725
-0.000700398
7.77429e-07
-0.000802644
-0.00057684
-4.38314e-06
-0.000974111
-0.000562879
-1.29881e-07
-0.00135624
-0.000638747
1.49802e-05
-0.00192066
-0.000725338
-0.0006555
-0.000494118
-0.000137146
-0.00779722
-0.0030337
3.6525e-05
-0.00695882
-0.00304832
4.91294e-05
-0.00694173
-0.00306108
6.62547e-05
-0.0078989
-0.00298668
1.14618e-05
-0.00937087
-0.00286438
-0.00609293
-0.00308094
-0.000653375
-0.0277248
-0.00175366
7.23624e-05
-0.0274706
-0.00156899
0.000486423
-0.0274892
-0.00149272
6.84388e-05
-0.0277904
-0.00178538
-0.000907805
-0.0285536
-0.00243297
-0.0269993
-0.00099331
-0.000321354
-0.0198468
-0.016501
4.2043e-05
-0.0224273
-0.0166843
0.000529199
-0.021784
-0.0169538
0.000115933
-0.0202383
-0.0162342
-0.00125668
-0.0189054
-0.0158692
-0.0231035
-0.0171577
-0.000238347
-0.00583507
-0.0297734
0.000158899
-0.00747485
-0.0295071
0.000620495
-0.00716457
-0.02976
0.000328853
-0.00610425
-0.0295101
-0.000813087
-0.00520169
-0.0301488
-0.00753156
-0.0295942
0.000770302
-0.00505503
-7.03044e-05
-0.00608339
-0.00064209
-0.00573711
-0.000193645
-0.00520669
0.000970156
-0.00425287
-0.00638577
0.000154109
0.0668497
0.387483
7.87374e-06
0.066889
0.387782
-3.49631e-05
0.0668894
0.387663
-4.36948e-06
0.0668574
0.387628
-9.85345e-06
0.0668418
0.387639
0.0669
0.387622
-8.82948e-07
-2.14873e-08
-0.000276464
9.23333e-07
-2.12508e-08
-0.000274822
5.81788e-07
-2.10555e-08
-0.00027629
-3.47284e-07
-2.09199e-08
-0.000276004
3.78126e-06
-2.10795e-08
-0.00027635
-2.02767e-08
-0.000275904
-1.02065e-09
-1.09276e-08
-8.90518e-08
6.92783e-11
-1.39461e-08
-8.5176e-08
4.08893e-10
-1.23868e-08
-8.24773e-08
6.24872e-11
-1.1808e-08
-8.96204e-08
-3.10503e-10
-1.24298e-08
-9.61087e-08
-1.14452e-08
-7.47352e-08
4.86185e-10
1.44483e-09
-5.25004e-07
-3.82038e-10
-5.16592e-08
-4.1591e-07
-3.12316e-10
-2.60009e-08
-4.22089e-07
-2.31109e-10
-1.02727e-08
-4.997e-07
-4.96711e-10
-1.02036e-08
-5.83747e-07
-2.08134e-08
-3.59756e-07
6.80901e-08
-2.33676e-05
-1.38917e-08
-2.70209e-09
-1.79929e-05
-2.27563e-07
-1.70154e-08
-1.77833e-05
-9.48722e-08
-8.53382e-09
-2.12146e-05
-1.17655e-07
1.32459e-08
-2.52087e-05
-1.9973e-07
-1.49962e-05
-4.03408e-08
3.06761e-06
-9.87131e-05
8.70193e-05
4.25953e-08
-7.10062e-05
6.76172e-05
-1.17921e-06
-7.21463e-05
6.70336e-05
-2.97731e-07
-8.84689e-05
7.97992e-05
3.11503e-06
-0.000113184
0.000100407
-5.93846e-05
5.60456e-05
9.89768e-07
-0.00564755
0.00229551
6.56579e-08
-0.00423842
0.00176054
-6.36735e-06
-0.00407103
0.00171852
1.7903e-06
-0.0050758
0.00200286
3.23684e-05
-0.00625237
0.00234698
-0.00311849
0.00145627
-0.000344423
-0.0173923
0.00385982
-1.87617e-05
-0.0167909
0.00412391
0.000232766
-0.0166892
0.00413547
5.67437e-05
-0.0176273
0.00394535
-0.0004769
-0.0186923
0.00370044
-0.0160244
0.00436552
-5.02041e-05
-0.00577391
-4.0488e-05
-2.74398e-05
-0.00562313
-3.95929e-05
8.1128e-05
-0.00573629
-3.94753e-05
-9.18602e-06
-0.00567812
-4.01407e-05
-0.00016053
-0.00548305
-4.11805e-05
-0.00586013
-3.90571e-05
2.92345e-05
-0.00187716
-0.000740984
-8.89061e-06
-0.00189774
-0.000729293
-2.08906e-05
-0.00194536
-0.000740507
-9.93353e-06
-0.00190167
-0.000727632
2.96392e-05
-0.00186254
-0.000724681
-0.00214834
-0.000746777
-8.06596e-05
-0.029568
-0.00557382
-3.23711e-06
-0.0272755
-0.00552151
7.82734e-05
-0.0265898
-0.00555748
-2.21202e-06
-0.0278463
-0.00553523
-0.000132391
-0.0263754
-0.00573153
-0.0263322
-0.0055132
0.000237214
-0.0311026
-8.76233e-05
-0.0340897
-0.000179629
-0.0345507
-3.5608e-05
-0.0325405
0.000340566
-0.0337988
-0.0345696
-0.0556524
-0.0268621
0.0825146
-0.000791755
-0.129116
0.0742727
-0.0337603
-0.0506931
0.0836707
-0.0086009
-0.110889
0.085722
0.069006
-0.156167
0.0785526
-0.0118352
0.0808334
-0.0163698
-0.114084
0.103581
-0.00212537
-0.218814
0.0755152
0.0160138
-0.159377
0.0905619
0.0102562
-0.18984
0.0847176
0.00334733
-0.237436
0.0881703
-0.10396
0.0954642
0.0148116
-0.223865
0.0409877
-0.0166494
-0.119388
0.0341568
-0.00764359
-0.177183
0.0351924
-0.0299603
-0.163315
0.0382633
-0.0520082
-0.264252
0.0488823
-0.217174
0.0611981
0.0121549
-0.230006
0.0134042
-0.0100638
-0.0388566
0.0108903
-0.000636439
-0.124941
0.01161
-0.0104779
-0.0942856
0.017851
-0.0421097
-0.212027
0.0179658
-0.271563
0.012299
-0.00237301
-0.153779
0.00642354
-0.00794589
-0.235921
0.00991717
-0.00068322
-0.262612
0.0038157
-0.00216578
-0.221866
0.0111838
-0.0125389
-0.202242
0.00862706
-0.260359
-0.000478985
-0.0136174
-0.158177
0.00480403
-0.0025304
-0.230772
-0.000404362
-0.00103537
-0.246765
-0.00204502
0.00790526
-0.215155
-6.81309e-05
-0.00289518
-0.218759
-9.86386e-05
-0.247799
-1.96668e-05
-0.0053884
-0.193429
-0.000879093
0.00710217
-0.227452
-4.73095e-06
-0.000350199
-0.223962
-3.43421e-06
0.00995598
-0.209631
-4.45038e-07
0.00498196
-0.197846
-3.17241e-06
-0.226593
-6.77998e-07
0.00599388
-0.187208
-3.13072e-05
0.00450831
-0.204248
-5.71243e-05
-0.0038845
-0.193925
-8.82974e-06
0.00582172
-0.159548
-1.55203e-06
0.0102702
-0.167597
-3.96017e-05
-0.131988
-0.000957806
-0.00139141
-0.172598
-0.00158744
-0.0110079
-0.178938
-0.00170924
-0.00723349
-0.163615
-0.000467877
0.00697967
-0.148119
-0.00151261
0.0115488
-0.151404
-0.00201506
-0.0811612
0.00700988
-0.023534
-0.137335
-9.23075e-05
-0.021022
-0.159621
-0.0101926
9.74729e-05
-0.146211
-0.00965741
0.0199902
-0.134788
-0.0238281
0.0155473
-0.116027
-0.0224328
-0.11419
-0.00125208
-0.0286007
-0.0200674
-0.0841943
-0.0190994
-0.0410373
-0.108794
0.0208993
-0.0714725
-0.0867473
0.0363899
-0.0429651
-0.0990306
0.00508945
-0.0128169
-0.0641384
-0.0205327
-0.1405
-0.0145469
-0.00943236
-0.0120494
-0.0470551
0.0279819
-0.162465
0.0213271
-0.0683255
0.014816
0.00146586
-0.0204881
-0.0496323
-0.0250847
0.157221
-0.0129433
-0.115062
0.161358
-0.037766
-0.0595666
0.168078
-0.0155415
-0.133911
0.101337
0.0556778
-0.173562
0.122982
-0.0107794
0.147282
0.0078594
-0.0526469
0.0694786
-0.0011816
-0.0546095
-0.00141867
0.00740809
-0.0505681
0.0393737
-0.00509681
-0.0585891
0.00066731
-0.0291658
-0.0681399
0.00529419
-0.0567998
0.0677618
0.000567099
-0.0121957
0.00376953
-0.000458608
-0.0203017
0.000471282
-0.000816164
-0.013318
0.00302674
-0.000343074
-0.0208245
0.0002358
-0.0013888
-0.0194712
0.000333279
-0.0145815
0.00464271
-0.000691432
-0.00074305
-5.50855e-06
0.000249914
-0.00975103
1.97108e-05
0.000173117
-0.00487629
-4.83133e-06
0.00195043
-0.00867344
-2.35269e-05
0.00230532
-0.00569691
-4.68183e-05
2.08477e-06
-2.08282e-06
0.000276636
5.95155e-06
-7.2406e-08
9.52657e-05
6.63932e-05
-1.52334e-05
0.000305787
-0.000662361
-1.50189e-07
0.00085134
6.62038e-05
-3.83445e-07
0.000497652
0.000103509
-7.75212e-07
2.07893e-05
-3.7906e-08
0.000151514
0.000910712
-1.00383e-08
-0.000191044
4.81148e-06
-2.50944e-07
-2.79756e-08
3.4055e-06
-2.48281e-09
-1.97229e-06
2.66254e-08
-1.20985e-08
-3.38075e-07
3.24468e-06
-9.90467e-09
7.84145e-07
-4.15579e-11
-5.51869e-08
3.16996e-05
-2.79768e-08
-1.20383e-09
3.23219e-08
-1.21389e-09
-1.4892e-08
-2.00044e-08
3.61135e-10
-1.40033e-07
8.36705e-09
-2.97526e-07
-2.73542e-08
7.14557e-08
-9.13848e-08
5.24923e-10
-1.56687e-09
3.03939e-08
3.95804e-07
-3.18255e-08
-1.14021e-08
-5.64987e-05
-3.72319e-07
-3.88376e-08
-8.75991e-06
-5.50145e-08
-1.26893e-06
-2.99489e-07
-1.35175e-08
-3.51442e-05
-5.78444e-06
-1.35514e-08
-0.000980911
-1.21302e-05
2.80956e-05
-0.00161531
-2.90351e-08
-7.76972e-07
-0.00172514
-8.23839e-06
-4.32959e-05
-0.000431728
-1.4611e-06
-4.98818e-05
-0.00150555
1.96372e-07
-0.000389205
-0.00167799
-3.8458e-06
-0.000860005
1.44703e-05
0.000477133
-0.00230707
7.8472e-06
-9.78005e-05
-0.0106122
5.71178e-06
-0.00173328
-0.00845911
3.33567e-06
-0.000897571
-0.0256801
-7.16076e-06
0.000633741
-0.0253863
-0.000216554
0.00176368
2.57399e-06
0.00895427
-0.0906195
-0.00982423
0.00236274
-0.0864568
-5.1763e-05
-0.0154115
-0.0543072
-0.000134499
-0.014799
-0.0578183
-0.0100701
0.00434691
-0.0457871
-0.0344966
-0.0725517
-0.00750218
0.0246078
-0.0537217
0.0313688
-0.0616062
-0.00502689
-0.074421
-0.0247462
-0.0973511
-0.03121
-0.0299255
-0.115249
-0.0127816
0.00334817
0.152127
-0.0540179
0.00761827
0.195165
-0.0289973
-0.0121732
0.173692
-0.00787755
0.00247473
0.105059
0.0110966
-0.00853819
0.097554
-0.000640834
0.157118
0.0048306
-0.00377442
0.00824131
3.34168e-06
-0.000390542
0.00140622
0.00209421
-0.0030049
0.00368863
-0.000169063
-0.000125324
3.90444e-05
-0.0197911
-0.000275753
0.00431911
-0.00448025
0.00589584
-6.42645e-05
-6.96038e-08
5.90773e-05
9.84652e-06
6.42029e-06
-1.52653e-07
-3.97418e-05
-2.09149e-07
7.10709e-05
4.75425e-05
2.38196e-05
-7.92643e-07
5.80275e-05
4.71478e-05
-1.41943e-07
-6.72953e-09
0.000220491
-5.54181e-06
7.23835e-08
-1.14687e-07
5.0678e-06
1.55349e-05
-5.87496e-09
-1.01397e-08
8.73462e-08
-6.45886e-08
1.93443e-07
3.85409e-07
-3.10825e-07
5.62148e-07
7.74169e-07
-8.38318e-07
2.36797e-08
-1.55213e-06
1.61762e-10
4.2456e-10
-1.08373e-09
6.56164e-08
2.38923e-07
-2.92461e-09
1.48883e-09
2.07123e-09
-7.84178e-10
4.35323e-09
2.95683e-09
-3.18628e-09
6.5749e-09
6.75881e-09
-1.05471e-08
3.27762e-10
-8.29603e-09
-7.45071e-10
1.40691e-10
-1.06054e-08
-3.29555e-11
1.93254e-09
-1.51789e-08
1.67057e-11
5.40577e-11
-1.02233e-09
-9.5475e-12
2.75615e-10
-1.28706e-08
-3.68564e-12
-1.56764e-09
-1.90076e-09
1.6361e-12
-3.57815e-11
-2.99102e-08
1.61766e-10
-2.92197e-10
2.30951e-09
-9.20437e-09
9.92169e-08
5.21792e-10
-3.90602e-09
1.00372e-09
9.45091e-08
4.39318e-08
-3.1155e-09
-6.85348e-09
4.46843e-09
-4.44244e-09
-1.85008e-08
8.6235e-09
-2.57602e-08
-1.07522e-08
3.93063e-09
7.22246e-10
-5.01457e-07
7.75294e-08
3.92006e-10
-7.758e-08
1.95291e-08
2.45772e-10
5.13369e-10
1.36991e-09
-4.26077e-07
3.28268e-08
-2.35862e-09
-1.26648e-05
2.82459e-08
2.29428e-07
-3.59654e-07
9.25844e-08
-4.9474e-08
-8.44069e-06
4.64725e-08
-1.08342e-07
-1.48147e-06
5.76063e-09
-2.13087e-08
6.69987e-08
5.29518e-08
-4.60749e-06
7.81354e-07
-2.05326e-10
-2.80334e-06
1.13678e-07
5.99759e-06
2.44489e-06
-1.21102e-06
-1.4962e-06
4.6733e-06
-4.91331e-07
-4.97879e-07
2.46336e-06
-8.44181e-07
-6.35804e-06
6.76984e-08
-7.75786e-07
-1.428e-06
-0.000142601
-7.85488e-05
1.90897e-06
-2.89911e-06
-3.268e-07
-0.00961772
-0.000204049
-2.09042e-06
6.76528e-06
-5.27328e-05
-0.000103282
7.26758e-06
-4.09542e-05
-0.00011881
-0.00867505
-0.00137875
0.000275073
-0.0136437
-0.0213927
-0.0065516
-0.000705652
0.00150793
-0.0232573
0.00204852
-0.0158681
0.000376537
-0.00541788
-0.00444729
-0.0162919
0.00520507
-0.0760094
-0.0251316
-0.00943666
0.0081903
0.150842
-0.0284279
0.00604938
0.208502
-0.0347086
0.00358269
0.177006
-0.0207152
0.00286132
0.166558
0.0103618
-0.00508428
0.111423
0.00530048
0.159427
-9.5121e-05
-5.64887e-05
0.00617982
-2.89804e-05
-4.88997e-07
0.00204758
8.53382e-05
-7.02627e-05
0.00379037
-7.7443e-06
-6.66751e-08
0.000929147
-0.00101998
-1.90469e-07
0.00024724
-0.00021647
0.00472421
5.8456e-07
1.14947e-07
1.91701e-06
8.96253e-10
2.0263e-09
-5.98295e-08
7.49146e-07
6.61668e-08
-6.13639e-09
1.57064e-08
-4.43517e-11
-8.89736e-09
6.52292e-09
-4.5604e-09
-2.78616e-07
-1.55154e-07
4.28235e-06
2.27239e-09
-1.08162e-10
-1.86932e-09
4.56609e-11
4.92119e-11
-1.67877e-09
1.17135e-09
5.81193e-10
-5.70084e-11
1.25492e-08
1.19673e-09
-2.25765e-08
1.05483e-07
1.01066e-08
-1.34318e-07
2.33456e-08
-1.06693e-06
1.26981e-11
-1.2076e-09
-1.39859e-12
4.31403e-12
-2.85416e-09
-1.20236e-11
4.16401e-12
-1.87776e-10
-1.47168e-11
6.69701e-13
-1.98581e-09
-2.67579e-13
2.94171e-12
-4.42504e-10
-3.45777e-13
-3.09205e-10
-3.24834e-12
1.17283e-09
-1.53176e-08
-7.11387e-10
3.48905e-10
-2.83233e-08
-4.22578e-10
-1.61702e-09
-1.45971e-10
-1.11229e-10
-1.25011e-09
-1.59698e-08
-3.82964e-11
-4.93981e-11
-5.12516e-09
-4.43128e-11
-6.96614e-10
-2.07203e-11
-1.30366e-08
-9.39306e-10
5.0478e-09
-4.49212e-10
-7.8164e-10
2.801e-09
-5.16824e-10
-1.60316e-10
7.58354e-11
6.93957e-09
2.02523e-10
2.57024e-11
-8.23254e-10
-2.00597e-09
-1.6679e-11
-6.48847e-09
2.436e-10
-5.08406e-10
1.88364e-10
7.85938e-11
8.59473e-11
-1.39322e-08
7.82224e-10
2.52236e-10
-4.43249e-09
6.36419e-10
1.29818e-10
1.72507e-11
1.01278e-10
9.40926e-10
1.14385e-09
-1.16444e-10
-1.2074e-09
4.7871e-11
-2.80328e-09
9.40153e-08
7.2648e-10
9.97557e-10
1.32812e-08
8.30098e-09
2.22886e-09
-1.7648e-08
1.44483e-09
2.03709e-10
7.15022e-08
-1.75746e-08
6.1542e-11
2.9267e-10
-4.20569e-10
1.41541e-07
-3.08133e-08
2.8374e-08
4.88839e-06
-6.05162e-06
-8.46587e-08
1.2407e-05
-1.27119e-05
-2.34169e-07
1.70216e-05
-1.74133e-05
-2.26369e-05
3.10192e-05
-9.30543e-06
8.0129e-06
-0.000102239
-7.75276e-06
1.12814e-05
-2.64895e-06
-3.77351e-06
6.44474e-05
-0.000262849
-5.87454e-06
0.000136296
-0.000230365
1.47117e-05
0.000107345
-0.000266468
0.000238515
-0.000452507
-0.000376166
0.00121552
-0.0110727
-0.00209971
0.00024742
-0.000253927
-6.72411e-05
-0.0231313
0.000353506
-0.0258456
0.00436738
-0.0270787
0.00557062
-0.0288401
-0.00162441
-0.0444223
-0.0269934
-0.000559798
0.203714
0.0421387
-0.000119581
0.203136
0.0421692
8.97916e-05
0.203211
0.0421631
2.16171e-05
0.203416
0.0421558
0.000112721
0.203304
0.0421707
0.203453
0.042146
-0.000494657
0.00333804
0.0150278
0.000109636
0.0032794
0.0151047
0.000104243
0.00332771
0.0150598
-1.16605e-05
0.00332558
0.0150582
0.000127519
0.00334611
0.0150618
0.00330843
0.0150494
-6.51631e-05
-0.00551835
7.53654e-06
-0.00552078
1.24921e-05
-0.00552081
3.74121e-06
-0.00552167
1.60521e-05
-0.00552305
-0.00551745
-7.05273e-05
0.0185453
-7.47085e-07
2.26556e-05
0.0185756
-6.96846e-07
3.55747e-05
0.0185818
-6.45394e-07
8.93742e-06
0.0185664
-7.81498e-07
-3.38913e-05
0.0186034
-9.15568e-07
0.0185539
-5.27739e-07
-0.00012516
0.0330042
-7.46193e-06
1.75514e-05
0.0329487
-7.28901e-06
3.48581e-05
0.0329899
-6.63925e-06
6.18486e-06
0.0329875
-8.11891e-06
3.3443e-06
0.0330153
-9.0759e-06
0.0329773
-5.48605e-06
-0.000109179
-2.97579e-05
7.78927e-06
-3.7808e-05
1.80164e-05
-3.14638e-05
7.62284e-06
-3.47535e-05
2.32952e-05
-4.16657e-05
-2.43051e-05
-1.60965e-09
-3.35889e-07
-5.27985e-07
8.30625e-11
-3.2123e-07
-4.92334e-07
2.69088e-10
-2.97571e-07
-4.60369e-07
8.42299e-11
-3.5991e-07
-5.41204e-07
6.59795e-11
-3.99742e-07
-6.42298e-07
-2.4895e-07
-3.83735e-07
-9.45668e-09
-6.59973e-07
-7.1492e-06
8.08788e-10
-7.90419e-07
-6.85699e-06
8.37645e-10
-6.80474e-07
-6.28174e-06
7.33709e-10
-7.50196e-07
-7.75196e-06
5.47392e-09
-8.92553e-07
-8.61567e-06
-5.31278e-07
-5.22323e-06
-3.41507e-08
-3.03837e-05
3.1331e-09
-3.86357e-05
1.37705e-09
-3.21425e-05
1.2022e-09
-3.55035e-05
2.50748e-08
-4.25821e-05
-2.48113e-05
1.32912e-08
-1.40564e-06
3.02518e-07
-1.77691e-09
-8.8003e-07
-4.47038e-08
-5.8309e-09
-9.95221e-07
8.47621e-08
-3.41838e-09
-1.27848e-06
2.03564e-07
3.59522e-10
-1.35897e-06
9.35963e-08
-9.10674e-07
1.37459e-07
-1.66097e-09
-3.68983e-06
-4.91678e-06
3.64555e-09
-2.98886e-07
-7.69871e-06
-2.77422e-08
-2.13635e-06
-5.95541e-06
-1.02027e-08
-2.21794e-06
-7.63242e-06
3.24398e-08
-1.55317e-06
-8.58264e-06
-2.51698e-06
-3.83797e-06
-2.87137e-07
-4.25584e-05
-8.04306e-08
-6.37274e-05
-6.53919e-08
-5.01983e-05
2.52009e-08
-7.67043e-05
6.73621e-07
-0.000119674
-2.66773e-05
8.02218e-07
1.93339e-05
-2.03362e-05
6.64081e-09
2.52241e-05
-2.50115e-05
-1.92366e-07
2.11103e-05
-2.12605e-05
-9.63926e-08
2.05759e-05
-2.09969e-05
2.64995e-07
2.39622e-05
-2.50413e-05
1.98535e-05
-1.97229e-05
5.57796e-06
0.000444606
-0.000286206
-4.64923e-08
0.000460184
-0.000440577
-8.66978e-07
0.000411268
-0.000397955
-2.91705e-07
0.000493176
-0.000367629
-4.12178e-07
0.000555223
-0.000386423
0.000302346
-0.000291416
3.17694e-05
-0.0026661
-2.69462e-06
-0.00270699
2.56244e-06
-0.0026192
-5.13747e-06
-0.00275828
-4.49297e-05
-0.00285034
-0.0024164
5.32944e-06
0.001298
-0.00178981
2.48636e-09
0.00109206
-0.00130122
-1.92377e-06
0.00109938
-0.0013173
5.48024e-08
0.00128766
-0.00160245
8.23641e-06
0.00146752
-0.00223595
0.000895412
-0.000930765
2.09458e-05
0.00318007
-0.00343038
7.0428e-07
0.00305925
-0.00331259
3.32101e-06
0.00305455
-0.00332739
7.47651e-06
0.00324276
-0.00365334
9.23218e-06
0.00334742
-0.00363448
0.00287918
-0.00373714
4.70586e-05
-0.00240827
1.44327e-06
-0.0025611
2.09207e-05
-0.0025856
-7.66636e-07
-0.00243544
-8.39143e-05
-0.00240003
-0.00269122
-7.98873e-05
0.00583596
-0.00827895
-1.10485e-05
0.00577683
-0.00795184
2.58996e-05
0.00561499
-0.00799654
6.70594e-06
0.00574026
-0.00815647
-4.04024e-05
0.00567805
-0.00820874
0.0060961
-0.0079463
-9.35277e-05
0.00175032
-0.00224771
-1.42734e-05
0.00185822
-0.00227849
4.6939e-05
0.00190075
-0.00216236
1.57238e-05
0.00169008
-0.00217904
-8.29354e-05
0.00167328
-0.00200006
0.00208433
-0.00229423
-2.52875e-06
-3.69046e-08
-1.02757e-06
-3.5595e-08
7.87857e-06
-3.55279e-08
2.40274e-07
-4.37469e-08
-3.00396e-05
-5.09276e-08
-3.62521e-08
-8.71877e-05
-0.00015936
-8.70853e-06
-1.53353e-05
-8.47495e-05
-8.36585e-06
3.30325e-05
-5.50383e-05
-8.32933e-06
-3.63244e-05
-0.000163245
-8.30809e-06
-0.000137112
-0.00032931
-7.92525e-06
-1.20222e-05
-8.78398e-06
-6.41893e-06
-1.0013e-08
-1.8975e-07
-3.07191e-06
-1.05677e-08
-1.91053e-07
-3.12925e-07
-1.09842e-08
-1.90797e-07
3.97639e-08
-1.18059e-08
-2.18829e-07
-1.26136e-05
-1.16223e-08
-2.43652e-07
-1.05182e-08
-1.89843e-07
-3.30026e-12
-4.69142e-08
-4.9925e-12
-4.61609e-08
-3.94159e-12
-4.65132e-08
1.80952e-12
-5.55586e-08
-2.88789e-11
-6.25191e-08
-4.67992e-08
-1.36519e-08
-1.19868e-08
-4.91788e-05
-4.09231e-09
-1.22994e-08
-4.79641e-05
1.6224e-09
-1.23252e-08
-4.78062e-05
-5.49608e-09
-1.32512e-08
-4.84355e-05
-3.24592e-08
-1.46739e-08
-4.90678e-05
-1.20747e-08
-4.78672e-05
1.29402e-11
-1.48403e-07
-5.72849e-08
-2.1042e-11
-1.50423e-07
-5.68339e-08
-1.64284e-10
-1.50012e-07
-5.70392e-08
-5.09426e-11
-1.78751e-07
-5.75594e-08
6.60565e-11
-2.0377e-07
-5.75343e-08
-1.48243e-07
-5.64708e-08
3.28397e-10
-5.06682e-07
-9.21145e-11
-5.08454e-07
-9.77859e-10
-5.0663e-07
-9.75938e-11
-5.1179e-07
1.30104e-09
-5.11652e-07
-5.0311e-07
-2.85539e-07
-4.71523e-06
-0.000785042
-2.97612e-08
-4.74279e-06
-0.000772649
-2.012e-07
-4.74765e-06
-0.000783272
-7.29583e-08
-4.74312e-06
-0.000771334
3.04086e-07
-4.76595e-06
-0.000769238
-4.7053e-06
-0.000789515
-8.11836e-10
-4.7717e-06
-6.28785e-16
-7.83835e-11
-4.80036e-06
-6.43577e-16
2.31451e-10
-4.805e-06
-6.88298e-16
-3.9763e-11
-4.80047e-06
-5.80459e-16
-8.10334e-10
-4.81891e-06
-5.59993e-16
-4.76258e-06
-6.81607e-16
1.97541e-09
-1.38869e-11
-1.00631e-09
-1.37782e-11
-3.31416e-09
-1.38074e-11
-3.24902e-10
-1.39985e-11
-5.46885e-09
-1.41933e-11
-1.3557e-11
1.66379e-06
-1.16007e-13
-0.00636053
8.55258e-07
-1.18274e-13
-0.00629335
-2.46468e-06
-1.26249e-13
-0.00633743
6.69655e-07
-1.0757e-13
-0.0063097
1.66047e-06
-1.04149e-13
-0.00650176
-1.25401e-13
-0.00630105
-1.04979e-17
-3.54557e-19
-1.15492e-13
-7.87372e-19
-3.56959e-19
-1.17889e-13
5.24307e-18
-3.80226e-19
-1.25937e-13
-8.3029e-19
-3.3243e-19
-1.06905e-13
-2.22806e-17
-3.2522e-19
-1.03203e-13
-3.71009e-19
-1.25175e-13
-2.35454e-24
-1.38869e-11
-1.25788e-24
-1.37782e-11
-1.9323e-24
-1.38074e-11
-8.48353e-25
-1.39985e-11
-3.86793e-24
-1.41933e-11
-1.3557e-11
0.000154089
-4.11121e-10
-0.0385383
5.28728e-05
-4.05748e-10
-0.0382244
-6.79986e-06
-4.06582e-10
-0.0378579
-1.95904e-05
-4.12442e-10
-0.0376994
0.000139433
-4.20062e-10
-0.0376908
-3.9667e-10
-0.0376958
-1.90339e-14
-4.11263e-10
2.11542e-16
-1.19314e-14
-4.05918e-10
1.71826e-16
-4.74639e-15
-4.0676e-10
3.20625e-16
-5.41943e-15
-4.12593e-10
4.91728e-17
-1.0458e-14
-4.20208e-10
1.90006e-15
-3.96849e-10
8.99476e-17
-6.24273e-13
2.79723e-27
-4.29768e-13
3.31698e-27
-1.72134e-13
3.59735e-27
-1.10877e-13
3.69804e-27
-4.39104e-13
4.10896e-27
3.0193e-27
-0.00116997
-9.80339e-12
-0.0254105
0.0356362
-0.00154125
-5.52295e-12
-0.0255491
0.0357351
-0.000811858
-1.76664e-12
-0.0254574
0.0352884
0.000227879
-4.9787e-12
-0.0249027
0.0344347
0.000940172
-2.88238e-12
-0.0245728
0.0346411
-5.96088e-12
-0.0250574
0.0352746
-5.0686e-15
-9.69939e-12
4.30545e-17
-9.8967e-14
-1.84106e-15
-5.32898e-12
3.36365e-17
-1.97227e-13
-4.24005e-15
-1.57238e-12
1.24398e-18
-1.91861e-13
-1.96015e-15
-4.63408e-12
7.05712e-20
-3.46906e-13
1.93048e-15
-2.43084e-12
1.31651e-17
-4.55449e-13
-5.88259e-12
8.68082e-18
-7.63663e-14
1.48964e-13
1.02704e-26
-1.00958e-11
3.80802e-14
8.35008e-27
-5.03358e-12
-3.21008e-14
1.56992e-26
-1.27676e-12
-4.15189e-14
9.34043e-27
-6.17437e-12
4.56192e-15
1.29613e-26
-8.12363e-12
6.79145e-27
-7.0743e-12
0.000122987
2.03892e-16
-0.0119851
0.00030747
1.68567e-16
-0.0117216
0.000181116
5.49408e-18
-0.011625
7.72151e-05
3.41312e-19
-0.0119635
-5.30889e-05
5.96081e-17
-0.0120455
4.01592e-17
-0.0118531
-5.76835e-18
1.71175e-26
6.61543e-17
-8.28575e-18
1.30354e-26
2.73741e-17
-2.47288e-19
2.26364e-26
2.62103e-17
-1.09353e-20
1.38597e-26
-7.91283e-22
-2.80867e-19
1.91368e-26
-1.86763e-18
1.09314e-26
1.40066e-17
-2.19656e-28
9.07565e-27
-3.83551e-29
8.73017e-27
3.31494e-28
9.54134e-27
4.94191e-28
8.36474e-27
4.67089e-29
1.48963e-26
5.39321e-27
-0.000112661
3.97543e-16
0.000507692
-3.34654e-05
3.26661e-16
0.000506991
0.000148357
5.39875e-16
0.000493309
5.68171e-05
2.80085e-17
0.000485751
-6.47812e-05
3.27119e-15
0.00045478
1.84269e-16
0.00044074
2.65034e-17
1.35557e-26
-3.31068e-16
5.73229e-17
1.28017e-26
-2.73777e-16
2.91924e-18
1.36432e-26
-4.55885e-16
2.05728e-16
1.19165e-26
-2.50753e-17
-1.3313e-16
2.15932e-26
-2.98529e-15
7.90961e-27
-1.5543e-16
-4.41396e-29
-6.11894e-29
5.63134e-29
-1.00808e-29
1.84166e-28
4.63278e-29
3.26266e-28
-7.04744e-29
-2.43266e-29
-2.90015e-28
-8.00184e-29
-5.50984e-05
2.85896e-16
0.0130952
-8.56582e-05
2.33348e-16
0.0129646
-0.000101835
4.13616e-16
0.0128517
-5.08326e-05
1.55453e-17
0.0127718
2.76923e-05
2.6103e-15
0.0127441
1.30138e-16
0.012833
1.94915e-18
1.47114e-26
-5.52604e-16
4.53277e-18
1.7176e-26
-4.50784e-16
2.59928e-19
1.88e-26
-7.94042e-16
1.15707e-17
1.7912e-26
-2.94625e-17
-4.90452e-17
1.97771e-26
-4.91335e-15
1.35073e-26
-2.50104e-16
-3.93995e-29
-1.00495e-26
-4.60214e-29
-1.1708e-26
1.07221e-29
-1.27973e-26
5.68095e-29
-1.21857e-26
4.23643e-29
-1.34422e-26
-9.29083e-27
-6.50115e-05
3.56323e-16
0.0257639
-9.13297e-05
2.91633e-16
0.0254629
-9.70141e-05
5.31304e-16
0.0252097
-5.92301e-05
4.79721e-17
0.0250822
3.28489e-06
3.26813e-15
0.0250571
1.56948e-16
0.0252107
-7.60534e-19
1.28445e-26
-4.57729e-16
-1.41892e-18
1.52032e-26
-3.72444e-16
-2.49824e-18
1.66213e-26
-6.76661e-16
-2.07893e-19
1.64852e-26
-6.02437e-17
-1.69072e-17
1.82267e-26
-4.0876e-15
1.29102e-26
-1.99468e-16
-2.30715e-29
-1.09265e-26
-3.58617e-29
-1.28781e-26
-5.02717e-29
-1.40492e-26
-7.40569e-30
-1.3817e-26
3.12061e-29
-1.52108e-26
-1.09133e-26
2.5136e-05
3.67568e-16
8.86314e-05
2.99614e-16
0.00017526
5.58376e-16
5.71871e-06
8.59461e-17
-0.00020157
3.32918e-15
1.57117e-16
-5.52728e-20
1.55525e-26
5.60774e-20
1.86251e-26
8.77539e-20
2.02691e-26
-2.64695e-20
2.09171e-26
-8.09198e-18
2.32903e-26
1.71679e-26
-1.36216e-29
-1.11017e-29
-1.17035e-29
-1.16501e-29
6.88715e-30
-0.0173519
0.111828
0.00616451
-0.0180869
0.17535
0.0120151
-0.0145451
0.164614
0.009461
0.000920067
0.146078
0.00560689
0.010507
0.0768141
0.000619848
0.157298
0.00975616
-0.0354287
0.129836
-0.00320663
-0.0286996
0.0126282
0.0062494
-0.00280411
0.00693083
0.00906729
0.0179282
0.00560789
0.00521675
0.0290444
0.0209373
0.0021638
0.183628
-0.00026198
-0.0108966
-0.00201902
-0.00134677
-0.000194779
-0.000134062
-0.000335249
0.000976928
-0.000250944
0.0201735
-0.00012894
-0.00483294
-0.00035828
0.00627897
1.58535e-06
-4.9186e-05
0.00519654
-3.26132e-06
0.000803495
0.00795241
-9.54905e-07
0.000408405
0.00496578
-3.79909e-07
6.02347e-05
0.000611786
1.17181e-06
0.0104398
-4.41374e-06
-0.000248806
0.00212504
-7.39573e-07
0.000167947
0.00276926
1.02451e-06
0.00150848
0.00675061
6.64478e-07
0.00108796
0.00455108
1.96667e-06
0.000472444
0.00115299
2.80084e-06
0.00950597
-5.95279e-07
4.91505e-07
-8.38492e-07
0.000203482
-1.29193e-05
0.00044144
-7.33314e-07
0.000620823
-2.52428e-06
0.00031563
1.39836e-06
-1.13132e-08