/*--------------------------------*- C++ -*----------------------------------*\
| =========                 |                                                 |
| \\      /  F ield         | OpenFOAM: The Open Source CFD Toolbox           |
|  \\    /   O peration     | Version:  v1612+                                |
|   \\  /    A nd           | Web:      www.OpenFOAM.com                      |
|    \\/     M anipulation  |                                                 |
\*---------------------------------------------------------------------------*/
FoamFile
{
    version     2.0;
    format      ascii;
    class       volScalarField;
    location    "6.7";
    object      p;
}
// * * * * * * * * * * * * * * * * * * * * * * * * * * * * * * * * * * * * * //

dimensions      [1 -1 -2 0 0 0 0];

internalField   nonuniform List<scalar> 
1116
(
16567.6
16567.5
16567.5
16567.6
16567.6
16567.6
15410.1
15410.1
15410.1
15410.1
15410.1
15410.1
13160.8
13160.6
13160.7
13160.7
13160.7
13160.8
10384.7
10384.4
10384.5
10384.7
10384.7
10384.5
8303.38
8303.68
8303.35
8303.61
8303.52
8303.27
6862.58
6863.44
6862.72
6863.3
6862.51
6863.09
6093.99
6094.19
6093.78
6094.13
6093.83
6094.16
5904.54
5902.74
5903.53
5903.96
5906.75
5900.98
6087.5
6083.92
6085.33
6087.38
6090.33
6082.64
6420.13
6424.28
6423
6420.77
6415.61
6429.21
6841.5
6839.11
6844.45
6835.9
6841.02
6839.25
6788.7
6783.52
6789.53
6783.41
6794.29
6774.37
10150.8
10150.9
10150.9
10150.9
10150.9
10150.9
7091.81
7092.42
7092.37
7092.01
7092.15
7092.34
4553.28
4552.16
4552.68
4552.92
4552.71
4553.02
2343.68
2342.36
2342.81
2343.31
2343.11
2343.23
1379.57
1378.83
1379.1
1379.14
1378.82
1379.42
919.573
918.587
918.809
919.166
919.455
918.441
713.353
720.725
719.37
715.666
711
722.371
702.327
700.71
700.417
702.614
704.385
699.331
1116.04
1115.44
1115.22
1117.12
1118.93
1114.24
1477.08
1477.43
1477.54
1476.93
1475.05
1479.62
1580.62
1576.64
1578.84
1577.54
1580
1577.55
1519.36
1514.55
1515.56
1514.59
1518.47
1508.41
4104.68
4104.54
4104.71
4104.55
4104.58
4104.77
1012.26
1012.08
1012.33
1012.08
1012.12
1012.5
363.53
362.825
363.239
363.25
363.275
363.306
-24.165
-24.6742
-24.376
-24.409
-24.3824
-24.1499
-54.1622
-54.6552
-54.5925
-54.551
-54.4828
-54.6423
3.93024
2.34141
2.63764
3.23756
4.33313
1.73942
130.82
130.396
130.245
130.231
130.609
129.316
207.76
209.965
208.974
208.232
206.639
209.117
211.764
211.886
211.36
212.427
212.614
211.334
229.751
229.069
229.283
229.7
228.734
230.981
268.846
270.784
269.667
269.546
266.942
271.831
305.681
307.809
307.399
305.39
302.577
308.182
559.273
559.321
559.401
559.314
559.36
559.399
-36.5597
-36.7044
-36.6835
-36.5969
-36.5214
-36.7342
-40.2542
-40.2116
-40.2116
-40.2404
-40.2479
-40.1724
-57.3897
-57.312
-57.1059
-57.181
-57.1389
-56.8994
-75.7288
-76.6271
-76.6828
-76.8274
-76.6668
-76.5178
-57.2138
-57.8332
-57.6909
-57.667
-57.3114
-58.1308
19.5457
19.7961
19.658
19.6295
19.5459
19.3102
39.8195
41.6164
41.1295
40.4181
38.7431
41.9826
33.3024
33.8301
33.8879
33.5701
32.9376
34.5895
14.3098
14.191
14.2488
14.3106
14.2945
14.3601
22.8166
24.0491
23.8047
23.4536
22.9018
24.5003
-86.4306
-87.1485
-86.2065
-85.632
-85.1647
-85.6194
2501.06
2657.36
2489.45
2581.82
2586.11
2501.66
2053.71
2017.74
2079
2018.28
1979.37
1944.84
1259.85
1132.22
1301.18
1255.37
1364.44
1470.91
657.205
575.43
646.66
631.12
711.5
803.781
443.251
470.928
486.072
454.707
445.819
509.801
330.171
402.125
418.801
422.634
381.875
400.853
343.661
379.257
396.841
392.42
369.525
381.576
382.596
388.814
395.07
351.149
352.53
315.376
383.172
387.652
381.414
355.695
357.207
294.928
448.111
490.357
451.24
517.329
513.351
375.162
835.188
908.612
917.068
923.263
901.592
924.098
938.326
961.171
1036.91
1012.04
1040.78
1048.85
1360.28
1442.19
1344.08
1365.32
1315.8
1272.56
365.374
199.073
304.981
218.401
262.402
382.705
66.0903
55.1385
54.2906
54.3323
63.3679
58.1659
8.35913
13.8168
-6.03703
1.99575
-8.91291
-28.382
-17.8903
-37.1767
-42.4509
-48.3567
-50.9341
-48.855
-52.9086
-52.846
-51.4275
-54.4954
-53.3691
-47.6089
-43.0057
-33.17
-33.9995
-32.1727
-28.2924
-24.692
-14.1957
-10.8116
-10.2746
-10.0872
-7.53908
-2.26526
-0.19072
-4.09141
-6.53711
-8.2842
-9.03656
-3.46551
10.9982
11.7709
14.2295
16.2453
12.071
-2.55121
95.5376
100.397
95.6357
166.758
168.464
102.018
398.972
350.283
240.951
381.7
421.779
464.296
460.946
215.565
352.509
234.718
237.833
353.572
17.333
-2.77966
5.07538
-8.20453
-8.40644
14.0571
-11.0485
-4.44334
-12.3654
-6.57305
-10.2651
-13.4108
-18.6788
-17.0147
-19.3038
-17.1325
-19.8802
-19.7332
-15.9807
-18.7071
-18.105
-18.6095
-18.4005
-18.3721
-29.157
-31.6893
-29.1632
-30.9189
-28.6938
-30.3301
-28.8855
-26.8633
-28.388
-29.8929
-27.3322
-26.2534
-26.3345
-23.7328
-23.8879
-27.5173
-26.2149
-22.6267
-20.8812
-21.6569
-22.333
-26.1072
-25.4553
-24.7349
-29.4319
-32.5876
-30.3545
-29.5574
-26.9761
-26.1967
-14.7155
-13.676
-12.2794
-11.2596
-8.25519
-9.42526
-42.7133
-31.7688
-41.8043
-42.6538
-33.4421
-47.0086
115.733
52.7295
74.4377
46.7956
2.6929
45.4517
-36.0643
-30.0341
-33.9271
-35.828
-40.2191
-42.5005
-17.3065
-16.3877
-16.7664
-16.669
-17.685
-19.2246
-37.1369
-36.0789
-37.7126
-37.725
-38.5754
-39.9777
-35.5868
-36.0229
-36.3754
-36.6265
-36.5856
-36.9577
-45.6846
-46.3057
-46.1985
-45.6329
-45.0642
-45.7267
-41.464
-40.4268
-39.402
-39.892
-38.8705
-38.0573
-36.3519
-35.9602
-36.3082
-36.6972
-34.8769
-34.1813
-32.2915
-31.9539
-32.5328
-33.5914
-31.5041
-31.8411
-33.6583
-34.5765
-34.609
-33.6577
-31.0052
-33.2611
-33.6684
-30.3778
-27.3632
-32.1834
-31.3583
-33.8766
-82.7973
-83.5084
-88.329
-111.986
-138.012
-118.021
1030.37
1031.27
1031.01
1030.83
1030.97
1030.97
331.557
332.749
331.621
331.887
331.562
331.895
-331.34
-331.293
-331.399
-331.331
-331.419
-331.391
-41.4394
-40.8922
-41.1762
-41.2498
-41.2726
-41.1513
-88.5768
-87.7365
-88.1904
-88.1569
-88.1014
-88.3326
-213.556
-212.562
-213.125
-213.027
-213.049
-213.303
-47.1118
-47.063
-47.0859
-47.0549
-47.0763
-47.0096
-41.7567
-41.6486
-41.759
-41.6619
-41.6531
-41.7275
-69.8092
-69.4233
-69.6244
-69.5681
-69.4807
-69.7493
-71.8018
-71.8579
-71.6971
-71.7172
-71.7002
-71.6068
-70.8269
-70.4409
-70.6099
-70.653
-70.6081
-70.6029
-73.4303
-73.8447
-73.5968
-73.5522
-73.6325
-73.4024
-85.9728
-86.0034
-85.6583
-85.774
-85.7187
-86.1042
-76.7758
-77.221
-76.892
-76.9884
-77.0166
-76.6628
-73.7076
-74.0791
-73.7433
-73.9088
-74.0149
-73.1403
-70.9054
-71.1866
-71.0013
-71.0948
-71.0346
-71.2994
-78.4899
-78.9594
-78.773
-78.8707
-78.8648
-78.8647
-102.253
-102.92
-102.681
-102.81
-102.987
-102.207
-38.398
-37.6412
-37.7297
-37.9301
-38.619
-37.5616
-74.3262
-73.9973
-73.9597
-74.0434
-74.3358
-73.8367
-115.697
-115.818
-115.864
-115.705
-115.623
-115.752
-27.8006
-28.1017
-28.8357
-27.9435
-28.439
-30.392
-58.5562
-58.0544
-57.85
-58.181
-58.358
-56.7124
-96.6451
-96.588
-96.5201
-96.459
-96.6828
-96.119
-29.7743
-29.7969
-29.8729
-29.9094
-30.0246
-29.9998
-51.3306
-51.2961
-51.3466
-51.2822
-51.2362
-51.1833
-75.5967
-75.6127
-75.6124
-75.5216
-75.4952
-75.5434
-27.1294
-27.1078
-27.1333
-27.0827
-27.0484
-27.2058
-49.2302
-49.1959
-49.2136
-49.2148
-49.2408
-49.1945
-68.1457
-68.1455
-68.1468
-68.1343
-68.1531
-68.1199
-33.0351
-32.9854
-32.9777
-32.9666
-33.0183
-32.9609
-53.1752
-53.1795
-53.1902
-53.1923
-53.2123
-53.1958
-67.7624
-67.7555
-67.758
-67.7544
-67.7613
-67.7514
15.8271
14.7784
14.798
14.9889
15.8711
14.4137
-51.5303
-51.5318
-51.5389
-51.5486
-51.5595
-51.5634
-73.7335
-73.7069
-73.6953
-73.6957
-73.7071
-73.6847
253.083
256.086
257.275
256.218
254.454
253.251
-48.1514
-47.9218
-47.7666
-47.8506
-47.777
-47.9104
-72.1891
-72.1131
-72.0531
-72.0364
-71.8898
-72.1163
291.84
291.378
291.105
294.154
294.898
293.451
-51.1505
-51.135
-51.1904
-51.2144
-51.2304
-51.1558
-70.2803
-70.3096
-70.3397
-70.3147
-70.2567
-70.2583
298.361
298.807
299.491
300.013
300.069
299.704
-50.0584
-49.9963
-49.8994
-49.8533
-49.7977
-49.8694
-69.4958
-69.5051
-69.5055
-69.5006
-69.4895
-69.5033
297.311
297.594
298.043
298.381
298.432
298.352
-50.5499
-50.5522
-50.5509
-50.5499
-50.5465
-50.5493
-69.5134
-69.5191
-69.5287
-69.5352
-69.5358
-69.5327
290.47
290.638
291.015
291.244
291.268
291.257
-50.1269
-50.1197
-50.1111
-50.1018
-50.0942
-50.0949
-70.631
-70.6374
-70.6464
-70.6589
-70.6631
-70.6576
249.718
249.071
248.54
248.011
248.004
248.272
-48.3825
-48.3623
-48.3533
-48.3393
-48.3264
-48.3332
-73.3477
-73.3471
-73.3499
-73.3566
-73.3658
-73.3614
88.795
143.377
108.269
125.422
21.8376
73.9584
-96.0019
59.5522
83.9858
80.5195
35.0847
-99.6155
-111.465
-80.7293
-87.9743
-88.8426
-79.5708
-130.853
-48.6527
-45.2222
-50.1458
-54.3881
-60.7119
-54.6776
-65.9429
-63.5493
-72.0647
-74.5254
-74.0655
-73.6184
-76.276
-78.9687
-85.714
-86.3327
-81.9863
-83.2612
-34.2647
-35.7547
-35.0113
-35.3696
-35.9346
-35.6058
-45.7082
-45.1172
-46.069
-46.7273
-45.2312
-45.7737
-58.2656
-56.4723
-56.7132
-57.6252
-57.5313
-59.0926
-46.2122
-46.4365
-46.6641
-46.8105
-46.6546
-47.0786
-58.202
-58.3917
-58.735
-58.7795
-58.1534
-58.6775
-66.3636
-66.4523
-66.8876
-67.2386
-67.302
-67.599
-38.8925
-39.0528
-39.1931
-39.2476
-39.31
-39.2883
-53.4113
-53.3731
-53.4354
-53.5034
-53.4785
-53.5011
-61.485
-61.4653
-61.5064
-61.5779
-61.642
-61.729
-43.9465
-44.0178
-44.2341
-44.1159
-43.8333
-43.5034
-56.3923
-56.3683
-56.4226
-56.5607
-56.6229
-56.5648
-62.6871
-62.6758
-62.7212
-62.8007
-62.8436
-62.8592
-40.1233
-40.2994
-40.032
-40.2309
-40.4164
-40.5883
-53.6979
-53.3365
-53.252
-53.826
-54.0805
-53.959
-61.6408
-61.5992
-61.5644
-61.5653
-61.5641
-61.6003
-39.3711
-39.6548
-40.1189
-40.0572
-39.9838
-39.8529
-53.7483
-53.4785
-53.4095
-53.9447
-54.4988
-54.7123
-61.2093
-61.1122
-60.8966
-60.9596
-60.9229
-60.896
-35.3811
-35.8123
-36.6843
-37.0269
-38.0619
-37.475
-55.2286
-55.3478
-55.7361
-55.763
-55.554
-55.6076
-60.2518
-60.2655
-60.173
-60.054
-60.1614
-60.1711
-35.407
-35.767
-36.5878
-36.026
-36.7706
-36.3083
-57.4177
-57.3686
-57.2878
-57.2563
-57.2006
-57.2687
-59.6609
-59.7271
-59.8107
-59.863
-59.9822
-59.9267
-40.1582
-41.2979
-43.1224
-43.6748
-45.4876
-43.7407
-57.7867
-57.8789
-58.0032
-57.842
-58.1535
-57.7202
-61.9696
-62.0577
-62.0252
-62.3413
-62.4408
-62.566
-14.9494
-12.3117
-8.68883
-17.4527
-21.0193
-18.0513
-57.597
-57.1721
-56.8019
-56.1726
-55.0037
-56.0668
-72.1563
-72.5716
-72.7565
-72.3156
-71.6714
-71.8591
)
;

boundaryField
{
    seabed_topleft_surface
    {
        type            calculated;
        value           nonuniform List<scalar> 
72
(
19842.7
19842.7
19842.7
19842.7
19842.7
19842.7
20001.4
20001.7
20001.5
20001.4
20001.5
20001.5
17956.8
17956.6
17956.8
17956.8
17956.8
17956.8
15180.8
15180.4
15180.5
15180.7
15180.7
15180.6
13088.5
13088.8
13088.4
13089
13089
13088.1
11421.5
11422.1
11421.3
11422.5
11421.9
11421.4
10496.4
10496.4
10495.9
10496.9
10496.9
10496
10224.7
10223
10223.9
10224.3
10227.1
10221.1
10371
10367.3
10369.3
10370.7
10373.6
10366.3
10681.4
10684.7
10684.3
10681.6
10677.1
10689.7
11093.4
11090.3
11096.4
11087.4
11093.3
11090.4
11038.4
11032.9
11039.4
11033
11044.4
11023.8
)
;
    }
    seabed_topright_surface
    {
        type            calculated;
        value           nonuniform List<scalar> 
72
(
2957.55
3113.88
2945.99
3038.37
3042.66
2958.22
2510.19
2474.2
2535.52
2474.83
2435.92
2401.4
1652.98
1525.64
1666.16
1699.75
1820.96
1927.47
1022.28
628.304
847.833
776.209
1086.41
1260.3
726.086
653.662
801.294
623.905
724.474
941.263
569.664
801.661
818.608
822.054
754.858
792.536
721.177
777.895
796.372
790.671
764.917
775.309
777.473
783.835
790.462
702.011
734.749
637.844
779.172
783.017
769.834
713.968
735.297
480.73
844.144
886.39
840.418
921.233
920.881
630.907
1221.49
1301.29
1309.68
1331.71
1311.72
1317.28
1153.74
1176.58
1348.17
1315.73
1450.91
1286.15
)
;
    }
    breakwater_top_surface
    {
        type            calculated;
        value           nonuniform List<scalar> 
36
(
574.733
579.31
581.319
579.963
575.084
575.547
639.468
637.823
637.304
644.25
645.944
642.51
649.238
650.209
651.646
652.719
652.89
652.101
647.765
648.4
649.423
650.168
650.242
650.017
639.456
639.9
640.777
641.317
641.329
641.294
576.446
574.896
573.789
572.781
572.725
573.299
)
;
    }
    breakwater_left_surface
    {
        type            calculated;
        value           nonuniform List<scalar> 
24
(
6803.25
6798.08
6804.09
6797.96
6808.85
6788.93
1522.95
1518.07
1519.1
1518.18
1522.12
1511.92
306.165
308.301
307.888
305.87
303.048
308.667
-85.9411
-86.6579
-85.716
-85.1444
-84.68
-85.1329
)
;
    }
    breakwater_right_surface
    {
        type            calculated;
        value           nonuniform List<scalar> 
24
(
939.064
961.909
1037.98
1013.08
1042.19
1049.66
400.167
351.478
242.139
383.072
423.156
465.667
-42.1919
-31.4479
-41.7762
-42.2979
-32.9728
-46.5302
-82.7812
-83.4797
-88.2666
-111.945
-137.676
-118.001
)
;
    }
    water_front_surface
    {
        type            calculated;
        value           nonuniform List<scalar> 
186
(
16567.6
15410.1
13160.8
10384.7
8303.38
6862.58
6093.99
5904.54
6087.5
6420.13
6841.5
6788.7
10150.8
7091.81
4553.28
2343.68
1379.57
919.573
713.353
702.327
1116.04
1477.08
1580.62
1519.36
4104.68
1012.26
363.53
-24.165
-54.1622
3.93024
130.82
207.76
211.764
229.751
268.846
305.681
559.273
-36.5597
-40.2542
-57.3897
-75.7288
-57.2138
19.5457
39.8195
33.3024
14.3098
22.8166
-86.4306
2501.06
2053.71
1259.85
657.205
443.251
330.171
343.661
382.596
383.172
448.111
835.188
938.326
1360.28
365.374
66.0903
8.35913
-17.8903
-52.9086
-43.0057
-14.1957
-0.19072
10.9982
95.5376
398.972
460.946
17.333
-11.0485
-18.6788
-15.9807
-29.157
-28.8855
-26.3345
-20.8812
-29.4319
-14.7155
-42.7133
115.733
-36.0643
-17.3065
-37.1369
-35.5868
-45.6846
-41.464
-36.3519
-32.2915
-33.6583
-33.6684
-82.7973
1030.37
331.557
-331.34
-41.4394
-88.5768
-213.556
-47.1118
-41.7567
-69.8092
-71.8018
-70.8269
-73.4303
-85.9728
-76.7758
-73.7076
-70.9054
-78.4899
-102.253
-38.398
-74.3262
-115.697
-27.8006
-58.5562
-96.6451
-29.7743
-51.3306
-75.5967
-27.1294
-49.2302
-68.1457
-33.0351
-53.1752
-67.7624
15.8271
-51.5303
-73.7335
253.083
-48.1514
-72.1891
291.84
-51.1505
-70.2803
298.361
-50.0584
-69.4958
297.311
-50.5499
-69.5134
290.47
-50.1269
-70.631
249.718
-48.3825
-73.3477
88.795
-96.0019
-111.465
-48.6527
-65.9429
-76.276
-34.2647
-45.7082
-58.2656
-46.2122
-58.202
-66.3636
-38.8925
-53.4113
-61.485
-43.9465
-56.3923
-62.6871
-40.1233
-53.6979
-61.6408
-39.3711
-53.7483
-61.2093
-35.3811
-55.2286
-60.2518
-35.407
-57.4177
-59.6609
-40.1582
-57.7867
-61.9696
-14.9494
-57.597
-72.1563
)
;
    }
    water_back_surface
    {
        type            calculated;
        value           nonuniform List<scalar> 
186
(
16567.6
15410.1
13160.8
10384.5
8303.27
6863.09
6094.16
5900.98
6082.64
6429.21
6839.25
6774.37
10150.9
7092.34
4553.02
2343.23
1379.42
918.441
722.371
699.331
1114.24
1479.62
1577.55
1508.41
4104.77
1012.5
363.306
-24.1499
-54.6423
1.73942
129.316
209.117
211.334
230.981
271.831
308.182
559.399
-36.7342
-40.1724
-56.8994
-76.5178
-58.1308
19.3102
41.9826
34.5895
14.3601
24.5003
-85.6194
2501.66
1944.84
1470.91
803.781
509.801
400.853
381.576
315.376
294.928
375.162
924.098
1048.85
1272.56
382.705
58.1659
-28.382
-48.855
-47.6089
-24.692
-2.26526
-3.46551
-2.55121
102.018
464.296
353.572
14.0571
-13.4108
-19.7332
-18.3721
-30.3301
-26.2534
-22.6267
-24.7349
-26.1967
-9.42526
-47.0086
45.4517
-42.5005
-19.2246
-39.9777
-36.9577
-45.7267
-38.0573
-34.1813
-31.8411
-33.2611
-33.8766
-118.021
1030.97
331.895
-331.391
-41.1513
-88.3326
-213.303
-47.0096
-41.7275
-69.7493
-71.6068
-70.6029
-73.4024
-86.1042
-76.6628
-73.1403
-71.2994
-78.8647
-102.207
-37.5616
-73.8367
-115.752
-30.392
-56.7124
-96.119
-29.9998
-51.1833
-75.5434
-27.2058
-49.1945
-68.1199
-32.9609
-53.1958
-67.7514
14.4137
-51.5634
-73.6847
253.251
-47.9104
-72.1163
293.451
-51.1558
-70.2583
299.704
-49.8694
-69.5033
298.352
-50.5493
-69.5327
291.257
-50.0949
-70.6576
248.272
-48.3332
-73.3614
73.9584
-99.6155
-130.853
-54.6776
-73.6184
-83.2612
-35.6058
-45.7737
-59.0926
-47.0786
-58.6775
-67.599
-39.2883
-53.5011
-61.729
-43.5034
-56.5648
-62.8592
-40.5883
-53.959
-61.6003
-39.8529
-54.7123
-60.896
-37.475
-55.6076
-60.1711
-36.3083
-57.2687
-59.9267
-43.7407
-57.7202
-62.566
-18.0513
-56.0668
-71.8591
)
;
    }
    water_left_surface
    {
        type            calculated;
        value           nonuniform List<scalar> 
42
(
16578.8
16578.8
16578.8
16578.8
16578.8
16578.8
10163.3
10163.5
10163.4
10163.4
10163.4
10163.4
4116.96
4116.82
4116.99
4116.84
4116.86
4117.05
571.281
571.332
571.411
571.322
571.369
571.409
1030.37
1031.27
1031.01
1030.83
1030.97
1030.97
331.557
332.749
331.621
331.887
331.562
331.895
-331.34
-331.293
-331.399
-331.331
-331.419
-331.391
)
;
    }
    water_right_surface
    {
        type            calculated;
        value           nonuniform List<scalar> 
42
(
2502.62
2658.92
2491.02
2583.38
2587.67
2503.23
1361.81
1443.45
1345.61
1366.62
1317.22
1274.09
462.344
217.041
353.936
235.248
238.549
355.064
117.076
54.1772
75.8857
47.9005
3.46267
46.9136
88.795
143.377
108.269
125.422
21.8376
73.9584
-96.0019
59.5522
83.9858
80.5195
35.0847
-99.6155
-111.465
-80.7293
-87.9743
-88.8426
-79.5708
-130.853
)
;
    }
    water_top_surface
    {
        type            calculated;
        value           nonuniform List<scalar> 
180
(
-489.244
-486.971
-488.124
-488.26
-488.391
-488.277
-487.897
-485.623
-486.773
-486.912
-487.046
-486.926
-72.1937
-71.6424
-71.9481
-71.9322
-71.8526
-72.0633
-68.67
-68.7176
-68.6891
-68.7178
-68.8192
-68.67
-95.5266
-95.6919
-94.1258
-96.756
-99.2544
-89.5752
-120.254
-120.497
-120.781
-120.844
-120.948
-120.844
-110.681
-110.876
-111.27
-110.479
-109.487
-111.874
-92.022
-92.3862
-92.1944
-92.6075
-93.2157
-91.7934
-84.0693
-84.1766
-84.1956
-84.0063
-83.9683
-84.1689
-76.3461
-76.3532
-76.3625
-76.3277
-76.3578
-76.3301
-74.1748
-74.1751
-74.1793
-74.1705
-74.1914
-74.158
-71.8698
-71.8778
-71.8757
-71.8737
-71.8751
-71.8726
-69.11
-69.0936
-69.0871
-69.1497
-69.2368
-69.1564
-70.4766
-70.5066
-70.5344
-70.551
-70.5721
-70.5168
-70.0824
-70.0713
-70.0572
-70.0391
-70.0308
-70.0263
-70.3938
-70.3982
-70.4002
-70.3982
-70.4027
-70.3917
-70.8617
-70.8657
-70.8668
-70.8658
-70.8712
-70.861
-70.28
-70.2726
-70.2716
-70.2732
-70.2756
-70.2656
-1590.99
-77.6298
-95.544
-89.3027
-74.9189
-2212.21
-68.6706
-76.9595
-99.4913
-93.0968
-74.8248
-165.157
-68.67
-68.6896
-68.67
-68.6703
-68.6773
-68.67
-71.1608
-71.2195
-71.2658
-71.4573
-71.5396
-71.7779
-68.8632
-68.8688
-68.8806
-68.8608
-68.873
-68.8616
-69.1385
-69.1333
-69.1556
-69.1834
-69.2042
-69.179
-68.67
-68.67
-68.67
-68.67
-68.67
-68.67
-68.67
-68.67
-68.67
-68.6722
-68.6906
-68.6915
-68.6976
-68.7039
-68.7189
-68.7399
-68.7597
-68.7618
-69.1391
-69.1819
-69.2226
-69.231
-69.2949
-69.2462
-70.1198
-70.2036
-70.2888
-70.399
-70.7049
-70.4082
-70.2495
-70.2194
-69.9037
-69.9544
-70.024
-70.2846
)
;
    }
}


// ************************************************************************* //
