/*--------------------------------*- C++ -*----------------------------------*\
| =========                 |                                                 |
| \\      /  F ield         | OpenFOAM: The Open Source CFD Toolbox           |
|  \\    /   O peration     | Version:  v1612+                                |
|   \\  /    A nd           | Web:      www.OpenFOAM.com                      |
|    \\/     M anipulation  |                                                 |
\*---------------------------------------------------------------------------*/
FoamFile
{
    version     2.0;
    format      ascii;
    class       volScalarField;
    location    "6.7";
    object      p_rgh;
}
// * * * * * * * * * * * * * * * * * * * * * * * * * * * * * * * * * * * * * //

dimensions      [1 -1 -2 0 0 0 0];

internalField   nonuniform List<scalar> 
1116
(
19842.7
19842.7
19842.7
19842.7
19842.7
19842.7
20001.4
20001.7
20001.5
20001.4
20001.5
20001.5
17956.8
17956.6
17956.8
17956.8
17956.8
17956.8
15180.8
15180.4
15180.5
15180.7
15180.7
15180.6
13088.5
13088.8
13088.4
13089
13089
13088.1
11421.5
11422.1
11421.3
11422.5
11421.9
11421.4
10496.4
10496.4
10495.9
10496.9
10496.9
10496
10224.7
10223
10223.9
10224.3
10227.1
10221.1
10371
10367.3
10369.3
10370.7
10373.6
10366.3
10681.4
10684.7
10684.3
10681.6
10677.1
10689.7
11093.4
11090.3
11096.4
11087.4
11093.3
11090.4
11038.4
11032.9
11039.4
11033
11044.4
11023.8
21319
21317.8
21318.4
21318.8
21318.4
21318.8
20832.8
20834.2
20833.6
20833.1
20833.5
20833.5
16227.1
16224.9
16225.9
16226.5
16226.3
16226.6
9181.71
9177.44
9178.8
9180.58
9179.84
9180.03
5666.35
5668.17
5667.41
5666.59
5665.81
5667.9
3868.4
3869.3
3868.75
3868.99
3867.99
3869.02
2836.9
2839.44
2839.3
2837.42
2836.52
2840.61
2702.9
2691.3
2693.25
2701.92
2710.87
2686.94
3600.34
3590.64
3594.67
3599.6
3594.4
3599.42
4443.93
4460.92
4456.54
4446.41
4419.46
4484.39
4834.04
4813.62
4830.29
4818.49
4837.49
4809.22
4720.97
4652.35
4672.83
4711.98
4768.45
4635.98
22726.7
22725.5
22726
22726.1
22725.8
22726.2
9578.7
9579.3
9580.64
9578.16
9577.55
9581.92
2424.63
2425.32
2425.66
2424.48
2423.79
2426.75
154.703
153.321
153.793
154.185
154.038
154.243
-29.6146
-30.1091
-30.0464
-30.004
-29.9347
-30.097
28.8431
27.166
27.4604
28.113
29.2671
26.5184
156.345
155.86
155.68
155.746
156.048
154.604
278.387
276.897
275.653
279.063
282.759
272.641
504.181
497.448
495.171
507.02
522.13
486.578
866.355
869.782
869.238
864.023
852.895
880.51
993.404
1023.55
1015.77
991.988
961.038
1042.55
1039.42
1052.31
1049.06
1032.4
1016.67
1042.84
26542.9
26551.3
26549.2
26545.8
26546.7
26547.9
-2.20821
-2.35298
-2.33205
-2.24548
-2.16992
-2.38275
-5.90278
-5.86012
-5.86019
-5.88892
-5.89647
-5.82098
-23.0383
-22.9605
-22.7545
-22.8296
-22.7874
-22.5479
-41.3772
-42.2755
-42.3313
-42.4758
-42.3152
-42.1663
-22.8553
-23.4764
-23.3341
-23.3092
-22.9522
-23.775
62.3553
59.0983
58.4993
60.6343
62.8554
56.1667
304.681
292.306
290.876
301.369
310.576
280.938
376.148
377.846
380.096
381.045
378.907
385.555
136.5
135.441
137.564
134.792
131.247
141.211
369.467
367.448
368.234
369.088
378.123
366.423
972.663
974.589
975.257
969.515
963.693
967.234
2957.55
3113.88
2945.99
3038.37
3042.66
2958.22
2510.19
2474.2
2535.52
2474.83
2435.92
2401.4
1652.98
1525.64
1666.16
1699.75
1820.96
1927.47
1022.28
628.304
847.833
776.209
1086.41
1260.3
726.086
653.662
801.294
623.905
724.474
941.263
569.664
801.661
818.608
822.054
754.858
792.536
721.177
777.895
796.372
790.671
764.917
775.309
777.473
783.835
790.462
702.011
734.749
637.844
779.172
783.017
769.834
713.968
735.297
480.73
844.144
886.39
840.418
921.233
920.881
630.907
1221.49
1301.29
1309.68
1331.71
1311.72
1317.28
1153.74
1176.58
1348.17
1315.73
1450.91
1286.15
2726.56
2564.66
2710.47
2529.15
2577.74
2639.07
1343.64
543.475
1100.03
717.238
693.298
1548.64
141.546
151.357
100.999
158.76
184.807
200.135
56.3688
76.1682
47.4649
68.7255
55.5042
22.6597
5.39445
4.78653
-7.08774
-7.71695
-14.2731
-34.1235
-28.864
-38.1144
-32.2635
-39.7639
-38.6376
-32.8774
-28.2742
-18.4385
-19.2679
-17.4411
-13.5609
-9.96033
0.535927
3.92047
4.45694
4.64435
7.19267
12.4666
14.5453
10.6485
8.19563
6.44753
5.69563
22.5374
26.879
27.504
28.9786
31.4236
27.1043
40.1214
475.697
387.256
207.712
701.045
841.169
467.597
1464.84
1416.15
1300.34
1605.44
1649.33
1687.84
2581.12
2453.3
2516.87
1038.69
1324.22
2615.64
497.948
33.9442
270.149
22.2679
55.0799
696.562
13.494
20.098
12.1769
17.9685
14.2766
11.1308
5.86241
7.52648
5.23739
7.40876
4.66119
4.80801
8.56044
5.83411
6.43617
5.93167
6.14068
6.16906
-4.61583
-7.14811
-4.62202
-6.37768
-4.15261
-5.78891
-4.34427
-2.31976
-3.8468
-5.3443
-2.78979
-1.71222
-1.79326
0.808372
0.653282
-2.97612
-1.67299
1.91465
3.66012
2.88476
2.20838
-1.566
-0.914103
-0.193309
-4.8867
-8.03807
-5.8078
-5.01317
-2.43418
-1.64496
9.86162
10.9051
12.2927
13.2881
16.3509
15.2076
747.848
454.746
0.749394
496.894
678.062
678.284
3023.06
3185.58
3207.92
2437.71
1668.48
3209.17
53.8179
13.334
18.1905
0.548499
-5.86719
85.7081
17.0445
17.9632
17.5846
17.6821
16.6666
15.127
-2.78604
-1.72804
-3.36168
-3.37391
-4.22243
-5.60267
-1.23588
-1.67205
-2.02452
-2.2756
-2.23468
-2.60672
-11.3335
-11.9546
-11.8476
-11.2817
-10.7133
-11.3758
-7.11244
-6.0745
-5.05116
-5.54028
-4.51945
-3.70641
-2.00106
-1.60934
-1.95735
-2.34633
-0.525934
0.169582
2.05933
2.39698
1.81805
0.759444
2.84683
2.50979
0.692833
-0.224998
-0.2574
0.69323
3.34134
1.09572
0.729936
4.43843
7.85111
16.2657
156.576
8.13625
-48.1331
-21.4001
46.8415
-22.0226
587.923
-75.5135
31315.5
31320.2
31317.2
31315.7
31316.6
31318.4
13012.5
12961.9
12976.5
12987.3
12974.9
12992.3
122.958
120.894
121.859
122.053
122.087
122.01
526.011
527.353
527.055
526.807
527.189
526.505
642.895
644.754
644.377
644.027
645.156
643.286
239.491
238.374
238.879
239.106
239.208
238.842
-2.96602
-2.91727
-2.94017
-2.9092
-2.93054
-2.86391
12.1991
12.3072
12.1968
12.2939
12.3028
12.2282
-6.0442
-5.65825
-5.85938
-5.80311
-5.71566
-5.98429
-27.6559
-27.7119
-27.5512
-27.5713
-27.5543
-27.461
-16.8679
-16.4813
-16.6507
-16.693
-16.6475
-16.6449
-9.65511
-10.0355
-9.81412
-9.74277
-9.72894
-9.6375
-41.8197
-41.8516
-41.5067
-41.6211
-41.5644
-41.9535
-22.6409
-23.181
-22.8561
-22.8203
-22.8406
-22.6393
14.9956
14.7777
13.6592
15.936
18.1499
10.0367
-25.4891
-26.5031
-26.3025
-25.9892
-24.9119
-26.975
12.8997
7.89379
8.18094
13.1042
14.9182
3.67965
9.41108
8.9697
9.4731
9.40167
9.32222
10.0053
73.9455
65.9258
66.79
71.6253
75.1638
59.7664
62.2298
57.5948
55.0261
59.4109
63.8468
59.4971
-12.922
-12.8613
-12.5415
-13.1168
-13.9563
-11.8682
109.655
109.357
109.196
108.934
104.878
113.667
3.60909
5.23738
6.53347
3.66248
1.05925
7.13894
-32.8801
-32.823
-32.7551
-32.694
-32.9178
-32.354
14.371
14.3483
14.2724
14.2359
14.1207
14.1454
2.62458
2.6591
2.60855
2.67296
2.719
2.77187
-11.8284
-11.8445
-11.8442
-11.7527
-11.7256
-11.7752
17.0168
17.0384
17.0129
17.0636
17.0979
16.9404
4.72478
4.75913
4.74144
4.74016
4.71416
4.76051
-4.27297
-4.27244
-4.2737
-4.26083
-4.27961
-4.24716
11.1099
11.1596
11.1673
11.1784
11.1267
11.1841
0.779841
0.775487
0.764785
0.762745
0.742738
0.759225
-3.99741
-3.9905
-3.99297
-3.9894
-3.99626
-3.9864
797.172
779.849
778.17
783.347
795.623
774.858
2.42473
2.4232
2.41608
2.40639
2.39555
2.39157
-9.96848
-9.94188
-9.93024
-9.93074
-9.94214
-9.91964
3147.93
3165.1
3173.67
3169.93
3140.13
3153.91
5.80363
6.03318
6.18836
6.10436
6.17801
6.04458
-8.42405
-8.34808
-8.28812
-8.2714
-8.12482
-8.35133
3420.5
3409.38
3406.9
3445.02
3454.31
3434.98
2.8045
2.81997
2.76463
2.74063
2.72456
2.79921
-6.51534
-6.54462
-6.57473
-6.54968
-6.49168
-6.49334
3456.25
3461.43
3468.88
3474.37
3475.46
3471.27
3.89662
3.95868
4.05555
4.10173
4.15731
4.08565
-5.73076
-5.74007
-5.74053
-5.7356
-5.72453
-5.73831
3451.4
3454.85
3460.46
3464.46
3464.73
3463.33
3.40508
3.40278
3.4041
3.40512
3.40851
3.40566
-5.74841
-5.7541
-5.76375
-5.77022
-5.77079
-5.76767
3431.34
3433.99
3438.87
3441.9
3441.81
3441.59
3.82808
3.83535
3.84385
3.85316
3.86079
3.86015
-6.86598
-6.87244
-6.88145
-6.8939
-6.89812
-6.89265
3190.27
3181.5
3175.78
3170.94
3170.49
3173.51
5.57255
5.59269
5.60165
5.61566
5.62865
5.62185
-9.58275
-9.58212
-9.5849
-9.59156
-9.60083
-9.59639
3968.3
4170.3
4135.23
4152.5
2370.49
4135.45
4516.47
1738.6
2670.79
2464.79
1412.14
4858.25
1365.89
-8.64449
0.74507
-5.91868
-10.0032
1923.34
68.2941
48.4195
70.8091
34.3684
-11.4182
195.075
22.7555
38.0804
78.2357
45.5523
-1.65078
188.581
-12.5105
-7.50629
6.6708
0.114321
-12.5062
70.0986
9.88034
8.39064
9.13369
8.77564
8.21082
8.53941
8.24694
8.83802
7.88598
7.22772
8.72392
8.18133
5.49941
7.33097
7.05183
6.14012
6.24047
4.67242
-2.06721
-2.29144
-2.51912
-2.66499
-2.50661
-2.89757
-4.24697
-4.43655
-4.77999
-4.82446
-4.19836
-4.71881
-2.59859
-2.68479
-3.12095
-3.47304
-3.53659
-3.83402
5.25253
5.09222
4.95194
4.89735
4.83505
4.85673
0.543706
0.581934
0.519585
0.451572
0.476508
0.453908
2.27999
2.29966
2.25858
2.18707
2.123
2.03605
0.198512
0.12716
-0.0890907
0.0290738
0.311743
0.641633
-2.43734
-2.41333
-2.46761
-2.60574
-2.66794
-2.60978
1.07786
1.08917
1.0438
0.964289
0.921448
0.905816
4.02184
3.84559
4.11297
3.91406
3.72855
3.55665
0.257126
0.618455
0.702973
0.129038
-0.1255
-0.00395189
2.12417
2.16585
2.20058
2.19966
2.2009
2.16469
4.77385
4.49018
4.02609
4.08784
4.16115
4.29208
0.20669
0.47648
0.545552
0.0103442
-0.543817
-0.75725
2.55567
2.65282
2.86838
2.80535
2.84208
2.86897
8.76394
8.33275
7.46072
7.11804
6.08306
6.67003
-1.27358
-1.39272
-1.78073
-1.80799
-1.59902
-1.65257
3.51323
3.49955
3.59202
3.71098
3.60358
3.59392
8.73673
8.37622
7.55468
8.11885
7.37424
7.83668
-3.46274
-3.41356
-3.3328
-3.30131
-3.24556
-3.31366
4.10412
4.0379
3.95436
3.90197
3.78277
3.83831
3.98593
2.84535
1.01875
0.470118
-1.34257
0.404146
-3.83167
-3.92392
-4.04823
-3.88704
-4.19848
-3.76522
1.7954
1.70729
1.73982
1.42367
1.32425
1.19902
749.533
860.831
939.73
755.216
516.95
713.539
-3.64202
-3.21711
-2.84692
-2.21761
-1.04873
-2.11184
-8.39129
-8.80664
-8.99151
-8.55063
-7.9064
-8.09407
)
;

boundaryField
{
    seabed_topleft_surface
    {
        type            fixedFluxPressure;
        gradient        uniform 0;
        value           nonuniform List<scalar> 
72
(
19842.7
19842.7
19842.7
19842.7
19842.7
19842.7
20001.4
20001.7
20001.5
20001.4
20001.5
20001.5
17956.8
17956.6
17956.8
17956.8
17956.8
17956.8
15180.8
15180.4
15180.5
15180.7
15180.7
15180.6
13088.5
13088.8
13088.4
13089
13089
13088.1
11421.5
11422.1
11421.3
11422.5
11421.9
11421.4
10496.4
10496.4
10495.9
10496.9
10496.9
10496
10224.7
10223
10223.9
10224.3
10227.1
10221.1
10371
10367.3
10369.3
10370.7
10373.6
10366.3
10681.4
10684.7
10684.3
10681.6
10677.1
10689.7
11093.4
11090.3
11096.4
11087.4
11093.3
11090.4
11038.4
11032.9
11039.4
11033
11044.4
11023.8
)
;
    }
    seabed_topright_surface
    {
        type            fixedFluxPressure;
        gradient        uniform 0;
        value           nonuniform List<scalar> 
72
(
2957.55
3113.88
2945.99
3038.37
3042.66
2958.22
2510.19
2474.2
2535.52
2474.83
2435.92
2401.4
1652.98
1525.64
1666.16
1699.75
1820.96
1927.47
1022.28
628.304
847.833
776.209
1086.41
1260.3
726.086
653.662
801.294
623.905
724.474
941.263
569.664
801.661
818.608
822.054
754.858
792.536
721.177
777.895
796.372
790.671
764.917
775.309
777.473
783.835
790.462
702.011
734.749
637.844
779.172
783.017
769.834
713.968
735.297
480.73
844.144
886.39
840.418
921.233
920.881
630.907
1221.49
1301.29
1309.68
1331.71
1311.72
1317.28
1153.74
1176.58
1348.17
1315.73
1450.91
1286.15
)
;
    }
    breakwater_top_surface
    {
        type            fixedFluxPressure;
        gradient        uniform 0;
        value           nonuniform List<scalar> 
36
(
3147.93
3165.1
3173.67
3169.93
3140.13
3153.91
3420.5
3409.38
3406.9
3445.02
3454.31
3434.98
3456.25
3461.43
3468.88
3474.37
3475.46
3471.27
3451.4
3454.85
3460.46
3464.46
3464.73
3463.33
3431.34
3433.99
3438.87
3441.9
3441.81
3441.59
3190.27
3181.5
3175.78
3170.94
3170.49
3173.51
)
;
    }
    breakwater_left_surface
    {
        type            fixedFluxPressure;
        gradient        uniform 0;
        value           nonuniform List<scalar> 
24
(
11038.4
11032.9
11039.4
11033
11044.4
11023.8
4720.97
4652.35
4672.83
4711.98
4768.45
4635.98
1039.42
1052.31
1049.06
1032.4
1016.67
1042.84
972.663
974.589
975.257
969.515
963.693
967.234
)
;
    }
    breakwater_right_surface
    {
        type            fixedFluxPressure;
        gradient        uniform 0;
        value           nonuniform List<scalar> 
24
(
1153.74
1176.58
1348.17
1315.73
1450.91
1286.15
1464.84
1416.15
1300.34
1605.44
1649.33
1687.84
747.848
454.746
0.749394
496.894
678.062
678.284
-48.1331
-21.4001
46.8415
-22.0226
587.923
-75.5135
)
;
    }
    water_front_surface
    {
        type            fixedFluxPressure;
        gradient        uniform 0;
        value           nonuniform List<scalar> 
186
(
19842.7
20001.4
17956.8
15180.8
13088.5
11421.5
10496.4
10224.7
10371
10681.4
11093.4
11038.4
21319
20832.8
16227.1
9181.71
5666.35
3868.4
2836.9
2702.9
3600.34
4443.93
4834.04
4720.97
22726.7
9578.7
2424.63
154.703
-29.6146
28.8431
156.345
278.387
504.181
866.355
993.404
1039.42
26542.9
-2.20821
-5.90278
-23.0383
-41.3772
-22.8553
62.3553
304.681
376.148
136.5
369.467
972.663
2957.55
2510.19
1652.98
1022.28
726.086
569.664
721.177
777.473
779.172
844.144
1221.49
1153.74
2726.56
1343.64
141.546
56.3688
5.39445
-28.864
-28.2742
0.535927
14.5453
26.879
475.697
1464.84
2581.12
497.948
13.494
5.86241
8.56044
-4.61583
-4.34427
-1.79326
3.66012
-4.8867
9.86162
747.848
3023.06
53.8179
17.0445
-2.78604
-1.23588
-11.3335
-7.11244
-2.00106
2.05933
0.692833
0.729936
-48.1331
31315.5
13012.5
122.958
526.011
642.895
239.491
-2.96602
12.1991
-6.0442
-27.6559
-16.8679
-9.65511
-41.8197
-22.6409
14.9956
-25.4891
12.8997
9.41108
73.9455
62.2298
-12.922
109.655
3.60909
-32.8801
14.371
2.62458
-11.8284
17.0168
4.72478
-4.27297
11.1099
0.779841
-3.99741
797.172
2.42473
-9.96848
3147.93
5.80363
-8.42405
3420.5
2.8045
-6.51534
3456.25
3.89662
-5.73076
3451.4
3.40508
-5.74841
3431.34
3.82808
-6.86598
3190.27
5.57255
-9.58275
3968.3
4516.47
1365.89
68.2941
22.7555
-12.5105
9.88034
8.24694
5.49941
-2.06721
-4.24697
-2.59859
5.25253
0.543706
2.27999
0.198512
-2.43734
1.07786
4.02184
0.257126
2.12417
4.77385
0.20669
2.55567
8.76394
-1.27358
3.51323
8.73673
-3.46274
4.10412
3.98593
-3.83167
1.7954
749.533
-3.64202
-8.39129
)
;
    }
    water_back_surface
    {
        type            fixedFluxPressure;
        gradient        uniform 0;
        value           nonuniform List<scalar> 
186
(
19842.7
20001.5
17956.8
15180.6
13088.1
11421.4
10496
10221.1
10366.3
10689.7
11090.4
11023.8
21318.8
20833.5
16226.6
9180.03
5667.9
3869.02
2840.61
2686.94
3599.42
4484.39
4809.22
4635.98
22726.2
9581.92
2426.75
154.243
-30.097
26.5184
154.604
272.641
486.578
880.51
1042.55
1042.84
26547.9
-2.38275
-5.82098
-22.5479
-42.1663
-23.775
56.1667
280.938
385.555
141.211
366.423
967.234
2958.22
2401.4
1927.47
1260.3
941.263
792.536
775.309
637.844
480.73
630.907
1317.28
1286.15
2639.07
1548.64
200.135
22.6597
-34.1235
-32.8774
-9.96033
12.4666
22.5374
40.1214
467.597
1687.84
2615.64
696.562
11.1308
4.80801
6.16906
-5.78891
-1.71222
1.91465
-0.193309
-1.64496
15.2076
678.284
3209.17
85.7081
15.127
-5.60267
-2.60672
-11.3758
-3.70641
0.169582
2.50979
1.09572
8.13625
-75.5135
31318.4
12992.3
122.01
526.505
643.286
238.842
-2.86391
12.2282
-5.98429
-27.461
-16.6449
-9.6375
-41.9535
-22.6393
10.0367
-26.975
3.67965
10.0053
59.7664
59.4971
-11.8682
113.667
7.13894
-32.354
14.1454
2.77187
-11.7752
16.9404
4.76051
-4.24716
11.1841
0.759225
-3.9864
774.858
2.39157
-9.91964
3153.91
6.04458
-8.35133
3434.98
2.79921
-6.49334
3471.27
4.08565
-5.73831
3463.33
3.40566
-5.76767
3441.59
3.86015
-6.89265
3173.51
5.62185
-9.59639
4135.45
4858.25
1923.34
195.075
188.581
70.0986
8.53941
8.18133
4.67242
-2.89757
-4.71881
-3.83402
4.85673
0.453908
2.03605
0.641633
-2.60978
0.905816
3.55665
-0.00395189
2.16469
4.29208
-0.75725
2.86897
6.67003
-1.65257
3.59392
7.83668
-3.31366
3.83831
0.404146
-3.76522
1.19902
713.539
-2.11184
-8.09407
)
;
    }
    water_left_surface
    {
        type            fixedFluxPressure;
        gradient        uniform 0;
        value           nonuniform List<scalar> 
42
(
19842.7
19842.7
19842.7
19842.7
19842.7
19842.7
21319
21317.8
21318.4
21318.8
21318.4
21318.8
22726.7
22725.5
22726
22726.1
22725.8
22726.2
26542.9
26551.3
26549.2
26545.8
26546.7
26547.9
31315.5
31320.2
31317.2
31315.7
31316.6
31318.4
13012.5
12961.9
12976.5
12987.3
12974.9
12992.3
122.958
120.894
121.859
122.053
122.087
122.01
)
;
    }
    water_right_surface
    {
        type            fixedFluxPressure;
        gradient        uniform 0;
        value           nonuniform List<scalar> 
42
(
2957.55
3113.88
2945.99
3038.37
3042.66
2958.22
2726.56
2564.66
2710.47
2529.15
2577.74
2639.07
2581.12
2453.3
2516.87
1038.69
1324.22
2615.64
3023.06
3185.58
3207.92
2437.71
1668.48
3209.17
3968.3
4170.3
4135.23
4152.5
2370.49
4135.45
4516.47
1738.6
2670.79
2464.79
1412.14
4858.25
1365.89
-8.64449
0.74507
-5.91868
-10.0032
1923.34
)
;
    }
    water_top_surface
    {
        type            totalPressure;
        rho             rho;
        psi             none;
        gamma           1;
        p0              uniform 0;
        value           nonuniform List<scalar> 
180
(
0
0
0
0
0
0
0
0
0
0
0
0
-3.52374
-2.97243
-3.27811
-3.26216
-3.18265
-3.39333
0
0
0
0
0
0
0
0
0
0
0
0
0
0
0
0
0
0
0
0
0
0
0
0
-23.352
-23.7162
-23.5244
-23.9375
-24.5457
-23.1234
-15.3993
-15.5066
-15.5256
-15.3363
-15.2983
-15.4989
-7.67613
-7.68315
-7.69253
-7.65771
-7.68783
-7.66007
-5.50479
-5.50512
-5.50932
-5.50051
-5.52145
-5.48798
-3.19985
-3.20775
-3.20567
-3.20366
-3.20513
-3.20261
-0.439959
-0.423617
-0.417064
-0.479745
-0.566768
-0.48638
-1.80663
-1.83656
-1.86445
-1.88096
-1.90209
-1.84675
-1.41235
-1.40134
-1.38723
-1.36909
-1.36077
-1.35633
-1.72378
-1.72816
-1.73016
-1.72816
-1.73267
-1.72169
-2.19166
-2.19574
-2.19679
-2.19585
-2.20116
-2.19096
-1.61001
-1.60257
-1.60156
-1.60323
-1.60559
-1.59558
0
0
0
0
0
0
0
0
0
0
0
0
0
-0.0196147
0
0
0
0
-2.49079
-2.54952
-2.59576
-2.78735
-2.86959
-3.10795
-0.193152
-0.198783
-0.210623
-0.190834
-0.202999
-0.191579
-0.468456
-0.463253
-0.485613
-0.5134
-0.534151
-0.509039
0
0
0
0
0
0
0
0
0
-0.00219125
-0.0206305
-0.0215041
-0.0276399
-0.0339042
-0.0488513
-0.0699438
-0.0896655
-0.0918344
-0.469115
-0.511882
-0.55264
-0.560951
-0.624887
-0.576192
-1.44981
-1.53364
-1.61881
-1.72899
-2.03492
-1.7382
-1.57949
-1.5494
-1.23368
-1.2844
-1.35402
-1.61457
)
;
    }
}


// ************************************************************************* //
