/*--------------------------------*- C++ -*----------------------------------*\
| =========                 |                                                 |
| \\      /  F ield         | OpenFOAM: The Open Source CFD Toolbox           |
|  \\    /   O peration     | Version:  v1612+                                |
|   \\  /    A nd           | Web:      www.OpenFOAM.com                      |
|    \\/     M anipulation  |                                                 |
\*---------------------------------------------------------------------------*/
FoamFile
{
    version     2.0;
    format      ascii;
    class       volVectorField;
    location    "6.7";
    object      U;
}
// * * * * * * * * * * * * * * * * * * * * * * * * * * * * * * * * * * * * * //

dimensions      [0 1 -1 0 0 0 0];

internalField   nonuniform List<vector> 
1116
(
(-0.292339 -0.000178573 0.0574019)
(-0.29273 -6.58521e-05 0.05749)
(-0.292541 0.000110865 0.0574483)
(-0.292446 -4.66422e-05 0.057418)
(-0.292576 3.35949e-05 0.0574336)
(-0.292439 8.00584e-05 0.0574257)
(-0.663101 -3.3112e-05 0.248394)
(-0.663528 1.77557e-05 0.248319)
(-0.663272 5.77198e-06 0.248368)
(-0.663203 -3.71472e-05 0.248382)
(-0.663357 1.13461e-05 0.24832)
(-0.663216 1.40931e-05 0.248402)
(-0.832518 0.000135376 0.333731)
(-0.832793 0.000104415 0.334017)
(-0.832559 -0.000117172 0.333936)
(-0.832627 -3.90293e-05 0.333838)
(-0.832702 -3.57615e-07 0.333816)
(-0.832592 -3.46375e-05 0.333894)
(-1.28966 0.000124766 0.337742)
(-1.29006 9.07145e-05 0.337917)
(-1.28976 -8.39333e-05 0.337859)
(-1.28988 1.67568e-05 0.337881)
(-1.28993 -3.48747e-05 0.337882)
(-1.28971 -0.000107307 0.337777)
(-1.73986 -0.000313418 0.159641)
(-1.74075 -0.000218536 0.159593)
(-1.7403 0.000282912 0.159514)
(-1.74029 0.000269468 0.159863)
(-1.74044 -0.000211865 0.159913)
(-1.74002 -0.000324998 0.159394)
(-1.93665 -0.000767242 0.00296024)
(-1.93919 -0.00062731 0.00255739)
(-1.93821 0.00070899 0.00255446)
(-1.93764 0.000764097 0.00324301)
(-1.9379 -0.000626762 0.00343591)
(-1.93773 -0.000882307 0.00230311)
(-1.95937 -0.000490791 -0.191649)
(-1.9656 -0.000760263 -0.192515)
(-1.96372 0.000761759 -0.192271)
(-1.96149 0.000908638 -0.19149)
(-1.96043 -0.000797382 -0.190751)
(-1.96404 -0.000980105 -0.193114)
(-1.81732 0.00187693 -0.436945)
(-1.82556 0.000449718 -0.437994)
(-1.82392 -0.000654396 -0.437266)
(-1.8194 -0.0013487 -0.437267)
(-1.81618 0.00116678 -0.435548)
(-1.82591 0.00220458 -0.439191)
(-1.60231 0.00228767 -0.691743)
(-1.59988 0.000974911 -0.692604)
(-1.60086 -0.00118532 -0.691512)
(-1.6023 -0.00243251 -0.692836)
(-1.60502 0.00198203 -0.690521)
(-1.59765 0.00280684 -0.693808)
(-1.25136 -0.00180896 -0.797722)
(-1.23888 -0.000770337 -0.796132)
(-1.24238 0.00118999 -0.795405)
(-1.24919 0.0015076 -0.798853)
(-1.2581 -0.00199523 -0.799249)
(-1.23301 -0.00500939 -0.794525)
(-0.559611 0.000814657 -0.676425)
(-0.560302 0.00132057 -0.669914)
(-0.561496 -0.0014053 -0.670569)
(-0.557546 -0.00291447 -0.676311)
(-0.557129 0.00324698 -0.682089)
(-0.56497 0.00439703 -0.663561)
(-0.167449 0.00481242 -0.154327)
(-0.162824 0.00348176 -0.140971)
(-0.163694 -0.00464907 -0.143025)
(-0.16716 -0.00857447 -0.152704)
(-0.172284 0.00704122 -0.164228)
(-0.16184 0.0126091 -0.136098)
(-0.636968 -0.000249316 0.860912)
(-0.637367 -0.000109357 0.860532)
(-0.637146 0.000117176 0.860722)
(-0.637154 -6.76578e-05 0.860754)
(-0.637272 6.57246e-05 0.86063)
(-0.637056 0.000118084 0.860827)
(-1.1068 0.000106536 0.340193)
(-1.10709 4.97205e-05 0.340075)
(-1.10689 -8.5052e-05 0.340171)
(-1.10698 -1.36847e-05 0.340181)
(-1.10706 6.75277e-06 0.340095)
(-1.10685 1.72588e-06 0.34021)
(-0.922628 0.000313851 0.261925)
(-0.923341 0.000173268 0.262489)
(-0.923046 -0.000220299 0.262293)
(-0.923012 -8.44934e-05 0.262165)
(-0.92324 0.000101684 0.262303)
(-0.922881 9.18349e-05 0.262043)
(-0.428116 -0.000364354 0.562766)
(-0.428172 -0.000222063 0.56408)
(-0.428128 0.000162383 0.563605)
(-0.428397 -5.2644e-05 0.563299)
(-0.428697 8.36392e-05 0.563729)
(-0.427857 0.000136822 0.562973)
(0.0240057 0.000566192 0.377699)
(0.0201555 0.000307775 0.377146)
(0.0215707 -0.000618922 0.377169)
(0.0225249 -0.000480658 0.377888)
(0.0218822 0.000272646 0.378238)
(0.0226061 0.000438423 0.376766)
(0.734351 0.00126031 0.126293)
(0.73045 0.000662547 0.125726)
(0.73228 -0.00101477 0.125504)
(0.731919 -0.000890622 0.126603)
(0.731875 0.000555941 0.126426)
(0.73334 0.00119667 0.125648)
(1.79515 0.00015929 -0.0707643)
(1.79894 -0.00108478 -0.0699686)
(1.79712 0.000153113 -0.070778)
(1.79644 0.00166155 -0.0697366)
(1.79491 -0.000939385 -0.0715605)
(1.79823 -0.000852982 -0.0693102)
(1.93439 0.00175615 -0.0527924)
(1.97627 0.00181731 -0.04993)
(1.96625 -0.00293389 -0.0504213)
(1.94326 -0.00587897 -0.0521397)
(1.91712 0.00476689 -0.0557236)
(1.98509 0.0105116 -0.0475728)
(1.45632 -0.00805222 0.0497653)
(1.48697 -0.000964317 0.0512819)
(1.48362 0.000796768 0.0517462)
(1.45616 -0.00279882 0.0495859)
(1.43187 0.0023048 0.0467918)
(1.50046 0.0042125 0.0535943)
(0.441972 -0.0225073 -0.111674)
(0.440199 -0.00681953 -0.126287)
(0.45054 0.0095121 -0.121435)
(0.432168 0.0217217 -0.114392)
(0.424791 -0.0214403 -0.102615)
(0.454829 -0.0396763 -0.132587)
(1.06031 -0.0142789 -0.323964)
(0.971959 -0.000667858 -0.308974)
(0.988014 0.00531214 -0.313188)
(1.0511 0.0206436 -0.321695)
(1.11668 -0.0115155 -0.333458)
(0.907438 -0.0235691 -0.298969)
(0.0649398 0.022361 -0.382835)
(-0.0741037 0.0148192 -0.354798)
(-0.0535247 -0.0187396 -0.358135)
(0.0544128 -0.0280912 -0.381203)
(0.153571 0.0226941 -0.404728)
(-0.111934 0.0545929 -0.342411)
(-0.842524 9.11458e-05 1.34769)
(-0.843203 5.72351e-05 1.34676)
(-0.842807 -4.83076e-05 1.34709)
(-0.842892 -1.24527e-05 1.34732)
(-0.84305 -1.95986e-05 1.34702)
(-0.842632 -1.34939e-05 1.34741)
(0.633887 0.000493509 0.546198)
(0.634215 0.000397513 0.54625)
(0.633949 -0.000330133 0.546167)
(0.633947 -0.000317544 0.546278)
(0.634021 0.000329002 0.546378)
(0.633856 0.000401105 0.546088)
(3.6298 0.00120657 -0.326406)
(3.63387 0.000922986 -0.323521)
(3.63191 -0.000783481 -0.324475)
(3.63113 -0.000624873 -0.325639)
(3.63147 0.000570193 -0.324928)
(3.63103 0.00074949 -0.324955)
(7.60288 -0.00346661 -0.355322)
(7.60193 -0.00226621 -0.354444)
(7.60236 0.00127729 -0.354994)
(7.60413 0.000484219 -0.355564)
(7.60786 -0.00189852 -0.355298)
(7.59822 -0.00257319 -0.355034)
(9.72547 0.0305475 -0.854381)
(9.71755 0.0145742 -0.833088)
(9.72192 -0.0151857 -0.842402)
(9.72229 -0.000511884 -0.845839)
(9.72223 -0.004644 -0.843081)
(9.71932 0.00373763 -0.847043)
(9.46115 0.095031 -0.811823)
(9.49178 0.0619489 -0.810339)
(9.47016 -0.0491184 -0.80981)
(9.49533 -0.0509942 -0.812075)
(9.50097 0.0391741 -0.8116)
(9.48037 0.0855636 -0.810614)
(2.03866 0.103727 -0.236934)
(3.03095 0.0911723 -0.295424)
(2.76542 -0.0510312 -0.283883)
(2.39884 -0.0952192 -0.25729)
(1.78443 0.113761 -0.215187)
(3.08563 0.205573 -0.309003)
(-5.18166 -0.0864089 0.811502)
(-4.764 -0.0209363 0.846911)
(-4.84473 0.0386516 0.856538)
(-5.11854 0.0365423 0.807436)
(-5.39922 0.000762467 0.760602)
(-4.58101 0.0083189 0.890575)
(-3.51419 -0.0754498 0.783785)
(-3.56505 -0.0224399 0.779445)
(-3.53998 0.0296059 0.787477)
(-3.53983 0.0632148 0.774126)
(-3.64052 -0.0540721 0.735899)
(-3.44863 -0.0984247 0.813491)
(-2.79489 -0.0195934 -0.711718)
(-2.89805 -0.00429681 -0.725544)
(-2.86991 0.00747511 -0.728668)
(-2.81794 0.0370339 -0.709836)
(-2.83743 -0.0321121 -0.723489)
(-2.86093 -0.0511645 -0.705499)
(-1.22889 -0.00489826 -0.583376)
(-1.31318 -0.00613377 -0.47524)
(-1.29721 0.0128205 -0.506845)
(-1.25538 0.0335087 -0.564179)
(-1.2377 -0.0198266 -0.655107)
(-1.33538 -0.0196129 -0.439288)
(0.246604 0.0445668 1.26159)
(0.0685207 0.0101024 1.21116)
(0.100803 -0.0136859 1.22871)
(0.216115 -0.0303072 1.26008)
(0.335105 0.0117272 1.30841)
(0.0672077 0.0664627 1.18527)
(-1.90019 0.000253628 1.00072)
(-1.90117 0.000137022 1.00158)
(-1.90069 -0.000111128 1.00134)
(-1.90074 3.61355e-06 1.00122)
(-1.90092 -1.40941e-05 1.00124)
(-1.90051 -8.84392e-06 1.00115)
(1.02757 -0.00220707 -1.95979)
(1.02825 8.24087e-05 -1.96214)
(1.02788 0.00130577 -1.95994)
(1.02788 -0.000531819 -1.96106)
(1.02792 0.00112618 -1.96173)
(1.02774 0.000544383 -1.95906)
(-4.05807 -0.0787341 -7.23407)
(-4.04956 -0.0281504 -7.20702)
(-4.05234 0.0339669 -7.21683)
(-4.05355 0.0117984 -7.22788)
(-4.06607 -0.0075643 -7.23672)
(-4.0444 -0.0248423 -7.20679)
(2.20858 0.014062 -3.29364)
(1.613 0.00933587 -3.26573)
(1.84352 -0.031244 -3.28908)
(2.03147 -0.001309 -3.27612)
(2.04215 -0.0211308 -3.28169)
(1.85238 -0.0163841 -3.28979)
(-2.52921 0.166042 -2.08404)
(-2.82182 0.0854001 -1.95026)
(-2.70886 -0.0764237 -2.01745)
(-2.65633 -0.0138114 -2.04537)
(-2.6512 -0.00762524 -2.01617)
(-2.70809 0.0472049 -2.05668)
(-1.16294 0.126343 6.1731)
(-0.810395 0.0798292 6.22652)
(-0.901923 -0.0639792 6.19595)
(-1.03556 -0.0691364 6.21891)
(-1.1621 0.0653139 6.24213)
(-0.83521 0.146459 6.1817)
(-6.2117 0.000935311 7.14717)
(-5.66651 0.00609399 7.48831)
(-5.73122 -0.00744441 7.51704)
(-6.07196 -0.0236792 7.27864)
(-6.43747 0.0373374 7.04343)
(-5.42272 0.0886532 7.73119)
(-7.68837 -0.0386238 2.41292)
(-7.64833 -0.0353591 2.5768)
(-7.64737 0.0263692 2.60749)
(-7.71025 0.0435755 2.46151)
(-7.82084 -0.0374529 2.3187)
(-7.52377 -0.0598942 2.74922)
(-6.11039 0.00437072 -1.25744)
(-6.14796 -0.0118467 -1.21629)
(-6.14037 0.00547374 -1.20945)
(-6.13665 0.00981625 -1.24886)
(-6.15394 -0.0141309 -1.32765)
(-6.11773 -0.010709 -1.12847)
(-4.91656 0.0189479 -2.7836)
(-4.909 -0.00259873 -2.80498)
(-4.90678 -0.00191253 -2.83218)
(-4.92268 -0.0131684 -2.76257)
(-4.92785 0.00409429 -2.74586)
(-4.88651 0.0210069 -2.82933)
(-4.13452 -0.000394566 -2.99433)
(-4.13656 -0.0105208 -3.018)
(-4.13389 0.00794256 -3.02288)
(-4.14697 0.0068869 -2.98853)
(-4.17663 -0.0100462 -2.99266)
(-4.11058 -0.00699446 -3.02315)
(-2.49512 0.0120357 -1.76648)
(-2.56762 0.00170377 -1.79716)
(-2.54401 -0.00642412 -1.78514)
(-2.51782 -0.00654638 -1.78188)
(-2.4674 0.00490888 -1.7583)
(-2.57022 0.0146738 -1.79622)
(-0.23731 -0.933401 0.465336)
(1.40392 -0.0097173 -0.0331511)
(-0.154857 -0.0607106 0.446356)
(1.56343 -0.478166 0.0593851)
(2.64257 0.302231 -0.179279)
(0.120119 1.02001 0.558598)
(1.45766 -0.308454 0.0122797)
(4.49616 -0.0299851 -1.40042)
(2.45717 -0.00162251 -0.697201)
(3.4748 0.294237 -0.788892)
(4.48052 -0.107155 -0.590372)
(0.50128 0.15591 0.234827)
(4.36611 0.272319 -1.18619)
(5.74554 0.0334641 -2.17688)
(5.45351 -0.37677 -2.58079)
(5.13941 0.00899598 -1.67297)
(5.89263 -0.722698 -1.15786)
(4.00086 -0.381287 -1.40161)
(6.03463 0.237022 -1.78287)
(6.15973 0.152343 -1.75996)
(6.48643 -0.352972 -3.1226)
(5.85116 -0.125342 -1.59401)
(6.82513 -0.717765 -1.31515)
(5.9619 -0.32351 -2.40012)
(6.74497 -0.166433 -1.65155)
(7.78649 0.015607 -2.56358)
(7.4998 -0.211386 -3.36406)
(7.21181 0.169946 -1.95697)
(6.99984 -0.371247 -0.935452)
(6.72164 -0.192728 -2.47652)
(6.89555 -0.494396 -1.63296)
(7.86701 0.102207 -3.00361)
(7.58755 -0.174754 -3.55651)
(7.43986 0.161656 -2.45617)
(6.81873 0.0134712 -0.818138)
(6.62675 -0.0388815 -2.30175)
(6.43791 -0.38878 -1.73899)
(7.09476 0.289155 -2.9157)
(7.0731 -0.130136 -3.52553)
(6.81163 0.117602 -2.51164)
(6.23784 0.105317 -0.691302)
(6.18097 0.0506835 -2.10508)
(5.55871 -0.181772 -1.74693)
(6.36442 0.341188 -2.68076)
(6.5475 -0.211428 -3.40012)
(6.15416 0.0895697 -2.36504)
(5.63451 0.140168 -0.604591)
(5.73736 0.184989 -1.92979)
(4.95932 -0.139891 -1.71325)
(5.77475 0.0858139 -2.48362)
(6.08925 -0.35324 -3.37634)
(5.58285 0.155398 -2.25948)
(5.01597 0.245757 -0.621334)
(5.68236 0.350881 -1.87725)
(4.4169 -0.278913 -1.36188)
(5.02088 -0.254999 -2.25829)
(5.35401 -0.354139 -3.42996)
(4.68725 0.37289 -2.21728)
(4.0403 0.330286 -0.729185)
(5.60179 0.210343 -2.18447)
(2.78518 -0.34271 -0.550252)
(3.31122 -0.299398 -1.83498)
(3.76581 -0.18081 -3.30517)
(2.8909 0.603681 -1.97245)
(1.98517 0.270381 -0.630822)
(3.46419 -0.109463 -2.07165)
(-1.10887 -0.309894 1.33957)
(-0.282379 -0.407796 0.00261937)
(1.32705 -0.0463504 -1.91506)
(0.127166 0.417154 -0.573431)
(-1.20607 0.349399 0.293311)
(-1.45862 -0.0283365 1.57631)
(-0.81145 -0.966176 2.75521)
(1.2995 -0.0117636 2.95652)
(-0.403533 -0.33452 2.86484)
(2.44166 -0.396578 3.38805)
(4.06432 -0.0671878 3.29277)
(-0.0284833 1.22587 2.54354)
(2.16406 -0.118549 4.10932)
(6.31728 0.273722 4.08184)
(3.32732 -0.168694 4.30814)
(5.36184 0.344917 3.74955)
(6.3119 -0.794782 3.64206)
(0.563346 -0.288091 3.20813)
(5.49841 0.100577 3.53624)
(8.01523 0.105181 4.19867)
(6.99982 -0.410276 4.14485)
(7.10779 0.104026 3.68563)
(7.68741 -0.172834 2.8778)
(5.24461 -0.199978 2.93563)
(4.06186 -0.384767 2.36)
(6.92627 0.237694 5.30859)
(5.34962 -0.145341 4.3047)
(6.32068 0.393785 3.933)
(5.98862 0.518629 2.16254)
(3.06183 0.575702 2.47298)
(0.804652 0.194701 1.87877)
(5.66897 0.443003 3.16795)
(3.78294 -0.200182 3.33111)
(5.28229 0.525683 2.99356)
(3.64372 0.220219 1.27362)
(-2.93705 0.45671 0.968397)
(-0.156641 0.0412617 1.73998)
(-0.690804 0.148246 0.337791)
(0.966154 -1.01492 2.32692)
(-0.590729 -0.575373 0.353251)
(-3.88588 -1.2453 0.126289)
(-5.86794 -0.132072 1.15531)
(-4.86052 -0.415645 0.211528)
(-3.05069 -0.5075 0.149957)
(-1.43269 -1.66478 2.26283)
(-2.99298 -2.28325 -0.0465276)
(-3.6025 -1.7642 -0.568994)
(-3.45318 -0.283988 1.11969)
(-4.06011 -0.423222 -0.080239)
(0.992807 0.541012 1.38193)
(0.690571 -0.794435 2.46122)
(-2.1321 -1.81691 0.509611)
(-1.29221 -1.44892 -0.582656)
(2.84892 0.0153937 1.98646)
(1.44533 0.370709 1.07072)
(4.57088 1.02957 1.80441)
(2.94766 -1.18873 1.9359)
(2.00304 -1.48578 -0.181309)
(2.31067 -0.888885 -1.20432)
(6.4975 0.403053 2.53091)
(5.7658 0.12566 0.918323)
(5.36621 0.652185 -0.415325)
(3.42748 -1.37249 0.0912025)
(4.1044 -1.203 -2.1923)
(4.29646 -0.045262 -2.89383)
(6.74033 1.11607 1.86435)
(3.69291 0.161771 -3.67798)
(3.83407 0.756592 -4.59629)
(2.77101 -0.617906 -3.89621)
(3.60002 -0.591192 -3.89836)
(3.28948 -0.252021 -3.5447)
(3.89826 0.438552 -5.20896)
(2.13101 0.138636 -1.9347)
(2.8609 0.539487 -2.80598)
(3.84024 0.113064 -4.12429)
(2.04406 -0.211169 -2.14541)
(0.182985 -0.523552 -0.235249)
(2.392 -0.133605 -2.66803)
(-0.211002 -0.39249 3.70298)
(1.095 -0.0224331 4.16588)
(0.310672 -0.593398 3.87054)
(2.53621 -0.20416 5.02683)
(3.87226 -0.501702 5.24023)
(0.10629 0.767691 3.31993)
(-0.134642 -0.205957 6.56765)
(-1.30657 0.469113 8.92913)
(0.705726 -0.245056 7.38646)
(-2.43425 0.513207 7.49613)
(-0.646475 -1.14593 6.75987)
(-0.191478 -0.417534 3.74004)
(3.37681 -0.512496 3.83524)
(2.41533 0.0288034 1.3127)
(4.61401 -0.120631 4.16946)
(2.22464 -0.150419 0.85591)
(1.39179 0.760013 0.224519)
(3.12905 0.330667 3.33213)
(-2.89824 -0.517258 -4.37723)
(-2.61194 0.103594 -3.31096)
(-2.84026 0.248427 -4.63657)
(-2.59648 -0.180417 -3.88056)
(-2.82464 0.744721 -4.48586)
(-3.03747 0.515778 -5.68211)
(0.289488 0.04568 -5.51798)
(-0.900222 0.126028 -6.2663)
(-0.57486 0.429422 -6.477)
(-0.415586 0.51796 -6.57266)
(-0.300528 0.591788 -6.8908)
(0.396007 0.229734 -6.97315)
(-0.165118 -0.172142 -4.88734)
(-0.827736 -0.226843 -5.6852)
(-0.694967 -0.0413776 -5.66409)
(-0.559537 0.144933 -6.07129)
(0.0230202 -0.177486 -5.14654)
(-0.797804 -0.0883843 -3.36094)
(-0.905469 -0.523905 -1.51871)
(-0.437263 0.0899344 0.233261)
(-0.778826 -0.263031 1.81572)
(-0.490692 1.08731 -1.81364)
(0.976922 -0.371271 -1.88946)
(0.644669 -0.0775746 2.09671)
(-0.065716 -0.785165 2.62092)
(2.99911 0.22741 3.98334)
(2.99711 -0.208326 4.6776)
(-0.266164 0.584799 2.80519)
(-0.979623 -0.586077 0.560539)
(2.11074 -0.0402902 2.91771)
(-0.668208 -0.0369287 2.78555)
(3.75589 0.641914 3.78825)
(3.34737 -0.82087 3.27471)
(-0.662877 -0.252657 1.59048)
(-1.94144 -0.647331 0.190387)
(1.20849 0.102186 1.61285)
(0.740495 0.632062 1.45668)
(1.77447 0.387788 2.23672)
(1.67167 -1.55271 1.5148)
(-0.330986 -1.73227 -0.841317)
(-0.427897 -0.712464 -1.91915)
(1.14185 0.244449 -1.06711)
(-0.0893294 0.0280645 -6.46768)
(-4.48479 -0.29831 -3.8336)
(-5.99116 -0.793534 -0.220616)
(0.679469 -0.337639 -5.72585)
(3.41259 0.0388207 -6.64332)
(-0.34356 0.80895 -6.05328)
(4.61622 0.0860759 -4.8351)
(5.05503 0.0449682 -5.19292)
(5.28989 0.466456 -4.05994)
(3.83173 -0.213117 -3.79011)
(1.83767 -0.171985 -2.49784)
(4.11773 0.444013 -4.66438)
(1.26513 -0.238188 3.40765)
(1.90288 -0.00730427 4.35008)
(1.40271 -0.506873 3.79707)
(3.33872 -0.299485 4.32131)
(4.43764 -0.378937 5.00079)
(0.824737 0.660041 3.23525)
(-1.80871 -0.422254 6.88597)
(-2.14709 0.151539 9.35555)
(-1.493 -0.269849 7.99795)
(-3.4977 0.5033 8.23679)
(-2.53194 -0.637679 6.52749)
(-1.0805 0.0202893 2.0632)
(1.26343 0.243062 1.64964)
(2.27383 0.104443 -1.8989)
(2.09383 -0.00556878 0.176316)
(2.65539 1.01775 -1.76571)
(2.96582 0.392593 -1.76794)
(2.36808 -0.0037321 2.05686)
(-2.17773 0.125197 -1.30945)
(-2.55157 0.184666 -1.32775)
(-2.47209 0.24562 -1.37337)
(-2.24476 0.264758 -1.47044)
(-2.26918 0.282756 -1.98199)
(-2.43712 0.134729 -1.02696)
(0.939272 0.0197858 0.0623866)
(0.921661 0.141388 0.227809)
(0.981881 0.138948 0.151153)
(1.27566 0.00471519 0.154774)
(1.55977 0.00277212 -0.0648586)
(1.52733 0.00714199 0.120111)
(1.14264 0.0740271 -0.735933)
(1.10221 0.252585 0.189278)
(0.860841 -0.134692 -0.180699)
(1.17366 -0.225452 -0.861529)
(1.58071 -0.593198 -0.551352)
(1.44469 -0.272983 0.62944)
(1.88302 -0.406608 1.33646)
(1.35336 -0.239033 2.75844)
(0.653319 0.153494 3.09585)
(1.39128 1.15249 1.07264)
(2.1993 -0.487661 0.23802)
(2.32151 -0.229503 2.42088)
(0.874183 -0.519529 2.54636)
(2.15027 -0.000988684 4.2656)
(2.67737 0.0615853 4.7791)
(0.380045 1.03742 2.49902)
(-0.05579 0.252933 -1.07056)
(1.31066 0.0198181 1.28528)
(-1.99791 -0.289414 0.758456)
(-0.00146683 0.135445 1.9284)
(0.481355 -0.0647082 1.09646)
(-1.30004 0.367429 -0.109419)
(-0.865704 0.0944455 -1.42987)
(-1.05987 0.0926303 -0.83584)
(-1.5626 0.00824921 -2.0803)
(0.179325 0.13746 -2.52175)
(1.46707 -0.316851 -3.09133)
(-0.806204 -0.593749 -2.46404)
(-0.121773 -0.00803773 -2.95949)
(-0.594404 0.431693 -1.85839)
(-5.80121 -0.107734 -2.20068)
(-5.72312 -0.228677 -2.16837)
(-5.29398 -0.211725 -2.14783)
(-1.91765 0.284651 -3.2943)
(3.83994 0.10969 -5.61476)
(-4.58522 0.398688 -2.76282)
(5.19705 -0.122034 -3.1409)
(5.06567 -0.0899572 -2.45851)
(4.95782 0.456086 -2.35714)
(5.18359 0.923574 -3.11195)
(4.00996 0.101177 -4.10382)
(4.79251 -0.305886 -3.1503)
(-2.9992 -0.000690853 1.31781)
(-2.999 -0.000602315 1.31828)
(-2.9989 0.000204875 1.31799)
(-2.99912 1.52313e-06 1.31815)
(-2.99902 7.45085e-05 1.31822)
(-2.99915 0.000212034 1.31789)
(-3.51886 -0.00216588 0.6308)
(-3.51721 -0.000892923 0.626414)
(-3.51746 0.00139505 0.627177)
(-3.51821 -0.000308785 0.628623)
(-3.5176 0.000198942 0.627708)
(-3.51843 0.000679028 0.628853)
(-3.78709 -0.00996817 1.52906)
(-3.78834 -0.00432846 1.49833)
(-3.78711 0.00550679 1.51412)
(-3.78763 -0.00122053 1.5177)
(-3.78755 0.00170221 1.5117)
(-3.78738 0.00292108 1.51825)
(2.9851 -0.00598565 2.03688)
(2.98568 -0.00217937 2.03191)
(2.98545 0.00399342 2.03445)
(2.9855 0.00197981 2.03479)
(2.98572 -0.000986011 2.03502)
(2.98517 -0.00315577 2.03436)
(3.62256 -0.0097358 3.56526)
(3.62284 -0.0045894 3.57151)
(3.62233 0.00553047 3.57003)
(3.62283 0.000873779 3.56858)
(3.62265 0.000462669 3.57175)
(3.62268 -0.000200921 3.56843)
(1.19238 -0.0182976 7.77322)
(1.1756 -0.00888722 7.73656)
(1.18288 0.00888854 7.74972)
(1.18465 -0.00105385 7.75578)
(1.18345 0.00337615 7.74667)
(1.18625 0.00380635 7.76016)
(-5.303 -0.0651161 -4.3031)
(-5.36843 -0.0225587 -4.23521)
(-5.33699 0.0242549 -4.27002)
(-5.32356 -0.0044727 -4.27851)
(-5.32308 0.00611486 -4.27276)
(-5.34003 0.000267344 -4.27374)
(-7.04499 -0.073743 -2.93507)
(-7.10339 -0.0266609 -2.82779)
(-7.07169 0.0304069 -2.88998)
(-7.06263 -0.01505 -2.88444)
(-7.06404 0.0233421 -2.86463)
(-7.07302 0.0269698 -2.91217)
(-8.67318 -0.0524186 -2.65336)
(-8.77607 -0.0225418 -2.43687)
(-8.7193 0.022007 -2.55926)
(-8.71674 -0.0155407 -2.55308)
(-8.72161 0.0232534 -2.52179)
(-8.71105 0.030632 -2.60398)
(-1.45891 0.0468374 -2.98942)
(-2.00626 0.0285723 -2.58353)
(-1.73592 -0.0363112 -2.78944)
(-1.703 -0.014463 -2.80211)
(-1.76475 -0.0085981 -2.74772)
(-1.65939 0.0141483 -2.86426)
(-3.20126 0.00325346 -1.23892)
(-3.90101 0.00964974 -0.73997)
(-3.52534 -0.0100219 -1.00589)
(-3.54161 -0.00996733 -0.995563)
(-3.68264 0.000779443 -0.906526)
(-3.35488 0.0219736 -1.13945)
(-1.73143 -0.0300375 0.0678418)
(-2.42733 -0.0137475 0.932388)
(-2.06049 0.000534203 0.463901)
(-2.06637 -0.0132735 0.507687)
(-2.23999 0.0147066 0.738059)
(-1.86192 0.0263319 0.16537)
(-6.19535 0.155995 2.43788)
(-6.37322 0.0771902 2.80892)
(-6.22562 -0.0714741 2.60344)
(-6.33053 -0.0335406 2.641)
(-6.4377 0.0136892 2.71723)
(-6.13969 0.0855868 2.48452)
(-9.02763 0.138162 4.36249)
(-9.30176 0.0667605 4.88808)
(-9.10301 -0.0593376 4.67094)
(-9.2266 0.00276813 4.60311)
(-9.37398 -0.0224622 4.59037)
(-8.92848 0.0109046 4.60172)
(-6.76403 0.0982283 7.84484)
(-7.45206 0.0387611 8.5069)
(-7.07492 -0.0413003 8.17006)
(-7.15471 0.0493868 8.21127)
(-7.41569 -0.0821796 8.43321)
(-6.71673 -0.0923307 7.81318)
(-7.89517 0.072235 8.41394)
(-7.6408 0.0405177 8.65424)
(-7.66432 -0.0355747 8.58993)
(-7.85959 -0.0390216 8.5011)
(-8.05661 0.0468718 8.43788)
(-7.52913 0.114371 8.60795)
(-10.2495 0.0235672 8.63634)
(-10.1716 0.010897 8.98983)
(-10.1535 -0.00453988 8.94733)
(-10.2674 0.0103559 8.71667)
(-10.4059 0.00902663 8.53526)
(-10.0218 0.024335 9.11124)
(-8.51684 0.0580519 8.52641)
(-8.67263 0.0258318 8.74142)
(-8.58401 -0.0150293 8.75749)
(-8.61972 0.060842 8.54292)
(-8.77272 -0.0668864 8.4091)
(-8.38068 -0.100425 8.9509)
(-9.1844 -0.0439952 7.4791)
(-9.06952 -0.0368259 7.81131)
(-9.07159 0.015491 7.82028)
(-9.18448 0.0208399 7.53759)
(-9.35851 -0.0191361 7.29075)
(-8.87467 -0.0218851 8.03125)
(-9.17174 -0.0618597 5.70033)
(-9.17747 -0.0415191 5.90177)
(-9.18352 0.0192965 5.95195)
(-9.16215 0.0377509 5.6665)
(-9.25497 -0.0287311 5.42488)
(-9.06853 -0.0625868 6.20729)
(-6.93523 -0.0110453 1.90936)
(-6.94931 -0.00247629 1.88494)
(-6.98393 -0.00171427 2.011)
(-6.90132 0.0292037 1.75286)
(-6.90697 -0.0286313 1.46461)
(-6.98151 -0.064652 2.34239)
(-7.70088 -0.0348066 1.78213)
(-7.79395 -0.0278875 2.00461)
(-7.78033 0.0109673 2.00353)
(-7.71492 0.024935 1.82741)
(-7.73378 -0.0422309 1.62162)
(-7.74904 -0.06849 2.22229)
(-4.94466 -0.0338549 -2.48766)
(-4.96789 -0.0226397 -2.50352)
(-5.01725 -0.0111578 -2.42338)
(-4.89751 0.00994584 -2.55641)
(-4.80265 -0.0349085 -2.83064)
(-5.04125 -0.0667806 -2.22519)
(-2.14457 -0.00390144 -6.8333)
(-2.10783 -0.00273478 -6.88636)
(-2.14217 -0.0100191 -6.85846)
(-2.08315 0.00671758 -6.91842)
(-2.01914 -0.0137274 -7.00576)
(-2.20052 -0.0313809 -6.79975)
(-3.62262 -0.0169841 -2.22795)
(-3.5557 -0.0064127 -2.26395)
(-3.57625 -0.00130109 -2.29752)
(-3.56594 0.00639631 -2.22751)
(-3.53865 -0.0186492 -2.30548)
(-3.58959 -0.03071 -2.2224)
(-1.84009 -0.00122243 -4.41276)
(-1.7707 0.00725707 -4.51913)
(-1.77519 -0.0163853 -4.51507)
(-1.82036 -0.0225356 -4.41628)
(-1.83059 0.00870711 -4.42893)
(-1.76983 0.0074216 -4.48638)
(-1.07761 0.00426846 -5.54891)
(-1.07218 0.00568074 -5.56821)
(-1.06905 -0.0105707 -5.57162)
(-1.08371 -0.0147804 -5.53754)
(-1.09515 0.0120472 -5.53068)
(-1.06295 0.0146816 -5.56686)
(-3.95745 -0.0148116 -1.73296)
(-3.95989 -0.00226813 -1.68507)
(-3.94781 -0.00123931 -1.72882)
(-3.96177 -0.0106337 -1.69729)
(-3.95413 0.00843924 -1.73033)
(-3.95326 0.00858424 -1.69265)
(-1.40181 -0.0140453 -2.6591)
(-1.40505 -0.00788494 -2.67656)
(-1.40594 0.00413844 -2.67701)
(-1.39979 0.0052349 -2.65291)
(-1.39705 -0.00751964 -2.67379)
(-1.39913 -0.0152469 -2.65465)
(-0.702699 0.00125231 -3.91753)
(-0.702742 0.000929091 -3.91933)
(-0.703977 -0.00236747 -3.9217)
(-0.698826 -5.74346e-05 -3.9128)
(-0.695178 -0.00105202 -3.9205)
(-0.705508 -0.00299746 -3.91343)
(-4.9669 0.00279247 -2.91951)
(-4.96529 0.00372269 -2.86928)
(-4.95935 -0.00222573 -2.88912)
(-4.9696 -0.00238934 -2.90851)
(-4.96532 0.00276674 -2.97034)
(-4.96629 0.00381876 -2.84406)
(0.0583059 -0.00564361 -2.08146)
(0.0547562 -0.00240006 -2.06752)
(0.0519456 0.00167674 -2.06879)
(0.0623365 0.00393676 -2.07137)
(0.0660306 -0.00509931 -2.0856)
(0.049558 -0.0109168 -2.05184)
(0.253362 -0.000866395 -3.31751)
(0.253043 -0.00101464 -3.31757)
(0.252392 -0.00067323 -3.31882)
(0.252227 4.29394e-05 -3.31615)
(0.250735 -0.00128137 -3.32246)
(0.253631 -0.00183216 -3.31238)
(-4.03718 0.0072502 -2.40919)
(-4.03985 0.00645724 -2.41754)
(-4.04134 0.0014688 -2.42118)
(-4.06197 -0.00291119 -2.42211)
(-4.07472 0.00233763 -2.41384)
(-4.04183 0.00780381 -2.41963)
(-0.0715123 -0.00431959 -5.3949)
(-0.0704978 -0.0030564 -5.36078)
(-0.0736397 -0.0013746 -5.35116)
(-0.0684609 -0.000323325 -5.35606)
(-0.0675035 -0.00111216 -5.36996)
(-0.0737297 -0.00346253 -5.34114)
(0.3588 -0.00282334 -2.52927)
(0.360946 -0.00396142 -2.53236)
(0.361315 -0.0019279 -2.53153)
(0.361205 -5.87083e-05 -2.53073)
(0.360494 -0.00183424 -2.53132)
(0.364054 -0.00259017 -2.53034)
(2.22271 -0.0142548 0.149207)
(2.20653 -0.0354013 0.159868)
(2.1878 -0.0322852 0.179677)
(2.17935 -0.00743918 0.290456)
(2.10186 0.0198053 0.445375)
(2.21496 0.019516 0.286986)
(0.596004 -0.0458448 -5.01668)
(0.610809 -0.0756615 -5.00242)
(0.70257 -0.0621688 -4.95988)
(0.687907 -0.0848783 -4.97029)
(0.750494 0.00744564 -4.75952)
(0.676926 0.0691541 -5.05879)
(0.42949 0.0185113 -0.938043)
(0.529559 0.0348574 -0.920456)
(0.639627 0.00433174 -0.913304)
(0.581104 -0.0356276 -0.97953)
(0.570792 -0.00903559 -1.06467)
(0.473614 0.0118543 -0.986274)
(0.555175 0.000795509 -0.17466)
(0.545946 0.0047808 -0.17933)
(0.525756 0.00598801 -0.178242)
(0.522608 0.00340774 -0.19002)
(0.519285 -0.000287484 -0.169059)
(0.541937 -0.00287224 -0.189831)
(0.0205899 0.0112528 -2.17171)
(-0.0257849 0.0315385 -2.14423)
(-0.0658652 0.0346864 -2.08285)
(-0.101949 0.0279212 -2.06797)
(-0.162317 0.0095898 -1.99061)
(-0.0593526 -0.0021765 -2.13849)
(0.757113 0.00676711 -1.9008)
(0.759538 0.0124122 -1.91646)
(0.75837 -0.00892753 -1.93096)
(0.755852 -0.0270443 -1.93949)
(0.737468 -0.0107974 -1.95036)
(0.752893 0.00151043 -1.92178)
(0.199693 -0.00120426 0.209053)
(0.200286 -0.00379515 0.20791)
(0.203847 0.00219003 0.206659)
(0.201063 0.00429027 0.209066)
(0.201667 -0.00206791 0.206728)
(0.202048 -0.00111728 0.201115)
(0.0435491 -0.0133231 -1.00596)
(0.0476996 -0.0279563 -1.01085)
(0.0610075 -0.0304893 -0.997659)
(0.0576966 -0.0294209 -0.965146)
(0.0612177 0.000798998 -0.950823)
(0.0746681 0.0160238 -0.987121)
(0.214496 0.00201228 -1.6805)
(0.220511 0.000964275 -1.67393)
(0.225771 -0.00513099 -1.66549)
(0.216842 -0.0104611 -1.65458)
(0.208772 -0.00275703 -1.64955)
(0.210628 0.00342306 -1.64686)
(-0.228289 -0.000942555 0.231543)
(-0.227904 -0.00150432 0.230979)
(-0.228986 -0.00206955 0.230303)
(-0.227504 -0.002279 0.231992)
(-0.227228 -7.86202e-06 0.234669)
(-0.226136 0.00104919 0.226357)
(-0.535795 -0.00172295 -1.03547)
(-0.543167 -0.00268155 -1.03829)
(-0.549842 -0.00412506 -1.04221)
(-0.556165 -0.00609286 -1.05386)
(-0.561091 0.00349569 -1.06206)
(-0.558306 0.00690692 -1.0378)
(-0.224611 0.00112006 -1.85646)
(-0.223817 0.00217013 -1.85881)
(-0.224777 0.000781715 -1.8599)
(-0.228623 -0.00126878 -1.85884)
(-0.232691 -0.00203359 -1.86128)
(-0.230004 -0.00113421 -1.85538)
(-0.582862 -0.00133037 0.0587106)
(-0.585166 -0.00173934 0.0574944)
(-0.587084 -0.00203921 0.0574438)
(-0.593528 -0.00230145 0.0597119)
(-0.594959 -0.000391561 0.0632358)
(-0.587884 0.000560032 0.0544212)
(-0.829116 0.000586798 -1.89252)
(-0.832 0.00204491 -1.90337)
(-0.832577 0.00321363 -1.90892)
(-0.831561 0.00217349 -1.93392)
(-0.831942 0.002909 -1.9451)
(-0.836524 0.00269237 -1.91299)
(-0.868669 0.00102576 -2.09325)
(-0.868358 0.00178341 -2.09518)
(-0.867664 0.00240757 -2.09569)
(-0.866821 0.00213366 -2.09526)
(-0.866794 -0.0013691 -2.09781)
(-0.869503 -0.0019249 -2.09296)
(-1.89972 0.000112002 0.768715)
(-1.90594 0.000903098 0.766725)
(-1.90922 0.00370657 0.767274)
(-1.92164 0.00391676 0.773629)
(-1.92496 -0.00374074 0.779504)
(-1.91166 -0.00451389 0.76269)
(-1.40731 0.000290599 -5.17191)
(-1.40546 8.70357e-05 -5.17975)
(-1.40546 -0.000917759 -5.17911)
(-1.40059 -0.00167968 -5.18021)
(-1.39935 0.00236796 -5.18928)
(-1.40509 0.0034066 -5.18592)
(-0.7675 0.00109334 -1.79396)
(-0.76548 0.00122491 -1.78981)
(-0.764225 0.00063238 -1.78925)
(-0.761981 0.00133547 -1.7902)
(-0.761355 3.79149e-05 -1.79154)
(-0.762409 -0.00086865 -1.78598)
(2.14737 -0.266167 3.34233)
(2.4151 -0.0767332 4.5475)
(1.65971 -0.310561 4.05926)
(3.40349 0.0750798 4.05702)
(5.18063 -0.104492 4.78686)
(1.19258 0.530386 3.40553)
(2.22691 -0.339379 3.37467)
(2.18729 -0.50369 3.59918)
(1.55658 -0.487373 3.36684)
(3.06569 0.386696 3.4537)
(5.20685 0.416359 4.42881)
(1.59876 0.562166 3.11686)
(2.22249 -0.444448 7.89017)
(2.34234 -1.59567 3.19313)
(2.16887 -0.453512 1.5743)
(2.79813 0.0874172 1.78749)
(4.96767 1.57129 2.54498)
(2.05282 0.811881 7.97493)
(-2.38787 -0.439461 7.51683)
(-2.42455 -0.0116612 8.78747)
(-1.77736 -0.0817456 8.3135)
(-3.29155 0.836694 7.89186)
(-4.87683 0.0321283 6.73612)
(-1.44142 0.355734 3.91762)
(-1.86572 -0.421199 8.29227)
(-2.68054 -0.0673903 8.42887)
(-2.17653 0.151479 8.02617)
(-3.26243 1.21039 7.71443)
(-5.18223 0.96303 6.95092)
(-1.51619 0.52225 4.53733)
(0.203908 -0.200868 7.35518)
(0.533599 0.32383 6.05853)
(0.165018 0.600574 6.08894)
(-0.596085 1.27056 6.07541)
(-1.83974 1.59059 4.83576)
(-0.475329 0.746166 8.15308)
(1.2843 0.337585 0.224439)
(2.07937 0.328877 -1.25736)
(2.23946 0.33098 -1.37537)
(2.92103 -0.00522433 -1.23546)
(1.71295 -0.427605 0.125011)
(1.81502 -0.138455 0.578355)
(0.868623 0.0578253 1.2548)
(0.924893 0.0385055 0.0134746)
(1.20309 -0.262812 0.856845)
(1.88888 -0.40675 1.88503)
(1.09051 -0.15747 1.41879)
(1.5168 0.317456 1.1552)
(0.924586 0.15625 0.399115)
(0.342457 -0.200644 -0.198237)
(0.718978 -0.564588 -0.00970599)
(1.28232 -0.505797 0.495384)
(1.4025 -0.0799454 0.448783)
(2.41119 0.143816 0.67395)
(-0.991557 0.0836938 -3.06485)
(-0.880487 0.14122 -3.17572)
(-0.814608 0.159406 -3.14703)
(-0.662414 0.0939167 -3.31456)
(-0.937475 -0.0571816 -3.49558)
(-1.16735 -0.089313 -3.17743)
(-0.955396 0.0566644 -2.05532)
(-0.884289 0.126811 -2.15965)