/*--------------------------------*- C++ -*----------------------------------*\
| =========                 |                                                 |
| \\      /  F ield         | OpenFOAM: The Open Source CFD Toolbox           |
|  \\    /   O peration     | Version:  v1612+                                |
|   \\  /    A nd           | Web:      www.OpenFOAM.com                      |
|    \\/     M anipulation  |                                                 |
\*---------------------------------------------------------------------------*/
FoamFile
{
    version     2.0;
    format      ascii;
    class       volScalarField;
    location    "5.9";
    object      alpha.water;
}
// * * * * * * * * * * * * * * * * * * * * * * * * * * * * * * * * * * * * * //

dimensions      [0 0 0 0 0 0 0];

internalField   nonuniform List<scalar> 
320
(
1
1
1
1
1.51804e-05
1.38129e-05
1.36736e-05
1.378e-05
1.40021e-05
1.4526e-05
1.48384e-05
1.42649e-05
1.40344e-05
1.43457e-05
1.22027e-05
1.5397e-05
0.999985
0.999987
0.999988
0.999984
0.999983
0.999982
0.999982
0.999982
0.999984
0.999983
0.999992
0.999981
1
1
1
1
1
1
1
1
1
1
1
1
1
1
1
1
1
1
1
1
1
1
1
1
1
1
1
1
1.41014e-05
1.60735e-05
1.38365e-05
1.37134e-05
1.23844e-05
1.07711e-05
1.17257e-05
1.06349e-05
1.43782e-05
1.43801e-05
1.29524e-05
1.23564e-05
1.44908e-05
1.32631e-05
1.3913e-05
1.22961e-05
1.23312e-05
1.47982e-05
1.44136e-05
1.36076e-05
0.999987
0.999981
0.999988
0.999985
0.999993
0.999994
0.999992
0.999993
0.999981
0.999989
0.999993
0.999994
0.999982
0.999992
0.999992
0.999992
0.999992
0.999985
0.999986
0.999991
1
1
1
1
1
1
1
1
1
1
1
1
1
1
1
1
1
1
1
1
1
1
1
1
1
1
1
1
1
1
1
1
1
1
1
1
1
1
1
1
1
1
1
1
1
1
1
1
1
1
1
1
1
1
1
1
1
1
1
1
1
1
1
1
1
1
1
1
1
1
1
1
1
1
1
1
1.59381e-05
1.67089e-05
1.55337e-05
1.32033e-05
1.33925e-05
1.31633e-05
1.70522e-05
1.53672e-05
1.26048e-05
1.48577e-05
1.41357e-05
1.54558e-05
1.55918e-05
1.48964e-05
1.57055e-05
1.55689e-05
1.67009e-05
1.5012e-05
1.475e-05
1.71875e-05
1.75221e-05
1.5631e-05
1.27372e-05
1.49167e-05
1.48994e-05
1.5504e-05
1.51486e-05
1.46824e-05
0.999983
0.999984
0.999985
0.999991
0.999985
0.999984
0.999982
0.999983
0.999986
0.999977
0.999979
0.999985
0.999979
0.999986
0.999986
0.999987
0.999982
0.999983
0.999984
0.999981
0.999982
0.999987
0.99999
0.999986
0.99999
0.999987
0.999981
0.999975
1
1
1
1
1
1
1
1
1
1
1
1
1
1
1
1
1
1
1
1
1
1
1
1
1
1
1
1
1
1
1
1
1
1
1
1
1
1
1
1
1
1
1
1
1
1
1
1
1
1
1
1
1
1
1
1
1
1
1
1
1
1
1
1
1
1
1
1
1
1
1
1
1
1
1
1
1
1
1
1
1
1
1
1
1.51205e-05
1.30213e-05
1.31727e-05
1.29175e-05
0.99998
0.999984
0.999984
0.999988
)
;

boundaryField
{
    top_fluid_surface
    {
        type            inletOutlet;
        inletValue      uniform 0;
        value           nonuniform List<scalar> 
64
(
0
1.38129e-05
0
1.378e-05
0
0
0
0
1.40344e-05
0
1.22027e-05
0
0
0
1.38365e-05
0
1.23844e-05
1.07711e-05
1.17257e-05
1.06349e-05
0
1.43801e-05
1.29524e-05
1.23564e-05
0
1.32631e-05
1.3913e-05
1.22961e-05
1.23312e-05
0
0
1.36076e-05
0
0
0
1.32033e-05
1.33925e-05
1.31633e-05
0
0
1.26048e-05
0
0
0
0
0
0
0
0
0
0
0
0
0
1.27372e-05
0
0
0
0
0
0
1.30213e-05
1.31727e-05
1.29175e-05
)
;
    }
    bottom_fluid_surface
    {
        type            zeroGradient;
    }
    lateral_surface_1
    {
        type            zeroGradient;
    }
    lateral_surface_2
    {
        type            zeroGradient;
    }
    lateral_surface_3
    {
        type            zeroGradient;
    }
    lateral_surface_4
    {
        type            zeroGradient;
    }
}


// ************************************************************************* //
