/*--------------------------------*- C++ -*----------------------------------*\
| =========                 |                                                 |
| \\      /  F ield         | OpenFOAM: The Open Source CFD Toolbox           |
|  \\    /   O peration     | Version:  v1612+                                |
|   \\  /    A nd           | Web:      www.OpenFOAM.com                      |
|    \\/     M anipulation  |                                                 |
\*---------------------------------------------------------------------------*/
FoamFile
{
    version     2.0;
    format      ascii;
    class       volVectorField;
    location    "5.9";
    object      U;
}
// * * * * * * * * * * * * * * * * * * * * * * * * * * * * * * * * * * * * * //

dimensions      [0 1 -1 0 0 0 0];

internalField   nonuniform List<vector> 
320
(
(-2.56825e-06 -1.13864e-05 1.63357e-05)
(-4.91268e-06 -9.14568e-06 -1.66772e-05)
(-1.75969e-05 -8.38087e-06 -1.43045e-05)
(2.58378e-06 1.47371e-05 -1.83453e-05)
(0.000429594 3.48059e-05 -7.7579e-05)
(0.000242053 2.10637e-05 -2.64901e-06)
(0.000336756 -1.2698e-05 -1.507e-05)
(-5.85835e-06 4.28131e-05 4.53501e-05)
(0.00020781 -6.5295e-05 -6.69426e-06)
(-2.32745e-06 -7.15046e-05 -6.84628e-05)
(-8.95283e-05 -0.000219315 -0.000111554)
(-0.000101177 -0.000251341 -1.95567e-05)
(-0.00024032 -4.14147e-05 2.38269e-05)
(-0.000104879 -0.000276701 -3.06481e-05)
(-0.000222561 0.000160761 0.000227181)
(-1.23003e-05 0.000235337 -6.8598e-05)
(3.1526e-06 -5.57176e-06 3.16137e-05)
(5.20655e-06 5.89883e-06 2.43908e-05)
(2.38757e-05 3.41701e-06 1.81472e-07)
(-3.06785e-06 4.1651e-06 -1.21881e-05)
(1.4396e-05 -8.41681e-06 -3.6231e-08)
(9.82471e-06 1.43304e-05 2.81085e-05)
(-1.22461e-05 3.32884e-06 1.95782e-05)
(-1.03903e-06 -1.89046e-05 -1.81808e-05)
(-2.16332e-05 1.60189e-05 3.89259e-05)
(-1.47009e-05 -2.76831e-05 3.15857e-05)
(-2.3684e-05 -7.16358e-06 -2.91665e-05)
(-8.68652e-06 -1.52611e-06 1.50106e-05)
(-5.94237e-06 3.11445e-08 2.08339e-05)
(-9.68136e-06 -4.47303e-06 2.00496e-05)
(-1.66183e-05 1.46239e-06 -2.52185e-06)
(-1.13043e-07 8.7894e-07 -1.21134e-05)
(-6.31902e-06 5.38171e-06 2.01527e-07)
(-2.39563e-06 -5.10007e-06 1.58113e-05)
(8.84862e-06 8.11868e-07 9.10658e-06)
(-4.227e-06 8.77839e-06 -1.61413e-05)
(5.13901e-06 -1.18803e-05 2.59721e-05)
(4.09348e-06 1.63954e-05 2.19702e-05)
(1.09122e-05 2.50567e-06 -1.60385e-05)
(6.09613e-06 -1.45096e-06 1.35195e-05)
(-2.46952e-06 -7.09337e-06 5.08195e-06)
(-3.62719e-06 -5.69791e-06 -5.58174e-06)
(-9.90123e-06 -4.71924e-06 -2.11816e-06)
(1.58434e-06 9.07715e-06 -7.21665e-06)
(-3.01354e-06 -1.2286e-07 6.09559e-06)
(-6.29904e-06 -3.66845e-06 4.78958e-07)
(-9.89138e-06 4.79409e-07 -1.76785e-07)
(-5.91872e-08 7.89914e-07 1.01651e-06)
(-3.70683e-06 4.64988e-06 3.96786e-07)
(-1.6233e-06 -2.62839e-06 4.68922e-06)
(5.74191e-06 4.87195e-07 3.17542e-06)
(-2.4241e-06 6.14107e-06 -1.6294e-06)
(2.22789e-06 -6.60512e-06 6.3142e-06)
(1.73418e-06 9.03137e-06 4.72023e-06)
(5.36226e-06 1.18977e-06 -4.79552e-06)
(3.21473e-06 -1.02035e-06 2.87696e-06)
(-0.000289001 0.00016766 1.02753e-05)
(0.000229132 0.000244974 -0.000148018)
(0.000176911 9.52538e-05 1.51321e-05)
(5.41707e-05 0.000192134 -4.58644e-06)
(5.9012e-05 0.000488632 0.000155239)
(0.000354326 -3.89977e-05 0.000347588)
(4.87519e-05 1.34754e-05 0.000235397)
(0.000209049 -0.000392989 0.000404879)
(1.78263e-05 -0.000592573 -4.06319e-06)
(-3.18707e-05 -0.000124638 1.49585e-06)
(-0.000165911 -6.52143e-06 0.000176923)
(0.000261073 -0.000109515 0.000232735)
(0.000234458 -0.0001513 -8.38413e-05)
(-7.22576e-05 -0.000229398 0.000111342)
(0.000360251 -0.000575551 6.76609e-05)
(-5.21644e-05 -0.000285236 0.000255386)
(0.000268492 0.000173136 0.000269117)
(0.00029507 0.000296918 -4.23986e-05)
(0.000270857 -3.15193e-05 -1.77232e-05)
(0.00017716 0.000143986 0.000139358)
(-2.04987e-05 -1.60501e-05 -1.83299e-05)
(-5.85563e-06 3.88205e-06 2.00089e-05)
(-2.35101e-06 -1.87612e-05 1.40385e-05)
(3.45611e-06 -5.89222e-06 -2.72032e-06)
(-4.66851e-06 2.75149e-05 -3.96922e-05)
(1.67255e-05 -6.25766e-07 -5.85008e-05)
(-1.14239e-05 4.48605e-06 -3.60456e-05)
(-1.11039e-05 -1.74023e-05 -7.20316e-05)
(6.61169e-06 -2.75844e-05 2.42648e-06)
(-2.35591e-06 -8.03879e-06 1.98451e-05)
(-1.65176e-05 1.82601e-05 -2.94319e-05)
(2.79693e-05 5.35665e-06 -4.62687e-05)
(1.15909e-05 -5.06614e-06 3.81767e-05)
(-2.2431e-05 -5.03083e-06 -3.31289e-05)
(4.66741e-06 -2.77601e-05 -1.58338e-05)
(-2.82392e-05 -1.11749e-05 -2.90328e-05)
(8.49022e-07 8.42027e-06 -4.08062e-05)
(9.65709e-06 2.06555e-05 -1.27079e-05)
(4.43494e-06 -2.38601e-06 -1.35189e-07)
(2.27688e-05 3.45616e-07 -2.82356e-05)
(8.7552e-06 9.62585e-06 -8.56901e-06)
(4.53578e-07 1.42381e-06 1.32197e-05)
(-6.34429e-06 8.75171e-06 1.2676e-05)
(-6.93543e-06 1.87773e-06 -6.04651e-06)
(3.82818e-06 -1.40967e-05 -2.71904e-05)
(-5.02828e-06 2.35096e-06 -2.95338e-05)
(8.03381e-06 1.15398e-06 -2.35048e-05)
(8.82132e-06 1.24562e-05 -3.69385e-05)
(3.85261e-07 1.86767e-05 2.01835e-06)
(3.61476e-06 5.20137e-06 1.72333e-05)
(1.15461e-05 -6.50534e-06 -1.91405e-05)
(-1.12954e-05 2.40091e-06 -2.55879e-05)
(-4.9026e-06 5.80895e-06 2.33351e-05)
(8.09188e-06 -1.63066e-06 -2.17975e-05)
(-7.7388e-06 1.12091e-05 -1.15241e-05)
(1.20507e-05 4.78113e-06 -1.52639e-05)
(-2.27727e-06 -2.60928e-06 -2.33994e-05)
(-6.61656e-06 -9.38471e-06 -7.4211e-06)
(1.02972e-06 -2.12602e-06 -1.36687e-06)
(-1.28426e-05 -5.10843e-06 -1.8235e-05)
(4.69991e-06 5.34449e-06 -3.8951e-06)
(1.78615e-07 1.23879e-06 4.35395e-06)
(-4.22942e-06 5.76653e-06 -1.74636e-06)
(-4.82907e-06 1.84507e-06 4.05519e-07)
(2.94737e-06 -7.40031e-06 -7.48114e-06)
(-3.45381e-06 1.10145e-06 -1.18019e-05)
(4.25245e-06 4.86789e-07 -6.37002e-06)
(5.01914e-06 7.51311e-06 -1.19832e-05)
(-3.45502e-07 1.11322e-05 1.05128e-06)
(2.01662e-06 3.52235e-06 8.64015e-07)
(6.93832e-06 -3.45547e-06 -4.62857e-06)
(-7.18532e-06 1.35767e-06 -8.22484e-06)
(-2.80866e-06 4.16828e-06 4.19829e-06)
(4.79429e-06 -1.03225e-06 -5.44088e-06)
(-4.6581e-06 6.83247e-06 -2.54872e-06)
(7.46804e-06 3.08103e-06 -5.0073e-06)
(-1.42944e-06 -1.5849e-06 -5.64315e-06)
(-4.23526e-06 -5.61298e-06 -2.84769e-06)
(6.14352e-07 -7.85214e-07 6.3782e-07)
(-6.99655e-06 -2.69383e-06 -2.67491e-06)
(-2.03163e-06 -3.42868e-06 1.3655e-06)
(-6.90528e-07 -1.60648e-06 -1.89991e-06)
(-5.70002e-06 -1.77838e-06 -1.4427e-06)
(-1.48624e-07 5.42531e-06 -1.67373e-06)
(-3.47892e-06 -4.41751e-07 2.35251e-06)
(-3.7792e-06 -2.5617e-07 2.44757e-06)
(-4.45845e-06 1.01234e-06 -3.80579e-07)
(4.10667e-07 2.01885e-07 -1.50076e-06)
(-1.86636e-06 1.26162e-06 1.6292e-07)
(-4.40419e-07 -7.90276e-07 1.58593e-06)
(2.34948e-06 1.41602e-06 1.45294e-06)
(-1.44817e-06 2.01729e-06 -1.629e-06)
(1.73416e-06 -2.03681e-06 2.55067e-06)
(5.16124e-07 4.84182e-06 2.57579e-06)
(2.95817e-06 6.14643e-07 -1.34848e-06)
(1.14133e-06 1.53298e-07 1.90047e-06)
(2.0268e-06 2.79253e-06 -6.15904e-07)
(-1.62215e-06 -1.14603e-07 7.96095e-07)
(-2.14462e-06 2.05277e-06 1.29065e-06)
(-1.13166e-06 -1.44711e-07 -1.10339e-06)
(1.00719e-07 -3.29902e-06 -2.36072e-06)
(-2.35278e-06 1.28615e-06 -3.04058e-06)
(7.10461e-07 9.85618e-07 -2.5432e-06)
(7.38387e-07 4.57421e-06 -3.7454e-06)
(1.32174e-07 5.5469e-06 1.45035e-07)
(5.42592e-07 1.55791e-06 1.66435e-06)
(2.26454e-06 -1.93366e-06 -2.03762e-06)
(-2.9562e-06 1.07892e-06 -2.89035e-06)
(-2.24718e-06 1.49146e-06 2.39285e-06)
(1.2606e-06 5.02617e-07 -2.24011e-06)
(-2.55941e-06 3.43384e-06 -1.05548e-06)
(2.56302e-06 1.27283e-06 -2.1655e-06)
(-1.60107e-06 -5.54394e-07 -2.71506e-06)
(-2.07133e-06 -2.80349e-06 -1.12405e-06)
(-1.2914e-06 -1.37313e-06 -1.41816e-07)
(-4.29161e-06 -1.44419e-06 -1.99116e-06)
(0.00010468 0.0001739 -8.77758e-05)
(-0.000112882 0.000142917 -0.00019344)
(0.00050349 -9.2167e-07 -0.000155948)
(0.000296591 -0.000131904 0.000146888)
(-5.37362e-05 -0.000119544 9.85011e-05)
(-9.69059e-05 -2.32236e-05 4.43201e-05)
(-0.000588192 3.58873e-05 -0.000391063)
(-0.000531747 0.000640052 -0.000160834)
(-0.0004366 -2.21512e-05 0.000196004)
(-0.000514122 -0.000100518 -0.00012664)
(-0.000550781 -9.57779e-05 -5.37194e-05)
(-0.000221226 -0.000310918 -0.000117267)
(-0.000268772 5.88504e-05 -7.12485e-05)
(-3.77065e-05 -0.000250783 -2.97466e-05)
(8.44235e-05 -0.000482436 -0.000163563)
(-1.73012e-05 -0.000366589 -9.63399e-05)
(5.5098e-05 -0.00062899 -0.000200683)
(1.80666e-05 -0.000162548 -6.43423e-05)
(0.000181667 -0.00041436 -9.55579e-05)
(0.000323232 -0.00041478 -0.000319606)
(-3.50491e-05 -0.000377595 -0.000327897)
(1.77264e-06 -0.000604376 -6.59162e-05)
(-6.53565e-05 -0.000133715 0.00025732)
(0.000152567 7.03806e-05 -5.16525e-05)
(-0.000168427 0.000163703 -4.20135e-05)
(1.83835e-05 0.000115158 -0.000107202)
(-2.04611e-05 3.79907e-06 -7.56901e-05)
(-0.000121462 7.29621e-05 -2.89079e-05)
(2.52664e-05 1.27067e-05 1.62514e-05)
(-1.22251e-05 -9.87836e-07 -2.20006e-05)
(5.86359e-06 4.434e-06 1.77679e-05)
(1.49812e-05 -1.2709e-05 -3.58141e-05)
(-2.24e-05 -1.28992e-05 -2.52886e-05)
(-2.32956e-05 1.31448e-05 1.23426e-05)
(-2.55679e-05 5.7301e-06 4.63355e-05)
(-3.29824e-05 3.41244e-05 2.32391e-05)
(-1.89594e-05 -3.34005e-06 -2.64234e-05)
(-3.56973e-05 -2.36606e-05 4.63272e-05)
(-4.70971e-05 9.61562e-06 6.48393e-05)
(-8.68336e-06 2.30768e-05 1.61733e-05)
(3.557e-06 1.682e-05 -1.07646e-05)
(1.61735e-05 -4.71908e-06 -2.02501e-05)
(5.16732e-06 -1.73313e-05 2.8549e-05)
(-3.5723e-06 -1.22423e-05 2.01722e-07)
(1.10789e-05 -3.02766e-05 2.37511e-05)
(9.34907e-06 4.64644e-06 1.07254e-05)
(1.05997e-06 -2.80338e-05 1.45006e-05)
(9.57499e-07 -1.88436e-05 1.94617e-05)
(5.60104e-06 -2.43233e-05 4.82125e-05)
(1.21195e-07 -3.4228e-05 -5.81408e-06)
(-8.65223e-07 1.22e-05 -3.45326e-05)
(2.34949e-05 1.02096e-05 3.33091e-05)
(9.27048e-07 -3.57645e-06 3.08289e-06)
(-7.34218e-07 1.15881e-05 -8.44923e-06)
(1.48988e-05 4.78148e-06 2.7892e-05)
(3.7027e-06 1.51007e-06 2.12609e-05)
(-1.44879e-05 -9.01773e-06 1.27793e-05)
(-4.34534e-07 4.24288e-07 -9.98415e-06)
(-5.06892e-06 1.71317e-07 4.92911e-06)
(-1.01351e-05 5.94783e-06 -1.84335e-05)
(6.22857e-06 3.96316e-06 -1.95849e-05)
(8.88603e-06 -7.21606e-06 8.99186e-06)
(1.13551e-05 -1.09423e-06 2.37588e-05)
(1.74769e-05 -1.20336e-05 1.2067e-05)
(1.34185e-05 5.66828e-06 -1.4992e-05)
(2.07943e-05 1.473e-05 2.06441e-05)
(2.69918e-05 -2.26645e-06 4.27333e-05)
(6.07366e-06 -1.03108e-05 7.8352e-06)
(-1.99339e-06 -9.39046e-06 -2.901e-06)
(-8.51528e-06 5.32147e-07 -1.38596e-05)
(-2.49933e-06 7.05203e-06 1.5567e-05)
(4.03636e-07 6.64558e-06 2.26458e-07)
(-3.46475e-06 1.81938e-05 1.55754e-05)
(-1.94638e-07 -1.18433e-06 5.21703e-06)
(-2.60822e-07 1.34859e-05 2.9087e-06)
(-5.18899e-06 7.16776e-06 7.95507e-06)
(-7.27107e-06 1.09366e-05 2.7114e-05)
(-3.50253e-06 1.56087e-05 -1.74942e-06)
(-2.87143e-06 -6.41752e-06 -1.97943e-05)
(-1.47015e-05 -2.27105e-06 2.20656e-05)
(-2.53441e-06 5.81254e-06 4.25621e-06)
(4.95016e-07 -7.67888e-06 -8.51387e-06)
(-8.08703e-06 -5.89291e-06 2.02062e-05)
(-2.89818e-07 -1.2207e-06 1.34413e-05)
(-7.24853e-06 -5.47259e-06 3.86689e-06)
(-7.17799e-07 2.59473e-07 -4.7325e-06)
(-3.43574e-06 -5.49271e-08 3.91823e-06)
(-6.90549e-06 3.87387e-06 -6.51121e-06)
(3.27537e-06 2.62111e-06 -2.20231e-06)
(6.42567e-06 -4.23053e-06 -1.06849e-06)
(6.64305e-06 -8.5739e-07 5.61346e-06)
(1.00162e-05 -8.03427e-06 4.23192e-06)
(6.00903e-06 1.78443e-06 -2.99172e-06)
(1.06992e-05 9.26227e-06 8.03995e-06)
(1.47841e-05 5.19302e-08 8.23884e-06)
(3.23823e-06 -5.63051e-06 4.80291e-06)
(-1.97848e-06 -5.10009e-06 -1.3142e-06)
(-5.38404e-06 2.8158e-07 -2.04873e-06)
(-1.99017e-06 3.68717e-06 4.32242e-06)
(5.41369e-07 4.28832e-06 -3.71839e-08)
(-1.88174e-06 1.00839e-05 4.39748e-06)
(-3.41277e-08 -1.01505e-06 2.4299e-06)
(-4.36293e-07 7.30944e-06 3.99006e-06)
(-3.28233e-06 4.21542e-06 2.55335e-06)
(-3.85077e-06 5.93364e-06 7.79371e-06)
(-2.13258e-06 9.71803e-06 -8.76758e-08)
(-9.65274e-07 -3.37667e-06 -3.24249e-06)
(-8.59e-06 -2.6716e-06 5.25554e-06)
(-2.05194e-06 3.23347e-06 -9.62142e-07)
(2.56292e-07 -3.78167e-06 1.16907e-07)
(-5.04845e-06 -2.51861e-06 4.29861e-06)
(4.31467e-07 7.29717e-09 4.94527e-06)
(-5.06144e-06 -2.47433e-06 9.63754e-07)
(-1.8826e-07 1.74684e-08 -1.04393e-06)
(-2.73916e-06 -2.59284e-07 6.75148e-07)
(-3.74909e-06 1.13448e-06 -1.41234e-06)
(8.93335e-07 1.34521e-06 -2.3693e-06)
(9.61579e-07 -8.90534e-07 9.92813e-07)
(4.5703e-06 4.84326e-07 2.9918e-06)
(5.94517e-06 -3.45905e-06 1.75247e-06)
(4.41028e-06 1.62207e-06 -1.56713e-06)
(6.28109e-06 3.293e-06 1.81352e-06)
(6.71763e-06 6.83327e-07 4.27776e-06)
(2.39021e-06 -9.86037e-07 9.69452e-07)
(1.84714e-07 -2.53821e-06 -4.88208e-07)
(-1.7059e-06 1.40361e-06 -1.51339e-06)
(-4.72391e-07 3.29425e-06 1.97803e-06)
(3.85431e-08 2.4186e-06 -1.82042e-08)
(-1.07562e-06 5.52021e-06 1.66887e-06)
(-8.71839e-07 5.38045e-07 8.48433e-07)
(-2.08213e-07 4.14488e-06 9.4368e-07)
(-1.36667e-06 2.00684e-06 1.14303e-06)
(-2.14961e-06 2.95212e-06 2.85536e-06)
(-1.20433e-06 4.43228e-06 -8.77821e-08)
(-1.15116e-06 -1.0785e-06 -2.33603e-06)
(-3.55562e-06 2.07518e-07 2.22291e-06)
(-3.89252e-07 9.24305e-07 4.02376e-07)
(1.72164e-07 -2.067e-06 -2.63895e-07)
(-1.08314e-06 -9.7754e-07 1.96925e-06)
(6.38805e-07 -7.52395e-07 1.28928e-06)
(1.44219e-05 0.000203925 -0.000130374)
(0.00012933 0.000142527 0.000139724)
(0.000411996 0.000153792 0.000119851)
(7.98174e-05 -0.000396181 0.000112488)
(1.56938e-06 1.46391e-05 3.39359e-05)
(6.63794e-06 1.39687e-05 -3.14432e-05)
(2.42876e-05 1.04694e-05 -2.07378e-05)
(-5.26661e-06 -3.0291e-05 -3.22315e-05)
)
;

boundaryField
{
    top_fluid_surface
    {
        type            pressureInletOutletVelocity;
        value           nonuniform List<vector> 
64
(
(0 0 -7.7579e-05)
(0.000242053 2.10637e-05 -2.64901e-06)
(0 0 -1.507e-05)
(-5.85835e-06 4.28131e-05 4.53501e-05)
(0 0 -6.69426e-06)
(0 0 -6.84628e-05)
(0 0 -0.000111554)
(0 0 -1.95567e-05)
(-0.00024032 -4.14147e-05 2.38269e-05)
(0 0 -3.06481e-05)
(-0.000222561 0.000160761 0.000227181)
(0 0 -6.8598e-05)
(0 0 1.02753e-05)
(0 0 -0.000148018)
(0.000176911 9.52538e-05 1.51321e-05)
(5.41707e-05 0.000192134 -4.58644e-06)
(5.9012e-05 0.000488632 0.000155239)
(0.000354326 -3.89977e-05 0.000347588)
(4.87519e-05 1.34754e-05 0.000235397)
(0.000209049 -0.000392989 0.000404879)
(0 0 -4.06319e-06)
(-3.18707e-05 -0.000124638 1.49585e-06)
(-0.000165911 -6.52143e-06 0.000176923)
(0.000261073 -0.000109515 0.000232735)
(0 0 -8.38413e-05)
(-7.22576e-05 -0.000229398 0.000111342)
(0.000360251 -0.000575551 6.76609e-05)
(-5.21644e-05 -0.000285236 0.000255386)
(0.000268492 0.000173136 0.000269117)
(0 0 -4.23986e-05)
(0 0 -1.77232e-05)
(0.00017716 0.000143986 0.000139358)
(0 0 -8.77758e-05)
(0 0 -0.00019344)
(0 0 -0.000155948)
(0.000296591 -0.000131904 0.000146888)
(-5.37362e-05 -0.000119544 9.85011e-05)
(-9.69059e-05 -2.32236e-05 4.43201e-05)
(0 0 -0.000391063)
(0 0 -0.000160834)
(-0.0004366 -2.21512e-05 0.000196004)
(0 0 -0.00012664)
(0 0 -5.37194e-05)
(0 0 -0.000117267)
(0 0 -7.12485e-05)
(0 0 -2.97466e-05)
(0 0 -0.000163563)
(0 0 -9.63399e-05)
(0 0 -0.000200683)
(0 0 -6.43423e-05)
(0 0 -9.55579e-05)
(0 0 -0.000319606)
(0 0 -0.000327897)
(0 0 -6.59162e-05)
(-6.53565e-05 -0.000133715 0.00025732)
(0 0 -5.16525e-05)
(0 0 -4.20135e-05)
(0 0 -0.000107202)
(0 0 -7.56901e-05)
(0 0 -2.89079e-05)
(0 0 -0.000130374)
(0.00012933 0.000142527 0.000139724)
(0.000411996 0.000153792 0.000119851)
(7.98174e-05 -0.000396181 0.000112488)
)
;
    }
    bottom_fluid_surface
    {
        type            noSlip;
    }
    lateral_surface_1
    {
        type            noSlip;
    }
    lateral_surface_2
    {
        type            noSlip;
    }
    lateral_surface_3
    {
        type            noSlip;
    }
    lateral_surface_4
    {
        type            noSlip;
    }
}


// ************************************************************************* //
