/*--------------------------------*- C++ -*----------------------------------*\
| =========                 |                                                 |
| \\      /  F ield         | OpenFOAM: The Open Source CFD Toolbox           |
|  \\    /   O peration     | Version:  v1612+                                |
|   \\  /    A nd           | Web:      www.OpenFOAM.com                      |
|    \\/     M anipulation  |                                                 |
\*---------------------------------------------------------------------------*/
FoamFile
{
    version     2.0;
    format      ascii;
    class       surfaceScalarField;
    location    "9.5";
    object      alphaPhi;
}
// * * * * * * * * * * * * * * * * * * * * * * * * * * * * * * * * * * * * * //

dimensions      [0 3 -1 0 0 0 0];

internalField   nonuniform List<scalar> 
2916
(
-0.00669903
-0.0826165
0.0606223
0.00262551
-0.099115
0.0612255
0.0207797
-0.103765
0.0584055
0.00900915
-0.0726417
0.0569691
-0.0216677
-0.0577168
0.0592067
-0.102207
0.0549674
0.00105574
-0.214228
0.0710897
0.00110302
-0.227974
0.067775
-0.00185268
-0.231911
0.0689129
-0.000666526
-0.211702
0.0771903
-0.00643321
-0.200979
0.0871529
-0.237574
0.0670454
-6.76335e-05
-0.224463
-0.00240037
-0.00112558
-0.231307
-0.00706069
-0.00591045
-0.232676
-0.00587843
-0.00443841
-0.225901
-0.000175883
-0.00239378
-0.221617
0.00453283
-0.243269
-0.00781982
-0.00202802
-0.172103
-0.0273767
-0.00192405
-0.177673
-0.0308657
-0.0034639
-0.178395
-0.0299267
-0.00395172
-0.174141
-0.0283805
-0.00341094
-0.171863
-0.0274223
-0.190254
-0.0334062
-0.0012499
-0.102229
-0.0457285
-0.00131341
-0.107853
-0.0469304
-0.00189468
-0.108446
-0.0465834
-0.0024297
-0.103052
-0.0477086
-0.00314693
-0.0999027
-0.048382
-0.118298
-0.0522693
-0.000150158
-0.012793
-0.0664652
-0.000330276
-0.0184116
-0.0664742
-0.000411747
-0.0190707
-0.0665299
-0.000829264
-0.0126246
-0.0672186
-0.0023725
-0.00789551
-0.0676389
-0.0262082
-0.071654
0.00156636
0.0652697
-0.0568025
0.000552155
0.062038
-0.0566264
0.000657453
0.0603993
-0.056779
0.000150157
0.0670396
-0.0563638
-0.00165862
0.0729917
-0.0562846
0.0540178
-0.0590808
0.00300207
0.142942
-0.0578652
0.000710283
0.14406
-0.056934
-0.000705606
0.142189
-0.0575806
-0.000100034
0.144819
-0.0555908
0.00122154
0.14649
-0.0520262
0.137554
-0.0595208
-0.000462651
0.139626
-0.0506939
0.000221894
0.140652
-0.048296
0.000233998
0.137445
-0.0496178
-0.00196188
0.139407
-0.0475394
-0.00274367
0.138292
-0.045641
0.137333
-0.0539468
-0.00599928
0.0584423
0.0712084
2.42655e-05
0.0467786
0.0718187
0.00280138
0.048177
0.0730915
-0.000633175
0.0597224
0.0683106
-0.00490234
0.062483
0.0649653
0.043487
0.0738981
-0.00891603
-0.130101
0.181725
-8.86075e-05
-0.150011
0.171869
0.00276699
-0.145012
0.175649
3.57742e-05
-0.127639
0.175281
0.000616696
-0.122753
0.169793
-0.149372
0.178363
0.0151748
-0.124405
0.00106613
-0.108876
-0.0028701
-0.112337
0.00974683
-0.118659
0.0112292
-0.101062
-0.114168
0.00121013
-0.0123058
0.00033523
-0.00895303
-0.00182788
0.000690814
-0.0201297
-0.00147875
0.000665909
-0.00976058
-0.0223008
0.000319986
0.0100267
-0.0289652
0.000320012
-0.00426722
0.000675597
-0.00175195
-0.00139207
0.000286682
0.00236342
0.00767564
0.000156875
0.00916199
0.00655835
9.16546e-05
0.00293195
-0.00294193
0.000168795
-0.00362656
-0.0026944
9.93091e-05
0.00567901
5.07866e-05
-0.00295696
0.02941
-0.000927207
0.0033124
0.0384929
-0.000832068
0.0146185
0.0352564
-0.00081299
0.00738658
0.0318387
-0.00081418
-0.00470011
0.0359257
-0.00066798
0.0390526
-0.000801065
-0.00324187
0.140254
-6.98961e-05
0.00195559
0.147262
-6.16867e-05
0.00967138
0.144954
-6.0575e-05
0.0058861
0.144217
-6.17088e-05
-0.00221016
0.14837
-5.06525e-05
0.153412
-6.03448e-05
-0.00143729
0.316713
-6.99175e-06
1.21139e-05
0.321644
-6.11364e-06
0.00113988
0.321455
-6.01772e-06
0.00114701
0.320251
-6.16335e-06
0.00222083
0.322333
-5.05506e-06
0.333223
-6.05455e-06
-0.000493913
0.532381
-9.05733e-07
-0.000413534
0.535204
-7.76419e-07
-0.00257327
0.536491
-7.62222e-07
-0.00113511
0.533786
-7.87763e-07
0.00307096
0.533286
-8.65355e-07
0.548921
-7.97629e-07
-0.000639845
0.757853
-3.68897e-07
-0.000222143
0.759499
-1.3337e-07
-0.00161741
0.761206
-1.64572e-07
-0.00137099
0.756162
-2.49887e-07
0.00266634
0.752464
-4.39215e-07
0.770472
-1.48149e-07
0.00134277
0.89844
-1.25889e-07
0.000358998
0.903133
-1.58041e-08
-1.80724e-05
0.902965
-2.16354e-08
0.000401298
0.896267
-1.19285e-07
0.00275158
0.891847
-1.44191e-07
0.90777
-7.87723e-08
0.00387036
0.812144
0.0524144
0.000349065
0.821569
0.0550482
0.00104694
0.817471
0.0542259
0.00101007
0.816702
0.0523171
-0.00140822
0.819403
0.0503318
0.816184
0.0556876
-0.00187468
0.530485
0.364257
-6.33121e-05
0.546088
0.355003
0.0058127
0.536657
0.357523
-0.000377386
0.547694
0.352978
-0.014385
0.559636
0.348204
0.52416
0.361008
-0.00796088
0.105961
0.372446
0.000552206
0.105591
0.377387
0.00636146
0.107998
0.373727
-0.00423051
0.121973
0.374853
-0.0242375
0.127759
0.389273
0.0909109
0.356851
0.0105751
-0.0215265
0.000130659
0.00758522
-0.0075515
0.00227192
0.00673092
-0.00269604
0.0156663
0.01016
0.00301102
3.94375e-05
0.000719882
-0.000316392
4.16886e-05
0.000749633
-6.02085e-05
-3.51693e-05
0.000783198
-3.97428e-05
-1.66291e-05
0.000714216
-0.0002992
9.37376e-05
0.000648499
-0.000324403
0.000792004
-2.21907e-05
2.83626e-06
0.00100428
-4.55993e-07
7.80752e-06
0.000901574
-3.75472e-08
1.59835e-06
0.000881108
-4.64132e-08
1.88157e-06
0.000882739
-1.39495e-08
2.51379e-05
0.000724552
3.1584e-11
0.000867928
-1.08705e-10
-8.12157e-07
7.78917e-05
-2.0546e-09
-5.37795e-08
6.87473e-05
-2.47742e-10
5.2971e-07
6.75347e-05
-3.0547e-10
3.03467e-07
6.87858e-05
-8.90482e-11
4.17828e-07
5.64576e-05
6.00464e-13
6.72816e-05
-1.02511e-12
-4.78427e-08
8.04347e-06
-1.80084e-11
-1.64656e-08
7.02924e-06
-2.29537e-12
2.2695e-08
6.9206e-06
-1.67631e-12
9.18454e-09
7.09054e-06
-5.22104e-13
2.64799e-08
5.788e-06
-1.66649e-10
6.96325e-06
-1.77349e-11
-1.82494e-09
1.05367e-06
-9.84357e-11
-8.03347e-10
9.146e-07
-2.49122e-11
5.29674e-10
9.01551e-07
-8.42966e-12
1.33671e-09
9.26429e-07
-5.22773e-11
4.10588e-09
7.54285e-07
-2.49297e-08
9.15814e-07
-3.04129e-09
-1.76481e-11
1.66574e-07
-1.3388e-08
7.89861e-11
1.42156e-07
-4.19583e-09
-3.61714e-11
1.40139e-07
-1.33333e-09
2.8911e-10
1.4468e-07
-6.17102e-09
9.56867e-10
1.73712e-07
-2.78765e-07
1.58209e-07
-4.0251e-08
-9.86598e-11
7.66679e-08
-2.74727e-07
2.6758e-11
3.81663e-08
-3.29398e-08
5.73065e-11
4.26052e-08
-6.8573e-08
9.54245e-11
5.40011e-08
-1.58652e-07
2.84099e-10
8.06003e-08
-3.45077e-07
3.38518e-08
-2.36224e-08
-2.14083e-10
-5.39352e-08
1.78583e-09
-2.33201e-12
2.00856e-08
1.44885e-09
1.70973e-10
2.03013e-08
1.33726e-09
3.71367e-11
-6.56062e-08
8.59089e-10
-2.13041e-11
-6.4811e-08
1.15742e-09
-4.55434e-08
6.16807e-10
-3.65404e-05
0.0504016
0.00239019
-8.57272e-06
0.0524236
0.00255371
2.55113e-05
0.0521685
0.00249532
7.59162e-06
0.0501248
0.0024674
-5.80558e-05
0.0482314
0.00240015
0.0534978
0.00257306
0.000112366
0.351099
0.0199446
-0.000406769
0.334208
0.024561
0.00023487
0.335278
0.0248675
-7.12877e-05
0.330125
0.025366
-0.00125144
0.326087
0.0253257
0.335734
0.0253383
-0.0236367
0.243739
0.11532
-0.0110095
0.228537
0.153521
0.0014301
0.224495
0.147064
-0.00464104
0.23374
0.148045
-0.0195839
0.251454
0.148784
0.201024
0.146255
0.00357919
0.230619
-0.00381037
0.249776
-0.0107413
0.238969
0.00234529
0.227798
0.0269228
0.240157
0.241634
3.24097e-06
-4.01417e-09
-8.66321e-05
4.48323e-08
2.97219e-10
-5.70358e-05
-8.82618e-07
-7.26998e-11
-3.8843e-05
-8.41162e-07
-1.19012e-10
-5.29577e-05
2.78264e-06
7.60225e-12
-7.74112e-05
1.0871e-10
-1.94264e-05
1.29512e-10
-4.20751e-12
-4.60003e-07
-1.71812e-12
-7.19217e-13
-3.71223e-08
4.03515e-12
-1.04969e-12
-4.64886e-08
1.07343e-12
-2.4784e-13
-1.40608e-08
2.68291e-17
4.6986e-14
-5.82566e-11
-3.02297e-15
-1.25896e-20
6.55169e-13
-6.5506e-14
-2.05419e-09
1.15387e-13
-1.98719e-14
-2.48016e-10
-9.11446e-15
-1.62525e-14
-3.06408e-10
4.25975e-14
-1.5508e-14
-8.93319e-11
-2.38554e-14
-6.40909e-13
1.80873e-12
-6.71843e-14
-9.84951e-13
2.61227e-15
-5.23623e-13
-1.76574e-11
-4.11034e-16
-9.72795e-14
-2.33368e-12
-2.11303e-15
-4.28573e-14
-3.31528e-12
-2.72645e-14
-1.57111e-13
-6.92641e-13
3.75492e-15
-1.67519e-10
1.98053e-13
-1.77817e-11
-1.00155e-14
8.93405e-17
-9.68279e-11
-2.1513e-13
-1.06525e-15
-2.50594e-11
-4.72547e-14
-2.44409e-14
-8.18785e-12
-2.12506e-13
-1.14468e-11
-4.07064e-11
-2.77211e-13
-2.05539e-14
-2.51082e-08
-2.0567e-13
-2.49493e-09
-5.64852e-10
2.99503e-12
-6.36747e-09
-3.99308e-09
-5.8342e-14
-7.46604e-10
-3.48159e-09
-2.54518e-12
-1.34223e-09
-3.92921e-13
-5.05026e-10
-5.70743e-09
4.6805e-13
6.49149e-11
-1.04413e-08
-1.4184e-07
-5.42461e-10
-2.2542e-08
-5.47179e-09
1.97649e-07
-3.80771e-07
-2.57439e-10
2.06224e-08
-4.96215e-08
3.05984e-09
4.65126e-08
-1.07275e-07
-4.40076e-10
9.67227e-08
-2.30792e-07
2.55165e-10
1.93093e-07
-3.51228e-07
1.70425e-08
-3.54088e-08
-4.0252e-10
2.58305e-07
-6.57919e-08
-1.26406e-10
2.28976e-08
-5.50824e-09
2.0413e-10
1.08394e-07
-6.13472e-08
-3.61702e-11
1.29827e-07
-3.24931e-08
3.93919e-12
2.39903e-07
-4.78222e-08
-5.5151e-10
-3.45041e-10
-2.40925e-06
0.00217157
0.000222027
-4.58967e-06
0.00237672
0.000178753
-7.6751e-07
0.00232167
0.000169469
-1.21275e-06
0.00229072
0.000177048
-4.77466e-06
0.00223134
0.000172203
0.00238029
0.000187509
0.000708302
0.0177743
0.00363464
0.00010567
0.0242393
0.00327469
-3.14731e-05
0.0240872
0.00323232
3.96078e-06
0.0241561
0.00345465
9.36047e-05
0.0240027
0.00345467
0.0242726
0.00353081
0.00424101
0.129231
-0.00130219
0.00045918
0.148057
0.0335988
9.21812e-06
0.141413
0.0303695
-9.38485e-05
0.142981
0.0294735
-0.000132882
0.140361
0.0325327
0.140111
0.0305078
0.0153036
0.336269
0.002997
0.392792
-0.000238882
0.372549
0.00171233
0.372433
0.00775483
0.36821
0.372019
0.00603677
0.0299786
-0.0361109
0.00156514
0.0329532
-0.0299643
-0.00579935
0.0325509
-0.0266542
-0.0277393
0.0331989
-0.010188
-0.0225941
0.0245064
-0.0211317
0.0223983
-0.0316882
0.0102813
0.0582334
-0.0380564
0.00572115
0.0585979
-0.0227364
0.0101568
0.0512624
-0.0247926
0.00245737
0.0397858
0.00064118
-0.00778363
0.0431145
-0.00589945
0.042548
-0.0165652
0.0119519
0.0742854
-0.0292889
0.00352527
0.0894551
-0.0248693
0.0197499
0.0578719
-0.0252359
0.0246959
0.0325787
0.000585943
-0.00427358
0.067258
0.00409419
0.059038
-0.0131889
0.0294406
0.075507
-0.0331061
0.0225057
0.104943
-0.0111445
0.0264103
0.0436834
0.00788877
0.0113376
0.037677
0.00757285
-0.0189193
0.0943516
0.00193009
0.0673231
-0.0286575
0.0475029
0.0776564
-0.0521077
0.0463001
0.0957735
0.00791857
0.0120154
0.0143061
0.0612917
-0.0196017
0.0379738
0.00877415
-0.0349796
0.109671
-0.00147934
0.0821096
-0.0509137
0.0474221
0.0891202
-0.0613242
0.0430063
0.0797937
0.0179481
-0.0132474
-0.00627473
0.0177313
-0.0372978
0.0190325
0.00303295
-0.0460548
0.127039
-0.00977895
0.0994397
-0.0647802
0.0561935
0.105683
-0.0752405
0.0660099
0.0756497
-0.00810353
0.044393
-0.00264325
0.0155015
-0.0273309
0.0274685
-0.000826896
-0.0478584
0.178566
-0.0323866
0.114006
-0.0634265
0.0410198
0.128202
-0.0662338
0.0686073
0.0920049
-0.0464242
0.0158313
0.0118409
-0.0047356
-0.055185
0.00627427
0.0251928
-0.100287
0.130042
-0.0669003
0.10619
-0.0922993
-0.0378149
0.00684039
0.00405291
0.0048084
0.00676129
-0.0682197
0.00454546
0.00473004
-0.0189193
-0.0220839
0.0181377
0.0192621
-0.0408011
0.0059762
0.00573036
0.00560943
-0.0547859
-0.01799
0.00126025
0.0140893
-0.0336697
0.0054313
-0.0112751
-0.00989061
-0.00415513
-0.00908951
-0.004553
0.00663564
0.0111992
-0.0114364
0.00498891
0.0122568
-0.00395038
-0.0046099
9.70707e-05
0.00485995
0.011792
-0.015046
0.00350904
0.00784865
-0.0249458
-0.00440267
0.00422836
-0.00691812
-0.0071963
0.00366586
0.00370859
-0.00538059
0.00319621
-0.00190816
0.00189959
0.00584001
0.00106223
-0.000360221
0.00322113
-0.0112593
0.00368171
-0.00738825
-0.00252447
0.00040981
-0.00308854
-0.000206228
-0.003549
0.00461863
-3.81673e-07
-0.0102071
0.00634857
-2.57053e-07
-0.0181188
0.00314802
-0.00255583
-0.00663475
0.00387736
-5.08721e-07
-0.000166954
0.00252987
-1.25571e-06
0.00221547
-3.26197e-07
-0.0150132
0.0128018
-1.89936e-06
-0.0256759
0.0186971
-2.31032e-07
-0.0255573
0.00906986
-2.90962e-08
-0.00224016
0.00881672
-3.0908e-07
0.00533063
0.00906733
-5.03803e-06
0.00392279
1.48659e-05
-0.0161411
0.0309719
-0.000670259
-0.0169673
0.0271257
-0.000428072
-0.0239799
0.0141583
-2.73749e-06
-0.00111265
0.0194935
-2.40586e-08
0.0113828
0.0244615
-1.03856e-06
0.0149873
0.00012173
-0.0201831
0.0597069
-0.000987138
-0.0215473
0.0517859
-6.32021e-06
0.00203805
0.0343146
-4.61186e-08
0.00958976
0.0281596
-1.53867e-08
0.0155188
0.0309098
-1.91729e-06
0.0309037
-1.89822e-06
-0.0160143
0.113629
-0.00793384
-0.0135662
0.0651264
-0.00179072
0.00437292
0.0343858
0.00171938
0.0158776
0.0478952
-0.00103377
0.0174297
0.0313285
-1.87737e-05
0.0423496
-0.000185777
-0.0293562
0.149636
-0.01271
-0.0187915
0.0923881
0.000460798
-0.0206898
0.0471642
0.00088991
0.0212867
0.101477
-0.00218653
0.0197721
0.0533614
-5.48311e-05
0.0720186
-4.1215e-06
-0.0599578
0.140705
-0.00701295
-0.0446139
0.174424
-0.0263356
-0.0727097
0.115606
0.000127491
-0.000694022
0.0732168
-0.0594518
0.0260407
0.156111
-0.00309932
0.159687
-0.000109569
-0.0296328
0.0681375
-0.00917895
-0.0603863
0.202558
-0.0465881
-0.10824
0.131851
0.000886625
-0.0243906
0.0163822
-0.011958
0.000803853
0.173522
-0.0840848
0.152062
-0.0728349
0.0187371
0.0145467
-0.00742733
0.0259425
0.204318
-0.0776937
-0.024465
0.0851079
0.0283434
-0.0173668
0.00568801
0.0251787
-0.0246024
0.0583361
-0.00552174
0.130631
-0.143575
0.0177037
0.00631572
0.00411305
0.0517115
0.00923862
-0.0314947
0.00372297
0.00688884
0.0258857
-0.00325442
0.0107913
0.0194539
-0.00353064
0.00074978
0.0180644
0.0065642
-0.0324859
0.00368314
0.0068971
0.00686388
0.00614172
-0.00081433
0.0105976
0.000438233
-0.000164177
0.00596684
-0.00115279
0.00371068
0.00613636
7.14044e-05
0.000299816
0.000760738
0.00505932
0.00129848
0.00198041
0.00269843
0.000923645
0.00504072
-0.000575097
0.00345155
-0.00101513
-8.12721e-05
-0.00142881
-0.00423071
0.00140776
8.14585e-09
-1.03684e-09
-3.8035e-07
6.60836e-09
1.82306e-09
-2.42119e-07
-1.72352e-09
1.67834e-09
-5.06975e-07
-1.5388e-08
-1.07949e-09
-4.86591e-07
-6.37275e-09
-1.06436e-08
-1.24565e-06
2.36688e-10
-3.15823e-07
-1.11154e-10
7.86367e-08
-1.9637e-06
-1.22218e-09
7.54635e-09
-2.14311e-07
-3.04888e-09
1.26979e-09
-6.57121e-09
-3.08387e-08
2.23539e-09
-2.78146e-07
-3.58931e-06
3.17905e-08
-1.51741e-06
1.29871e-05
-1.67406e-06
0.000434351
0.00235617
-6.40942e-06
2.75469e-06
6.49068e-06
-2.95083e-06
1.47105e-08
2.03877e-08
-1.01672e-08
8.4544e-10
3.23525e-09
-6.01514e-09
2.19227e-09
1.87695e-08
-1.02043e-06
0.000161291
-2.66122e-05
-4.26723e-08
0.00215684
-1.90202e-07
-1.25451e-10
1.98438e-07
-6.5246e-08
1.78847e-09
2.44076e-09
-2.36801e-08
2.17895e-09
5.11611e-09
-1.1199e-08
1.03801e-08
3.97354e-08
-1.94005e-06
0.000183916
-2.45385e-05
-0.00600982
0.000233228
2.49845e-06
-0.00286374
0.00419291
-1.36842e-07
0.00108093
0.00145165
-1.73806e-06
1.94071e-05
2.81156e-05
-3.44597e-07
3.19803e-07
6.25447e-07
-2.97734e-07
2.90376e-06
-4.77109e-06
-0.0128639
0.00039382
2.46407e-06
-0.00689594
0.00951975
-1.84955e-05
0.00228439
0.00533196
-1.19229e-05
5.732e-05
6.86835e-05
-3.88966e-08
1.54228e-06
1.80623e-06
-3.96224e-07
1.31171e-07
8.76415e-09
-0.00674306
0.000151703
-7.51576e-06
-0.0119605
0.0120305
-1.85719e-05
0.00291906
0.0361551
-6.93898e-06
0.00343439
0.0112888
-1.49065e-07
0.000113083
0.000223765
-3.90946e-08
3.71651e-06
1.81121e-07
-0.00391367
0.00598505
-2.23336e-05
-0.0560556
0.0764
-1.31949e-05
-0.00842385
0.122422
-2.40343e-07
0.0143357
0.0534478
-0.0321068
0.0013558
0.0280724
-0.000938255
0.029989
-2.01356e-05
-0.0559433
0.0621996
0.00406809
-0.0892477
0.145583
-0.0191142
-0.0389547
0.0774012
0.00405915
-0.00100648
0.00114743
0.0177726
0.0170524
0.0564856
6.42605e-05
0.107972
-0.0347421
0.0054953
0.0448274
-0.00131398
-0.00287923
0.143334
0.00119022
-0.0125312
0.0100165
0.0374172
0.000935193
-0.00122444
0.0163261
0.000728884
-0.00115499
0.039758
0.118062
-0.0113181
0.0111629
0.00730868
0.00362025
0.0136534
0.00452864
0.0301227
-0.00221072
0.000243082
0.0117042
-0.00255179
-0.00346195
0.0052482
-0.00166926
-0.0102998
0.00778564
0.00731153
0.0192017
0.00240871
0.00395418
0.00415806
0.00670192
0.00213069
0.00483839
0.0013216
0.00364147
-0.00298881
-0.0028278
0.00350911
-4.48605e-08
2.38279e-08
-6.30133e-07
6.9308e-08
1.74087e-08
-8.93724e-07
9.03349e-07
-4.8123e-09
-1.41073e-06
2.9382e-06
-2.45852e-07
1.02355e-06
-7.08732e-08
2.20107e-08
-2.27535e-07
2.13275e-09
-3.9933e-07
-1.11159e-07
1.52813e-06
-3.7514e-06
-2.61756e-08
7.99118e-08
-9.55235e-07
1.13955e-08
8.17968e-10
-1.30708e-07
3.61952e-08
1.69221e-08
-2.6687e-07
-8.1579e-08
1.58053e-07
-1.34755e-06
1.64021e-06
-3.20857e-06
-3.07876e-07
1.29276e-07
-4.68897e-06
-4.12211e-08
4.77788e-07
-1.37088e-06
1.89238e-10
3.70318e-09
-4.95029e-08
1.81691e-08
1.96438e-09
-4.91121e-09
-3.18596e-06
2.95382e-07
-1.2526e-06
3.86842e-05
-1.23105e-06
-2.16301e-08
3.00114e-08
-5.7042e-08
-1.871e-08
1.20943e-07
-4.63553e-08
2.13836e-09
3.18088e-08
-1.58007e-07
9.78958e-08
1.0961e-08
-1.15688e-07
-4.9952e-06
2.06765e-06
-1.0973e-06
4.41155e-05
-1.67595e-06
-1.10285e-09
1.99754e-06
4.97971e-07
-1.93844e-08
2.89844e-08
-9.26915e-09
-4.29611e-09
4.60812e-08
-1.75337e-06
-1.61295e-08
2.05016e-08
-3.48143e-07
2.5524e-07
5.22196e-07
-7.18195e-07
5.51997e-07
1.17623e-05
-1.30501e-09
4.89162e-06
-1.11244e-07
-4.36875e-08
6.46868e-07
-1.90569e-05
7.15779e-09
2.91025e-07
-1.22248e-05
5.7331e-09
2.83946e-08
-7.70032e-08
4.88351e-08
1.03544e-07
-3.42183e-07
5.94853e-08
6.32385e-07
2.03619e-06
-2.83663e-07
-4.26391e-06
2.20119e-07
7.16218e-07
-1.71028e-05
9.78245e-08
1.72041e-07
-6.75378e-06
8.56809e-09
7.37995e-08
-1.37127e-07
8.9862e-09
3.70447e-08
-2.91143e-08
2.06175e-07
6.89505e-09
1.25455e-05
-0.000132281
9.69579e-05
-3.56998e-09
6.20335e-07
-5.14189e-07
1.80074e-09
5.53305e-08
-1.3976e-07
0.00207183
0.00433689
-1.08148e-05
2.69838e-05
0.00119915
-9.25632e-05
7.04937e-06
-1.75179e-09
-5.84723e-05
0.00227096
-0.000324038
-0.0205559
0.0040272
-0.00264356
-0.0136312
0.0321993
-0.00557979
0.00619876
0.00689823
0.0138197
0.00916306
0.0155675
7.55614e-06
0.0116192
-0.00156877
-0.0127053
0.0224404
5.64694e-05
-0.0330464
0.0326573
-0.00370698
-0.0131659
0.00275382
0.00447512
-0.000769689
-0.00948391
0.0258012
0.0169522
-0.00446092
0.0215869
0.0395583
0.00014663
0.00105629
0.00703355
0.00113294
0.00246942
0.00379405
0.0197813
-2.26755e-05
-0.00163062
0.0136814
2.71753e-05
-0.0127729
0.0114354
-0.00184653
-0.0131847
0.0151881
-8.44477e-06
0.0228223
0.00597585
0.00977741
0.00455029
0.0119842
0.00377679
0.00308016
0.0183129
0.00413894
-0.00809794
-0.00264338
0.0117154
3.85195e-06
-5.46926e-05
-5.86073e-06
6.98007e-06
-2.55033e-05
-1.06801e-06
-7.53247e-07
-5.1037e-06
-1.33761e-06
4.60276e-06
-4.01589e-05
-4.26441e-07
6.83081e-06
-6.2928e-05
-1.70318e-09
8.15002e-06
-4.95487e-14
-2.5861e-05
1.73536e-06
-2.43901e-08
-3.40837e-06
-1.782e-05
4.01054e-06
3.4579e-05
-9.01029e-101
3.50008e-06
6.88024e-05
-7.08352e-05
3.06005e-06
1.82112e-05
-5.72933e-06
-2.90895e-10
2.14807e-05
-1.14018e-17
-3.27708e-05
-3.88136e-09
-3.30954e-102
2.32395e-07
1.12516e-100
2.60483e-103
9.25574e-05
-2.77742e-10
4.51478e-05
-5.20901e-13
-2.91297e-16
5.43807e-09
-5.15868e-10
2.10134e-09
7.10803e-12
-1.09796e-06
-1.4441e-09
1.36981e-10
-1.38207e-06
-1.93017e-09
3.43495e-11
-4.40339e-07
-5.35443e-10
-3.57136e-22
-1.73556e-09
8.47021e-12
-4.52658e-19
-4.95483e-14
-2.48996e-08
-1.5904e-10
4.03981e-12
-3.92745e-09
-3.24791e-07
1.62519e-09
6.13777e-08
-3.88548e-08
2.17373e-09
1.82335e-08
-1.31276e-11
6.04616e-10
-1.76912e-21
-2.1374e-14
-5.23303e-13
-1.18314e-17
1.72963e-20
-4.04041e-09
4.13234e-15
-6.43864e-11
5.92831e-11
2.91441e-10
4.6675e-11
5.42578e-13
2.87243e-14
3.03116e-16
-3.03561e-20
-1.21637e-20
1.18335e-11
-4.07985e-12
2.30309e-11
1.57447e-12
-1.68393e-09
3.61561e-13
3.97176e-12
-2.23864e-09
-4.65315e-13
9.71754e-13
-6.21581e-10
-8.10974e-15
-1.78964e-15
-1.92409e-12
-4.87325e-13
-4.42244e-16
1.72986e-13
1.69319e-14
-8.44316e-15
7.09657e-15
6.04105e-12
-5.90848e-11
3.11612e-12
8.91496e-12
-6.91408e-11
5.44291e-12
2.45122e-12
-6.68567e-14
8.42705e-13
5.35875e-16
-7.67907e-18
3.31872e-15
-1.65104e-18
2.97254e-17
-4.36325e-15
1.58897e-17
1.94221e-15
3.96329e-14
3.83056e-14
3.98561e-14
7.69771e-18
3.73211e-17
5.20084e-21
1.062e-19
2.84356e-20
2.26889e-14
-6.08934e-15
5.33032e-12
5.41642e-15
-2.89932e-12
9.07395e-13
1.4064e-14
-4.04575e-12
2.44924e-13
5.01011e-15
-8.05159e-13
2.19851e-13
-6.14888e-17
-4.86293e-15
-7.04928e-14
-2.06059e-18
1.62912e-13
1.64333e-18
-8.09095e-17
3.23726e-16
2.90732e-15
-3.88568e-14
4.14728e-13
9.44038e-15
-3.97043e-14
2.43776e-14
1.95141e-15
-1.1661e-16
6.72995e-15
8.90226e-18
-2.71673e-17
4.49634e-16
-4.71883e-19
3.41071e-17
-1.25036e-17
2.19188e-18
2.9197e-18
3.67574e-16
3.28254e-17
3.17009e-16
9.24229e-20
1.05846e-18
-2.09559e-22
6.62073e-19
1.25893e-20
4.62946e-16
3.14394e-15
5.11115e-12
8.02046e-17
-2.27435e-14
8.77747e-13
2.15756e-16
-2.42185e-14
3.98887e-14
2.78173e-17
-1.09262e-14
5.91809e-15
-2.77124e-12
-7.74297e-17
2.49517e-12
-7.69573e-12
1.15539e-09
-6.90038e-18
-1.09553e-18
-3.9929e-16
6.76987e-18
-1.08516e-16
3.92063e-13
3.25371e-18
-1.74268e-16
3.65328e-15
8.35466e-18
-1.10328e-17
9.39545e-16
1.2079e-19
-1.00296e-17
3.42369e-16
-1.23692e-20
9.6233e-12
6.86372e-22
3.12572e-20
-7.9279e-21
3.24625e-18
4.67611e-20
4.48284e-18
3.65016e-21
2.82036e-19
-1.51139e-25
2.93921e-19
1.7721e-23
9.24395e-12
2.92083e-16
1.18033e-08
9.04427e-12
-1.06173e-09
3.30155e-09
1.10236e-15
-2.74072e-14
9.04171e-12
-5.30437e-16
-4.74983e-17
-2.1282e-13
-6.62488e-11
-2.59361e-12
6.4701e-08
-7.32254e-09
1.13167e-08
-2.59174e-19
-1.55743e-21
-4.36116e-17
5.71697e-13
-3.242e-18
2.1038e-10
5.67309e-17
-2.23064e-19
5.47887e-13
6.87198e-20
-1.40571e-20
9.48868e-16
-3.40825e-12
-1.78306e-20
8.14983e-13
-4.08331e-23
6.92436e-10
2.16435e-24
2.96971e-20
-7.77053e-23
4.28766e-21
2.88584e-22
4.25933e-18
2.86549e-23
2.68234e-19
2.31595e-23
2.76071e-19
4.74266e-26
5.27502e-10
-2.48026e-07
1.73994e-07
5.08414e-11
-2.56746e-08
1.69389e-08
3.35971e-10
-3.88416e-08
4.60007e-08
-3.17208e-10
-7.21897e-08
8.45163e-08
1.76747e-09
-2.29399e-07
1.54833e-07
-1.6207e-08
1.18663e-08
1.70547e-09
-1.3681e-08
2.79681e-08
-7.80524e-13
-3.17431e-11
2.04154e-09
-2.76558e-12
-2.14328e-09
4.31553e-08
1.78643e-10
-2.24415e-09
6.34723e-08
1.84977e-09
-5.59125e-09
5.13593e-08
-8.96322e-12
1.24107e-09
2.49171e-11
-1.37059e-08
-8.2492e-12
1.42325e-12
-3.14334e-13
-2.15122e-09
8.62722e-12
-2.25309e-09
8.97092e-12
-5.5916e-09
7.78809e-15
-2.33381e-10
-1.74067e-06
1.86507e-06
5.90441e-11
-1.63603e-08
1.90583e-08
-9.78043e-11
-1.5018e-06
1.48085e-06
-1.57621e-09
-1.19396e-06
1.28838e-06
-1.4539e-11
-1.20564e-06
1.31245e-06
-4.3935e-10
1.18705e-08
-7.16787e-09
-1.14398e-06
2.71049e-07
9.65956e-09
-5.05198e-08
3.41967e-09
2.97732e-08
-1.54808e-06
9.52618e-08
-8.33379e-08
-1.16945e-06
2.06605e-07
-6.62255e-09
-8.85708e-07
7.90698e-08
-5.91631e-09
1.87174e-10
1.46511e-08
-7.5713e-07
-1.26355e-08
1.55812e-09
-1.44523e-09
-8.41789e-07
5.33421e-09
-8.22225e-07
3.37018e-09
-3.46018e-07
8.1747e-11
-1.18407e-07
7.34351e-06
0.00021667
3.31083e-07
3.63731e-06
0.000174642
4.29437e-07
3.5534e-06
0.000167263
-2.96895e-07
4.82932e-06
0.000174243
-1.45296e-06
4.25054e-06
0.000170521
6.36029e-06
0.000179757
6.02236e-10
-2.54013e-07
8.30921e-06
3.40441e-08
-3.63149e-07
3.96158e-06
4.42014e-08
-2.52398e-06
6.83632e-06
-9.98983e-08
-1.75736e-06
7.88919e-06
-5.79359e-08
-1.17729e-06
6.09747e-06
-2.44202e-12
6.30263e-06
-6.35718e-08
4.8154e-06
2.05105e-07
1.2633e-06
1.71692e-07
4.35011e-06
-1.21237e-06
6.15927e-06
-3.20509e-11
2.68932e-06
4.72459e-11
0.000239704
0.00056994
0.00304409
9.72785e-05
0.000276472
0.00331721
5.28282e-05
0.000381959
0.00306479
3.76235e-05
0.000616068
0.00303049
6.52404e-06
0.000522605
0.00313596
0.000563538
0.00315616
2.31753e-05
5.84459e-05
0.000497531
1.68695e-05
2.9523e-05
0.000257657
1.11426e-05
5.71874e-05
0.000338393
8.34735e-06
5.28194e-05
0.000574931
-1.84183e-07
6.95841e-05
0.000468734
4.77111e-05
0.000522359
4.2292e-06
5.07607e-05
1.44456e-06
2.63406e-05
1.55012e-06
5.25422e-05
8.65953e-07
4.83661e-05
-4.11991e-07
6.60307e-05
4.24052e-05
0.00346487
0.012442
-0.0153839
0.000357906
0.0021727
0.0378418
0.000172359
0.00230126
0.0313171
0.0002068
0.00306279
0.0294033
2.41467e-05
0.00245437
0.0333953
0.00263577
0.0310462
0.00120172
0.00798561
-3.24686e-05
4.47278e-05
0.00113296
0.00208011
0.000101823
0.00132348
0.00146872
0.000224828
0.00176773
0.00207997
4.05303e-05
0.00148821
0.00196404
0.00131545
0.00189079
7.44256e-05
-5.908e-05
-1.1961e-06
0.000271062
8.77316e-06
0.000219545
2.9846e-05
0.000175932
1.2516e-05
0.000295711
0.000208532
0.0710681
-0.00324212
0.325071
0.00228407
0.0101619
0.336205
-0.0230575
0.00642767
0.314192
0.0192507
0.00167839
0.316757
0.0165366
0.00659645
0.316516
0.00383895
0.306669
-0.00310613
-0.000353996
0.000101824
-0.00344982
0.00145062
0.0111843
-0.00123803
0.000285403
0.00540486
-0.000249829
-0.000129281
0.00273738
0.000237438
0.000444422
0.00742211
0.000309073
0.00557343
-0.000507471
1.16863e-05
-0.000164391
0.000470108
-3.32431e-05
0.000141841
-0.000101425
3.78026e-05
-1.17845e-05
0.00024151
0.00019225
0.00197545
0.00421416
-0.00719041
0.000803362
0.00279842
0.00261741
-0.00892418
0.00550015
0.00224791
-0.000188474
-0.0097561
0.0103062
0.000366139
-6.01916e-05
-0.0108268
0.00748541
-0.000791138
-4.6474e-05
-0.00898349
0.00794851
0.000833931
-0.0112289
0.00389321
0.000494426
5.21117e-05
-5.88345e-05
-0.00125525
0.000252849
1.42679e-05
-5.93707e-05
6.6639e-05
1.17419e-05
-2.45167e-07
-9.79333e-05
7.87919e-05
1.42721e-06
-5.51242e-06
-0.000132875
2.03936e-05
-3.79649e-05
-4.02629e-06
-7.19527e-05
5.88977e-06
8.64351e-06
-2.26059e-05
-0.000961103
1.23622e-05
-2.45695e-06
-3.28739e-05
1.13209e-05
-4.24837e-06
-4.44879e-05
1.752e-05
-6.31403e-06
2.29798e-05
1.77913e-05
-4.98171e-06
1.85489e-06
-6.56282e-07
1.88385e-06
-1.20298e-05
2.28222e-06
-5.41813e-05
0.00077498
0.000392746
-0.01133
0.00112647
0.000230673
-0.00948999
0.00116662
9.89434e-05
-0.00992925
0.000202591
0.000251513
-0.0103115
-0.000808936
-7.42796e-06
-0.0116142
-1.42951e-05
-0.00946451
1.48757e-05
3.96261e-05
0.000214761
2.12921e-05
3.8257e-05
8.66779e-05
2.72098e-06
3.71553e-05
1.94548e-05
-2.27119e-05
3.48727e-05
3.83776e-05
-2.22211e-05
3.32986e-05
-0.000167684
3.97959e-05
-0.000107202
2.24712e-07
-3.05995e-05
-3.53889e-07
-3.35045e-05
-1.61515e-06
-3.50477e-05
-1.5951e-06
-3.15337e-05
-5.23255e-07
-2.46492e-05
-1.64795e-05
0.000311672
0.00414804
0.000366976
0.000662097
0.0039262
0.000900335
0.000519592
0.00376839
0.00106133
0.000165308
0.00395889
0.000481269
-8.50949e-05
0.00389981
0.000467965
0.00359684
0.00117237
0.00015571
-0.000301616
-0.00279109
0.000183318
-0.000320709
-0.00114641
6.0571e-05
-0.000337363
-0.00180669
-9.21451e-05
-0.000273156
-0.00315001
-0.000109964
-0.000259162
-0.00269157
-0.000280831
-0.00141012
3.06783e-08
-0.000714733
-2.25387e-06
-0.000561312
-1.11243e-05
-0.000526454
-1.18041e-05
-0.00078815
-2.86974e-06
-0.000748199
-0.000402821
0.000695069
0.00856007
-0.0388622
0.000728794
0.00668639
-0.0346037
0.000410613
0.00668087
-0.0332614
0.000309288
0.00731681
-0.0249456
0.000159044
0.00678432
-0.0116731
0.00647726
-0.016295
-6.65413e-05
0.00861364
-0.0395199
0.000641303
0.00677034
-0.0332233
0.000273624
0.00659104
-0.0313127
-7.93695e-05
0.00796097
-0.0384982
0.000389321
0.00753255
-0.038473
0.00633758
-0.0298391
-9.36607e-05
-0.000146172
-2.50114e-05
-0.000302222
-1.23695e-05
-0.000229655
-8.83138e-05
-0.000302241
-5.37326e-05
-0.000331639
-0.000227826
0.000557113
0.0184725
-0.174246
0.000174498
0.0130593
-0.142287
0.000239475
0.0123622
-0.138416
0.00066849
0.013224
-0.171952
1.12888e-05
0.0124854
-0.152789
0.0123716
-0.134929
-0.00208028
9.41177e-05
-0.0264534
-4.71302e-05
-0.000361565
-0.0492698
-0.000208124
-0.000365264
-0.0357165
-0.000952213
-0.000231199
-0.0314263
0.00122948
-0.000200948
-0.0416339
-0.000467337
-0.0364012
-5.14422e-05
-2.48296e-07
-1.0623e-05
-9.57656e-06
-3.56554e-06
-2.53738e-06
-1.77542e-05
-1.06572e-06
-1.31558e-05
-5.23104e-06
-3.45006e-06
0.0105977
-0.0186899
-0.0113843
0.0281976
-0.0126722
0.00903237
0.00420669
-0.00164597
0.00623665
0.0151673
0.0097108
-0.00344368
-1.59925e-05
-0.00253024
-0.000456878
-0.00149039
-0.000138531
-0.00128937
-3.80609e-05
0.00076258
-0.000235029
-0.000188542
-4.58087e-06
-9.56136e-07
-1.85131e-07
-1.50916e-06
-2.58636e-07
-3.86735e-09
-4.28406e-07
5.66186e-08
-1.42809e-06
-3.56938e-07
1.10644e-07
2.56071e-07
-4.52697e-07
3.31951e-07
2.61285e-07
-1.66284e-07
6.99271e-07
-8.10324e-08
-1.53182e-07
1.24383e-07
-5.04642e-07
1.51997e-07
6.27148e-09
-0
4.51121e-08
-4.34612e-07
-0
2.99581e-08
1.64474e-07
-0
2.3995e-07
-2.30716e-09
-0
4.97321e-10
-2.27556e-08
-0
1.46917e-08
-0
6.05111e-08
0
0
0
0
0
0
0
0
0
0
0
2.21113e-08
-1.08478e-06
4.47672e-07
-3.91228e-08
-1.90622e-07
1.22018e-08
-5.50234e-09
-1.25269e-07
-3.46864e-09
1.73426e-10
-4.47538e-09
1.37827e-08
-5.76648e-08
-5.39505e-07
1.62969e-07
-1.76923e-06
2.54377e-07
5.84768e-08
-0
7.24408e-09
2.32447e-09
-3.32301e-27
3.07378e-09
1.46349e-13
-6.93948e-24
-4.05145e-09
-3.98829e-09
-9.83826e-24
1.03799e-11
-7.07951e-08
-1.01894e-26
1.38015e-08
-2.34784e-30
3.07216e-08
0
0
-2.85503e-27
4.37711e-30
3.38796e-27
2.41086e-26
1.01899e-26
1.22269e-26
2.34966e-30
9.58911e-30
2.04132e-33
-6.49041e-07
-1.1736e-06
3.74886e-07
-9.42232e-08
-5.56006e-08
-1.00279e-09
1.11843e-09
-8.27383e-09
1.91307e-09
1.84129e-08
-4.33641e-09
8.56209e-11
5.9738e-08
-4.67489e-07
3.90287e-08
-4.90419e-07
5.53581e-08
5.22942e-08
-0
-1.15976e-10
-8.77654e-11
-1.12722e-10
-3.21187e-11
-2.3206e-11
-7.75067e-09
2.08687e-10
-5.89555e-11
-6.65492e-10
2.99688e-10
-1.59107e-08
-5.38716e-12
-2.00257e-12
-2.04235e-33
-3.09331e-12
0
0
-1.12924e-10
2.02066e-13
1.17492e-10
3.92057e-10
5.39265e-12
1.09734e-11
-5.63014e-37
5.49327e-15
8.55357e-37