/*--------------------------------*- C++ -*----------------------------------*\
| =========                 |                                                 |
| \\      /  F ield         | OpenFOAM: The Open Source CFD Toolbox           |
|  \\    /   O peration     | Version:  v1612+                                |
|   \\  /    A nd           | Web:      www.OpenFOAM.com                      |
|    \\/     M anipulation  |                                                 |
\*---------------------------------------------------------------------------*/
FoamFile
{
    version     2.0;
    format      ascii;
    class       volScalarField;
    location    "9.5";
    object      p_rgh;
}
// * * * * * * * * * * * * * * * * * * * * * * * * * * * * * * * * * * * * * //

dimensions      [1 -1 -2 0 0 0 0];

internalField   nonuniform List<scalar> 
1116
(
10000.7
10018.9
10024.1
9986.93
9974.17
10017.8
10779.7
10795
10807.8
10796.7
10806.2
10813.2
12309.1
12313.3
12318.4
12312.8
12310.8
12319.1
13143.1
13138.1
13136.8
13141.9
13138.7
13130.6
13755.7
13749.7
13748.2
13754.5
13751.7
13744.5
14319.8
14314.2
14313
14319.4
14318.9
14314
14996.1
14993.9
14993.7
14996.1
14990.3
14994.6
15821.8
15822.8
15821.4
15819
15818.9
15820.2
16560
16541.5
16551.4
16544.2
16548.7
16553.3
17476.8
17473
17471.5
17469.9
17467.4
17470.4
17918.8
17931.7
17919.5
17912.1
17912.1
17918.1
17523.9
17459.7
17476.7
17487.1
17436.8
17460
4477.92
4543.51
4555.49
4489.69
4474.03
4561.83
5259.06
5272.65
5276.18
5291.54
5313.41
5268.73
6377.75
6315.52
6316.68
6404.29
6434.15
6288.9
7794.87
7729.74
7712.38
7779.94
7771.6
7660.41
8802.39
8756.58
8741.41
8802.41
8787.31
8715.01
9939.41
9902.96
9892.22
9950.28
9946.17
9909.83
11158.6
11125.7
11114.7
11153.7
11163.8
11133.6
13033.3
13015.3
13004.4
13000
13003.6
12998.7
16478.1
16465.6
16464.4
16443.2
16437.6
16458.1
17446
17455.3
17460.2
17454
17441.5
17474.8
17155.9
17272.9
17214
17187.6
17258.5
17131.4
15549.1
15469.2
15414.1
15431.8
15355.1
15375.9
2.16654
1.6111
1.52099
1.82292
2.08026
1.38645
-0.930136
-0.720268
-0.623661
-0.941374
-1.00563
-0.710259
-5.25996
-4.87704
-4.72213
-4.96258
-5.1021
-4.399
-4.38303
-4.32513
-4.24105
-4.27258
-4.25068
-4.09216
0.900621
0.744992
0.73965
0.807917
0.765217
0.715433
14.9408
14.9158
14.7997
14.8978
14.8
14.7231
47.971
48.3694
48.2751
48.0479
47.9941
48.2956
188.838
189.807
189.934
189.31
189.237
190.401
418.253
422.096
420.754
420.331
419.001
423.942
1738.98
1767.46
1780.38
1764.38
1739.8
1811.94
9145.83
8732.03
8901.43
8570.31
8195.85
9191.18
18119.1
18141.5
18121.7
18150.9
18132.7
18114.6
12.3686
11.0702
11.0202
11.7735
12.3946
10.9622
11.1793
11.1918
11.178
11.1295
11.2722
11.0989
11.7541
11.8561
11.8182
11.8016
11.7965
11.7406
10.8415
10.8794
10.8644
10.8799
10.9442
10.8309
11.9078
11.9381
11.9014
11.9156
11.9881
11.8289
15.2992
15.2449
15.2325
15.2529
15.2293
15.1466
23.6428
24.1161
24.1957
23.7835
24.0139
23.6437
35.0982
35.4463
35.6591
35.5382
35.8328
35.3682
21.0603
18.8877
19.2282
20.528
20.4588
20.3317
57.8473
46.3041
44.79
44.835
44.5377
42.041
331.632
251.347
243.34
242.605
239.804
233.816
19004.8
18380.8
18558.7
18528.5
18163.5
18645.5
1325.28
1333.52
1333.28
1219.53
1174.99
1145.15
1330.23
1342.17
1309.34
1230.52
1173.63
1094.09
1379.01
1371.74
1328.21
1298.39
1256.67
1210.82
1437.02
1403.47
1397.89
1384.7
1338.97
1343.38
1507.69
1462
1475.22
1414.42
1381.66
1437.34
1556.57
1498.61
1359.15
1533.24
1442.03
1532.56
1632.34
1552.8
1651.21
1660.63
1698.4
1734.05
1664.68
1631.48
1589.12
1220.72
1675.14
1825.31
1301.17
1432.53
1256.56
968.959
1173.94
1424.82
915.507
1017.64
1023.41
886.024
923.328
1136
779.549
766.792
836.258
850.809
799.359
898.355
707.242
673.545
709.963
722.792
727.574
724.78
512.825
818.495
923.29
394.957
256.985
217.796
523.62
873.449
871.589
442.822
314.288
176.88
714.306
836.891
789.953
765.649
557.22
308.509
941.279
1015.83
1075
962.333
813.316
584.188
1342.33
1117.73
1120.09
932.958
749.179
888.887
1773.01
1200.21
832.815
1138.28
687.66
1064.55
1932.04
1614.27
1089.85
1691.4
1026.31
1387.62
1668.81
1861.42
1510.55
1174.14
1710.02
1848.83
1000.41
1893.84
1464.54
606.149
1347.49
1835.62
683.152
1317.24
1065.54
666.265
670.652
876.338
657.864
640.172
620.72
605.506
560.331
574.328
639.837
580.396
533.753
545.515
541.722
555.289
2.09787
0.92535
5.59322
1.2814
3.09168
4.25303
3.08696
1.86565
2.06232
3.26524
4.8139
5.26038
71.4842
3.67683
4.40397
4.31654
4.81318
5.36425
59.5634
8.84069
7.90453
6.76242
6.2062
6.07656
13.2166
122.403
62.3119
11.6445
10.4717
9.97963
12.4736
187.052
102.131
18.0384
16.9606
17.8121
22.4305
111.911
240.549
47.1993
26.2568
27.4902
76.263
321.117
1093.5
767.299
69.3153
69.9478
656.296
1493.36
1124.19
427.891
895.509
1139.33
1263.32
1621.71
863.749
413.443
647.614
1422.65
801.82
792.413
448.322
492.554
524.905
663.375
476.383
464.682
444.284
512.473
604.545
500.518
2.72169
1.4512
0.253282
2.12051
3.67488
4.63805
3.60228
2.26826
1.32512
2.29893
4.03776
5.80617
2.72138
2.82579
2.9476
3.16407
3.56492
6.37968
1.17435
1.36674
2.41822
3.21424
2.79453
5.08444
-0.850549
-2.01881
2.23045
3.36017
2.08004
3.54579
-1.8725
-6.1228
2.13119
2.55003
1.57109
2.28991
-0.500168
-9.10176
1.06966
-1.08174
-0.271498
2.11927
3.85384
-8.41232
8.22347
73.2326
3.95014
10.0338
67.5548
19.9712
397.361
452.601
411.566
34.7951
355.173
538.604
615.399
304.512
448.928
750.832
655.225
566.822
245.587
359.262
436.63
614.039
506.689
362.285
350.674
573.599
701.38
487.932
4.52581
3.75314
3.54031
4.20601
4.38018
2.09797
9.46532
5.99301
4.64588
9.67809
9.23554
5.67564
1.40672
-5.16427
-5.3123
-2.9906
1.01749
1.33141
-0.158189
-0.398822
-0.518987
-0.24866
-0.111126
-0.15693
-1.1259
-1.17235
-1.19222
-1.15247
-1.15182
-1.05154
-7.262
-6.92562
-6.90889
-7.15505
-7.57887
-7.64495
0.938844
0.951999
0.942257
0.959746
0.965422
0.966389
-0.26722
-0.274776
-0.277818
-0.266985
-0.286537
-0.295414
-6.195
-6.18796
-6.18696
-6.21285
-6.26729
-6.27443
0.987626
0.989637
0.986703
0.99731
0.993758
1.0161
-1.0551
-1.06469
-1.06979
-1.07446
-1.08849
-1.09151
-7.26363
-7.25577
-7.25952
-7.28313
-7.32024
-7.3162
2.7037
2.70388
2.69946
2.69669
2.69788
2.69371
-0.821299
-0.833893
-0.833171
-0.836042
-0.841353
-0.857085
-7.93718
-7.95363
-7.94519
-7.95378
-7.96261
-7.96292
4.41764
4.42964
4.42292
4.40485
4.39939
4.40233
-1.18271
-1.16287
-1.16839
-1.18839
-1.19542
-1.17443
-9.22609
-9.26609
-9.2303
-9.25786
-9.27999
-9.29456
10.1589
10.31
10.2916
10.2037
10.3203
10.2073
-0.877508
-0.917968
-0.818416
-1.01025
-0.94996
-1.06482
-10.9038
-11.2628
-10.9812
-11.0901
-11.1098
-11.3574
3.00839
2.89598
2.92518
3.4625
3.08885
2.93618
-15.2399
-13.6288
-14.4889
-14.6851
-14.4293
-12.9686
-13.8554
-14.8609
-14.0005
-14.1411
-14.6434
-15.1836
-16.9623
-17.7088
-18.5145
-18.8639
-18.7971
-18.1006
-18.3023
-20.4088
-21.1238
-21.0451
-21.0931
-20.8922
-23.9034
-25.8019
-24.5288
-24.5155
-24.9963
-25.4344
14.3271
-2.52214
-4.79935
-7.06751
-9.25766
-10.156
-10.6439
-19.9326
-20.2323
-21.1292
-23.9894
-24.2964
-21.7076
-23.148
-23.1198
-23.5413
-24.1951
-22.9306
192.109
86.5662
90.4553
88.262
81.6348
81.5731
105.648
-2.87921
5.48027
18.137
4.3176
7.35313
11.9187
-7.71367
-0.337992
1.62202
2.07282
0.35588
7907.11
9573.22
9524.51
8974.97
9085.32
9352.89
-62.2059
-66.559
-47.6675
-45.2763
-40.5893
-40.0861
-7.10343
-1.90762
4.06799
5.43919
9.068
8.58213
1024.93
1016.44
1002
949.675
874.142
927.971
69.6762
34.2637
15.2728
14.0414
13.8993
25.2998
0.190816
-0.480926
-0.906077
1.85678
1.80077
0.713636
995.362
993.494
987.163
981.652
917.964
932.37
16.5745
15.899
14.9162
13.905
14.2437
15.5484
1.71449
1.70104
1.3872
1.78066
2.65495
2.61239
927.189
939.368
944.963
914.133
903.657
932.802
100.802
93.8639
98.753
96.2501
88.4519
81.7923
1.28759
0.458067
0.247622
2.03952
2.67791
1.78967
904.304
862.801
850.512
875.053
860.153
814.019
839.02
756.752
743.172
856.297
858.953
709.712
56.403
40.868
38.2721
59.3143
57.1655
34.7702
3555.18
2991.94
2939.53
3334.35
3302.36
2907.38
1464.78
1537.4
1412.4
1485.15
1563.42
1402.86
-9.74328
-5.17327
-5.01023
-0.55569
-0.275312
-4.11014
8958.84
8987.17
8912.34
9125.91
9065.27
8736.21
423.423
932.238
719.19
557.26
736.062
760.781
-2.09758
-0.306317
-0.706366
0.0726874
1.59274
1.27976
1.48094
1.25075
1.84963
2.7123
2.66354
2.63649
0.656687
0.73495
1.27739
0.951793
0.985158
1.01071
-0.297958
-0.313527
-0.088333
-0.210087
-0.274567
-0.276374
1.64248
1.39554
1.28145
1.5922
2.15546
2.51899
0.428298
0.37242
0.320374
0.460184
0.606887
0.812397
-0.810611
-0.875312
-0.77396
-0.785458
-0.823157
-0.766523
0.821016
1.53525
1.99941
1.99154
2.23289
2.23839
0.338845
0.436696
0.54309
0.587865
0.690265
0.753302
-0.976951
-1.0617
-0.935712
-0.975368
-0.986249
-0.913282
-0.451252
0.792076
1.69603
2.23318
2.00882
2.1034
0.313383
0.413961
0.563813
0.66083
0.567413
0.582899
-1.11319
-1.31225
-1.2258
-1.232
-1.23367
-1.03998
0.307076
0.736053
2.27197
3.66614
2.43265
3.40581
1.86887
1.81379
1.80751
1.84512
1.6664
2.16029
-0.943419
-1.32827
-1.3633
-1.23968
-1.05599
-0.531261
2.58331
0.932734
3.12737
4.86873
3.04999
5.04928
4.41766
4.08627
3.51012
3.23944
3.12378
4.40197
-0.602464
-1.36427
-1.75095
-1.61307
-1.32879
-0.640897
8.25585
4.36213
5.93908
7.24989
6.06809
7.82362
11.9865
10.509
7.47486
6.51743
5.78664
6.52626
-0.386475
-1.20003
-2.09391
-1.94043
-1.72485
-1.22034
6.18292
1.94191
5.19723
6.72134
6.80544
8.39243
10.4313
8.71864
6.77453
5.49351
4.60037
5.20286
-2.80293
-4.16344
-6.51036
-5.37115
-4.1063
-3.11376
166.496
72.7139
220.651
376.429
265.196
85.1565
28.0958
34.8958
68.2578
156.98
74.8081
21.2271
-13.6049
-14.7136
-4.81678
-14.2812
-12.922
-9.65526
382.368
162.937
269.756
316.849
304.793
637.258
365.762
3.15427
64.1146
269.198
218.068
127.146
31.1793
-18.8346
-6.56631
68.3133
27.8526
-21.2361
391.096
364.99
135.614
199.859
285.207
519.201
363.04
78.0907
45.3252
102.186
171.789
246.605
127.451
-18.8299
-4.88945
1.67941
2.20666
-13.185
794.765
590.234
451.087
614.219
649.384
553.064
314.407
362.008
309.104
254.746
232.876
220.35
2.62587
2.91902
17.8839
-6.17597
-4.51488
-4.12619
)
;

boundaryField
{
    seabed_topleft_surface
    {
        type            fixedFluxPressure;
        gradient        uniform 0;
        value           nonuniform List<scalar> 
72
(
10000.7
10018.9
10024.1
9986.93
9974.17
10017.8
10779.7
10795
10807.8
10796.7
10806.2
10813.2
12309.1
12313.3
12318.4
12312.8
12310.8
12319.1
13143.1
13138.1
13136.8
13141.9
13138.7
13130.6
13755.7
13749.7
13748.2
13754.5
13751.7
13744.5
14319.8
14314.2
14313
14319.4
14318.9
14314
14996.1
14993.9
14993.7
14996.1
14990.3
14994.6
15821.8
15822.8
15821.4
15819
15818.9
15820.2
16560
16541.5
16551.4
16544.2
16548.7
16553.3
17476.8
17473
17471.5
17469.9
17467.4
17470.4
17918.8
17931.7
17919.5
17912.1
17912.1
17918.1
17523.9
17459.7
17476.7
17487.1
17436.8
17460
)
;
    }
    seabed_topright_surface
    {
        type            fixedFluxPressure;
        gradient        uniform 0;
        value           nonuniform List<scalar> 
72
(
1325.28
1333.52
1333.28
1219.53
1174.99
1145.15
1330.23
1342.17
1309.34
1230.52
1173.63
1094.09
1379.01
1371.74
1328.21
1298.39
1256.67
1210.82
1437.02
1403.47
1397.89
1384.7
1338.97
1343.38
1507.69
1462
1475.22
1414.42
1381.66
1437.34
1556.57
1498.61
1359.15
1533.24
1442.03
1532.56
1632.34
1552.8
1651.21
1660.63
1698.4
1734.05
1664.68
1631.48
1589.12
1220.72
1675.14
1825.31
1301.17
1432.53
1256.56
968.959
1173.94
1424.82
915.507
1017.64
1023.41
886.024
923.328
1136
779.549
766.792
836.258
850.809
799.359
898.355
707.242
673.545
709.963
722.792
727.574
724.78
)
;
    }
    breakwater_top_surface
    {
        type            fixedFluxPressure;
        gradient        uniform 0;
        value           nonuniform List<scalar> 
36
(
1024.93
1016.44
1002
949.675
874.142
927.971
995.362
993.494
987.163
981.652
917.964
932.37
927.189
939.368
944.963
914.133
903.657
932.802
904.304
862.801
850.512
875.053
860.153
814.019
3555.18
2991.94
2939.53
3334.35
3302.36
2907.38
8958.84
8987.17
8912.34
9125.91
9065.27
8736.21
)
;
    }
    breakwater_left_surface
    {
        type            fixedFluxPressure;
        gradient        uniform 0;
        value           nonuniform List<scalar> 
24
(
17523.9
17459.7
17476.7
17487.1
17436.8
17460
15549.1
15469.2
15414.1
15431.8
15355.1
15375.9
18119.1
18141.5
18121.7
18150.9
18132.7
18114.6
19004.8
18380.8
18558.7
18528.5
18163.5
18645.5
)
;
    }
    breakwater_right_surface
    {
        type            fixedFluxPressure;
        gradient        uniform 0;
        value           nonuniform List<scalar> 
24
(
707.242
673.545
709.963
722.792
727.574
724.78
639.837
580.396
533.753
545.515
541.722
555.289
476.383
464.682
444.284
512.473
604.545
500.518
506.689
362.285
350.674
573.599
701.38
487.932
)
;
    }
    water_front_surface
    {
        type            fixedFluxPressure;
        gradient        uniform 0;
        value           nonuniform List<scalar> 
186
(
10000.7
10779.7
12309.1
13143.1
13755.7
14319.8
14996.1
15821.8
16560
17476.8
17918.8
17523.9
4477.92
5259.06
6377.75
7794.87
8802.39
9939.41
11158.6
13033.3
16478.1
17446
17155.9
15549.1
2.16654
-0.930136
-5.25996
-4.38303
0.900621
14.9408
47.971
188.838
418.253
1738.98
9145.83
18119.1
12.3686
11.1793
11.7541
10.8415
11.9078
15.2992
23.6428
35.0982
21.0603
57.8473
331.632
19004.8
1325.28
1330.23
1379.01
1437.02
1507.69
1556.57
1632.34
1664.68
1301.17
915.507
779.549
707.242
512.825
523.62
714.306
941.279
1342.33
1773.01
1932.04
1668.81
1000.41
683.152
657.864
639.837
2.09787
3.08696
71.4842
59.5634
13.2166
12.4736
22.4305
76.263
656.296
1263.32
801.82
476.383
2.72169
3.60228
2.72138
1.17435
-0.850549
-1.8725
-0.500168
3.85384
67.5548
355.173
655.225
506.689
4.52581
9.46532
1.40672
-0.158189
-1.1259
-7.262
0.938844
-0.26722
-6.195
0.987626
-1.0551
-7.26363
2.7037
-0.821299
-7.93718
4.41764
-1.18271
-9.22609
10.1589
-0.877508
-10.9038
3.00839
-15.2399
-13.8554
-16.9623
-18.3023
-23.9034
14.3271
-10.6439
-21.7076
192.109
105.648
11.9187
7907.11
-62.2059
-7.10343
1024.93
69.6762
0.190816
995.362
16.5745
1.71449
927.189
100.802
1.28759
904.304
839.02
56.403
3555.18
1464.78
-9.74328
8958.84
423.423
-2.09758
1.48094
0.656687
-0.297958
1.64248
0.428298
-0.810611
0.821016
0.338845
-0.976951
-0.451252
0.313383
-1.11319
0.307076
1.86887
-0.943419
2.58331
4.41766
-0.602464
8.25585
11.9865
-0.386475
6.18292
10.4313
-2.80293
166.496
28.0958
-13.6049
382.368
365.762
31.1793
391.096
363.04
127.451
794.765
314.407
2.62587
)
;
    }
    water_back_surface
    {
        type            fixedFluxPressure;
        gradient        uniform 0;
        value           nonuniform List<scalar> 
186
(
10017.8
10813.2
12319.1
13130.6
13744.5
14314
14994.6
15820.2
16553.3
17470.4
17918.1
17460
4561.83
5268.73
6288.9
7660.41
8715.01
9909.83
11133.6
12998.7
16458.1
17474.8
17131.4
15375.9
1.38645
-0.710259
-4.399
-4.09216
0.715433
14.7231
48.2956
190.401
423.942
1811.94
9191.18
18114.6
10.9622
11.0989
11.7406
10.8309
11.8289
15.1466
23.6437
35.3682
20.3317
42.041
233.816
18645.5
1145.15
1094.09
1210.82
1343.38
1437.34
1532.56
1734.05
1825.31
1424.82
1136
898.355
724.78
217.796
176.88
308.509
584.188
888.887
1064.55
1387.62
1848.83
1835.62
876.338
574.328
555.289
4.25303
5.26038
5.36425
6.07656
9.97963
17.8121
27.4902
69.9478
1139.33
1422.65
663.375
500.518
4.63805
5.80617
6.37968
5.08444
3.54579
2.28991
2.11927
10.0338
34.7951
750.832
614.039
487.932
2.09797
5.67564
1.33141
-0.15693
-1.05154
-7.64495
0.966389
-0.295414
-6.27443
1.0161
-1.09151
-7.3162
2.69371
-0.857085
-7.96292
4.40233
-1.17443
-9.29456
10.2073
-1.06482
-11.3574
2.93618
-12.9686
-15.1836
-18.1006
-20.8922
-25.4344
-10.156
-24.2964
-22.9306
81.5731
7.35313
0.35588
9352.89
-40.0861
8.58213
927.971
25.2998
0.713636
932.37
15.5484
2.61239
932.802
81.7923
1.78967
814.019
709.712
34.7702
2907.38
1402.86
-4.11014
8736.21
760.781
1.27976
2.63649
1.01071
-0.276374
2.51899
0.812397
-0.766523
2.23839
0.753302
-0.913282
2.1034
0.582899
-1.03998
3.40581
2.16029
-0.531261
5.04928
4.40197
-0.640897
7.82362
6.52626
-1.22034
8.39243
5.20286
-3.11376
85.1565
21.2271
-9.65526
637.258
127.146
-21.2361
519.201
246.605
-13.185
553.064
220.35
-4.12619
)
;
    }
    water_left_surface
    {
        type            fixedFluxPressure;
        gradient        uniform 0;
        value           nonuniform List<scalar> 
42
(
10000.7
10018.9
10024.1
9986.93
9974.17
10017.8
4477.92
4543.51
4555.49
4489.69
4474.03
4561.83
2.16654
1.6111
1.52099
1.82292
2.08026
1.38645
12.3686
11.0702
11.0202
11.7735
12.3946
10.9622
4.52581
3.75314
3.54031
4.20601
4.38018
2.09797
9.46532
5.99301
4.64588
9.67809
9.23554
5.67564
1.40672
-5.16427
-5.3123
-2.9906
1.01749
1.33141
)
;
    }
    water_right_surface
    {
        type            fixedFluxPressure;
        gradient        uniform 0;
        value           nonuniform List<scalar> 
42
(
1325.28
1333.52
1333.28
1219.53
1174.99
1145.15
512.825
818.495
923.29
394.957
256.985
217.796
2.09787
0.92535
5.59322
1.2814
3.09168
4.25303
2.72169
1.4512
0.253282
2.12051
3.67488
4.63805
1.48094
1.25075
1.84963
2.7123
2.66354
2.63649
0.656687
0.73495
1.27739
0.951793
0.985158
1.01071
-0.297958
-0.313527
-0.088333
-0.210087
-0.274567
-0.276374
)
;
    }
    water_top_surface
    {
        type            totalPressure;
        rho             rho;
        psi             none;
        gamma           1;
        p0              uniform 0;
        value           nonuniform List<scalar> 
180
(
0
-2.17031
-2.33078
-1.18882
0
0
-8.5164
-8.14648
-8.0758
-8.33814
-8.73466
-8.74441
-6.75834
-6.76917
-6.78001
-6.77925
-6.79572
-6.83205
-8.82118
-8.83233
-8.84047
-8.84231
-8.89664
-8.87833
-10.4187
-10.4488
-10.4476
-10.4455
-10.466
-10.4695
-13.0842
-13.0945
-13.085
-13.1137
-13.1254
-13.0964
-16.1522
-16.7192
-16.6474
-16.6493
-16.52
-16.5879
-17.952
-25.0134
-21.0917
-18.988
-20.2342
-25.0506
-2.76854
-17.3571
-6.00414
-3.41653
-7.72648
-18.179
0
0
0
0
0
0
0
0
0
0
0
0
0
0
0
0
0
0
0
0
0
0
0
0
0
0
0
0
0
0
0
0
0
0
0
0
0
0
0
0
0
0
-0.101221
0
0
-0.240368
-0.142073
0
-7.38696
-1.18767
-3.68628
-7.78156
-4.12253
-1.96201
-0.902758
-0.969224
-0.45534
-0.941787
-1.16274
-1.05434
-1.70706
-1.82194
-1.88602
-1.92611
-1.85998
-1.72193
-1.67609
-1.85267
-1.97901
-2.06307
-1.99984
-1.90645
-1.56909
-1.86606
-2.17269
-2.38527
-2.37233
-2.06835
-1.21727
-1.7667
-2.31128
-2.66928
-2.56802
-1.78701
-1.13683
-2.18931
-2.91666
-3.43023
-3.21099
-1.93577
-1.33564
-3.15467
-4.60203
-4.30215
-3.74992
-1.97926
-3.48007
-7.57988
-6.97314
-8.9277
-6.50955
-3.02195
-10.3436
-12.5498
-0.311427
-6.68959
-6.934
-3.98804
0
0
0
0
0
-0.334027
0
0
0
0
0
0
0
0
0
0
0
0
)
;
    }
}


// ************************************************************************* //
