/*--------------------------------*- C++ -*----------------------------------*\
| =========                 |                                                 |
| \\      /  F ield         | OpenFOAM: The Open Source CFD Toolbox           |
|  \\    /   O peration     | Version:  v1612+                                |
|   \\  /    A nd           | Web:      www.OpenFOAM.com                      |
|    \\/     M anipulation  |                                                 |
\*---------------------------------------------------------------------------*/
FoamFile
{
    version     2.0;
    format      ascii;
    class       surfaceScalarField;
    location    "9.5";
    object      phi;
}
// * * * * * * * * * * * * * * * * * * * * * * * * * * * * * * * * * * * * * //

dimensions      [0 3 -1 0 0 0 0];

internalField   nonuniform List<scalar> 
2916
(
-0.00908894
-0.116881
0.12597
0.00350361
-0.13906
0.126467
0.0280423
-0.14506
0.120521
0.012161
-0.103427
0.119308
-0.0292831
-0.082954
0.124398
-0.143149
0.113866
0.00125726
-0.245712
0.127573
0.0012559
-0.260281
0.121222
-0.00240524
-0.264071
0.122672
-0.000907783
-0.24269
0.137766
-0.00780386
-0.230817
0.154759
-0.270364
0.119411
-5.36789e-05
-0.242191
-0.00346732
-0.00123716
-0.249627
-0.00947059
-0.00637999
-0.250987
-0.00794151
-0.00476162
-0.243731
-0.000577103
-0.00248995
-0.239151
0.00606229
-0.262386
-0.0104671
-0.00203849
-0.186438
-0.0537136
-0.00199341
-0.192358
-0.0573138
-0.00370716
-0.193105
-0.0561683
-0.00412464
-0.18862
-0.0546934
-0.00344385
-0.18622
-0.0536119
-0.2058
-0.06003
-0.00124742
-0.11325
-0.0719409
-0.00135593
-0.119187
-0.0730629
-0.00203496
-0.119813
-0.0726123
-0.00252887
-0.114134
-0.0739924
-0.00321229
-0.110828
-0.0747087
-0.130394
-0.0786184
-0.00011757
-0.0196694
-0.0934631
-0.000354671
-0.0255848
-0.0933648
-0.00050698
-0.0262915
-0.0933694
-0.000869529
-0.0194854
-0.0942861
-0.00246573
-0.014458
-0.0947736
-0.0339443
-0.0989155
0.001695
0.0612309
-0.0825954
0.000586968
0.0578513
-0.082328
0.00063125
0.056096
-0.0824317
8.09776e-05
0.0631768
-0.082112
-0.00178487
0.0695196
-0.0821118
0.0492671
-0.0849963
0.00317819
0.142225
-0.0841728
0.000777182
0.143428
-0.0831753
-0.000736487
0.141462
-0.0838519
-0.000102082
0.14421
-0.0816676
0.0012896
0.145879
-0.0777506
0.136594
-0.0860375
-0.000478162
0.195335
-0.0526312
0.000278372
0.192863
-0.0501916
0.000288962
0.19296
-0.0515093
-0.00224431
0.19612
-0.0493764
-0.00313018
0.194178
-0.0474136
0.189295
-0.0558313
-0.00765979
0.0904915
0.112503
8.10969e-05
0.0712108
0.113911
0.00367278
0.0735697
0.115799
-0.000781254
0.0925179
0.108056
-0.0063647
0.0970327
0.102729
0.0659635
0.116967
-0.0113693
-0.164351
0.266212
-1.31674e-05
-0.189045
0.2489
0.00370583
-0.18398
0.253831
0.000137888
-0.160526
0.256612
0.000788838
-0.153307
0.249689
-0.190322
0.257075
0.0233319
-0.187683
0.00185815
-0.167571
-0.00396879
-0.178153
0.0148488
-0.179344
0.0167249
-0.155183
-0.173598
0.00460714
-0.0588324
0.180195
-0.0388323
-0.0121439
0.182051
-0.0859015
-0.0106676
0.178258
-0.0424631
-0.102877
0.178747
0.0424512
-0.132471
0.171955
-0.0226267
0.178944
-0.00655759
-0.0100632
0.0853618
0.008659
0.0197517
0.0741102
0.0334288
0.0163036
0.0709312
0.010746
-0.0160067
0.0735783
-0.0127009
-0.0150704
0.0608053
0.0137841
0.070299
-0.00847568
0.0706375
-0.0756923
0.0103352
0.0948075
-0.103337
0.0438028
0.086689
-0.111794
0.0222672
0.07666
-0.0717081
-0.0133743
0.0866541
-0.0600206
0.0970183
-0.107076
-0.00761043
0.292902
-0.268368
0.00518831
0.309637
-0.284942
0.0240544
0.305416
-0.293761
0.014993
0.301825
-0.270796
-0.00486256
0.311349
-0.258451
0.324891
-0.292766
-0.00301166
0.596862
-0.372889
9.73845e-05
0.608239
-0.374773
0.00251508
0.608577
-0.37819
0.00280148
0.603147
-0.375601
0.00545342
0.607731
-0.373742
0.630864
-0.379138
-0.000828205
0.886406
-0.382179
-0.000831505
0.893312
-0.378435
-0.00534943
0.896142
-0.376417
-0.00223416
0.888583
-0.382838
0.00637174
0.887368
-0.383017
0.914876
-0.376556
-0.000993132
1.1062
-0.301392
-0.000384103
1.11055
-0.300172
-0.00315292
1.11381
-0.297327
-0.00251943
1.10544
-0.299603
0.00491383
1.09886
-0.301035
1.12691
-0.292121
0.0020071
1.13027
-0.110249
0.000604494
1.13621
-0.107436
-3.83105e-05
1.1367
-0.106104
0.000559456
1.13004
-0.106864
0.00424481
1.12438
-0.106959
1.1443
-0.0991747
0.00476597
0.975418
0.0974511
0.000484015
0.986825
0.103476
0.00137602
0.982064
0.102237
0.00128556
0.982124
0.0986295
-0.00175606
0.985392
0.0946169
0.981215
0.105494
-0.00235298
0.633541
0.456733
-0.000134202
0.652674
0.445843
0.00703359
0.641514
0.449181
-0.000436233
0.654813
0.442837
-0.0174404
0.669163
0.435962
0.626721
0.454021
-0.00978102
0.172135
0.737399
0.00119642
0.167797
0.722799
0.00864271
0.164551
0.723347
-0.0052418
0.195909
0.7294
-0.0314893
0.202551
0.742548
0.147707
0.7046
0.0225907
-0.0381381
0.00117202
0.0216444
-0.0133205
0.00089063
0.0140156
-0.0107703
0.0297814
0.0316025
0.00389032
0.0532347
0.943325
-0.816365
0.0545811
0.980174
-0.799471
-0.0480662
1.03597
-0.75507
-0.0261382
0.954777
-0.79796
0.130249
0.904868
-0.889301
1.04169
-0.732494
0.00770733
2.51058
-1.48961
0.0228647
2.53403
-1.4949
0.00482794
2.5806
-1.45565
0.00505089
2.53111
-1.50298
0.0808627
2.51067
-1.6208
2.58191
-1.38906
-0.049862
4.23178
-1.74703
-0.0031169
4.21047
-1.82652
0.033955
4.24417
-1.81244
0.0180671
4.24527
-1.76997
0.0298245
4.22249
-1.7836
4.28202
-1.77736
-0.0417809
6.05665
-2.05145
-0.0151023
5.99965
-2.1008
0.0193059
6.01633
-2.10032
0.00657997
6.05005
-2.06285
0.0254031
6.01854
-2.07332
6.07338
-2.05872
-0.0165057
7.95824
-2.25797
-0.00805907
7.89847
-2.28204
0.00381263
7.90974
-2.28348
0.0100701
7.93884
-2.27065
0.0408403
7.89826
-2.28423
7.98474
-2.24966
-0.00143036
9.75757
-2.18008
0.00454442
9.68556
-2.1715
-0.00345768
9.70557
-2.16425
0.0184822
9.72665
-2.19259
0.0524536
9.67745
-2.19619
9.80492
-2.14429
-0.0275959
11.4774
-1.99366
0.00763562
11.3936
-2.04343
0.0133718
11.4164
-2.01387
0.0198648
11.4277
-2.00716
0.0412748
11.3814
-2.0264
11.5184
-1.96433
-0.108847
10.2308
1.24521
-0.00198434
10.144
1.03526
0.0867548
10.1803
1.04126
0.024721
10.1904
1.19249
-0.0350909
10.2204
1.11385
10.1813
1.20281
-0.0465293
5.30823
5.06657
-0.010568
5.21002
5.00151
0.0340021
5.21134
5.0266
0.0109141
5.23342
5.07869
-0.0750956
5.29423
5.10681
5.16868
5.04305
0.000200541
2.08557
3.6792
-0.00940592
2.01811
3.64736
0.00528901
1.99828
3.64755
-0.0014721
2.02613
3.65689
-0.0269159
2.07587
3.67977
1.94638
3.64941
-0.0802708
0.53834
2.3649
-0.0376419
0.507109
2.19117
0.00583386
0.497861
2.18029
-0.0175237
0.527984
2.25091
-0.0699812
0.552489
2.31838
0.454848
2.12615
0.00478481
0.495417
-0.00757517
0.541113
-0.0203253
0.511502
0.00383457
0.493054
0.0507149
0.537212
0.509453
0.0811174
-0.380513
-0.51697
0.0650452
-0.431345
-0.352056
-0.0420491
-0.417825
-0.230153
-0.0255351
-0.391753
-0.422723
0.0752715
-0.39164
-0.59847
-0.468237
-0.188986
0.0236846
-0.152865
-1.74094
-0.00210497
-0.161815
-1.73864
0.00468488
-0.192164
-1.6881
0.00371359
-0.158387
-1.73537
-0.017507
-0.144411
-1.84681
-0.246097
-1.62871
0.022468
-0.2156
-1.70675
0.02517
-0.226378
-1.76465
-0.00435638
-0.22883
-1.74624
0.026752
-0.221544
-1.73792
0.068695
-0.22449
-1.74546
-0.220939
-1.73382
0.0109236
-0.337677
-1.94029
-0.00530241
-0.349453
-1.9615
-0.0276218
-0.3542
-1.95263
-0.0171822
-0.343331
-1.9515
0.000715547
-0.342212
-1.9735
-0.349644
-1.9293
0.000515776
-0.377202
-2.21896
-0.00575472
-0.395991
-2.22924
-0.0265559
-0.390716
-2.22616
-0.0213318
-0.394367
-2.22484
-0.000168476
-0.406156
-2.24145
-0.390822
-2.20865
0.010813
-0.125987
-2.44211
-0.00188075
-0.120444
-2.43436
-0.0241759
-0.107513
-2.42516
-0.00658412
-0.154241
-2.45031
0.00163981
-0.154448
-2.45611
-0.121977
-2.41149
-0.100702
1.41084
-3.42979
-0.0109397
1.2324
-3.48603
0.0474655
1.26686
-3.44665
-0.00362137
1.34023
-3.45056
0.00674118
1.26037
-3.45159
1.35575
-3.43532
-0.201237
5.01349
-2.15619
-0.0411932
4.70325
-2.59563
0.0752716
4.7461
-2.55445
-0.0250779
4.93179
-2.29872
-0.0371231
4.83515
-2.44889
4.87329
-2.35186
-0.0292689
5.69339
4.41592
-0.0459767
5.68358
4.03789
-0.0107208
5.68779
4.04965
-0.0148966
5.80552
4.20914
-0.046797
5.80604
4.16782
5.75794
4.1116
0.267589
3.31418
5.79083
0.0385757
3.59933
5.96063
-0.012639
3.59743
5.78913
0.00133345
3.6219
5.82654
0.0353636
3.60562
5.84617
3.62385
5.81887
0.35613
0.802856
4.52008
0.0478668
1.05566
5.0431
0.0015737
0.975133
4.84887
-0.00956738
1.00697
4.87697
-0.0145743
1.02889
4.90012
0.945586
4.78984
0.0332865
1.26499
0.00682756
1.62324
0.000137083
1.49333
0.00356597
1.4966
0.0149997
1.55467
1.47004
0.0581001
0.296449
-0.354549
0.0185195
0.326839
-0.287258
-0.0487142
0.32378
-0.256546
-0.260463
0.328035
-0.116286
-0.219396
0.243148
-0.284216
0.231513
-0.450909
0.101003
0.565481
-0.370035
0.0618817
0.569998
-0.204038
0.114079
0.502038
-0.230456
0.0355599
0.390763
0.0157908
-0.0642364
0.415851
-0.072906
0.420723
-0.253446
0.120159
0.719677
-0.274354
0.0390442
0.869017
-0.217904
0.204169
0.579751
-0.242838
0.26209
0.325423
0.00741999
-0.0319237
0.636565
0.0732991
0.546117
-0.157318
0.294484
0.740068
-0.314875
0.226729
1.04564
-0.108866
0.270424
0.455016
0.0810395
0.123434
0.372744
0.0996696
-0.18171
0.899096
0.0426132
0.641659
-0.277251
0.47792
0.777044
-0.514895
0.476308
0.963866
0.0833843
0.133624
0.151092
0.646609
-0.205247
0.414782
0.296833
-0.36798
1.07497
-0.0131442
0.789422
-0.515743
0.508721
0.897186
-0.628864
0.468819
0.813519
0.190249
-0.237009
-0.0639125
0.920832
-0.431886
0.508866
0.100794
-0.466254
1.26251
-0.153169
0.984548
-0.66138
0.566832
1.09287
-0.76252
0.671427
0.799306
-0.0903827
0.457034
-0.025326
0.175807
-0.285185
1.28053
-0.0294443
-0.502051
1.92908
-0.449708
1.25748
-0.774985
0.443676
1.4031
-0.753904
0.716673
0.983119
-0.456809
0.447632
0.290878
-0.0471634
-1.21441
2.2745
0.668068
-1.06088
2.37388
-0.598325
1.15843
-0.961833
-0.525012
1.87394
0.0541728
0.191706
1.04964
-0.783241
0.378467
0.401178
-0.29706
-1.74288
2.2928
2.10305
-1.45972
2.00112
0.0896051
0.460279
-0.761564
-1.52943
1.69486
1.70851
-1.41575
1.38374
-0.447769
-0.649464
-0.0567563
-0.308354
-0.985441
0.84014
1.78863
-0.804528
0.585982
1.23422
-0.0640545
-0.280194
-0.372225
0.649239
1.41785
-1.48995
1.18092
1.32054
-1.58663
-0.23086
0.270783
-0.584877
-0.412815
0.251206
0.099683
-0.435764
0.337187
-0.0498555
0.0854843
0.512994
0.136245
-0.133499
1.82742
-0.741677
0.377319
-0.497965
-0.656526
0.019691
-0.953421
-0.030164
-0.161129
0.166053
-0.359473
-0.211234
0.141866
-0.379019
-0.379023
0.0663907
-0.155148
-0.281526
0.170804
-0.384587
0.00374443
0.178246
-0.747732
0.206272
-0.653437
-0.491697
0.394909
-0.107195
-0.545185
0.383877
-0.392561
-0.548107
0.196962
-0.358106
-0.0426707
0.269691
-0.588532
0.60194
0.38242
-0.921691
0.397987
0.156779
-0.427495
0.576287
-0.0282378
-0.41619
0.53178
-0.377113
-0.508303
0.284548
-0.238311
-0.00718007
0.349909
-0.57392
0.79271
0.571531
-0.915702
0.575457
0.457922
-0.458006
0.749137
-0.0297191
-0.409203
0.777301
-0.40319
0.0482692
0.552501
-0.644386
0.313624
0.495634
-0.31141
0.609568
0.686775
-0.368575
0.627689
0.280085
-0.22359
1.01696
-0.559133
-0.181684
0.887544
-0.0687651
0.124606
0.604911
0.287911
0.483253
0.765248
-0.331429
0.440191
0.778637
-0.0619444
0.636226
-0.0840888
-0.227997
1.36351
-0.747411
-0.259638
1.07031
0.0391215
-0.299659
0.874016
0.691748
0.404819
1.20887
-1.04731
0.490732
1.0443
-0.504748
0.865601
-0.400023
-0.47418
1.72734
-0.652171
-0.546604
1.61013
-0.557779
-0.862242
1.32863
0.0368266
0.0411164
1.86525
-1.58917
0.486621
1.73958
-1.59049
1.45005
-0.872818
-0.355141
1.54222
-0.213643
-0.553579
2.28288
-0.931112
-1.08295
1.79674
0.0141073
-0.630276
2.36572
-0.285082
0.0671835
2.35264
-1.90884
2.12383
-1.56842
0.376722
1.45001
-0.230335
0.288309
2.58183
-0.993782
-0.600591
1.94016
0.448417
-0.887879
2.45063
2.30543
-0.504045
2.23227
-0.173858
2.42286
-1.56465
0.865176
1.79317
0.500174
1.14559
2.41938
-0.565741
0.534361
1.52205
0.720985
-0.400574
2.0172
3.157
-0.242647
1.56329
1.74527
2.65409
-0.754064
0.927035
1.29848
0.985501
1.52939
1.65953
1.47804
0.15348
0.644403
2.52435
-0.441439
0.878429
1.9849
0.00657459
0.19732
1.25515
2.20151
0.544637
0.678638
0.756087
1.39251
2.77308
-0.342507
2.75674
-0.657259
0.536658
-0.912033
-0.501323
1.25931
0.455055
-0.0287184
-0.785809
0.52688
0.148295
-0.59914
-0.332704
0.00411121
0.700323
-0.752543
-0.127729
0.16298
-0.38162
-0.112145
-1.00651
0.0114252
-1.04648
-0.0019677
0.375753
-0.509699
-0.223139
0.777081
-0.800176
-0.380033
0.249553
-0.446654
-0.345949
0.275102
-1.02545
-0.233522
0.341295
-1.48756
0.449428
-0.514746
0.167222
0.858898
-0.678605
0.33679
0.820518
-0.590118
0.251688
0.390984
-0.294641
0.179898
0.740676
-0.967706
0.0943673
0.9195
-1.40838
1.18076
-0.179038
-0.217022
1.16196
-0.115763
-0.000134941
0.546114
-0.345674
0.338985
0.453066
-1.04559
0.470744
1.11101
-0.8135
0.360803
1.4071
-0.746231
1.30637
0.515269
-1.3773
1.45492
0.52521
-0.83792
0.602955
-0.664984
0.507381
0.425391
-1.02971
0.929726
1.23194
-0.874711
0.85381
1.65092
-0.229858
0.912096
1.164
-1.87121
1.5911
0.987618
-1.21782
1.19658
-1.20789
0.616189
0.697041
-1.41391
1.32892
1.0193
-1.54739
1.43456
1.64296
-0.602419
0.753989
1.19264
-1.65092
0.989637
1.6002
-1.37903
1.64907
-1.28216
0.404606
1.34509
-2.39486
1.89521
1.49893
-3.55941
1.78449
1.84272
-1.67952
0.99092
0.674742
-2.5513
0.79467
2.53262
-2.0498
2.19226
-1.97579
-0.149752
2.29921
-2.84006
1.39535
1.98333
-2.31458
1.45782
2.15715
-2.28575
1.98056
-1.10024
-1.69444
1.77621
0.482565
-1.38317
2.67678
-1.78957
-1.1918
2.07636
0.479885
-0.0147999
1.31555
1.79621
0.323327
1.68127
-0.0361089
2.49427
-1.75504
0.129266
2.2189
-0.0717758
-0.196614
2.44396
-0.0070439
-0.87067
1.08081
2.3906
-0.595974
-0.478426
4.67628
0.0947126
-0.191444
2.9273
2.46993
-0.635008
1.02515
1.94936
0.229887
1.33439
1.94341
1.66935
-0.784195
0.200301
5.52345
-1.02936
-0.970635
2.72228
-0.266463
-1.20528
1.50608
1.48895
1.25916
1.37698
1.32846
2.4847
3.60877
1.25502
4.18671
0.160847
0.660195
-1.11864
-0.427109
1.62962
-0.124429
0.0263417
-0.687722
0.133747
0.0397284
-0.897043
0.457943
-0.150576
0.526703
0.588652
-0.148874
0.181147
0.335789
0.0306496
-0.784298
0.00419978
-0.714894
-0.032042
0.49824
-0.949556
0.269004
0.269411
-1.33091
0.342389
0.335594
-1.00621
0.0545343
0.271968
-1.15844
-0.282965
0.204378
-1.32379
0.21348
-1.00699
-0.420972
1.21596
-0.975354
-0.255373
0.832615
-1.31892
0.0580574
0.741031
-1.01351
0.114942
0.498083
-1.25071
-0.189921
0.49128
-1.39042
0.867863
-1.02334
-0.323814
1.73419
-0.310178
-0.483061
1.71492
-1.06873
-0.349306
1.02932
-1.46763
-0.123869
0.87509
-1.41594
-0.204386
1.17436
-1.34879
1.2702
-0.0914509
-0.127502
1.65017
0.736729
-0.66178
2.59924
-1.01503
-0.287169
1.4848
-1.85981
-0.088921
1.34112
-1.53899
0.0450015
1.83349
-1.02291
1.24368
1.23551
-0.0320044
1.07455
1.59525
-0.34246
2.81176
-1.10996
0.0193756
1.88666
-2.1776
0.346479
1.43385
-1.96722
0.594865
2.12817
-1.14549
1.61274
1.41845
0.430229
-0.0411717
2.2857
0.632486
2.0938
-0.766451
1.00202
1.78208
-2.65982
0.513446
1.44934
-3.08632
0.569346
1.96005
-1.5673
1.97072
0.886111
0.187475
-0.446921
2.7509
-0.128451
1.76217
-1.32824
0.0662709
1.85088
-3.10358
0.785719
1.75426
-3.33895
0.630792
1.68749
-1.85827
1.75735
-0.256069
-0.947312
0.480244
0.502712
-2.14122
2.3539
-1.18739
-1.2068
1.95626
-0.559916
0.58976
0.570542
1.18337
1.15498
1.13656
-0.0504028
1.84044
-0.683158
-1.292
1.603
0.0974674
-2.23479
2.09445
1.19519
-1.67926
0.286731
3.50459
-0.199946
-1.554
5.32151
0.787839
-0.812887
3.88896
1.92314
0.07014
0.342129
1.07867
0.412093
0.405582
0.65245
3.0479
0.321768
-1.39381
7.2878
-0.116489
-1.94066
3.5472
-0.470216
-1.74864
2.79556
0.492377
2.2197
1.64157
0.76556
3.04598
2.85683
2.98768
2.85121
1.21992
0.487287
-0.784675
-0.171151
1.33732
0.0385944
-0.451179
-0.104386
0.0665257
-0.267138
-0.112854
-0.0072531
-0.0547695
-0.101608
0.0559333
-0.356041
-0.129873
0.12213
-0.512922
-0.151749
0.0965938
-0.163453
-0.457561
0.0238111
-0.0174325
-0.0965576
-0.733002
0.104858
0.401067
-0.705734
0.153336
0.585728
-0.588134
0.047429
0.159935
-0.0423067
-0.044826
0.261181
-0.00465519
-0.463355
-0.112144
-0.0723912
0.0433477
0.358653
0.0695638
0.656963
-0.00774039
0.275949
-0.134194
-0.137192
0.0312112
-2.15926
0.282722
0.00130352
-2.12994
0.308354
0.00597913
-2.09783
0.303438
0.00473924
-2.14762
0.283613
-0.0434595
-2.21567
0.265309
-2.09782
0.262195
-0.0504987
-2.20252
0.0763284
-0.00617709
-2.16534
0.0959314
0.0963833
-2.14709
0.100036
0.0939211
-2.18524
0.0875102
-0.0060636
-2.22448
0.0639638
-2.18703
0.0784982
-0.069746
-0.000479313
-0.00952374
0.0123415
0.0838804
0.0142436
0.105057
0.00674695
0.0325244
-0.0120988
-0.0157184
0.0131239
-1.90785
0.470693
0.0113522
-1.93538
0.480859
0.0222009
-1.93346
0.479805
0.0186039
-1.92286
0.472159
-0.00517452
-1.92041
0.464035
-1.93238
0.455573
0.00621308
-1.96104
0.12331
0.00575945
-1.96773
0.128731
0.00743494
-1.96787
0.132775
0.0150376
-1.96638
0.123425
0.0118017
-1.96576
0.112547
-1.9672
0.125119
-0.000518788
0.0421214
0.000308069
0.0483631
0.00374128
0.0490342
0.00667138
0.0436429
0.00186805
0.0358506
0.0330434
0.00461676
-2.16423
0.690016
0.00643028
-2.17314
0.690694
0.016887
-2.1727
0.689423
0.0111061
-2.16491
0.691342
-0.0194196
-2.17292
0.693971
-2.16435
0.6712
0.00169201
-2.2664
0.22379
0.00194187
-2.26822
0.223557
0.00643539
-2.26813
0.223709
0.0103091
-2.26816
0.222802
0.00414705
-2.27479
0.220584
-2.26286
0.227772
-0.002127
0.0601063
0.000438171
0.0611277
0.00532762
0.060596
0.00557771
0.0602203
-0.000858639
0.059465
0.0590309
0.00501559
-2.39265
0.858688
0.00525907
-2.39991
0.861117
0.00944433
-2.39968
0.858756
0.004323
-2.39234
0.863955
-0.0111398
-2.39691
0.864889
-2.39518
0.846596
0.00528936
-2.46663
0.292474
0.00142872
-2.47089
0.298394
0.000500532
-2.47031
0.295265
0.00320401
-2.4696
0.297354
0.00445309
-2.47268
0.295111
-2.46723
0.304272
0.00157755
0.0691222
-0.000106649
0.0726776
0.000816609
0.0699369
0.00100578
0.0708513
-0.00061818
0.0712319
0.0743992
0.00386073
-2.69877
1.11148
0.00688046
-2.69026
1.114
0.0074588
-2.69011
1.12312
0.00305523
-2.69316
1.11121
-0.00630706
-2.69905
1.11719
-2.67907
1.10787
0.00223945
-2.80128
0.392743
0.0025793
-2.79533
0.403116
0.00584964
-2.79772
0.399605
0.00426439
-2.79968
0.405463
-0.0030553
-2.80289
0.406274
-2.78685
0.408997
0.00395666
0.0348683
-0.000999477
0.0547141
0.00362706
0.0387917
0.00584469
0.0432204
0.00447089
0.0453085
0.0648234
0.00729135
-3.22685
0.901248
0.0156858
-3.26996
0.889532
0.00396178
-3.26196
0.950153
-0.000418608
-3.25335
0.918384
0.0272601
-3.24481
0.882732
-3.23633
0.936137
0.0373839
-3.17879
0.307297
-0.000978967
-3.22457
0.396082
0.000245535
-3.23113
0.367546
0.0221305
-3.22643
0.356658
0.0631489
-3.20667
0.327113
-3.19811
0.433914
0.0414745
-0.108832
-0.0158893
0.01746
-0.00104112
-0.0853652
0.0286671
-0.0906208
0.0566071
-0.0783083
0.0418625
-0.113099
-3.79032
2.64848
0.0298435
-4.31735
2.46831
-0.00618147
-4.1516
2.58332
-0.123302
-3.93965
2.67643
-0.197036
-4.10475
2.61232
-4.18629
2.57353
-0.20527
-3.60209
0.32434
0.0801557
-4.14524
-0.0614514
0.0527754
-3.89127
0.134602
-0.132457
-3.70802
0.310262
-0.270671
-3.81211
0.172681
-4.09322
0.0701751
0.060025
-0.548835
-0.046505
-0.234686
-0.00775005
-0.532276
0.0594323
-0.552876
0.107062
-0.518873
-0.151321
-0.0327684
2.05392
5.04324
0.0450576
1.08152
5.34685
0.0574032
1.2798
5.34083
-0.0568321
1.47584
5.52395
-0.209016
1.38306
5.54926
1.00215
5.47396
0.00874099
-0.157466
2.52699
0.338237
-1.76498
2.45554
0.125392
-0.860036
2.48728
-0.343978
-0.552093
2.80757
-0.569711
-0.945067
2.72655
-1.92876
2.43137
-0.0411345
0.730682
0.137304
1.06416
0.0370374
0.684589
-0.307191
0.769663
-0.322627
0.773558
0.906593
1.08847
7.09493
2.65068
0.41983
7.21596
4.76015
0.2244
6.69456
4.63083
0.158532
6.68369
4.73267
0.0262472
6.66421
4.8635
6.58116
4.73791
1.51239
6.56848
1.54103
0.828134
6.29324
4.06253
0.431066
5.832
3.7469
0.330978
5.87448
3.71687
-0.0146215
5.65792
4.07844
5.25879
3.73912
1.07386
0.818034
0.815373
2.77715
0.412172
2.38153
0.194007
2.21321
-0.240698
2.52201
2.18753
1.14575
6.1791
-0.154082
0.376522
8.75909
1.81339
0.193951
8.26124
1.40104
0.218623
8.2209
1.36408
0.0228758
8.21957
1.73979
8.10312
1.44751
1.06637
7.16485
-0.511089
0.53714
10.1933
3.15759
0.309493
9.60026
2.63553
0.459947
9.63925
2.14807
0.157309
9.4935
3.10714
9.36173
2.63783
0.227709
-0.248923
0.168258
2.31117
0.0799761
1.75817
0.244903
1.31941
0.136763
1.87293
1.62534
0.381478
-1.14424
1.87367
0.0143718
1.84093
1.9628
-0.108964
1.16228
1.85542
0.102995
0.78163
1.86709
0.0792929
1.44008
1.87808
1.1587
1.83813
-0.436249
-1.79171
0.572628
-1.07283
3.97418
1.66094
-0.735111
2.28483
1.17527
-0.0416446
1.35209
0.884135
0.0702032
3.00093
1.43444
2.65846
1.20827
-2.34046
0.138449
-1.30765
1.12222
-0.833222
0.848468
-0.786581
0.579558
-0.0947752
0.985423
1.01331
0.10277
0.261574
-0.398608
0.0342645
0.146526
0.155651
-0.467277
0.26787
0.126451
-0.126663
-0.513102
0.659841
0.0272629
-0.348786
-0.581468
1.02944
-0.0463334
-0.336854
-0.611987
1.02244
0.106873
-0.598367
0.44516
0.538856
0.595039
-0.498628
-0.373692
0.822247
0.603435
-0.78942
0.0582426
0.604071
0.369294
-1.11648
0.838696
0.111587
0.351651
-1.27487
1.06692
-0.158239
0.403825
-0.846828
0.375973
0.690397
-0.368568
-0.373194
0.486481
-0.228952
-0.238835
0.865239
-0.397686
-0.0580187
0.810069
-0.558979
0.319235
0.401296
-0.329992
0.0723891
-0.0476192
0.0504346
-0.316921
0.166024
-0.352298
0.0420196
0.065807
-0.506435
0.0598399
0.0419521
-0.52705
0.0614727
0.0352494
-0.549985
0.0132793
0.0401965
-0.573471
-0.0418883
0.0279891
-0.584808
-0.0842458
-0.55601
0.188948
0.60677
-1.22854
0.243918
0.570204
-1.37264
0.0373001
0.548352
-1.42297
-0.281257
0.588688
-1.50481
-0.255398
0.602811
-1.44751
0.489219
-1.19743
0.0237561
-0.477616
-0.0350166
-0.565597
-0.182126
-0.620646
-0.207589
-0.532288
-0.0774051
-0.38615
-0.277707
0.0204963
0.513937
-1.04087
0.0399105
0.495236
-1.0417
0.0349116
0.47437
-1.01936
0.0137571
0.48478
-1.0371
-0.00457127
0.465109
-1.03159
0.446185
-1.00677
0.0861117
0.927728
-1.72844
0.109941
0.874705
-1.77594
0.0396245
0.854792
-1.73307
-0.0459656
0.872247
-1.80669
-0.0724291
0.872045
-1.82799
0.86276
-1.68644
0.000796712
-0.6652
-0.0509958
-0.680253
-0.166965
-0.674914
-0.181944
-0.730509
-0.0883704
-0.726086
-0.583253
0.048145
0.636047
-1.72506
0.0543955
0.545537
-1.59349
0.0325105
0.560692
-1.55816
0.0246289
0.550336
-1.57955
0.011562
0.510235
-1.52876
0.560825
-1.55603
-0.00747314
0.91508
-2
0.0508124
0.760058
-2.04875
0.0235153
0.774425
-1.91951
-0.00563428
0.78883
-2.01603
0.0265927
0.725748
-2.07573
0.787825
-1.88684
-0.0978033
-1.06485
-0.0291815
-1.19067
-0.00952628
-1.11616
-0.0743239
-1.18483
-0.0667319
-1.25209
-1.07046
0.0122052
0.325843
-2.06311
0.00139093
0.255091
-1.83776
-4.03984e-05
0.243295
-1.80003
0.0105482
0.232899
-1.82304
0.0028174
0.221898
-1.74292
0.246566
-1.79978
-0.0908687
0.0948931
-1.67819
-0.00537669
0.17728
-2.05643
-0.00791609
0.112027
-1.7857
-0.0417512
0.0102104
-1.75951
0.0468779
0.0223613
-1.96482
0.177849
-1.77125
-0.250985
-0.617118
-0.102295
-1.26563
-0.0484553
-1.06028
-0.131651
-0.918463
-0.10699
-1.14527
-1.1404
0.0674863
-0.256927
-0.0637629
0.256289
-0.0725491
0.0641746
0.0265215
-0.0550223
0.0355991
0.126082
0.0739546
-0.233183
-1.1293
-0.181968
-0.190422
-0.151859
-0.576367
-0.10784
-0.97442
0.0530362
-0.565173
-0.435988
-0.368788
-0.254053
-0.179947
-0.232711
-0.0480119
-0.202563
-0.541596
0.0564369
-0.436514
-0.782137
0.119045
0.0568548
-0.0511772
0.0845106
0.465971
-0.450648
0.222678
0.281611
-0.84126
0.241322
-0.581743
0.148459
0.00809664
-0.657989
0.108298
-0.137072
-0.768796
0.131829
0.0364551
-0.305007
0.0803024
0.049173
-0.606483
0.143117
-0.0859423
-0.842685
0.13654
-0.772508
0.104822
-0.00674652
0.0765469
-0.0883043
0.0668672
0.0549711
0.0701974
0.124838
0.066939
0.0476644
0.0598122
0.061607
0.0096648
-1.01589
0.113108
-0.0808403
-1.13954
0.0181845
-0.0504782
-1.05267
0.100608
-0.013841
-1.11975
0.147351
-0.039852
-1.20416
0.147705
-0.997137
0.0987536
0.0826392
-0.999178
0.00894572
0.0618547
-1.06157
0.0746412
-0.0054032
-1.00778
0.102668
-0.0450011
-1.04206
0.105029
-0.105797
-1.09584
0.0890117
-1.03126
0.0331452
0.0103667
0.0669164
-0.0233118
0.0719365
0.0261121
0.0627302
0.0564062
0.055691
0.0125666
0.0514859
0.0477014
-0.208167
-0.933942
0.279863
-0.195895
-1.2992
-0.0138131
0.0240642
-1.153
0.0201394
0.0903782
-1.18862
0.0189525
0.0618532
-1.26762
0.0534387
-1.0893
0.226568
0.175659
-0.965472
-0.135184
0.0698701
-1.0595
-0.0592651
-0.00923563
-1.0107
0.0394702
-0.0583674
-1.08156
0.0470999
-0.0968131
-1.12599
-0.0141793
-1.06693
-0.0860424
0.0199946
0.0734981
-0.0235956
0.0990381
0.0246538
0.0804139
0.0322356
0.0658102
-0.0150771
0.0557444
0.0230737
-0.0422889
-0.639693
0.651667
0.0969605
-1.43654
0.214752
0.035259
-1.42427
0.0384804
-0.0314708
-1.37111
0.0408508
-0.143942
-1.46328
0.280396
-0.798362
0.789538
0.35138
-0.89747
-0.228788
0.178655
-1.11848
-0.204598
-0.0447083
-1.13214
-0.0292904
-0.13916
-1.20369
-0.0258712
-0.251615
-1.26331
-0.101694
-1.07963
-0.0563854
0.0773286
0.0600604
0.0051778
0.101181
-0.000564202
0.0833391
-0.0154791
0.0595255
-0.0716129
0.0276924
-0.0271231
0.524547
-0.0302259
0.894074
0.529595
-1.34977
0.544444
0.13952
-1.64842
0.217167
-0.178821
-1.50071
0.320909
-0.343229
-1.44771
0.869597
0.111054
1.57077
0.578688
-0.711447
-0.126253
0.345227
-1.15468
-0.166226
-0.0958455
-1.24579
0.00914678
-0.379225
-1.2863
0.0431065
-0.654644
-1.30995
0.0359686
-0.842257
0.242282
0.148536
0.0515123
0.0280593
0.0913429
-0.0637776
0.0976316
-0.10262
0.0645823
-0.172686
0.0150248
-0.0171543
1.20644
0.56118
0.721695
1.08527
-1.17598
0.731646
0.460909
-1.82897
0.492901
-0.198607
-1.63288
0.646083
-0.448558
-1.51895
1.49301
0.305864
2.23479
0.833405
-0.529198
0.13072
0.648149
-1.28917
0.132215
0.0899155
-1.46532
0.20373
-0.36501
-1.4348
0.299951
-0.792585
-1.43002
0.374616
-0.826245
0.581804
0.248864
0.100742
0.0956414
0.098697
-0.0788646
0.122615
-0.133403
0.106464
-0.212274
0.0386742
0.0167068
1.81871
0.962353
0.226324
1.97876
-0.812715
0.617861
1.00824
-2.06932
0.872919
-0.426462
-1.89251
0.886978
-0.761954
-1.40126
1.66246
0.0784732
2.28048
1.08989
-0.440041
0.443229
1.14984
-1.38866
0.648199
0.294033
-1.81877
0.808997
-0.430791
-1.56679
0.699052
-0.770553
-1.41524
0.728357
-0.777911
0.667634
0.312629
0.253835
0.189952
0.209005
-0.160292
0.308814
-0.24948
0.227169
-0.273871
0.140006
0.0587338
2.00857
0.880429
0.0882236
1.78794
-1.25706
0.767318
0.532997
-2.39486
1.41913
-0.585661
-2.67598
1.34266
-0.670766
-1.55417
1.44347
-0.0786665
1.43231
1.38109
-0.778346
0.720912
1.53071
-1.98126
1.22277
0.205208
-2.01004
1.74968
-0.883876
-2.20187
1.31403
-1.04954
-1.66094
1.00079
-0.838101
0.377531
0.456944
0.477322
0.358733
0.449517
-0.322651
1.03278
-0.614781
0.615159
-0.508964
0.337116
0.065303
0.339907
-0.735519
0.986547
-0.33701
-1.70079
1.95764
-0.548532
-1.20474
2.27548
0.379362
-0.0219596
1.6201
0.628956
-0.526583
1.67006
-0.265976
1.64408
0.638003
-1.69309
1.04047
0.493455
-2.27667
1.94319
-0.61903
-0.646921
2.30434
-0.249793
-1.14521
2.06804
-0.195434
-1.22036
1.6402
-0.738695
0.654817
0.394055
0.890323
0.149748
1.16516
-0.821921
1.87502
-1.02241
1.71986
-0.917416
1.08064
-0.00456725
-1.12374
0.127212
2.08055
-2.65235
2.12492
2.55651
-1.78969
3.76629
1.15112
0.27764
5.24739
-0.373105
1.0869
4.24238
0.507376
0.711193
2.08994
-1.49479
0.602251
2.06023
-2.35592
2.3214
2.60784
-1.39413
3.81424
1.2946
0.239218
4.82207
0.860015
0.966725
3.76171
1.39336
0.638833
1.6939
-1.40765
1.64777
-1.40142
1.82052
-0.483115
1.27944
-0.637683
1.25153
-0.833916
1.16475
0.399375
-0.172366
1.18795
1.47705
-0.368058
4.68963
1.11047
0.528004
8.43525
-0.892391
0.0973259
5.56279
-1.95802
-0.29222
4.81705
-1.12457
2.94367
1.07375
-0.939777
2.43227
1.75569
-0.992083
6.02018
1.32961
0.208476
8.94975
-0.420458
0.187023
7.14237
-0.698107
0.203074
6.11412
0.0802514
3.71538
1.12526
-1.65863
1.40632
-1.32971
1.29161
-0.506553
0.288532
-0.26261
0.353834
-0.0297327
0.58883
0.548618
0.747512
1.52936
2.05772
2.92495
2.39017
2.28622
0.81129
1.13758
-0.332777
0.870781
2.52345
0.49419
2.41717
1.48592
3.32107
1.4313
2.75908
0.670998
2.26669
-0.170125
2.16813
3.10539
0.369417
1.03714
0.667159
0.243894
-0.197455
)
;

boundaryField
{
    seabed_topleft_surface
    {
        type            calculated;
        value           uniform 0;
    }
    seabed_topright_surface
    {
        type            calculated;
        value           uniform 0;
    }
    breakwater_top_surface
    {
        type            calculated;
        value           uniform 0;
    }
    breakwater_left_surface
    {
        type            calculated;
        value           uniform 0;
    }
    breakwater_right_surface
    {
        type            calculated;
        value           uniform 0;
    }
    water_front_surface
    {
        type            calculated;
        value           uniform 0;
    }
    water_back_surface
    {
        type            calculated;
        value           uniform 0;
    }
    water_left_surface
    {
        type            calculated;
        value           uniform 0;
    }
    water_right_surface
    {
        type            calculated;
        value           uniform 0;
    }
    water_top_surface
    {
        type            calculated;
        value           nonuniform List<scalar> 
180
(
0.599307
-1.16732
-1.20634
-0.878705
0.472899
0.674323
-2.24444
-2.19455
-2.18517
-2.2209
-2.27404
-2.27598
-2.00312
-2.00457
-2.00609
-2.00621
-2.0089
-2.01409
-2.28226
-2.28355
-2.28459
-2.28499
-2.29197
-2.28971
-2.47722
-2.48076
-2.48058
-2.48042
-2.48283
-2.48322
-2.77099
-2.77241
-2.7712
-2.77427
-2.77559
-2.7728
-3.07657
-3.12995
-3.12181
-3.12229
-3.111
-3.11854
-3.22212
-3.78657
-3.48311
-3.31295
-3.41918
-3.79297
-1.39585
-3.24225
-1.97663
-1.5304
-2.22206
-3.3093
5.40728
4.83873
4.53827
4.64909
4.34417
3.73716
8.0041
10.7187
10.3119
10.3681
10.2507
10.0607
0.161376
4.13032
2.7201
2.0453
3.19663
3.17572
0.576344
0.680381
0.664207
1.01803
1.11923
0.829051
0.831676
0.796885
0.757127
0.816445
0.90921