/*--------------------------------*- C++ -*----------------------------------*\
| =========                 |                                                 |
| \\      /  F ield         | OpenFOAM: The Open Source CFD Toolbox           |
|  \\    /   O peration     | Version:  v1612+                                |
|   \\  /    A nd           | Web:      www.OpenFOAM.com                      |
|    \\/     M anipulation  |                                                 |
\*---------------------------------------------------------------------------*/
FoamFile
{
    version     2.0;
    format      ascii;
    class       volVectorField;
    location    "9.5";
    object      U;
}
// * * * * * * * * * * * * * * * * * * * * * * * * * * * * * * * * * * * * * //

dimensions      [0 1 -1 0 0 0 0];

internalField   nonuniform List<vector> 
1116
(
(-0.0642209 0.00230943 0.222579)
(-0.116919 -0.0184456 0.22435)
(-0.131463 0.0259783 0.215368)
(-0.021309 0.0275215 0.220144)
(0.0307777 -0.00511877 0.227034)
(-0.118534 -0.04912 0.207554)
(-0.396678 0.0117184 0.362292)
(-0.434537 -0.00872471 0.375756)
(-0.444986 0.0108009 0.384316)
(-0.38325 -0.0153223 0.368549)
(-0.350248 0.0134751 0.374177)
(-0.449384 -0.0279562 0.377085)
(-0.510031 0.004672 0.143559)
(-0.528148 -0.00486022 0.145229)
(-0.531684 0.00233517 0.152728)
(-0.512145 -0.0153107 0.140493)
(-0.498976 0.00543011 0.143146)
(-0.552795 -0.0101303 0.142933)
(-0.439607 -0.000256065 -0.0912378)
(-0.451682 -0.00408604 -0.0970239)
(-0.452957 0.000204466 -0.0954622)
(-0.444533 -0.00679623 -0.09421)
(-0.439738 -0.0021032 -0.0930609)
(-0.478451 -0.00467086 -0.100623)
(-0.330638 0.000272602 -0.233329)
(-0.342531 -0.00329479 -0.237841)
(-0.344112 0.000391886 -0.238403)
(-0.333688 -0.00359657 -0.234464)
(-0.328741 -0.00196016 -0.233668)
(-0.368783 -0.00509727 -0.240831)
(-0.183665 0.00130133 -0.263924)
(-0.197028 -0.00170472 -0.265497)
(-0.198127 0.000825333 -0.266467)
(-0.184093 -0.00147609 -0.263784)
(-0.175869 -0.000276807 -0.264718)
(-0.216542 -0.00531498 -0.266229)
(0.0441519 0.00350517 -0.210922)
(0.0328488 -0.000400094 -0.213318)
(0.0309317 0.00153864 -0.214127)
(0.0452505 -0.000296337 -0.210304)
(0.0575468 0.000262377 -0.209991)
(0.0175469 -0.00309632 -0.211547)
(0.131065 0.005928 -0.171869)
(0.127381 0.000634682 -0.181295)
(0.121996 0.000777564 -0.181389)
(0.137858 -0.00249238 -0.17016)
(0.152084 0.00233601 -0.159839)
(0.10756 0.000526037 -0.187367)
(0.374372 -0.000398211 -0.0577663)
(0.379587 -0.000679375 -0.0636022)
(0.377741 0.00135526 -0.0631951)
(0.376634 -0.000978982 -0.0558016)
(0.371669 -0.0030607 -0.0535451)
(0.37029 -0.0030729 -0.0759908)
(0.484111 -0.00992418 0.00439757)
(0.468869 -0.0042192 0.0131624)
(0.471845 0.00434548 0.0164449)
(0.484187 0.00249386 -0.00199806)
(0.478087 -0.00453186 -0.0174735)
(0.462522 -0.00643249 0.0225592)
(-0.260937 -0.0136342 -0.437788)
(-0.319893 -0.00528405 -0.463659)
(-0.312199 0.00489411 -0.455889)
(-0.255603 0.00165424 -0.444812)
(-0.238918 -0.00135927 -0.462779)
(-0.326635 0.00348249 -0.441839)
(-0.675527 0.0251954 -0.924354)
(-0.71995 0.0179601 -0.916808)
(-0.705313 -0.0141127 -0.917573)
(-0.671322 0.00740422 -0.930513)
(-0.665184 0.0184874 -0.927805)
(-0.709717 0.0185602 -0.903803)
(-0.16425 -0.00820523 0.199861)
(-0.0547661 0.0206691 0.202885)
(-0.0554055 -0.0963658 0.191109)
(-0.313106 -0.0797192 0.177884)
(-0.419843 -0.00259063 0.188517)
(-0.0820029 0.0951498 0.174607)
(-0.0463569 -0.0391604 0.0902909)
(0.0179214 0.0284836 0.0552345)
(0.0236718 -0.0138414 0.0531865)
(-0.0691906 0.0746015 0.123616)
(-0.0779074 -0.0494121 0.183921)
(0.00564852 0.0195606 0.0468341)
(0.00508666 -0.0377078 -0.154598)
(0.0658645 0.0180559 -0.178731)
(0.0458163 0.00107122 -0.18045)
(0.00710586 0.0873507 -0.142298)
(0.0227509 -0.039528 -0.113723)
(0.0528637 0.00495928 -0.181529)
(0.286358 -0.0228406 -0.110494)
(0.324848 0.00599674 -0.120117)
(0.310657 0.00307197 -0.117887)
(0.308083 0.0475298 -0.111855)
(0.334363 -0.0191069 -0.110156)
(0.34435 0.00599962 -0.131215)
(0.86495 -0.0109853 -0.0563779)
(0.890677 0.00371644 -0.0582457)
(0.887932 -0.00376351 -0.0568912)
(0.881885 0.010539 -0.0618703)
(0.896685 -0.00574829 -0.0666212)
(0.932764 0.0140405 -0.0785823)
(1.51881 -0.0053252 -0.09579)
(1.53812 0.00297147 -0.095667)
(1.54227 -0.00513607 -0.0954316)
(1.52593 -0.0028974 -0.0983174)
(1.52764 -0.00220823 -0.0993083)
(1.58347 0.0128403 -0.115468)
(1.96022 -0.00344144 -0.113726)
(1.97009 0.000887082 -0.111867)
(1.97711 -0.00197227 -0.112549)
(1.961 -0.00290467 -0.112625)
(1.95545 -0.00142766 -0.111731)
(2.00495 0.00937235 -0.12481)
(2.36544 0.000892005 -0.170628)
(2.37363 0.00245524 -0.159204)
(2.37935 -0.00126325 -0.162108)
(2.36145 0.00117795 -0.165025)
(2.34148 0.000241182 -0.160164)
(2.39953 0.00723121 -0.166074)
(2.14863 0.00611618 -0.150137)
(2.16795 0.00212069 -0.136884)
(2.16317 -0.000789953 -0.14165)
(2.15382 0.00297357 -0.141849)
(2.15132 -0.00133065 -0.136665)
(2.17575 -0.000737523 -0.145675)
(1.87623 0.000625575 0.38801)
(1.90529 -0.00462017 0.38435)
(1.89218 0.00446841 0.388467)
(1.8992 0.00822411 0.37823)
(1.91208 -0.00980117 0.373531)
(1.8758 -0.0186771 0.387547)
(0.873583 -0.0116335 1.36755)
(0.913852 -0.00519957 1.33063)
(0.883563 0.0071581 1.33886)
(0.926439 0.00952236 1.33982)
(0.970486 -0.0217522 1.33505)
(0.841067 -0.0328142 1.33424)
(0.270187 0.0139796 0.0429773)
(0.217652 0.0227128 0.117405)
(0.225192 -0.0193944 0.0712488)
(0.321021 -0.00232197 0.0801618)
(0.326944 0.0239198 0.179953)
(0.192483 0.0416149 0.0761044)
(0.5797 -0.0225327 0.176412)
(0.612498 0.127719 0.190157)
(0.750658 -0.0357475 0.196486)
(0.561619 -0.0553714 0.193371)
(0.426507 0.0183136 0.155196)
(0.762432 0.194535 0.21528)
(3.41621 -0.045877 -0.0137136)
(3.52649 0.0665659 -0.00296994)
(3.6255 -0.0133297 -0.00350447)
(3.47837 0.0150845 -0.0731458)
(3.4079 -0.00782759 -0.170695)
(3.62742 0.18771 0.00681716)
(6.7262 -0.0732211 -0.400203)
(6.71152 -0.00186878 -0.530926)
(6.7929 -0.00107755 -0.570809)
(6.76557 0.0510076 -0.391892)
(6.73632 -0.031381 -0.379836)
(6.83483 0.115673 -0.539279)
(10.3693 -0.0616334 -1.32981)
(10.2703 -0.0151105 -1.4163)
(10.3124 -0.00880528 -1.45795)
(10.368 0.0388109 -1.33751)
(10.3258 -0.0293073 -1.28839)
(10.405 0.0882286 -1.42949)
(13.5861 -0.0388355 -1.85914)
(13.4474 0.00024238 -1.88394)
(13.4699 -0.0132893 -1.90291)
(13.5583 0.0238116 -1.86938)
(13.4803 -0.00793846 -1.85594)
(13.6169 0.0859366 -1.87783)
(17.8639 -0.0219707 -1.80246)
(17.7634 0.0202831 -1.78932)
(17.7831 -0.016357 -1.78474)
(17.8139 0.0139462 -1.80654)
(17.7323 0.0148501 -1.80619)
(17.9386 0.0867583 -1.76258)
(19.2846 -0.0412275 -1.25201)
(19.1003 0.00623365 -1.26092)
(19.161 0.00233728 -1.2436)
(19.2012 0.015732 -1.25189)
(19.0829 0.0166876 -1.26505)
(19.4084 0.077663 -1.19583)
(27.3349 -0.109833 0.785512)
(27.2153 -0.0532384 0.795763)
(27.2468 0.048376 0.803441)
(27.2224 0.081597 0.79494)
(27.1686 -0.0484559 0.786803)
(27.3704 0.017165 0.840086)
(14.2535 -0.0513496 1.49214)
(13.9928 -0.0351395 1.44585)
(14.077 0.0190246 1.4742)
(14.1505 0.0502488 1.49245)
(14.3153 -0.0553781 1.51087)
(13.9885 -0.0331301 1.47417)
(7.05174 0.00330496 1.31684)
(6.90425 -0.0043495 1.28521)
(6.87971 -0.00863014 1.29936)
(6.91152 0.0195905 1.29887)
(6.99022 -0.0245166 1.29009)
(6.80886 -0.0238203 1.31514)
(2.1497 -0.0664533 1.67834)
(2.08099 -0.0684513 1.68468)
(2.03473 -0.0082375 1.68261)
(2.08626 0.0169783 1.70355)
(2.19674 -0.0588732 1.76448)
(1.9162 -0.0535368 1.61412)
(0.746928 0.00523636 -0.128771)
(0.720096 0.00271981 0.0280658)
(0.711441 -0.0150321 -0.0283986)
(0.789642 -0.0246762 -0.0818964)
(0.829386 0.0324467 0.0173254)
(0.622021 0.0574146 -0.0201292)
(-1.60044 -0.013366 -2.38819)
(-1.79875 0.157021 -2.35593)
(-1.61258 -0.047845 -2.22601)
(-1.65823 -0.0216087 -2.33599)
(-1.69359 -0.0128906 -2.58622)
(-1.60273 0.124516 -2.17379)
(-0.085652 0.0529323 -4.38359)
(-0.0923515 -0.00755712 -4.41876)
(-0.219511 0.00327945 -4.30005)
(-0.0880438 0.000863713 -4.37526)
(-0.0407801 0.0121575 -4.64555)
(-0.439846 -0.0566334 -4.10654)
(-0.847832 0.0291666 -4.76809)
(-0.879089 0.0219633 -4.90845)
(-0.862018 0.0168051 -4.83563)
(-0.865025 -0.023018 -4.84454)
(-0.879789 0.0783484 -4.88029)
(-0.838409 0.0361979 -4.76841)
(-0.725442 0.0260885 -5.12994)
(-0.75427 -0.00233268 -5.17683)
(-0.772746 -0.0104184 -5.13716)
(-0.741351 -0.0380741 -5.1667)
(-0.739565 0.0144451 -5.23923)
(-0.75099 -0.0158989 -5.0432)
(-1.56933 0.00966522 -5.44443)
(-1.59096 -0.00777643 -5.46621)
(-1.58877 -0.00654898 -5.44866)
(-1.58149 -0.0412151 -5.47089)
(-1.58847 0.0119667 -5.52999)
(-1.58007 -0.0160092 -5.37157)
(-1.09576 0.0141113 -5.49483)
(-1.16341 0.00168523 -5.47393)
(-1.14237 -0.00503161 -5.44404)
(-1.15815 -0.0334433 -5.53045)
(-1.21354 0.0196556 -5.54251)
(-1.12472 -0.018415 -5.40191)
(-0.939312 -0.0840718 -6.45021)
(-0.843331 -0.067585 -6.58165)
(-0.793579 0.0511456 -6.49237)
(-0.993216 0.00851422 -6.48288)
(-0.934536 -0.00366264 -6.51139)
(-0.873278 0.00720095 -6.42578)
(5.9759 -0.230922 1.27557)
(5.12903 -0.118599 0.672262)
(5.22965 0.052912 0.682759)
(5.76755 0.0580247 1.11315)
(5.37081 -0.0847569 0.907707)
(5.72024 -0.0109605 1.08301)
(15.0548 -0.0694946 12.8506)
(14.5823 -0.0238347 12.6607)
(14.6855 -0.0348965 12.721)
(15.0361 0.0338612 12.8608)
(14.9914 -0.0770163 12.8708)
(14.8834 -0.0203796 12.823)
(11.704 0.136093 10.1111)
(12.2649 0.154981 10.1548)
(12.2088 -0.0253917 10.0872)
(12.2706 0.015858 10.0889)
(12.2894 -0.000908104 10.1476)
(12.3134 0.0270633 10.0918)
(3.99629 0.252208 6.72333)
(4.55465 0.161304 5.82084)
(4.40768 0.00412559 5.7594)
(4.54662 0.0160325 5.89938)
(4.56112 -0.027219 5.97636)
(4.3352 -0.0234321 5.65359)
(2.55537 0.00840739 1.76016)
(2.74995 0.0363333 1.74807)
(2.62112 -0.01626 1.69755)
(2.62167 0.0151935 1.68625)
(2.70215 -0.0117976 1.74032)
(2.54876 0.0486753 1.68357)
(-0.256333 -0.0139516 -0.52238)
(-0.353536 0.138632 -0.317613)
(-0.299331 -0.083675 -0.652341)
(-0.325594 -0.0593269 0.123098)
(-0.192201 -0.406339 -0.116234)
(-0.131551 -0.011018 -0.652458)
(-0.866698 -0.0461401 -0.724959)
(-0.914626 0.277746 -0.164621)
(-0.90226 -0.159158 -0.7288)
(-0.935152 0.353132 0.142699)
(-0.714645 -0.276482 0.136467)
(-0.676661 0.127231 -0.74968)
(-1.33977 0.036242 -0.602214)
(-1.36642 0.223608 -0.0452321)
(-1.07234 -0.163636 -0.579108)
(-0.656141 0.601626 -0.233275)
(-1.02731 -0.119128 0.158239)
(-1.01879 0.0563215 -0.605128)
(-1.48242 0.153006 -0.635737)
(-2.04777 0.372615 -0.196921)
(-1.24827 0.11592 0.0301638)
(-0.676793 0.450888 0.0585911)
(-1.50427 -0.246714 -0.0618888)
(-1.09743 -0.0634155 -0.776422)
(-1.39314 0.181592 -0.906687)
(-2.12501 0.674439 -0.462875)
(-0.59882 0.332809 0.600048)
(-0.798284 -0.0563597 0.47914)
(-2.00605 -0.429987 -0.216856)
(-1.3 -0.188137 -1.11132)
(-1.49279 0.193941 -1.0374)
(-1.67534 0.72376 -0.422301)
(-0.0845926 0.139993 0.905725)
(-0.999712 -0.502978 0.368524)
(-2.24823 -0.515494 -0.208137)
(-1.64808 -0.257298 -1.12036)
(-1.91509 0.368942 -1.21163)
(-1.44733 0.598683 -0.774358)
(0.243365 0.878396 -0.682275)
(-1.35392 0.112877 0.304777)
(-3.05597 -0.77241 -0.176482)
(-2.21919 -0.167989 -0.987768)
(-2.18309 0.214023 -0.905898)
(-1.59732 0.623854 -0.97687)
(0.139917 0.947656 -1.24756)
(-3.67397 -0.361322 1.15591)
(-4.35079 -1.63304 -0.230918)
(-2.46374 -0.29373 -1.04575)
(-3.03308 -0.798876 0.213506)
(-1.96897 -0.0222948 -1.43818)
(-0.869394 0.420542 -1.36795)
(-5.60302 -0.142861 2.18821)
(-4.86236 -2.45429 0.247245)
(-1.63899 -0.157894 -0.840121)
(-4.85749 -1.10389 1.66464)
(-1.40487 -1.5998 -1.25771)
(-0.115098 -1.33499 -1.35551)
(-4.82404 -0.27669 1.76744)
(-3.40193 -1.6066 0.712074)
(0.0901673 0.284485 -0.647495)
(-2.32369 0.430039 1.25144)
(-3.40424 -1.18108 0.166942)
(1.09272 -1.81484 -1.91028)
(1.73361 -1.06854 -2.48038)
(1.36311 -0.292304 -1.91155)
(0.550785 0.577792 -0.911921)
(-0.527728 0.529264 0.335362)
(-2.22625 0.465587 2.816)
(0.46881 -0.7752 -0.763883)
(1.04819 -0.632214 -1.72445)
(1.14114 -0.251129 -1.54329)
(0.0113251 0.272807 -0.424485)
(0.0667936 -0.50385 -1.02082)
(0.107431 0.276653 -0.791168)
(0.262193 -0.632579 -0.328743)
(-0.0791111 -0.318441 -0.665224)
(-0.0466914 -0.101145 -1.17863)
(-0.0426394 0.11376 -1.35861)
(-0.622829 -0.678137 -0.875526)
(-0.633748 -0.111137 -0.606363)
(-0.500117 -0.985767 -0.124358)
(-0.520534 -0.26519 -0.106106)
(-0.544213 0.235459 -0.495996)
(-0.629781 0.834651 -0.445163)
(-0.986697 -0.600357 -0.547078)
(-0.822779 -0.180436 -0.814029)
(-0.212832 -0.676502 -0.344593)
(-0.668309 -0.222654 0.279398)
(-1.08631 0.186485 0.0921166)
(-1.01851 1.19444 -0.155871)
(-1.24952 -0.588947 -0.552931)
(-1.31514 -0.352163 -0.178687)
(-1.04057 -0.352935 0.356864)
(-0.757924 0.427556 0.375388)
(-1.26841 0.159872 0.242401)
(-1.33073 0.960942 -0.433437)
(-1.64924 -0.535765 -0.976262)
(-1.78885 0.0199941 0.807423)
(-1.24707 -0.295183 1.85289)
(-1.22891 0.530172 0.606587)
(-1.38153 0.266229 0.147763)
(-1.10865 0.733449 -0.93004)
(-2.17125 -0.618588 -1.22631)
(-1.98902 0.0756194 1.20665)
(-1.65421 -0.606455 2.37397)
(-1.92352 0.159088 0.00483202)
(-1.6158 0.421317 -0.505075)
(-1.14711 0.756529 -1.49406)
(-2.97999 -0.679411 -1.539)
(-2.52611 -0.337541 0.499158)
(-2.2968 -0.889292 1.27908)
(-2.94029 -0.437819 -0.41602)
(-2.45989 0.416064 -1.74529)
(-1.92132 0.713442 -2.11727)
(-3.38165 -0.433415 -1.85458)
(-3.84016 -0.302229 -0.76949)
(-3.26093 -0.827174 0.989847)
(-4.44165 -1.09236 0.939695)
(-3.85841 -0.282164 -2.17446)
(-3.20927 0.427369 -2.7211)
(-2.66485 0.296474 0.0315947)
(-4.94538 0.239387 -1.73647)
(-4.2341 0.314433 0.0123862)
(-6.45257 -1.08306 5.00444)
(-5.3939 -1.15877 -0.0775203)
(-4.45248 0.319067 -2.25944)
(-4.27896 0.440819 3.80516)
(-5.21702 0.861018 -0.569905)
(-3.81836 1.24699 0.185827)
(-5.26431 0.0228583 4.62261)
(-4.88725 -0.952033 3.32508)
(-4.81999 0.472515 -0.625887)
(-4.20646 0.814033 4.00448)
(-5.65382 1.42179 4.70621)
(-2.741 0.817212 3.24741)
(-3.93198 -0.424027 3.56906)
(-2.22052 -0.623212 3.25764)
(-5.65496 0.746609 1.42062)
(-1.48282 0.308178 0.245046)
(-2.30115 1.39926 4.20829)
(-0.804112 0.454475 2.59686)
(-0.0378254 -0.719717 -0.117631)
(1.26643 -0.924651 -1.59403)
(-3.07751 -0.439155 0.505126)
(0.474713 -0.0735913 -0.747263)
(0.343845 0.822859 -0.557104)
(0.50304 0.15402 -0.0417718)
(0.628262 -0.876062 -1.00932)
(0.515949 -0.377695 -2.12644)
(0.229691 -0.313373 -1.48701)
(-0.319973 -0.200377 0.229189)
(-0.896281 0.170674 -0.654791)
(-0.497022 -0.566152 -0.879697)
(-0.151239 -0.158252 -2.13745)
(-0.0519643 -0.4083 -3.03043)
(-0.285962 -0.0937052 0.874179)
(-1.33682 -0.74138 0.38912)
(-2.04839 0.931352 -0.461125)
(-0.494403 -0.111853 -0.418671)
(-0.735171 0.50264 -2.16069)
(-1.00226 -0.106275 -3.28441)
(-1.70645 0.283329 1.59349)
(-2.28706 -0.74418 0.429171)
(-1.32231 0.28179 -1.02742)
(-0.827454 -0.277036 -2.4835)
(-1.89863 0.862814 -1.38584)
(-2.24032 0.089995 -1.44099)
(-3.19685 0.593024 1.37531)
(-2.55831 -1.30186 -0.575553)
(-0.615962 -1.18778 -0.999894)
(-0.672355 -0.321366 -0.573752)
(-2.39066 1.14627 -1.63262)
(-3.18004 0.714257 -0.288103)
(-2.29867 1.00292 0.742765)
(-2.83933 -1.99757 -0.878896)
(-1.53207 -1.60382 -1.00712)
(-0.944212 -0.459943 0.129248)
(-1.69187 1.36329 -3.303)
(-3.17411 1.34519 -1.38056)
(-1.41669 1.64013 0.341826)
(-3.00605 -1.91923 -0.465463)
(-2.69122 -1.65342 -2.4212)
(-1.5781 -0.68605 -1.12502)
(-1.25725 1.43064 -5.89031)
(-2.78889 1.95095 -4.26454)
(-1.12696 1.80415 -0.608328)
(-0.706735 -2.85711 1.2529)
(-3.25152 -2.44285 -2.52949)
(-3.85164 -0.951784 -0.865473)
(-3.65664 0.524667 -1.9466)
(-3.15714 1.86086 -4.91516)
(-2.55915 1.21882 -3.15063)
(-3.18287 -1.61517 -1.13655)
(-4.79221 -1.83163 -1.8423)
(-5.10346 -0.975986 1.81239)
(-4.63992 -0.479058 3.55102)
(-4.39439 0.113254 -0.614022)
(-4.19216 0.689219 -3.57186)
(-3.94069 0.294912 -1.37998)
(-5.3214 -0.236229 -1.57963)
(-4.44901 -0.0434792 2.48815)
(-3.10594 -1.10641 7.64342)
(-3.66158 -0.445611 3.88136)
(-5.00184 0.553884 -2.05638)
(-4.45734 0.634041 0.095358)
(-5.23203 1.25919 1.1667)
(-2.54393 0.531307 7.21634)
(2.10859 -1.32908 4.85795)
(3.00968 -1.00786 2.09367)
(-5.21237 0.522568 0.651841)
(-3.79978 0.645938 2.99559)
(-3.91648 2.10839 6.66417)
(-1.63591 1.86249 7.9963)
(0.929834 1.04351 1.70766)
(2.14912 -0.694652 -0.739738)
(-1.35036 -1.11601 3.85955)
(0.292192 -0.0405609 -1.62936)
(0.0629341 -0.238931 -1.78058)
(0.859499 0.410793 2.09438)
(0.995966 0.568659 1.77734)
(0.212914 0.628027 -1.05119)
(0.105019 0.0456846 -1.86088)
(-0.364686 -0.133254 -1.65718)
(-0.158162 0.0414349 -2.70628)
(-0.300398 0.374132 -1.24059)
(-0.38977 0.30038 -1.69428)
(-0.288297 -0.162223 -2.35308)
(-0.0492719 -0.283601 -2.27226)
(-1.38951 -0.393929 -2.54625)
(-0.792853 -0.361851 -1.9714)
(-1.0743 -0.113199 -0.871683)
(-0.620388 0.213671 -1.91314)
(-0.328333 -0.0509704 -2.3942)
(-0.603681 -0.214449 -1.9792)
(-3.15243 -0.345719 -0.80948)
(-2.42697 -0.314908 -0.654375)
(-1.57369 -0.49856 -1.99476)
(-1.08274 -0.0769294 -2.03543)
(-1.39235 -0.228815 -1.72705)
(-2.76501 -0.0662082 0.711388)
(-3.79782 -0.152232 1.86357)
(-4.22663 -0.196503 -1.59982)
(-2.1459 -0.750636 -3.56132)
(-2.1005 0.167058 -2.1562)
(-3.0003 -0.416528 -0.825168)
(-2.70433 0.556196 3.11859)
(-3.23173 -0.522861 3.56713)
(-5.40649 0.30655 -3.34261)
(-3.02746 -0.632213 -5.15296)
(-2.78735 0.589369 -3.57277)
(-4.10397 -0.0853416 -1.2853)
(-2.78011 1.31624 3.33092)
(-2.03474 -0.80863 5.35438)
(-4.95611 1.16652 -2.92966)
(-2.6934 0.574802 -7.34321)
(-1.15429 0.852637 -7.48945)
(-3.72748 0.0135692 -2.68801)
(-4.33532 1.23333 2.41731)
(0.495924 -0.631099 6.92751)
(-2.00093 0.594784 -4.97779)
(-1.61375 -0.414083 -8.83251)
(-2.6498 0.395341 -6.45348)
(-2.89125 0.726456 -3.9186)
(-3.62705 0.863941 -1.37364)
(-0.139304 -0.783031 2.54391)
(-3.80334 -1.60755 -3.43301)
(-4.83102 -1.66174 0.331252)
(-4.14031 -0.283217 3.51435)
(-3.56287 1.12141 0.559246)
(-2.71891 1.05736 -2.33333)
(-2.90413 -0.787919 0.936664)
(-5.16669 -2.09913 1.63313)
(-4.18669 -1.65964 6.23484)
(-0.845081 -0.80179 9.44168)
(-2.54433 0.162454 6.4748)
(-4.16978 1.12619 -0.375035)
(-4.18113 -0.125762 0.567886)
(-4.72704 0.50842 4.42128)
(-0.488586 0.0814935 11.9829)
(4.44416 0.897717 4.31222)
(3.64137 -1.23877 2.81144)
(-4.70478 0.435269 3.4294)
(-1.09182 0.631899 1.4585)
(-1.21808 2.32532 6.37022)
(0.440593 3.25036 7.26364)
(1.89922 2.32104 0.792899)
(3.04114 -0.0449376 -1.0124)
(1.47918 -1.19861 1.72159)
(-1.11302 -0.0840376 -0.0805254)
(-1.2412 0.145673 0.577961)
(-1.16717 -0.0500512 0.9829)
(-1.20209 0.0470625 0.255886)
(-1.23911 0.0635034 -0.226065)
(-1.24813 0.136222 1.12527)
(-0.562037 -0.438051 -1.12137)
(-0.214324 -0.341426 -1.19154)
(-0.0525671 0.135692 -1.00297)
(-0.37919 0.6673 -1.15046)
(-0.67676 0.332754 -1.17594)
(-0.493997 -0.0236379 -0.562991)
(-0.538381 -0.525111 1.12929)
(0.0695106 -0.240362 -2.08388)
(0.152829 0.100531 -2.15953)
(-0.10185 0.562135 -1.54239)
(-0.621634 0.531355 0.900142)
(-0.644166 0.0579332 1.26803)
(0.689183 0.0279832 -2.97458)
(0.775864 0.0169037 -2.93623)
(0.762023 -0.0171257 -2.86221)
(0.690459 0.0353862 -2.96233)
(0.642923 -0.0249551 -3.12551)
(0.623501 -0.0678228 -2.80633)
(0.43796 -0.0371082 -4.35935)
(0.508972 -0.0646072 -4.29104)
(0.513654 0.0523587 -4.24345)
(0.489123 0.131209 -4.33264)
(0.414439 0.0335698 -4.40935)
(0.440727 -0.0394713 -4.29016)
(0.0201752 -0.0475673 -4.12729)
(0.056783 -0.0585698 -4.03665)
(0.0637892 0.040139 -4.01909)
(0.0475896 0.106541 -4.08382)
(0.00700077 0.064312 -4.17978)
(0.00691408 0.00601155 -4.18209)
(0.517322 0.018858 -2.50867)
(0.54673 0.00783558 -2.59044)
(0.540984 0.0102173 -2.58759)
(0.520819 0.0337707 -2.55024)
(0.487836 0.00130441 -2.54525)
(0.49402 -0.0114925 -2.59734)
(-0.0405032 0.00585824 -3.94239)
(-0.0188731 0.00449572 -3.96114)
(-0.00507053 0.00542842 -3.95767)
(-0.0384051 0.0106926 -3.95571)
(-0.0746702 0.0144328 -3.95141)
(-0.037871 0.00657423 -3.94441)
(-0.0044141 -0.000322014 -3.67624)
(0.0207686 -0.000399595 -3.67915)
(0.0236889 0.00127666 -3.68209)
(0.00209292 0.00573478 -3.68188)
(-0.027256 0.00438185 -3.68636)
(-0.0353459 -7.39752e-05 -3.69621)
(1.26568 0.00321046 -2.97469)
(1.26893 0.00597334 -3.00824)
(1.2678 0.00471039 -3.01077)
(1.2651 0.028663 -2.97948)
(1.26853 -0.0105283 -2.99569)
(1.22978 -0.0215043 -3.01022)
(0.462839 0.00167547 -4.46203)
(0.460739 0.000806711 -4.46236)
(0.461687 0.00310783 -4.45915)
(0.459681 0.00968399 -4.46158)
(0.455335 0.00773453 -4.47228)
(0.467934 0.000353688 -4.43287)
(0.13537 -0.00163608 -4.19952)
(0.136453 -0.00163236 -4.20216)
(0.135982 0.00263835 -4.20412)
(0.135448 0.00674698 -4.20459)
(0.133507 0.00174382 -4.21753)
(0.131371 -0.00250452 -4.21324)
(1.59736 0.00191304 -3.58628)
(1.59597 0.0079839 -3.60622)
(1.59223 0.000979618 -3.60958)
(1.60245 0.0169761 -3.58311)
(1.61042 -0.00891068 -3.59286)
(1.55473 -0.0109875 -3.61616)
(0.50461 0.00477939 -4.75346)
(0.504982 0.0036662 -4.76058)
(0.505175 -0.00048276 -4.75731)
(0.504434 0.00144538 -4.75635)
(0.500041 0.0046723 -4.76157)
(0.515424 0.00232527 -4.73885)
(0.128399 0.00144435 -4.56376)
(0.131103 0.000540533 -4.5704)
(0.129383 -0.000364566 -4.57017)
(0.12921 0.00147793 -4.56976)
(0.128908 9.32806e-05 -4.57429)
(0.129176 -0.000981914 -4.5751)
(1.85315 0.00225431 -4.20571)
(1.85585 0.00623865 -4.19078)
(1.85075 0.00507649 -4.18779)
(1.86572 0.00911539 -4.1975)
(1.8558 -0.00402258 -4.2079)
(1.84169 -0.00638849 -4.17695)
(0.687407 0.00404149 -5.26006)
(0.712312 0.00141089 -5.24471)
(0.697114 0.00272243 -5.24836)
(0.710431 0.00676292 -5.24988)
(0.701047 0.000319716 -5.26125)
(0.729508 -0.00436176 -5.2182)
(0.142651 0.00424871 -5.11423)
(0.162685 0.00060488 -5.11633)
(0.147252 -0.000993764 -5.11451)
(0.152357 0.00591374 -5.12015)
(0.152501 0.00514766 -5.12244)
(0.172637 0.0024658 -5.11676)
(3.09033 0.00514272 -5.69914)
(3.11058 0.0136609 -5.78187)
(3.15158 0.00940894 -5.74564)
(3.07334 -0.00633782 -5.74086)
(3.11945 0.00966971 -5.73133)
(3.09516 0.0318828 -5.71716)
(1.1945 0.0541263 -5.87977)
(1.19674 0.0143456 -5.95311)
(1.21028 -0.0121453 -5.95891)
(1.21807 0.00752521 -5.94797)
(1.23105 0.0441821 -5.91662)
(1.19273 0.0574304 -5.90201)
(0.00874328 0.046229 -5.68186)
(0.0710202 0.00784269 -5.78081)
(0.0198179 -0.0219082 -5.7684)
(0.0300325 0.0158475 -5.76872)
(0.0471777 0.0468984 -5.74624)
(0.103177 0.0406828 -5.75804)
(0.295797 -0.257153 -7.39291)
(0.236577 0.0243392 -8.29522)
(0.443558 0.0254212 -8.15374)
(0.438285 -0.0238656 -7.70882)
(0.228542 -0.244796 -8.03577)
(0.441733 -0.124475 -7.87499)
(-0.314732 -0.246826 -6.36971)
(0.058467 -0.0208073 -7.22115)
(-0.082438 0.103854 -6.8683)
(-0.129462 0.00752266 -6.59329)
(-0.238603 -0.293172 -6.80255)
(0.224385 -0.10131 -7.08657)
(-0.386163 0.0479616 -5.98932)
(0.0266045 0.0165196 -7.07034)
(-0.2947 -0.0610325 -6.49217)
(-0.327307 0.0391313 -6.15974)
(-0.312349 0.0653073 -6.35877)
(0.0982084 0.107912 -7.0757)
(8.92717 -0.141404 7.18068)
(8.4622 0.0679486 5.94825)
(8.69827 0.0209031 5.91963)
(9.05671 0.0921399 6.36021)
(9.07035 -0.206424 6.19022)
(8.74687 -0.129048 6.05824)
(1.56341 -0.287562 1.49331)
(-0.289514 0.270521 -1.13437)
(0.594819 0.319373 -0.33347)
(1.38915 -0.0434527 0.0218096)
(0.97404 -0.634034 -0.173202)
(0.058377 -0.342157 -1.56666)
(-2.10137 -0.321595 -2.35015)
(-1.19767 0.183771 -5.88918)
(-2.13562 0.155312 -3.4624)
(-2.18115 -0.107019 -2.61107)
(-2.03313 -0.507195 -3.9283)
(-0.90011 -0.060594 -6.02734)
(11.6427 0.622146 13.557)
(12.9148 0.826798 13.8579)
(12.4627 0.191133 13.3354)
(12.7504 0.229299 13.4723)
(12.8221 0.0315985 13.516)
(12.7681 0.0236666 13.391)
(9.20458 0.940696 13.1615)
(10.3356 1.36464 13.4042)
(9.5214 0.417896 12.1305)
(9.94606 0.440347 12.0251)
(9.85434 0.0461749 11.8769)
(9.56682 -0.0544118 11.6787)
(5.27816 0.708803 10.2223)
(5.46278 1.18373 9.14704)
(4.80052 0.351135 8.59432)
(5.14208 0.416922 8.80137)
(4.9657 -0.125965 8.23501)
(4.43123 -0.220228 7.09858)
(-2.44742 0.849042 10.0634)
(4.93181 0.820127 13.0389)
(4.11221 0.125645 12.4122)
(4.17143 0.22043 12.45)
(5.16653 0.0845411 12.5365)
(4.29632 -0.00731791 12.2568)
(-2.76209 0.805579 13.0069)
(6.92789 1.07559 18.9717)
(6.49293 0.0877014 17.7871)
(5.87518 0.433799 17.7789)
(7.47423 0.296494 17.6023)
(6.41611 0.0475086 17.4505)
(-2.06342 0.197061 14.7018)
(5.95582 0.430213 19.8403)
(5.13644 -0.187895 19.0351)
(4.12663 0.2894 19.1174)
(5.57336 0.204877 18.8863)
(4.72761 0.0367879 18.5448)
(2.43474 0.303237 3.49058)
(4.03411 0.285891 4.83208)
(3.58279 -0.23978 4.4167)
(3.35577 0.0540522 4.45125)
(3.70703 0.089129 4.59726)
(3.57208 0.0984432 4.34063)
(-0.422606 -0.975957 -7.01137)
(3.51695 -0.179079 4.58428)
(1.99057 -1.25963 1.76934)
(0.777397 -0.305011 -0.0222484)
(2.89448 0.142743 3.04895)
(2.1134 0.0465955 1.98324)
(1.10669 -2.41911 0.11329)
(3.21976 -1.35866 7.35015)
(2.02408 -1.05134 4.72685)
(1.35611 -0.738988 3.47596)
(2.27071 -0.45276 5.56111)
(2.06066 0.195229 5.53408)
(1.16109 0.0829461 -0.259084)
(1.36657 0.206489 -0.473454)
(1.40549 0.221925 -0.534231)
(1.59497 0.118631 -0.499596)
(1.67757 -0.0409426 -0.419087)
(1.58845 -0.0656353 -0.401038)
(0.266286 0.358209 1.60369)
(0.817066 1.10498 1.24903)
(1.94919 1.30605 -0.165923)
(2.40152 0.454151 -1.32311)
(0.70154 -0.0649504 -1.33535)
(-0.53962 -0.421072 1.13841)
(0.188093 0.318945 1.80042)
(0.530805 1.08023 2.12109)
(0.925411 1.3568 2.07788)
(0.260814 1.08053 3.10292)
(-0.757896 0.204986 3.40365)
(-0.899753 -0.334719 2.53877)
(0.622153 0.0369252 -0.217594)
(0.671713 0.079313 -0.228866)
(0.793832 0.0984084 -0.223718)
(0.885259 0.0732222 -0.23889)
(0.920168 -0.0429711 -0.233873)
(0.879844 -0.058733 -0.266677)
(1.98476 0.170101 0.659131)
(2.55322 0.380422 0.521806)
(2.8117 0.309623 0.483785)
(2.97112 -0.232444 0.545019)
(2.71892 -0.512454 0.451788)
(1.90366 -0.227587 -0.0551145)
(0.831649 0.0345806 2.54976)
(1.18735 0.0484369 2.44164)
(1.39421 -0.185284 2.32233)
(1.00476 -0.326138 2.48955)
(0.480275 -0.225649 2.7577)
(0.157901 -0.0436837 2.59767)
(1.43966 0.0107818 0.155593)
(1.46984 0.0492674 0.159065)
(1.45723 0.0651551 0.146569)
(1.48815 0.0343471 0.15053)
(1.50055 0.000613237 0.143095)
(1.4388 -0.00812365 0.132893)
(3.05616 0.0565672 2.40938)
(3.20988 0.171279 2.30993)
(3.17284 0.134946 2.23287)
(3.30729 -0.0270825 2.28053)
(3.35553 -0.101922 2.19344)
(3.13683 -0.0677962 2.12644)
(0.792425 0.00532593 3.39222)
(0.876666 -0.00488904 3.17871)
(0.940925 -0.169971 3.12398)
(0.935103 -0.300985 3.28193)
(0.877792 -0.203786 3.37558)
(0.755249 -0.0681984 3.27757)
(2.69765 0.0294854 0.436227)
(2.68996 0.0874574 0.481404)
(2.61493 0.0703577 0.463929)
(2.61032 0.0377046 0.414013)
(2.55842 0.0271333 0.422703)
(2.59315 0.0101249 0.457732)
(3.58976 -0.0642327 2.82659)
(3.6302 0.0522141 2.26375)
(3.48552 0.0821175 2.37088)
(3.65112 -0.0206704 2.39375)
(3.72622 0.00354668 2.16692)
(3.40951 0.0872128 2.3826)
(2.39952 -0.140549 3.91221)
(2.35656 -0.103616 3.34216)
(2.25988 0.0301238 3.32515)
(2.51879 -0.0785073 3.57708)
(2.55235 -0.12274 3.38758)
(2.06392 -0.0263178 3.37453)
(3.92942 -0.026317 0.442002)
(3.38949 0.0518262 0.314216)
(3.37185 -0.0431581 0.2649)
(3.4906 0.040789 0.354658)
(3.3161 -0.0176872 0.411894)
(3.36818 0.0298034 0.233974)
(3.93995 -0.17577 1.41121)
(4.01883 -0.0284686 1.13273)
(3.70111 -0.0046287 1.08612)
(3.94379 -0.034144 0.985666)
(4.0774 -0.0528493 0.900577)
(3.63778 0.162944 1.13039)
(1.97526 -0.298184 -0.449875)
(2.47467 -0.353396 0.247239)
(2.25737 0.0093423 -0.0882162)
(2.26916 -0.144348 -0.693113)
(2.52755 -0.240257 -0.507747)
(2.25041 -0.0345745 0.324714)
(4.43762 0.0630289 1.23164)
(3.97431 0.0885164 1.30987)
(3.81716 -0.23939 1.13308)
(3.87279 0.0225999 1.30702)
(3.75345 0.030247 1.4208)
(3.78926 0.103186 1.07197)
(2.93394 -0.409074 -2.48448)
(4.35172 -0.180254 0.65743)
(3.57396 -0.398664 -0.479367)
(3.27925 -0.151466 -1.47204)
(3.88785 -0.0770153 -0.28907)
(3.60522 0.189567 -0.348419)
(-0.0308497 -0.315107 -3.84375)
(1.97775 -0.686143 -1.54135)
(1.55927 -0.184603 -2.71546)
(1.04274 -0.318924 -3.94517)
(1.65732 -0.296498 -2.8717)
(1.91672 0.105481 -1.9812)
(0.00570122 0.103751 -0.953127)
(-0.229164 -0.53022 -1.48724)
(0.138581 -0.225854 -0.00293391)
(-0.26546 0.373096 -1.03462)
(-0.410063 0.423817 -1.7662)
(-0.213535 0.0582278 -0.873724)
(-0.187726 0.142609 -1.08075)
(-0.208692 -0.132632 -1.45401)
(0.0534263 -0.0841016 -0.226393)
(-0.233275 0.133816 -0.786917)
(-0.237851 -0.0333146 -1.49176)
(-0.190461 -0.129647 -1.34893)
(-0.136743 0.0504777 -1.34494)
(-0.104666 -0.0680291 -1.39353)
(-0.110504 -0.0659011 -0.95556)
(-0.116619 0.147848 -1.37368)
(-0.0986195 0.0783075 -1.52618)
(-0.101214 0.0158324 -1.45335)
(-0.257372 0.0898588 -1.92448)
(-0.260384 -0.0736789 -2.27219)
(-0.429718 -0.0922144 -2.33406)
(-0.532987 -0.00065374 -2.45471)
(-0.495752 -0.0182895 -2.49011)
(-0.358628 -0.0586193 -1.70579)
(-0.219095 0.0651759 -1.79636)
(-0.280666 0.0961085 -1.96056)
(-0.32828 0.00262135 -1.67868)
(-0.289605 -0.00876599 -1.79159)
(-0.26708 -0.0754275 -2.03667)
(-0.202346 -0.105028 -1.90126)
(-0.139586 0.0274739 -1.84893)
(-0.133972 -0.0147366 -1.91008)
(-0.135502 -0.0186505 -1.94336)
(-0.121848 0.061302 -1.96388)
(-0.113399 0.0334698 -1.92988)
(-0.11905 -0.00484831 -1.85689)
(-0.161242 -0.0719308 -1.45932)
(0.172624 -0.249421 -2.77572)
(-0.031721 -0.0888202 -2.7019)
(-0.114127 0.113288 -2.57666)
(-0.132959 0.0786586 -2.61606)
(-0.0285623 0.0213641 -1.96935)
(0.180718 0.190182 -1.81718)
(-0.0305345 0.154167 -2.03355)
(-0.123119 -0.0168851 -1.67734)
(-0.160446 -0.00416079 -1.90042)
(-0.117505 -0.093992 -2.12111)
(0.0580894 -0.0905996 -1.95316)
(-0.143171 0.0413567 -1.83195)
(-0.171949 -0.0145117 -1.92596)
(-0.137898 -0.0175856 -1.9905)
(-0.117827 0.0545591 -2.0323)
(-0.109261 6.03201e-05 -2.00092)
(-0.0846118 -0.0218814 -1.95366)
(-0.871688 -0.153359 -0.437592)
(-0.103267 0.103414 -2.97109)
(-0.0192208 0.0668436 -3.15683)
(0.0577567 0.018242 -2.92675)
(-0.073238 -0.0983423 -2.99703)
(-0.86297 -0.141734 -1.03212)
(0.415269 0.317683 -1.72081)
(0.305474 0.336125 -2.35175)
(-0.00541904 -0.00792632 -2.17321)
(0.000144487 -0.0645518 -2.25217)
(0.192928 -0.219205 -2.485)
(0.336583 -0.219688 -1.94018)
(-0.1442 0.084115 -1.77237)
(-0.21505 0.0347827 -1.93271)
(-0.173706 -0.0191497 -2.0854)
(-0.135109 0.0171897 -2.18501)
(-0.0978948 -0.0525757 -2.17909)