/*--------------------------------*- C++ -*----------------------------------*\
| =========                 |                                                 |
| \\      /  F ield         | OpenFOAM: The Open Source CFD Toolbox           |
|  \\    /   O peration     | Version:  v1612+                                |
|   \\  /    A nd           | Web:      www.OpenFOAM.com                      |
|    \\/     M anipulation  |                                                 |
\*---------------------------------------------------------------------------*/
FoamFile
{
    version     2.0;
    format      ascii;
    class       surfaceScalarField;
    location    "5.9";
    object      alphaPhi;
}
// * * * * * * * * * * * * * * * * * * * * * * * * * * * * * * * * * * * * * //

dimensions      [0 3 -1 0 0 0 0];

internalField   nonuniform List<scalar> 
2916
(
1.45287e-05
-0.805364
0.377442
9.29934e-06
-0.805378
0.377477
7.66153e-06
-0.80538
0.377463
-3.67718e-06
-0.805352
0.377467
-7.33235e-06
-0.805344
0.377472
-0.80524
0.377453
-5.58821e-05
-1.43406
0.301627
1.56204e-05
-1.4342
0.30149
1.69793e-05
-1.43413
0.301551
-7.22401e-06
-1.43411
0.301575
1.64578e-05
-1.43415
0.301532
-1.4341
0.30158
-2.91457e-05
-1.54204
0.108054
1.00379e-05
-1.54218
0.107984
9.00942e-06
-1.54209
0.108012
-5.47311e-06
-1.54208
0.108033
1.23504e-06
-1.54212
0.108013
-1.54209
0.108034
-1.9188e-05
-1.53787
-0.0041093
6.76594e-06
-1.53806
-0.00410209
6.02899e-06
-1.53795
-0.00410279
-1.05169e-06
-1.53794
-0.00409187
-6.89443e-06
-1.53798
-0.0040917
-1.53793
-0.00411404
-1.26763e-05
-1.4471
-0.0907822
8.22194e-06
-1.44737
-0.0907389
1.84758e-05
-1.44723
-0.0907542
8.31677e-06
-1.44723
-0.0907242
-1.75924e-05
-1.44727
-0.0907119
-1.44719
-0.0907884
1.14033e-05
-1.29845
-0.140401
2.1596e-05
-1.2988
-0.140332
4.76112e-05
-1.29863
-0.140369
1.50875e-05
-1.29863
-0.140302
-6.56721e-05
-1.29867
-0.140262
-1.29856
-0.140427
3.92425e-05
-1.12852
-0.135737
4.12504e-05
-1.12899
-0.135623
8.70693e-05
-1.1288
-0.135678
1.44667e-05
-1.12874
-0.135607
-9.8437e-05
-1.12885
-0.135524
-1.12866
-0.135771
0.00021177
-0.967305
-0.119642
3.2302e-06
-0.967541
-0.119532
-3.78393e-05
-0.96747
-0.119571
-5.73643e-05
-0.967458
-0.119506
0.000212895
-0.968018
-0.11937
-0.967007
-0.119695
0.0005196
-0.788182
-0.139573
-7.80869e-05
-0.787189
-0.139745
-0.00040662
-0.787503
-0.139624
-0.000200966
-0.788099
-0.139515
0.000823628
-0.790117
-0.138912
-0.785944
-0.140182
0.000763663
-0.583878
-0.165671
-2.6813e-05
-0.58095
-0.166106
-0.000800909
-0.581508
-0.165877
4.67826e-05
-0.583815
-0.16575
0.00142717
-0.587244
-0.164909
-0.57822
-0.166908
0.000584031
-0.224624
-0.320923
3.81156e-05
-0.221229
-0.320245
-0.000718124
-0.22172
-0.320126
6.78646e-05
-0.224614
-0.32107
0.000709428
-0.227522
-0.321557
-0.218921
-0.319577
-0.000772824
-0.182979
0.000311923
-0.181264
0.00128
-0.181597
0.00027351
-0.182785
-0.00226879
-0.184358
-0.18009
0.000181423
-1.20025
0.789815
1.38199e-05
-1.2005
0.78976
-1.87563e-05
-1.20036
0.789762
-8.57265e-06
-1.20037
0.789786
-8.83954e-05
-1.20046
0.789807
-1.20032
0.789764
0.000138794
-1.86607
0.484806
-8.48844e-06
-1.86634
0.484954
-1.7538e-05
-1.86621
0.484889
1.72403e-05
-1.86622
0.484871
-8.66268e-05
-1.86629
0.48494
-1.86611
0.484814
0.000120016
-1.69682
-0.0131505
-8.87475e-06
-1.69716
-0.0130575
-8.82879e-06
-1.697
-0.0131019
9.73589e-06
-1.69701
-0.0131094
-8.23669e-05
-1.6971
-0.0130712
-1.6969
-0.0131339
-1.29593e-05
-1.2341
-0.108165
-1.3599e-05
-1.23444
-0.108154
9.43987e-06
-1.23431
-0.108163
6.94488e-06
-1.23427
-0.108156
-4.78966e-06
-1.23435
-0.10815
-1.23417
-0.108173
-0.000118183
-0.620569
-0.148622
-1.7292e-05
-0.620916
-0.148657
6.2853e-06
-0.620794
-0.148645
1.79305e-05
-0.620717
-0.148638
0.000147414
-0.620819
-0.148654
-0.620639
-0.148619
-0.000128607
-0.175398
-0.0061735
-2.0036e-05
-0.17575
-0.00616685
-5.74481e-07
-0.175626
-0.00617043
2.54622e-05
-0.175541
-0.00616687
0.000190317
-0.175681
-0.00615928
-0.175461
-0.00617626
8.87541e-07
0.056632
-0.000489952
-4.44033e-05
0.0563753
-0.000488682
-0.00011744
0.0564651
-0.000489149
6.88395e-06
0.056513
-0.000489333
0.00028958
0.0563839
-0.000488409
0.0566213
-0.000489835
8.76611e-05
0.204618
-6.94933e-05
-6.50472e-05
0.20486
-6.93819e-05
-0.000194969
0.204762
-6.93532e-05
-6.29449e-06
0.204569
-6.93375e-05
0.000463466
0.204
-6.93602e-05
0.205289
-6.94299e-05
-0.000256844
0.233712
-0.000606668
3.97285e-05
0.233237
-0.000632471
0.000264291
0.233538
-0.000620352
0.000111332
0.23346
-0.00061558
-0.000487186
0.234201
-0.000606009
0.233259
-0.000623619
-0.00105038
0.15502
-0.000924668
0.000251909
0.150362
-0.000906408
0.00132473
0.151589
-0.000909064
4.60188e-05
0.154656
-0.000928794
-0.00306664
0.160141
-0.000927632
0.146686
-0.000901288
-0.00233403
-0.0280468
0.00188457
0.000564547
-0.0327695
0.00164851
0.00272069
-0.0318549
0.00170793
0.000608302
-0.0282492
0.0018572
-0.00548256
-0.0244558
0.0021701
-0.035419
0.00148648
0.000403498
-0.023782
-3.69218e-05
-0.0262155
-0.00062121
-0.0256507
0.000450454
-0.0242174
0.0016727
-0.0224904
-0.0272053
-5.48722e-05
-0.794668
0.743041
-6.90664e-06
-0.794232
0.741873
2.90755e-05
-0.794405
0.742338
1.24589e-05
-0.794456
0.742465
-2.42892e-06
-0.794386
0.74225
-0.794535
0.742642
-9.01563e-05
-0.281277
-0.0123503
-0.000169062
-0.281303
-0.0123722
1.50217e-05
-0.281288
-0.0123479
0.000132647
-0.281281
-0.0123475
2.58334e-05
-0.281319
-0.0123686
-0.281268
-0.0123533
-8.58239e-05
-0.0615739
-3.13359e-06
-1.08371e-05
-0.061619
-3.32084e-06
1.13262e-05
-0.0615993
-3.21403e-06
9.20491e-07
-0.0615829
-3.20657e-06
4.47299e-05
-0.0616067
-3.24897e-06
-0.0615721
-3.16394e-06
-4.72882e-05
0.00177361
-1.07366e-06
2.26239e-06
0.00172639
-1.06869e-06
1.56419e-05
0.00174579
-1.0741e-06
2.05784e-06
0.00176566
-1.07485e-06
2.42874e-05
0.00174843
-1.07315e-06
0.00176308
-1.07504e-06
-6.21747e-06
0.00671505
-1.8511e-06
1.15337e-06
0.00670661
-1.80754e-06
4.45352e-06
0.00671085
-1.8284e-06
1.00979e-06
0.00670768
-1.85546e-06
9.39962e-07
0.00669939
-1.88213e-06
0.00671712
-1.80535e-06
-3.3081e-08
0.000547036
-4.90181e-06
-2.73528e-08
0.000545275
-4.96441e-06
-2.91101e-09
0.000545888
-4.93476e-06
3.11043e-09
0.000546313
-4.94899e-06
3.0945e-07
0.000545347
-4.98451e-06
0.000546621
-4.89027e-06
1.39219e-07
6.72256e-05
-1.21613e-05
-3.28597e-08
6.72963e-05
-1.25307e-05
-1.16215e-07
6.72394e-05
-1.23468e-05
-2.72486e-08
6.72531e-05
-1.23242e-05
1.20854e-07
6.70484e-05
-1.21975e-05
6.73777e-05
-1.23897e-05
3.93658e-08
2.27766e-05
-5.78438e-08
-1.24755e-08
2.30123e-05
-1.43165e-07
-3.59082e-08
2.29455e-05
-9.90791e-08
-1.34824e-08
2.2857e-05
-8.50984e-08
2.21711e-08
2.28024e-05
-5.9276e-08
2.29728e-05
-8.91812e-08
1.52054e-08
1.77433e-05
-0.000547373
8.81926e-09
1.93164e-05
-0.000574626
-2.53421e-08
1.87483e-05
-0.000561998
1.79165e-08
1.80534e-05
-0.000556646
1.8494e-07
1.66368e-05
-0.000545865
2.01179e-05
-0.000566425
-0.00015626
-0.00582699
-0.00581923
3.96858e-05
-0.00658227
-0.00574256
0.000115834
-0.00634155
-0.00577195
2.72997e-05
-0.00587523
-0.00581809
-0.000358289
-0.00493409
-0.00603948
-0.00713012
-0.00554303
-0.00100019
-0.00145543
-0.00571431
0.000229716
-0.00356107
-0.00702451
0.00108753
-0.00321456
-0.00638764
0.000356844
-0.0015921
-0.006158
-0.0021633
0.000538577
-0.00528884
-0.00476153
-0.00696467
0.00107932
-0.0360489
-0.000327148
-0.0380801
-0.0013643
-0.0375345
-0.000402672
-0.0364743
0.0029129
-0.0349706
-0.0387571
-0.000579202
0.0105895
0.0562257
5.1663e-05
0.00963831
0.0553973
8.76427e-05
0.010294
0.0556949
-0.000108325
0.0105332
0.0557985
0.000225937
0.00989525
0.0556025
0.0103971
0.0559416
-1.91289e-06
-4.86634e-08
0.000697804
-3.31047e-06
-5.6545e-08
0.000689989
-3.32995e-07
-5.23057e-08
0.000692676
2.17188e-06
-5.06713e-08
0.000692848
6.54889e-08
-5.43055e-08
0.000693124
-5.04002e-08
0.000695881
1.42695e-09
-2.97068e-08
-2.53855e-06
-4.62796e-10
-3.06541e-08
-2.72575e-06
-5.0924e-10
-3.02784e-08
-2.61705e-06
3.77209e-10
-3.0048e-08
-2.61008e-06
-5.36252e-10
-3.04771e-08
-2.65497e-06
-2.98224e-08
-2.56579e-06
-4.35412e-10
-2.66742e-08
-4.8432e-07
1.76896e-10
-2.88308e-08
-4.79456e-07
4.42238e-10
-2.80626e-08
-4.83227e-07
7.72942e-11
-2.71428e-08
-4.84262e-07
6.16483e-11
-2.78901e-08
-4.83954e-07
-2.73171e-08
-4.83323e-07
-1.95051e-09
-1.58196e-07
-1.10219e-06
4.42402e-10
-1.6843e-07
-1.05124e-06
1.71918e-09
-1.65526e-07
-1.07326e-06
2.98504e-10
-1.60414e-07
-1.10277e-06
-9.20643e-10
-1.61417e-07
-1.13047e-06
-1.64133e-07
-1.05019e-06
-1.66444e-09
-1.26387e-06
-3.15708e-06
2.01104e-10
-1.42339e-06
-3.06686e-06
1.21857e-09
-1.36037e-06
-3.09811e-06
2.87708e-10
-1.30901e-06
-3.15846e-06
-1.34732e-09
-1.2784e-06
-3.22643e-06
-1.3709e-06
-3.04156e-06
2.73519e-08
-8.36418e-06
-4.52347e-06
-5.56848e-09
-8.54395e-06
-4.80358e-06
-2.54848e-08
-8.43223e-06
-4.68339e-06
-4.10328e-09
-8.44418e-06
-4.64375e-06
2.42526e-08
-8.40003e-06
-4.54137e-06
-8.44901e-06
-4.71224e-06
2.05269e-07
-2.71001e-05
1.65892e-05
-4.39412e-09
-2.88879e-05
1.84221e-05
-2.0486e-07
-2.78349e-05
1.75835e-05
-1.13445e-08
-2.79401e-05
1.72533e-05
2.12073e-07
-2.73084e-05
1.66818e-05
-2.79238e-05
1.76893e-05
-7.59649e-06
-0.00119595
0.000648483
2.25677e-06
-0.00127372
0.00067931
5.67137e-06
-0.00123977
0.000665643
2.91983e-06
-0.0012225
0.000659865
-3.16849e-06
-0.00119909
0.000651321
-0.00124567
0.000667191
-5.07018e-05
-0.0550558
0.0120852
-8.62498e-06
-0.0553547
0.0119858
4.27303e-05
-0.0551467
0.0120675
-2.47158e-05
-0.0552528
0.0121245
8.26278e-05
-0.0553361
0.012101
-0.0547191
0.0120323
-0.00064739
-0.0644213
-0.0218514
4.89529e-05
-0.0630083
-0.0221068
0.000577683
-0.0633655
-0.0220167
1.59376e-05
-0.0642085
-0.0219387
-0.000797411
-0.0653981
-0.021867
-0.0623547
-0.0219912
9.24769e-06
-0.0730496
2.47284e-05
-0.073716
0.000162939
-0.073675
2.48742e-05
-0.0731884
-0.00020956
-0.072778
-0.0739651
-0.0177661
-0.152825
0.173719
-0.0239619
-0.164881
0.0675071
-0.0564475
-0.130749
0.0853644
-0.00443593
-0.177602
0.126005
0.104098
-0.22278
0.11466
-0.0507563
0.0955507
0.00602319
-0.241853
0.0855902
0.0239309
-0.264353
0.0831512
0.0505641
-0.247998
0.0916582
0.0585485
-0.267703
0.082531
0.0493085
-0.277849
0.0645487
-0.161638
0.0657415
-0.00104451
-0.258719
0.0299931
0.00259579
-0.254306
0.0293438
0.0161235
-0.28956
0.0296186
0.00774011
-0.26499
0.0312589
-0.00590723
-0.390035
0.0310728
-0.243619
0.0339432
-0.00246989
-0.139308
0.00819514
-0.000196013
-0.182132
0.00810585
-0.00128598
-0.121443
0.0093989
-0.00935953
-0.244457
0.0104051
-0.00326691
-0.401096
0.00426311
-0.181862
0.00859318
0.00217882
-0.192631
0.0022955
0.0111053
-0.331569
-0.000385904
0.00235485
-0.175304
0.00561347
0.00561606
-0.288451
-9.44813e-05
0.00577433
-0.394798
-0.00068692
-0.166911
0.000450298
0.0141347
-0.257347
-7.87047e-06
0.0177926
-0.312406
-2.42877e-06
0.021261
-0.260249
-5.0975e-05
0.0239636
-0.300543
-0.00033297
0.000199423
-0.361973
-0.00448952
-0.288764
-9.18199e-06
0.0108871
-0.269056
-0.000405601
0.00507967
-0.279067
-0.000279339
0.0293862
-0.260234
-7.44729e-05
0.0308324
-0.273271
-0.00250072
-0.00263663
-0.318204
-0.00523
-0.285902
-0.000800408
-0.00658762
-0.254022
-0.00737807
-0.00172909
-0.246569
-0.00654827
0.0227349
-0.227753
-0.00386675
0.0353242
-0.246301
-0.0105459
0.00842811
-0.274213
-0.0123639
-0.270769
-0.00261213
-0.025648
-0.209322
-0.0160661
-0.00261833
-0.227559
-0.0374474
0.0304338
-0.223012
-0.0312395
0.0447341
-0.212528
-0.0447447
0.00450856
-0.205117
-0.0237399
-0.248317
-0.0147186
-0.0325167
-0.0814084
-0.0896339
0.00251614
-0.112929
-0.143721
0.0713969
-0.136612
-0.149651
0.0710974
-0.10261
-0.105533
-0.0182902
-0.0581578
-0.0527442
-0.0899216
-0.173579
-0.00971882
0.0546372
-0.120385
0.00700202
0.0381969
-0.162728
0.0822267
0.0231273
-0.230918
0.0665189
0.0318408
-0.114887
-0.00784645
0.0661983
-0.0456068
0.0213714
-0.100167
-0.00381593
0.0432589
-0.00555744
0.026527
0.0285211
-0.0102951
0.0332401
0.0281649
0.0090871
0.0390531
0.0194963
-0.0165499
-0.167333
0.094555
0.00269527
-0.140434
0.0633029
0.0045146
-0.132071
0.135333
0.0249743
-0.119455
0.225423
0.0355874
-0.127969
0.159768
-0.0634251
0.122617
0.00223809
-0.0460491
-0.00120499
0.00722532
-0.040604
0.00838408
0.0184511
-0.0421591
0.0129373
0.00506238
-0.0400999
0.0101696
0.00428886
-0.033154
0.00796106
-0.0410156
0.00659101
-0.000192558
-0.00606155
9.43953e-11
-0.0004181
-0.00714559
-3.28775e-09
0.000242554
-0.00751273
-5.54242e-08
0.000440798
-0.00867774
0.000213034
-0.00115969
-0.00542774
0.000257071
-0.00669689
0.000798475
6.61908e-05
-0.000630989
-1.19479e-07
-0.000467238
3.55616e-05
-1.66165e-07
1.54251e-05
-0.00243129
-1.15286e-07
-7.54908e-05
7.68482e-05
-1.00607e-06
-0.000205899
4.80773e-05
-1.53636e-06
-1.89272e-06
-9.38941e-08
-8.17151e-08
6.49372e-06
-3.04845e-09
-0.000350428
5.46914e-09
-1.41786e-09
-5.56666e-07
4.00081e-05
-2.26152e-10
-8.65431e-06
-9.53545e-06
-4.1946e-12
5.77892e-08
-0.000647555
-1.15635e-10
2.02854e-07
-7.09558e-09
-8.86586e-09
-1.35824e-06
-1.91321e-08
-4.63119e-08
-2.37478e-06
-5.35309e-09
-1.09097e-05
-9.44833e-08
-8.81615e-09
-0.000248355
-0.00010506
-2.12862e-10
-6.68394e-09
-0.00551313
-5.81938e-09
-9.13494e-06
-1.28813e-10
2.23508e-06
-0.000408284
-8.39518e-07
5.52026e-07
-0.000278088
-1.66669e-06
-2.00696e-05
-5.38223e-05
-1.15222e-07
-0.00187635
-0.000749482
-1.067e-08
-5.56323e-06
-0.00766508
-3.28123e-07
-0.000811193
-4.06743e-06
9.8375e-05
-0.00788853
1.80504e-06
-8.17042e-06
-0.00671031
-1.08399e-06
-0.000191135
-0.00373403
-1.10332e-06
-0.00159004
-0.00989458
-1.72706e-06
0.000826944
-0.0127031
-1.10965e-05
-0.00257522
-6.61597e-06
-0.000419792
-0.0248832
-2.55635e-05
-0.000324159
-0.0271131
-0.000195072
-0.00250404
-0.0327779
-2.60492e-05
-0.00208966
-0.0425758
-0.000496388
0.00870352
-0.0536137
-0.000860789
-0.0206238
-3.88972e-06
-0.00567681
-0.105845
-0.0173615
-0.00677875
-0.116028
-0.0186264
-0.0147568
-0.0868642
-0.016316
-0.00289414
-0.104319
-0.0209442
0.00646643
-0.0875852
-0.0320405
-0.138278
-0.039018
0.000694436
-0.0226749
-0.203479
-0.000799903
-0.030863
-0.218741
0.00855895
-0.00670761
-0.221167
0.00327075
-0.0418096
-0.148249
-0.0373243
-0.0127567
-0.0725323
-0.0554339
-0.194736
0.009731
-0.0288946
0.0273544
-0.0613107
0.0397826
-0.178578
0.00296563
-0.0234
-0.0147653
0.0382358
-0.105588
-0.00391178
0.00225548
0.0439211
0.00543727
-0.00550986
0.0891692
0.012403
-0.00944089
0.0998425
0.0114898
-0.0100353
0.015436
0.0241794
-0.00808388
0.00310153
0.00573759
0.148866
-7.44946e-05
2.00626e-09
-0.000419142
0.000420909
-4.2445e-09
0.00237683
0.00113502
-4.51263e-07
0.00278038
0.000414135
-0.000213938
0.00103047
0.000118897
-0.000284088
0.00046369
-0.000747224
0.000824155
-6.91559e-10
-2.82591e-09
-2.03723e-09
1.71802e-11
-4.12588e-09
-4.17041e-09
-4.99235e-07
-3.21814e-09
-6.42676e-09
-1.29157e-06
-2.4579e-08
-6.08719e-08
-2.8475e-05
-4.41099e-08
-1.75107e-07
-4.49326e-09
2.26722e-05
1.90461e-10
-6.89561e-11
-1.22427e-07
5.54371e-10
-3.07784e-11
-1.70489e-07
6.06485e-10
-7.83342e-12
-1.18531e-07
7.39154e-09
-2.76295e-12
-1.03758e-06
6.10816e-09
-3.08035e-12
-1.5793e-06
-1.61911e-10
-9.21389e-08
-3.91281e-12
-3.08818e-09
-3.01109e-11
-4.74916e-13
-1.42652e-09
-3.30657e-12
7.22953e-13
-2.05924e-10
-1.76188e-11
4.15067e-13
-6.1359e-12
-4.36256e-12
4.25612e-13
-1.15169e-10
-4.83975e-12
-7.24624e-09
-1.0984e-11
-4.47281e-10
-3.01545e-08
-6.84576e-10
-7.25014e-11
-6.88038e-09
-1.27981e-10
-1.32387e-12
-8.60993e-09
-4.67486e-10
-3.53403e-11
-1.40832e-10
-4.53914e-11
-1.32103e-09
-4.60188e-09
-4.7149e-11
-8.29857e-09
-5.6424e-10
-1.15272e-08
-1.95909e-06
6.42515e-09
2.91077e-09
-1.69317e-06
-3.28532e-09
-1.35869e-11
-1.19351e-07
-2.01598e-09
-1.52073e-09
-9.23219e-09
-5.99098e-11
-2.73866e-07
-5.85687e-08
-1.98708e-09
-4.28736e-06
-7.96357e-08
1.51916e-06
-1.99403e-06
1.05977e-07
1.09467e-07
-1.32087e-06
6.12927e-08
9.90393e-08
-1.23932e-06
3.6566e-08
-2.75632e-08
-1.60801e-06
-8.05309e-10
-6.21061e-06
-4.93178e-06
-4.51623e-08
-1.71619e-05
3.64086e-07
9.30352e-07
-2.94621e-05
9.71216e-07
-3.37257e-06
-0.000192669
5.21777e-07
-3.29349e-06
-2.91512e-05
1.4321e-06
-3.18754e-06
-0.000495788
-2.2032e-06
4.26167e-06
-0.000863276
-9.64705e-06
-1.66987e-05
3.73854e-07
1.09286e-06
-0.0169978
-0.000374532
-8.13842e-05
-0.0183419
-0.000375845
-0.000481507
-0.0157319
-0.000215044
-0.000283846
-0.020497
-0.00112602
0.000162228
-0.0311504
-0.00218624
-0.0386797
-0.00016572
0.00281094
-0.137022
-0.0449226
0.000841067
-0.135587
-0.0358105
-0.00879087
-0.112664
-0.0272201
-0.00234909
-0.0699879
-0.0774446
0.00631212
-0.0171663
-0.0947823
-0.116488
-0.0620533
0.0282247
-0.154047
0.0398822
-0.168461
-0.0145787
-0.196536
-0.00313758
-0.166549
0.00326998
0.00415513
-0.180091
-0.00284506
0.00120617
0.144331
-0.00238955
-0.00206269
0.15013
-0.00266254
-0.00241118
0.156601
0.000824482
-0.000785112
0.0460785
0.0159446
-0.000519441
0.0343836
0.00447194
0.187691
5.57053e-05
-1.71323e-07
0.000386776
4.58129e-05
-4.2632e-07
0.00032447
3.88931e-05
-2.97596e-07
0.000376442
3.39844e-06
-1.30055e-06
0.000282152
-0.000212917
-1.81841e-06
0.000162316
-2.2712e-05
0.000832403
3.20503e-10
-1.62927e-07
-3.85263e-08
-3.62936e-09
-2.85751e-07
-1.40839e-07
-1.09669e-08
-1.66478e-07
-1.30687e-07
-3.30605e-08
-1.32278e-06
-1.68202e-08
-3.25732e-07
-1.87485e-06
-2.15962e-08
-3.44323e-07
-6.00092e-08
2.62602e-10
-9.09015e-10
-2.89527e-07
-9.64038e-10
-6.79313e-11
-8.04944e-07
-2.51838e-08
-5.67995e-10
-2.8516e-07
-1.04637e-07
-1.06697e-10
-3.20353e-06
-3.64294e-08
-3.44577e-11
-6.32575e-06
-9.01399e-11
-4.72796e-07
-8.40808e-14
-9.1407e-10
-1.3627e-11
-2.93387e-13
-4.88755e-11
-1.08076e-11
-2.40063e-13
-5.62264e-10
-1.20575e-11
-3.28006e-13
-1.02057e-10
-8.38965e-12
-1.03081e-13
-2.0266e-11
-2.05649e-11
-9.29231e-11
-6.63458e-12
-1.18952e-12
-2.20069e-09
-6.2667e-10
1.7496e-12
2.52491e-10
-4.0513e-10
3.07948e-11
-7.83282e-10
-4.79087e-10
-2.60016e-14
-7.71446e-11
-3.29918e-10
-9.36423e-12
-1.05502e-11
-5.77937e-11
1.4275e-09
-3.09326e-10
-1.26775e-11
-2.66218e-08
-1.11134e-09
2.86057e-10
-2.82151e-08
-2.22392e-10
1.09984e-09
-2.26961e-09
-2.9574e-10
1.94673e-11
8.11288e-11
-1.05569e-10
-2.21286e-09
2.85202e-10
-4.06829e-11
-1.14333e-07
-9.49927e-10
1.70537e-08
6.24158e-08
5.71169e-11
2.07367e-08
2.71958e-08
5.61978e-11
2.56527e-08
2.85223e-08
3.43739e-11
6.58627e-10
2.41232e-08
-1.29382e-11
-1.46697e-07
1.02526e-07
-5.28326e-11
1.02486e-07
1.83812e-10
5.47774e-10
1.03274e-06
1.29313e-11
2.70277e-09
5.46827e-07
-8.96815e-15
1.18454e-07
1.33958e-06
4.69331e-09
1.58995e-07
-2.21996e-06
-1.90044e-13
1.546e-07
-9.53394e-06
-3.69335e-12
6.26872e-07
4.17162e-09
-2.54199e-06
-0.000370959
9.36218e-12
-1.28528e-06
-0.000372474
-4.12126e-06
-5.40786e-06
-0.000206739
-3.19684e-06
9.47167e-06
-0.00112584
-1.41209e-05
3.26814e-05
-0.00218264
-3.14772e-05
-0.000127578
-4.40232e-06
-9.57066e-05
-0.0339602
-0.00206442
-0.000391764
-0.0315217
-0.00145814
-0.00268206
-0.0260733
-0.000924946
-0.00834407
-0.0417077
-0.00682765
0.00704507
-0.0898549
-0.0139356
-0.0531039
-0.00200491
-0.00528268
-0.0956322
-0.0197084
-0.0945824
-0.0480316
-0.0946145
-0.046697
-0.122276
0.0310332
-0.0775612
-0.114156
-3.5027e-05
0.000916685
-0.000755221
2.01792e-06
0.00091392
-0.000757222
1.22819e-05
0.00091606
-0.000754698
-4.42882e-06
0.000914319
-0.000754081
1.05796e-05
0.000914273
-0.000756281
0.000916394
-0.000754691
-2.42662e-06
0.00100514
-6.02408e-05
-8.14307e-07
0.000998827
-6.05366e-05
8.11751e-07
0.00100053
-6.02137e-05
-3.25867e-08
0.00100149
-6.01304e-05
1.49168e-07
0.00100032
-6.04102e-05
0.00100243
-6.0169e-05
-3.18702e-07
-1.39735e-05
-5.51978e-08
-1.38612e-05
-1.47929e-08
-1.39192e-05
-4.20666e-08
-1.39164e-05
7.88457e-08
-1.38889e-05
-1.39457e-05
-3.60569e-07
6.22989e-05
-5.37538e-05
5.56283e-08
6.2631e-05
-5.64596e-05
3.2983e-08
6.22737e-05
-5.48351e-05
-1.33929e-07
6.21853e-05
-5.47423e-05
1.24022e-07
6.24851e-05
-5.53971e-05
6.22183e-05
-5.4092e-05
-1.24026e-08
3.75777e-06
-1.0015e-06
-2.80121e-09
3.75243e-06
-9.94116e-07
-3.48702e-09
3.74221e-06
-9.98619e-07
-2.97609e-09
3.73527e-06
-9.9817e-07
3.70553e-09
3.74396e-06
-9.96198e-07
3.73801e-06
-1.00019e-06
-1.32124e-07
2.02962e-07
-2.12767e-08
2.04838e-07
-3.38966e-08
2.03761e-07
-2.80622e-08
2.03625e-07
4.58278e-08
2.03869e-07
2.02968e-07
-1.28686e-09
-2.44556e-07
-9.77871e-07
5.00079e-10
-2.45631e-07
-9.75318e-07
3.05685e-11
-2.45537e-07
-9.78061e-07
-1.51092e-10
-2.45796e-07
-9.80916e-07
-1.31245e-10
-2.4614e-07
-9.85961e-07
-2.45243e-07
-9.72802e-07
-5.23911e-10
-5.17878e-07
-1.97534e-07
-5.03507e-11
-5.1924e-07
-1.97393e-07
-1.38403e-10
-5.18711e-07
-1.9829e-07
-9.32683e-11
-5.18667e-07
-1.97478e-07
1.51034e-10
-5.1896e-07
-1.96751e-07
-5.17909e-07
-1.98755e-07
-8.36626e-11
-5.01579e-36
-4.03604e-12
-5.03384e-36
-2.29743e-11
-5.00721e-36
2.11254e-12
-4.90767e-36
3.58025e-11
-4.84985e-36
-4.9796e-36
-1.16531e-09
-4.82172e-07
-3.89593e-07
3.37016e-10
-4.75781e-07
-3.96678e-07
1.03523e-09
-4.79704e-07
-3.94197e-07
1.70227e-10
-4.8223e-07
-3.93325e-07
-8.04852e-10
-4.83367e-07
-3.97985e-07
-4.78431e-07
-3.89483e-07
-1.48201e-10
-1.61124e-34
8.6423e-09
6.58315e-11
-1.58146e-34
9.62169e-09
8.64628e-11
-1.59726e-34
9.3989e-09
6.03047e-11
-1.56749e-34
8.89836e-09
-1.84285e-10
-1.54198e-34
8.64357e-09
-1.58152e-34
9.53101e-09
2.45472e-40
-2.88727e-82
5.26195e-40
-3.67531e-82
8.58631e-40
-3.48357e-82
7.35451e-40
-2.79869e-82
-6.35144e-40
-2.72555e-82
-3.54295e-82
-4.83168e-09
-3.00091e-07
-7.76748e-07
1.00555e-09
-2.799e-07
-5.22799e-07
4.40473e-09
-2.86628e-07
-6.17599e-07
9.10307e-10
-2.97058e-07
-7.06213e-07
-4.73251e-09
-3.03366e-07
-8.16629e-07
-2.8229e-07
-5.63206e-07
-5.06865e-10
-2.06732e-79
-2.03547e-07
1.43796e-10
-2.619e-79
-1.61548e-07
3.5518e-10
-2.48925e-79
-1.73784e-07
1.18556e-10
-2.00052e-79
-1.93708e-07
-5.9067e-10
-1.95119e-79
-2.13898e-07
-2.5265e-79
-1.63148e-07
-3.96692e-84
-4.64133e-92
1.40055e-84
-4.33705e-92
2.77121e-84
-5.10106e-92
1.06363e-84
-4.04198e-92
-5.2331e-84
-7.62688e-92
-4.21686e-92
-3.00911e-08
-3.14527e-06
2.79379e-07
5.00215e-09
-2.61838e-06
7.4773e-07
2.29924e-08
-2.82274e-06
5.78242e-07
6.67803e-09
-3.02921e-06
4.10857e-07
-3.04927e-08
-3.28065e-06
2.35807e-07
-2.63514e-06
6.61025e-07
-8.31362e-08
-1.63344e-88
1.87232e-06
1.63427e-08
-1.32833e-88
2.64681e-06
5.89872e-08
-1.64113e-88
2.38218e-06
1.257e-08
-1.364e-88
2.03391e-06
-7.75027e-08
-2.69022e-88
1.77423e-06
-1.30747e-88
2.60714e-06
-8.2403e-93
1.43974e-89
1.87922e-93
1.52539e-89
4.96257e-93
1.72348e-89
2.15128e-93
1.2709e-89
-1.09077e-92
2.27734e-89
1.45567e-89
4.03371e-09
-3.87282e-06
-3.66184e-06
-3.48854e-09
-4.51054e-06
-3.14645e-06
-1.45547e-08
-4.30687e-06
-3.23248e-06
2.30674e-09
-4.03299e-06
-3.6472e-06
2.06261e-08
-3.68742e-06
-3.99802e-06
-4.53287e-06
-2.96276e-06
-3.73254e-07
7.91145e-07
-2.47751e-06
4.40017e-08
1.17883e-06
-3.18105e-06
2.12738e-07
1.03233e-06
-2.97005e-06
4.57646e-08
8.80351e-07
-2.73861e-06
-2.65097e-07
7.34519e-07
-2.44247e-06
1.15395e-06
-3.10838e-06
-9.72628e-09
2.12346e-06
1.44397e-09
3.48983e-06
5.7172e-09
2.98667e-06
1.13051e-09
2.38135e-06
-9.18965e-09
1.98881e-06
3.37266e-06
7.23794e-07
3.39768e-05
-3.42904e-05
-1.27193e-07
4.51833e-05
-4.26042e-05
-7.17666e-07
4.13924e-05
-3.96179e-05
-1.3107e-07
3.69627e-05
-3.72969e-05
8.68105e-07
3.23155e-05
-3.34618e-05
4.42647e-05
-4.18821e-05
1.67662e-06
0.000244663
-0.000580484
-9.06303e-07
0.00029887
-0.000560227
-2.92221e-06
0.000280183
-0.000544905
-3.01333e-07
0.00025745
-0.00054212
4.08147e-06
0.000233267
-0.000601075
0.000297548
-0.000559272
-9.44114e-07
-4.45087e-05
-1.43638e-08
-6.73353e-05
3.3129e-07
-5.88512e-05
4.8925e-08
-4.80528e-05
-3.30607e-07
-4.24284e-05
-6.4556e-05
5.02734e-06
0.00154416
-0.00396532
-9.53471e-07
0.00159025
-0.00439038
-2.1938e-06
0.00154341
-0.00423366
-1.32565e-06
0.00153792
-0.00406873
2.10385e-06
0.00153476
-0.00392547
0.00157142
-0.00432073
3.46027e-05
0.0016881
-0.00134444
-6.59914e-06
0.00179489
-0.00140311
-2.35511e-05
0.00175188
-0.00138397
-5.81456e-06
0.00170373
-0.0013535
3.39328e-05
0.00167893
-0.00134865
0.00177548
-0.00139545
2.56221e-05
-0.000293094
-6.77419e-06
-0.000339402
-2.16834e-05
-0.000322791
-4.74631e-06
-0.000307052
3.17899e-05
-0.000293636
-0.000327161
2.46099e-05
-0.000491301
-0.000389846
-6.68906e-06
-0.000475769
-0.000487397
-8.10788e-06
-0.000481773
-0.000452587
-2.72766e-06
-0.000485515
-0.000413026
9.94452e-06
-0.00048965
-0.000372178
-0.000479259
-0.000480575
1.47183e-05
0.000102554
-2.22779e-09
-2.19251e-06
7.50548e-05
-2.22419e-09
-7.39104e-06
8.42364e-05
-2.22462e-09
-2.60495e-06
9.51532e-05
-2.2328e-09
8.71336e-06
0.000106896
-2.21407e-09
7.90852e-05
-2.19663e-09
2.49407e-05
-1.33e-08
-4.23101e-06
-1.32588e-08
-1.46943e-05
-1.32571e-08
-3.83266e-06
-1.34548e-08
1.94973e-05
-1.37294e-08
-1.29244e-08
1.52607e-05
-2.81155e-10
-0.0222565
-6.22828e-07
-2.51082e-10
-0.0225783
-6.05987e-06
-2.55974e-10
-0.0224638
-5.49496e-07
-2.97523e-10
-0.0223573
9.65502e-06
-4.10034e-10
-0.0222494
-2.46777e-10
-0.0224622
5.19955e-13
-6.10541e-10
-1.73616e-09
2.64855e-13
-6.1002e-10
-1.70223e-09
3.64264e-13
-6.08707e-10
-1.70922e-09
8.6474e-14
-6.19403e-10
-1.74763e-09
-8.79299e-13
-6.3343e-10
-1.79469e-09
-5.92304e-10
-1.65697e-09
2.64812e-13
-1.39108e-08
3.51455e-13
-1.38689e-08
1.27379e-12
-1.38667e-08
3.92842e-13
-1.40734e-08
-2.44552e-12
-1.436e-08
-1.35192e-08
0.000111369
-1.20675e-07
-0.0469948
8.12139e-06
-1.18375e-07
-0.047035
-1.67788e-05
-1.19065e-07
-0.046977
-2.05957e-06
-1.21211e-07
-0.0470656
0.000154909
-1.24544e-07
-0.0470512
-1.15439e-07
-0.0469273
-3.23437e-12
-1.22408e-07
7.26108e-16
1.45399e-12
-1.20082e-07
5.99132e-16
2.71385e-12
-1.20775e-07
1.61552e-15
6.75375e-13
-1.22957e-07
2.01836e-15
-1.0537e-12
-1.26337e-07
6.80686e-15
-1.17097e-07
2.43413e-16
-8.70359e-11
4.57183e-26
3.03185e-11
5.65506e-26
5.80693e-11
6.07211e-26
2.11721e-11
7.19167e-26
-1.30386e-10
8.33003e-26
6.48766e-26
-0.000587388
9.20191e-16
-0.0476559
0.078567
-0.000381455
7.13936e-16
-0.0476055
0.0785869
-0.000418267
2.43565e-18
-0.0474383
0.0779698
-0.000347836
1.42515e-19
-0.0482156
0.0745153
0.000397281
2.68356e-17
-0.0484698
0.0738127
7.80411e-17
-0.0476415
0.075151
-2.54808e-18
8.83745e-26
2.62073e-16
-1.72985e-16
-3.00045e-18
-9.78964e-26
2.02785e-16
-1.36154e-16
-2.92567e-20
-1.10389e-22
6.17448e-19
-4.99696e-19
-3.6139e-21
-5.31098e-20
3.14756e-19
-5.99432e-20
6.02282e-19
-4.41496e-17
7.26965e-17
-1.16269e-17
9.53845e-27
4.92877e-17
-3.13072e-17
-6.93823e-28
5.58797e-26
-2.40142e-26
-3.89146e-24
3.09245e-26
3.76174e-24
-4.37663e-21
9.5932e-26
4.26207e-21
-2.37183e-18
4.16177e-26
2.31434e-18
1.09376e-28
3.80548e-26
1.46254e-17
3.68389e-26
-3.40123e-27
-1.93314e-05
9.70617e-16
-0.0232978
-0.000100343
7.25295e-16
-0.0232424
-8.84026e-05
2.10949e-18
-0.023175
1.33121e-05
7.6822e-19
-0.0236195
-0.000124254
1.77462e-16
-0.0235598
1.15886e-16
-0.0233516
-1.98375e-17
8.57595e-26
-2.78777e-16
-2.42391e-17
4.77308e-26
-2.05899e-16
-9.15184e-20
1.52056e-25
-5.6779e-19
-1.31894e-20
6.56482e-26
-2.19282e-19
-5.82061e-18
6.34424e-26
-4.92578e-17
6.16501e-26
-2.96269e-17
3.12752e-28
2.96346e-26
2.72852e-27
2.77496e-26
2.50731e-27
2.93495e-26
1.71609e-27
2.37676e-26
1.53104e-28
4.24068e-26
1.51642e-26
-1.82413e-05
1.5262e-15
0.000830832
-6.86583e-05
1.23735e-15
0.000857991
-7.08505e-05
2.23876e-15
0.000871571
-4.78495e-05
4.70568e-18
0.000887482
8.21323e-05
1.42794e-14
0.00088323
5.54133e-16
0.000936282
-1.23764e-17
9.34944e-26
-2.67966e-15
-2.16202e-17
8.779e-26
-2.17743e-15
-3.97718e-17
9.47674e-26
-3.93222e-15
-1.21151e-19
8.28637e-26
-8.06475e-18
-3.40865e-16
1.56401e-25
-2.4444e-14
5.49005e-26
-9.6145e-16
5.47709e-28
-8.68893e-27
1.054e-27
-8.24362e-27
1.18294e-27
-9.16534e-27
2.16284e-27
-8.63759e-27
3.98856e-28
-1.7051e-26
-6.04627e-27
4.92062e-06
5.10555e-16
0.0215323
-7.62413e-05
4.13744e-16
0.0216928
-0.000197293
7.69053e-16
0.0217504
-2.70432e-06
7.0435e-17
0.0214632
0.000198781
4.83703e-15
0.0213739
1.77697e-16
0.0217461
-1.79718e-18
1.26718e-25
-2.16121e-15
-3.97208e-18
1.48092e-25
-1.76211e-15
-6.31614e-18
1.61832e-25
-3.28952e-15
-6.45452e-19
1.5525e-25
-2.94613e-16
-1.17451e-16
1.70744e-25
-2.02038e-14
1.16191e-25
-7.65477e-16
3.84267e-28
-6.70721e-26
5.82219e-28
-7.85771e-26
5.20994e-28
-8.62865e-26
7.19404e-28
-8.20461e-26
3.486e-28
-8.99581e-26
-6.27787e-26
-2.70116e-05
3.69006e-16
0.0306465
-7.61758e-05
3.02991e-16
0.0307609
-0.000150228
6.49644e-16
0.0308007
-8.92083e-06
3.79267e-16
0.0308061
0.000173903
3.50748e-15
0.0308847
1.27189e-16
0.0307392
-5.0602e-19
9.61844e-26
-1.3559e-15
-6.93779e-19
1.16028e-25
-1.10996e-15
1.31409e-19
1.25904e-25
-2.38347e-15
-3.43071e-19
1.33159e-25
-1.38096e-15
-2.76274e-17
1.47953e-25
-1.27374e-14
1.09566e-25
-4.68417e-16
8.41739e-29
-7.34346e-26
1.00389e-28
-8.85952e-26
1.97771e-29
-9.63529e-26
1.66347e-28
-1.01258e-25
2.37144e-28
-1.12095e-25
-8.4376e-26
1.70412e-05
3.55392e-16
-3.40191e-05
2.93472e-16
-9.61577e-05
7.90202e-16
1.12912e-06
9.90715e-16
0.000123013
3.34287e-15
1.18951e-16
-4.86005e-20
9.15138e-26
-1.20694e-19
1.13401e-25
-1.18064e-19
1.21488e-25
-1.27756e-19
1.44313e-25
-5.21517e-18
1.67263e-25
1.29518e-25
2.4979e-29
2.79799e-30
-7.01533e-29
3.52712e-29
1.83197e-28
-0.00706894
0.172867
-0.000234628
-0.0110328
0.176131
-0.000349844
-0.00978345
0.178294
-0.000509278
-0.000873375
0.103141
-0.000254228
0.00585657
0.0716454
-0.000267031
0.212122
-3.61004e-05
-0.00837418
0.202443
-2.20019e-06
-0.0164904
0.205619
-0.000111276
-0.015996
0.199881
-0.000183372
-0.00305156
0.101497
-3.23441e-05
0.00643238
0.0716824
-5.15238e-05
0.236426
-0.00053131
-0.00730763
-2.37041e-05
-0.023817
-2.11812e-05
-0.0195765
-3.23822e-05
-0.00277518
-6.95727e-06
0.00616322
-1.12417e-05
-9.6635e-05
4.31008e-06
0.000112926
-6.55947e-06
5.77483e-06
0.000107267
-7.29743e-06
-3.10978e-08
0.000195929
-1.21589e-05
-4.03058e-06
3.45475e-05
-2.58078e-06
-0.000142168
3.76372e-05
-4.47684e-06
0.000555418
-1.34361e-05
5.52148e-07
2.65112e-05
-2.33592e-05
-5.52292e-07
2.45136e-05
-2.4226e-05
-5.50385e-08
3.20442e-05
-1.67186e-05
-2.041e-06
8.18982e-06
-2.21831e-06
-2.46808e-05
1.12563e-05
-1.06433e-06
4.7607e-05
-4.74317e-05
-1.38613e-08
-3.04404e-06
-7.42118e-07