/*--------------------------------*- C++ -*----------------------------------*\
| =========                 |                                                 |
| \\      /  F ield         | OpenFOAM: The Open Source CFD Toolbox           |
|  \\    /   O peration     | Version:  v1612+                                |
|   \\  /    A nd           | Web:      www.OpenFOAM.com                      |
|    \\/     M anipulation  |                                                 |
\*---------------------------------------------------------------------------*/
FoamFile
{
    version     2.0;
    format      ascii;
    class       volScalarField;
    location    "5.9";
    object      p_rgh;
}
// * * * * * * * * * * * * * * * * * * * * * * * * * * * * * * * * * * * * * //

dimensions      [1 -1 -2 0 0 0 0];

internalField   nonuniform List<scalar> 
1116
(
25755.2
25755.2
25755.2
25755.2
25755.2
25755.1
26191.5
26191.6
26191.5
26191.5
26191.5
26191.5
23573.8
23573.8
23573.8
23573.8
23573.8
23573.7
20548.5
20548.5
20548.4
20548.3
20548.3
20548.4
18115.1
18115.3
18115.2
18115.2
18115.3
18115.1
16007.2
16007.4
16007.3
16007.3
16007.3
16007.3
14498.5
14498.6
14498.5
14498.6
14498.6
14498.6
13381.7
13381.9
13382.1
13381.6
13382.1
13381.7
12750.8
12752.3
12752.4
12750.3
12750.2
12752.6
12921
12926.8
12925.5
12920.4
12916.8
12927.9
14095.5
14095.2
14095
14095.7
14096
14093.7
13699
13695.1
13694.6
13700.6
13704.7
13692.4
23114.4
23114.1
23114.2
23114.2
23114.6
23114.4
26362.1
26364.7
26363.5
26362.7
26364.1
26362.6
21050.2
21052.3
21051.6
21051
21051.7
21050.5
17223.3
17225.8
17224.9
17224.4
17225.3
17223.7
14483.2
14485.6
14484.9
14484
14484.9
14483.5
10510.6
10512.1
10511.8
10510.8
10511.2
10511.3
7827.11
7828.27
7828.12
7826.93
7827.44
7827.77
6227.31
6227.73
6228.23
6226.7
6229.07
6225.77
5977.09
5982.38
5980.43
5976.96
5970.58
5986.33
7000.27
7022.62
7014.96
7003.37
6978.97
7039.55
9041.39
9007.77
9011.54
9042.7
9065.15
8987.2
7179.75
7159.51
7159.01
7180.08
7199.7
7144.48
15503
15496.5
15499.4
15500
15498.8
15501
8838.76
8852.09
8842.21
8838.95
8848.58
8841.09
2084.48
2085.36
2084.97
2084.62
2085.06
2084.54
844.075
844.659
844.466
844.11
844.221
844.227
29.4146
29.5076
29.4607
29.3619
29.3664
29.4607
-0.968774
-1.14243
-1.08686
-0.977697
-0.937621
-1.06043
-24.0149
-24.1652
-24.0861
-24.035
-23.9744
-24.0687
-9.77252
-9.77603
-9.73285
-9.78826
-9.75508
-9.75411
168.513
168.463
168.431
168.57
168.929
168.134
488.831
493.324
491.437
489.654
484.434
495.873
1360.85
1350.2
1348.37
1360.91
1344.11
1351.43
1517.84
1513.3
1514.4
1514.23
1515.68
1507.82
6562.49
6541.4
6552.79
6556.58
6547.12
6556.82
-53.1189
-53.2689
-53.1319
-53.1128
-53.2645
-53.1624
39.2841
39.7226
39.5412
39.3829
39.533
39.3496
-1.29219
-1.21649
-1.23374
-1.27823
-1.27776
-1.30207
9.16714
9.1743
9.16905
9.17072
9.16723
9.17462
6.14198
6.10089
6.11132
6.15882
6.18834
6.12378
-26.1476
-26.379
-26.2789
-26.2012
-26.1005
-26.2656
-70.7253
-70.7303
-70.7277
-70.7604
-70.7495
-70.6884
5.94199
6.24208
6.13218
5.96256
5.94343
6.25595
327.645
339.095
334.583
330.686
326.483
337.329
1739.14
1746.02
1743.77
1741.84
1740.71
1742.47
1743.77
1741.04
1742.33
1743.69
1745.25
1740.6
3923.49
3872.09
3800.05
4075.63
4263.58
3860.97
2996.54
3010.23
2984.96
2899.15
2774.36
2636.1
1648.91
1679.92
1718.79
1718.11
1708.43
1639.02
695.036
777.526
767.986
907.041
1125.45
933.024
487.083
729.693
486.483
758.616
938.341
604.81
839.347
866.487
817.463
880.313
924.351
795.342
882.351
866.227
888.795
890.641
946.916
925.617
853.276
798.015
792.792
858.105
967.797
915.498
1208.99
1168.08
1143.1
1292.56
1373.55
1296.88
2322.38
2377.5
2321.77
2239.86
2201.47
2344.29
2287.99
2296.18
2319.17
2144.5
2096.73
1902.27
1751.63
1763.23
1792.96
1725.24
1974.38
1758.13
2644.94
2507.08
2551.39
2885.08
2799.93
2524.12
640.634
606.363
730.095
531.95
380.108
706.196
102.945
112.323
116.398
116.966
106.514
117.609
22.9507
12.7193
29.9714
11.2913
0.624076
7.94877
-15.8642
-20.9493
-10.3044
-14.9827
-13.4483
-15.5234
-11.7009
-6.85292
-14.9466
-6.80042
-2.8155
-4.82286
9.10836
8.3538
8.12113
5.01652
43.5334
10.888
17.0946
13.665
12.7522
12.0599
62.6328
18.9505
109.402
68.1702
50.1406
115.878
239.755
111.699
778.022
918.502
745.126
934.464
763.095
663.657
1460.21
1729.18
1714.07
1608.68
1044.26
1550.81
1077.64
1065.87
1937.43
1256.91
877.298
1685.45
721.526
866.316
1243.04
1195.58
999.971
1370.06
36.7178
46.3195
50.1643
48.8812
45.9176
77.4237
46.8925
42.0784
38.8562
38.2113
35.0164
37.6555
36.41
34.9528
33.9098
31.4085
29.01
29.665
24.5745
23.6841
23.7115
23.0986
21.9601
24.8926
12.9367
13.2332
13.0752
14.0875
14.9947
16.4333
13.0597
12.8462
12.5494
12.4646
11.5853
14.1864
10.6573
10.3937
10.4427
9.89805
7.95047
10.2757
2.25629
2.85255
3.33103
3.48417
2.99656
2.02649
2.55458
5.19468
7.72893
14.2741
15.1159
11.6327
575.523
499.921
476.119
539.058
521.49
1811.22
3319.58
3277.4
3176.8
2524.71
738.957
2864.19
831.65
1070.65
1149.21
351.345
256.875
1442.66
20.3394
15.309
10.2889
10.0472
4.7501
19.7395
26.1998
22.8814
20.9011
20.702
19.4722
20.5111
7.68355
6.71442
6.42653
5.7608
5.24391
5.9584
7.00918
6.93752
6.90863
7.17275
7.41121
7.49406
3.99023
4.07472
3.69482
4.3215
4.41377
4.63844
6.5311
6.79498
5.9666
5.73966
5.67308
7.143
6.13609
6.12551
5.59183
4.591
4.27003
5.5634
1.74975
2.0312
1.91965
-0.1775
-1.46851
-2.46259
-3.39585
-2.58386
-2.6387
-2.95966
-2.993
-4.90559
117.907
83.459
43.4609
381.783
798.01
1.68669
3002.95
2953.91
2786.58
2973.05
3221.46
3111.04
160.53
157.122
158.367
158.933
157.993
159.394
21.484
21.4298
21.4588
21.4661
21.4537
21.4845
-12.3978
-12.4192
-12.4108
-12.4041
-12.4098
-12.3991
26.6969
26.2646
26.4937
26.6298
26.4319
26.6223
-21.6684
-21.7042
-21.6909
-21.667
-21.673
-21.6539
-22.5866
-22.5809
-22.5824
-22.5743
-22.572
-22.5713
20.7436
20.7543
20.7469
20.7454
20.7376
20.7407
-2.4409
-2.42945
-2.43761
-2.4303
-2.42886
-2.4277
-3.8921
-3.89266
-3.89308
-3.89188
-3.89312
-3.89226
4.69522
4.72498
4.7126
4.70048
4.69439
4.69673
-0.0542325
-0.0398199
-0.0479596
-0.0480769
-0.0543344
-0.0435029
-5.54955
-5.53871
-5.54293
-5.54227
-5.54073
-5.53883
8.23813
8.30835
8.27525
8.25821
8.23654
8.28499
7.0504
7.10692
7.08009
7.06438
7.03985
7.09486
-0.750359
-0.735869
-0.742444
-0.746491
-0.753921
-0.738216
6.91269
7.0004
6.95934
6.95404
6.92698
6.98781
17.2512
17.4851
17.3861
17.3172
17.2402
17.427
1.02198
1.07131
1.04711
1.04076
1.01651
1.06958
-4.2982
-4.39282
-4.3546
-4.29551
-4.22253
-4.38597
29.5002
29.7372
29.6386
29.602
29.551
29.6513
3.74107
4.01141
3.88498
3.84001
3.74418
3.94091
-14.4596
-14.6122
-14.5325
-14.4845
-14.4048
-14.6051
33.0559
34.2209
33.8692
33.3841
32.8118
34.2713
13.2813
13.7076
13.5234
13.4337
13.296
13.6741
-13.4451
-11.8405
-12.2682
-13.1097
-13.8058
-11.7633
10.3736
10.5997
10.4279
9.95502
10.329
10.7044
13.4589
14.8337
14.4106
13.6209
13.1911
14.7922
6.20765
8.96818
8.27436
6.39208
5.32283
9.35791
-44.8302
-45.3722
-44.8833
-44.9872
-45.0615
-45.0634
-10.2827
-10.3776
-10.2817
-10.372
-10.3647
-10.2654
18.7318
18.6468
18.7405
18.7785
18.8755
18.7326
-25.5987
-25.4415
-25.4855
-25.5621
-25.6479
-25.4663
-27.5575
-27.5399
-27.5437
-27.6059
-27.6825
-27.4924
1491.03
1471.55
1479.36
1485.76
1496.62
1467.68
-9.74102
-9.76229
-9.76202
-9.72635
-9.70155
-9.77219
-16.9932
-16.9617
-16.9804
-16.9775
-16.9957
-16.9641
5238.08
5234.91
5240.93
5291.53
5292.8
5281.23
4.46197
4.49359
4.52696
4.57897
4.40573
4.52975
-7.71405
-7.66338
-7.42895
-6.89167
-6.69058
-6.67471
5365.95
5372.89
5374.59
5364.68
5363.57
5366.7
2.0775
2.028
1.94705
1.75753
1.68601
1.68353
-4.95305
-4.91485
-4.83604
-4.68266
-4.58074
-4.58875
5383.54
5390.73
5393.23
5379.75
5378.63
5383.34
1.69888
1.69098
1.6841
1.68485
1.65692
1.66189
-3.75306
-3.73377
-3.69287
-3.63505
-3.59017
-3.57295
5455.36
5456.43
5456.73
5455.44
5454
5455.69
-0.185338
-0.192851
-0.203389
-0.214094
-0.223732
-0.237309
-3.75987
-3.75031
-3.73404
-3.71664
-3.69849
-3.68781
5185.18
5196.38
5199.4
5192.22
5192.28
5198.83
-1.76211
-1.77179
-1.77891
-1.77325
-1.77904
-1.79276
-5.67884
-5.67757
-5.67213
-5.66691
-5.65996
-5.64988
4637.38
4642.81
4644.51
4641.59
4641.71
4642.04
-3.69686
-3.71603
-3.71618
-3.69817
-3.69644
-3.72372
-10.4772
-10.4821
-10.4791
-10.4772
-10.474
-10.469
1520.62
1533.46
1520.61
668.594
471.349
1802.97
1699.05
1703.96
1705.64
907.085
561.494
2089.88
1328.43
1391.15
1205.98
405.878
248.361
1360.18
-11.0169
-12.9998
-16.5507
-13.5197
-12.9873
-2.39692
-37.1507
-37.9182
-36.4713
-35.937
-33.4277
-24.3392
-43.5646
-43.4172
-41.752
-39.5507
-39.2345
-38.0449
16.5447
13.7799
13.0317
10.8669
12.3997
17.2516
-6.91036
-8.52673
-5.43646
-5.14487
-3.76047
0.122217
-5.32082
-4.71663
-3.18853
-2.3251
-2.49123
-0.802899
1.98665
1.24754
0.758148
-0.22109
-0.467902
1.35357
-11.3348
-11.4974
-10.8078
-10.4055
-10.5151
-9.86285
-14.0005
-13.94
-13.4304
-13.2497
-13.2437
-12.4101
8.60716
8.50673
8.47785
8.32752
8.42017
8.64235
1.80877
1.80343
1.90965
2.02327
2.13753
2.26962
-2.52376
-2.49779
-2.40191
-2.26103
-2.25615
-2.22389
5.32031
5.35758
5.35253
5.35212
5.45933
5.68452
1.19917
1.2061
1.20484
1.22203
1.2364
1.3123
-1.3827
-1.3828
-1.38124
-1.3781
-1.3694
-1.35637
6.61504
6.77089
6.6507
6.49399
6.52749
6.84677
2.82337
2.83208
2.74812
2.67994
2.62383
2.73785
0.212554
0.215589
0.219061
0.21428
0.221847
0.241941
5.94354
6.0154
6.26884
5.8637
5.82745
6.14952
1.95602
1.92918
1.85083
1.71939
1.60084
1.68863
0.383305
0.370803
0.375817
0.342819
0.341681
0.363209
1.59097
1.45089
1.73658
1.45838
1.5078
1.6574
0.359086
0.275603
0.157191
0.00472639
-0.146092
-0.239157
0.660454
0.659405
0.703702
0.706104
0.725226
0.769048
1.139
1.17445
1.87669
1.53611
1.73834
1.89315
-0.905658
-1.08436
-1.35061
-1.50984
-1.65331
-1.81173
0.120544
0.0797197
0.179294
0.14113
0.14579
0.202726
-9.84309
-10.1258
-10.1107
-11.6541
-9.95213
-8.66026
-2.91341
-3.00898
-3.11198
-3.72794
-3.49943
-3.31592
-2.51454
-2.52777
-2.46165
-2.33586
-2.28049
-2.20056
286.796
288.531
321.874
728.158
1234.73
531.955
9.19781
8.7212
7.97603
6.25694
5.18697
6.50636
-7.36865
-7.46072
-7.33779
-7.68669
-7.64654
-7.30189
)
;

boundaryField
{
    seabed_topleft_surface
    {
        type            fixedFluxPressure;
        gradient        uniform 0;
        value           nonuniform List<scalar> 
72
(
25755.2
25755.2
25755.2
25755.2
25755.2
25755.1
26191.5
26191.6
26191.5
26191.5
26191.5
26191.5
23573.8
23573.8
23573.8
23573.8
23573.8
23573.7
20548.5
20548.5
20548.4
20548.3
20548.3
20548.4
18115.1
18115.3
18115.2
18115.2
18115.3
18115.1
16007.2
16007.4
16007.3
16007.3
16007.3
16007.3
14498.5
14498.6
14498.5
14498.6
14498.6
14498.6
13381.7
13381.9
13382.1
13381.6
13382.1
13381.7
12750.8
12752.3
12752.4
12750.3
12750.2
12752.6
12921
12926.8
12925.5
12920.4
12916.8
12927.9
14095.5
14095.2
14095
14095.7
14096
14093.7
13699
13695.1
13694.6
13700.6
13704.7
13692.4
)
;
    }
    seabed_topright_surface
    {
        type            fixedFluxPressure;
        gradient        uniform 0;
        value           nonuniform List<scalar> 
72
(
3923.49
3872.09
3800.05
4075.63
4263.58
3860.97
2996.54
3010.23
2984.96
2899.15
2774.36
2636.1
1648.91
1679.92
1718.79
1718.11
1708.43
1639.02
695.036
777.526
767.986
907.041
1125.45
933.024
487.083
729.693
486.483
758.616
938.341
604.81
839.347
866.487
817.463
880.313
924.351
795.342
882.351
866.227
888.795
890.641
946.916
925.617
853.276
798.015
792.792
858.105
967.797
915.498
1208.99
1168.08
1143.1
1292.56
1373.55
1296.88
2322.38
2377.5
2321.77
2239.86
2201.47
2344.29
2287.99
2296.18
2319.17
2144.5
2096.73
1902.27
1751.63
1763.23
1792.96
1725.24
1974.38
1758.13
)
;
    }
    breakwater_top_surface
    {
        type            fixedFluxPressure;
        gradient        uniform 0;
        value           nonuniform List<scalar> 
36
(
5238.08
5234.91
5240.93
5291.53
5292.8
5281.23
5365.95
5372.89
5374.59
5364.68
5363.57
5366.7
5383.54
5390.73
5393.23
5379.75
5378.63
5383.34
5455.36
5456.43
5456.73
5455.44
5454
5455.69
5185.18
5196.38
5199.4
5192.22
5192.28
5198.83
4637.38
4642.81
4644.51
4641.59
4641.71
4642.04
)
;
    }
    breakwater_left_surface
    {
        type            fixedFluxPressure;
        gradient        uniform 0;
        value           nonuniform List<scalar> 
24
(
13699
13695.1
13694.6
13700.6
13704.7
13692.4
7179.75
7159.51
7159.01
7180.08
7199.7
7144.48
1517.84
1513.3
1514.4
1514.23
1515.68
1507.82
1743.77
1741.04
1742.33
1743.69
1745.25
1740.6
)
;
    }
    breakwater_right_surface
    {
        type            fixedFluxPressure;
        gradient        uniform 0;
        value           nonuniform List<scalar> 
24
(
1751.63
1763.23
1792.96
1725.24
1974.38
1758.13
1077.64
1065.87
1937.43
1256.91
877.298
1685.45
3319.58
3277.4
3176.8
2524.71
738.957
2864.19
3002.95
2953.91
2786.58
2973.05
3221.46
3111.04
)
;
    }
    water_front_surface
    {
        type            fixedFluxPressure;
        gradient        uniform 0;
        value           nonuniform List<scalar> 
186
(
25755.2
26191.5
23573.8
20548.5
18115.1
16007.2
14498.5
13381.7
12750.8
12921
14095.5
13699
23114.4
26362.1
21050.2
17223.3
14483.2
10510.6
7827.11
6227.31
5977.09
7000.27
9041.39
7179.75
15503
8838.76
2084.48
844.075
29.4146
-0.968774
-24.0149
-9.77252
168.513
488.831
1360.85
1517.84
6562.49
-53.1189
39.2841
-1.29219
9.16714
6.14198
-26.1476
-70.7253
5.94199
327.645
1739.14
1743.77
3923.49
2996.54
1648.91
695.036
487.083
839.347
882.351
853.276
1208.99
2322.38
2287.99
1751.63
2644.94
640.634
102.945
22.9507
-15.8642
-11.7009
9.10836
17.0946
109.402
778.022
1460.21
1077.64
721.526
36.7178
46.8925
36.41
24.5745
12.9367
13.0597
10.6573
2.25629
2.55458
575.523
3319.58
831.65
20.3394
26.1998
7.68355
7.00918
3.99023
6.5311
6.13609
1.74975
-3.39585
117.907
3002.95
160.53
21.484
-12.3978
26.6969
-21.6684
-22.5866
20.7436
-2.4409
-3.8921
4.69522
-0.0542325
-5.54955
8.23813
7.0504
-0.750359
6.91269
17.2512
1.02198
-4.2982
29.5002
3.74107
-14.4596
33.0559
13.2813
-13.4451
10.3736
13.4589
6.20765
-44.8302
-10.2827
18.7318
-25.5987
-27.5575
1491.03
-9.74102
-16.9932
5238.08
4.46197
-7.71405
5365.95
2.0775
-4.95305
5383.54
1.69888
-3.75306
5455.36
-0.185338
-3.75987
5185.18
-1.76211
-5.67884
4637.38
-3.69686
-10.4772
1520.62
1699.05
1328.43
-11.0169
-37.1507
-43.5646
16.5447
-6.91036
-5.32082
1.98665
-11.3348
-14.0005
8.60716
1.80877
-2.52376
5.32031
1.19917
-1.3827
6.61504
2.82337
0.212554
5.94354
1.95602
0.383305
1.59097
0.359086
0.660454
1.139
-0.905658
0.120544
-9.84309
-2.91341
-2.51454
286.796
9.19781
-7.36865
)
;
    }
    water_back_surface
    {
        type            fixedFluxPressure;
        gradient        uniform 0;
        value           nonuniform List<scalar> 
186
(
25755.1
26191.5
23573.7
20548.4
18115.1
16007.3
14498.6
13381.7
12752.6
12927.9
14093.7
13692.4
23114.4
26362.6
21050.5
17223.7
14483.5
10511.3
7827.77
6225.77
5986.33
7039.55
8987.2
7144.48
15501
8841.09
2084.54
844.227
29.4607
-1.06043
-24.0687
-9.75411
168.134
495.873
1351.43
1507.82
6556.82
-53.1624
39.3496
-1.30207
9.17462
6.12378
-26.2656
-70.6884
6.25595
337.329
1742.47
1740.6
3860.97
2636.1
1639.02
933.024
604.81
795.342
925.617
915.498
1296.88
2344.29
1902.27
1758.13
2524.12
706.196
117.609
7.94877
-15.5234
-4.82286
10.888
18.9505
111.699
663.657
1550.81
1685.45
1370.06
77.4237
37.6555
29.665
24.8926
16.4333
14.1864
10.2757
2.02649
11.6327
1811.22
2864.19
1442.66
19.7395
20.5111
5.9584
7.49406
4.63844
7.143
5.5634
-2.46259
-4.90559
1.68669
3111.04
159.394
21.4845
-12.3991
26.6223
-21.6539
-22.5713
20.7407
-2.4277
-3.89226
4.69673
-0.0435029
-5.53883
8.28499
7.09486
-0.738216
6.98781
17.427
1.06958
-4.38597
29.6513
3.94091
-14.6051
34.2713
13.6741
-11.7633
10.7044
14.7922
9.35791
-45.0634
-10.2654
18.7326
-25.4663
-27.4924
1467.68
-9.77219
-16.9641
5281.23
4.52975
-6.67471
5366.7
1.68353
-4.58875
5383.34
1.66189
-3.57295
5455.69
-0.237309
-3.68781
5198.83
-1.79276
-5.64988
4642.04
-3.72372
-10.469
1802.97
2089.88
1360.18
-2.39692
-24.3392
-38.0449
17.2516
0.122217
-0.802899
1.35357
-9.86285
-12.4101
8.64235
2.26962
-2.22389
5.68452
1.3123
-1.35637
6.84677
2.73785
0.241941
6.14952
1.68863
0.363209
1.6574
-0.239157
0.769048
1.89315
-1.81173
0.202726
-8.66026
-3.31592
-2.20056
531.955
6.50636
-7.30189
)
;
    }
    water_left_surface
    {
        type            fixedFluxPressure;
        gradient        uniform 0;
        value           nonuniform List<scalar> 
42
(
25755.2
25755.2
25755.2
25755.2
25755.2
25755.1
23114.4
23114.1
23114.2
23114.2
23114.6
23114.4
15503
15496.5
15499.4
15500
15498.8
15501
6562.49
6541.4
6552.79
6556.58
6547.12
6556.82
160.53
157.122
158.367
158.933
157.993
159.394
21.484
21.4298
21.4588
21.4661
21.4537
21.4845
-12.3978
-12.4192
-12.4108
-12.4041
-12.4098
-12.3991
)
;
    }
    water_right_surface
    {
        type            fixedFluxPressure;
        gradient        uniform 0;
        value           nonuniform List<scalar> 
42
(
3923.49
3872.09
3800.05
4075.63
4263.58
3860.97
2644.94
2507.08
2551.39
2885.08
2799.93
2524.12
721.526
866.316
1243.04
1195.58
999.971
1370.06
831.65
1070.65
1149.21
351.345
256.875
1442.66
1520.62
1533.46
1520.61
668.594
471.349
1802.97
1699.05
1703.96
1705.64
907.085
561.494
2089.88
1328.43
1391.15
1205.98
405.878
248.361
1360.18
)
;
    }
    water_top_surface
    {
        type            totalPressure;
        rho             rho;
        psi             none;
        gamma           1;
        p0              uniform 0;
        value           nonuniform List<scalar> 
180
(
0
0
0
0
0
0
0
0
0
0
0
0
-5.59305
-5.63059
-5.61045
-5.61599
-5.62787
-5.60943
-8.59314
-8.59219
-8.59242
-8.59315
-8.59429
-8.591
-4.31655
-4.30703
-4.31138
-4.31408
-4.31888
-4.30686
-1.23396
-1.20967
-1.21995
-1.228
-1.23875
-1.21215
0
0
0
0
0
0
0
0
0
0
0
0
0
0
0
0
0
0
0
0
0
0
0
0
-29.9987
-30.141
-30.0606
-30.1173
-30.1836
-30.0071
-11.2106
-11.1901
-11.1864
-11.2257
-11.2612
-11.1597
-1.93341
-1.92996
-1.92444
-1.98902
-1.97998
-2.00889
-2.86194
-2.87122
-2.86796
-2.88733
-2.87257
-2.91632
-2.31166
-2.31447
-2.31395
-2.31152
-2.32426
-2.29484
-3.13243
-3.13596
-3.13178
-3.13968
-3.14994
-3.10558
-5.1085
-5.11271
-5.10702
-5.11928
-5.1331
-5.08235
-6.6552
-6.66466
-6.66125
-6.6644
-6.67578
-6.64647
0
0
0
0
0
0
0
0
0
0
0
0
0
0
-0.0442532
-0.828542
-0.607908
0
-12.8493
-12.1486
-11.5998
-14.1793
-13.7973
-10.1827
-4.39928
-4.39926
-4.3295
-4.11673
-4.18012
-4.2378
-2.29261
-2.28184
-2.28593
-2.26164
-2.25146
-2.26175
-0.960975
-0.961882
-0.972065
-0.98912
-0.998207
-0.986265
-0.891322
-0.90181
-0.921614
-0.951511
-0.975994
-0.958885
-0.809838
-0.825878
-0.833296
-0.844368
-0.858898
-0.835306
-2.45798
-2.56221
-2.57802
-2.64785
-2.66908
-2.61295
-4.2511
-4.36229
-4.29869
-4.45571
-4.40173
-4.24167
-1.39832
-1.39336
-1.35588
-1.71574
-2.22561
-1.58157
)
;
    }
}


// ************************************************************************* //
