/*--------------------------------*- C++ -*----------------------------------*\
| =========                 |                                                 |
| \\      /  F ield         | OpenFOAM: The Open Source CFD Toolbox           |
|  \\    /   O peration     | Version:  v1612+                                |
|   \\  /    A nd           | Web:      www.OpenFOAM.com                      |
|    \\/     M anipulation  |                                                 |
\*---------------------------------------------------------------------------*/
FoamFile
{
    version     2.0;
    format      ascii;
    class       volVectorField;
    location    "5.9";
    object      U;
}
// * * * * * * * * * * * * * * * * * * * * * * * * * * * * * * * * * * * * * //

dimensions      [0 1 -1 0 0 0 0];

internalField   nonuniform List<vector> 
1116
(
(-1.1881 4.52316e-05 0.4815)
(-1.18839 2.66133e-05 0.481827)
(-1.18827 1.55716e-05 0.48172)
(-1.18823 2.01348e-05 0.481681)
(-1.18829 -2.98662e-05 0.48173)
(-1.18819 -1.40386e-05 0.48161)
(-2.80547 -0.000106075 0.289673)
(-2.80584 -3.46035e-05 0.289674)
(-2.80566 7.03314e-05 0.28968)
(-2.8056 -2.32329e-05 0.289694)
(-2.80569 8.21302e-06 0.28969)
(-2.80556 3.18483e-05 0.289664)
(-3.14641 -6.37841e-05 0.111193)
(-3.14667 -7.61488e-06 0.111115)
(-3.14651 3.34887e-05 0.11114)
(-3.14646 -1.49364e-05 0.111171)
(-3.14655 2.50735e-06 0.111144)
(-3.14648 9.22899e-07 0.11117)
(-3.16893 -4.48548e-05 0.0464147)
(-3.16924 3.59545e-06 0.0463972)
(-3.16903 1.44295e-05 0.0464094)
(-3.16901 -1.41444e-06 0.0464415)
(-3.1691 1.48445e-07 0.0464117)
(-3.16904 -1.95961e-05 0.0464123)
(-3.08799 -2.41631e-05 -0.0509689)
(-3.08847 6.6754e-06 -0.0509568)
(-3.0882 5.8132e-06 -0.0509439)
(-3.08818 2.80245e-05 -0.0508963)
(-3.08827 -3.57736e-06 -0.0509344)
(-3.08815 -4.2267e-05 -0.0509559)
(-2.85723 2.20837e-05 -0.114546)
(-2.85781 9.51554e-06 -0.114486)
(-2.85751 2.32663e-05 -0.114491)
(-2.85753 8.36177e-05 -0.114408)
(-2.85759 -4.99494e-05 -0.114421)
(-2.85741 -9.37555e-05 -0.114545)
(-2.54093 9.51666e-05 -0.142463)
(-2.54172 -8.66467e-06 -0.142321)
(-2.54137 7.7764e-05 -0.142357)
(-2.54132 0.000132673 -0.14222)
(-2.54139 -0.000111191 -0.142072)
(-2.54124 -8.02652e-05 -0.14257)
(-2.23726 0.000390307 -0.20461)
(-2.23834 3.75681e-05 -0.204553)
(-2.23794 -2.42495e-05 -0.204523)
(-2.23767 -9.23177e-05 -0.204306)
(-2.23792 9.38723e-06 -0.203732)
(-2.23771 0.000396757 -0.205155)
(-2.00561 0.000896402 -0.408221)
(-2.00537 0.000198013 -0.408385)
(-2.00539 -0.000309584 -0.408134)
(-2.00575 -0.000701542 -0.408049)
(-2.00752 0.000334268 -0.40682)
(-2.0039 0.00136425 -0.409487)
(-1.59294 0.00136298 -0.679553)
(-1.58846 0.000609455 -0.678618)
(-1.58978 -0.000695983 -0.678556)
(-1.59254 -0.0012779 -0.679589)
(-1.59913 0.00127504 -0.67938)
(-1.58511 0.00239684 -0.679128)
(-1.03059 0.000596313 -0.792811)
(-1.02216 0.000677404 -0.79038)
(-1.0231 -0.00062278 -0.790487)
(-1.03081 -0.000787284 -0.793032)
(-1.0387 0.000944173 -0.794826)
(-1.01404 0.000456403 -0.78905)
(-0.244659 -0.00154845 -0.225775)
(-0.237039 -0.000381108 -0.224429)
(-0.238474 0.000889758 -0.22482)
(-0.24419 0.00225863 -0.22536)
(-0.249955 -0.00141059 -0.226772)
(-0.234239 -0.00438925 -0.223303)
(-2.82506 0.000429435 3.97472)
(-2.82541 0.000307611 3.97536)
(-2.82518 -0.000195889 3.9751)
(-2.82524 7.16241e-05 3.97514)
(-2.82537 -0.000122705 3.97518)
(-2.82516 -0.000261098 3.9749)
(-4.1963 0.000120539 1.39947)
(-4.19654 8.7917e-05 1.39853)
(-4.19637 -6.65638e-05 1.39896)
(-4.19647 4.81836e-05 1.39911)
(-4.19651 -4.08333e-05 1.3988)
(-4.19635 -0.000114083 1.39919)
(-3.87246 0.00014191 0.283844)
(-3.87275 6.99293e-05 0.283649)
(-3.87257 -8.00118e-05 0.283735)
(-3.87266 7.11852e-05 0.283788)
(-3.87269 -5.16954e-05 0.283739)
(-3.87253 -0.000117437 0.283788)
(-3.37911 -6.88877e-06 -0.0762877)
(-3.37949 -3.64527e-05 -0.0762234)
(-3.37931 -1.37175e-05 -0.0762418)
(-3.37933 3.32145e-05 -0.0762039)
(-3.37938 5.81209e-07 -0.0761706)
(-3.37923 -4.71555e-06 -0.0763171)
(-2.47045 -0.000158423 -0.330472)
(-2.47105 -0.000142361 -0.330248)
(-2.47082 7.00884e-05 -0.330341)
(-2.47073 -3.90594e-05 -0.330287)
(-2.47083 0.000130899 -0.330173)
(-2.4706 0.000223788 -0.33052)
(-1.34561 -0.000225426 -0.5111)
(-1.34664 -0.000191622 -0.510781)
(-1.34627 0.000100755 -0.510946)
(-1.34606 -0.00011007 -0.510814)
(-1.34646 0.000237462 -0.510602)
(-1.34575 0.000410561 -0.511197)
(-0.196217 3.6736e-05 -0.567787)
(-0.197763 1.41083e-06 -0.56729)
(-0.197253 -0.000217125 -0.567533)
(-0.196846 -0.000448454 -0.567396)
(-0.197712 0.00050292 -0.567091)
(-0.196278 0.000794244 -0.567823)
(0.749669 0.00036322 -0.500365)
(0.748128 0.000193123 -0.499771)
(0.748672 -0.00052136 -0.499987)
(0.748997 -0.000929012 -0.499958)
(0.748533 0.000947236 -0.499619)
(0.749369 0.00157769 -0.500225)
(1.62531 -0.000944509 -0.409008)
(1.62753 -0.000428039 -0.409324)
(1.62656 0.000630719 -0.409123)
(1.62547 0.00112117 -0.408833)
(1.62176 -0.000663549 -0.407431)
(1.62934 -0.00161216 -0.41025)
(0.769009 -0.0038759 -0.248617)
(0.759673 -0.00187208 -0.251294)
(0.765332 0.003032 -0.25041)
(0.765546 0.0053558 -0.24879)
(0.78066 -0.00569667 -0.24538)
(0.757243 -0.00986841 -0.254096)
(0.575685 -0.00679039 -0.778669)
(0.53971 -0.00307852 -0.77814)
(0.546447 0.00496115 -0.77762)
(0.575468 0.00947877 -0.77883)
(0.614114 -0.00782177 -0.77884)
(0.506043 -0.0147015 -0.776971)
(-1.415 0.00210412 -0.820402)
(-1.45346 0.00107887 -0.814189)
(-1.44597 -0.00150107 -0.815772)
(-1.41799 -0.00203142 -0.819739)
(-1.39628 0.0039392 -0.825172)
(-1.46132 0.00800612 -0.810368)
(-4.06595 -0.000234591 5.53881)
(-4.06551 -4.35426e-05 5.54228)
(-4.06565 8.47546e-05 5.54077)
(-4.0657 -2.618e-06 5.54051)
(-4.06568 2.54039e-05 5.54144)
(-4.06588 -5.90113e-05 5.53971)
(-4.39428 -0.00098975 0.772849)
(-4.39494 -0.000553636 0.773988)
(-4.39464 0.00062275 0.773511)
(-4.39464 -0.000263054 0.77337)
(-4.39483 8.28449e-05 0.77377)
(-4.39453 0.000540566 0.773039)
(-2.87998 -0.0014422 -0.494188)
(-2.87981 -0.000892837 -0.492772)
(-2.88007 0.000723903 -0.49343)
(-2.88011 -0.000368855 -0.493557)
(-2.88001 0.00032672 -0.493029)
(-2.87984 0.000840487 -0.493925)
(-1.19925 -0.00173708 -1.57664)
(-1.20152 -0.00104966 -1.57639)
(-1.20047 0.00118624 -1.57656)
(-1.19976 -0.000137719 -1.57661)
(-1.2009 0.000385025 -1.57652)
(-1.19923 0.000931552 -1.57667)
(1.98904 -0.00538083 -3.1653)
(1.97269 -0.00279291 -3.16608)
(1.97889 0.00444575 -3.16573)
(1.98683 0.00172529 -3.16633)
(1.9821 -0.00014668 -3.16724)
(1.9835 -0.00016102 -3.16439)
(6.40265 -0.0024753 -3.36448)
(6.37573 2.31553e-05 -3.36673)
(6.38379 0.000563436 -3.36576)
(6.39922 -0.000837259 -3.36557)
(6.39498 0.00144403 -3.36612)
(6.38783 0.00106256 -3.36413)
(11.5132 0.011286 -3.01819)
(11.4978 0.0098873 -3.01395)
(11.5005 -0.0132809 -3.01428)
(11.5124 -0.0117435 -3.01907)
(11.5082 0.008305 -3.02147)
(11.5035 0.0106851 -3.01211)
(13.7438 0.0127861 -1.24981)
(13.7652 0.00901583 -1.2471)
(13.7572 -0.0132687 -1.24643)
(13.7502 -0.0107164 -1.25175)
(13.7378 0.00427546 -1.25443)
(13.7743 0.00818011 -1.24559)
(12.47 0.00359262 0.983964)
(12.4864 0.00685013 0.985746)
(12.4888 -0.00740677 0.981167)
(12.474 -0.0112462 0.986707)
(12.4948 0.0277522 0.980851)
(12.4666 0.0298772 0.981426)
(-2.76977 -0.0952247 2.22802)
(-2.61697 -0.0447448 2.12481)
(-2.63516 0.0726923 2.15779)
(-2.76847 0.116224 2.21014)
(-2.9316 -0.108115 2.30726)
(-2.41735 -0.182341 2.07644)
(2.1624 -0.043691 1.16786)
(1.88444 -0.0217306 1.14199)
(1.93002 0.0340594 1.14967)
(2.15475 0.0653769 1.16298)
(2.38261 -0.0522081 1.2034)
(1.61477 -0.0823896 1.11882)
(-2.33629 0.0482586 -0.046157)
(-2.61843 0.0259896 -0.100209)
(-2.56671 -0.0433851 -0.0859611)
(-2.37121 -0.0802867 -0.057136)
(-2.10828 0.0625555 -0.00998688)
(-2.66619 0.139076 -0.122642)
(-5.31044 -0.00258354 10.6903)
(-5.31053 -0.00155307 10.6909)
(-5.31055 0.00076998 10.6902)
(-5.3106 -0.000382357 10.6906)
(-5.31047 0.000641685 10.6911)
(-5.31069 0.000807961 10.6902)
(3.97644 -0.00409184 3.28388)
(4.01968 -0.00194714 3.23169)
(3.98599 0.0026516 3.26858)
(3.97643 -0.00111757 3.28171)
(4.00977 4.99517e-05 3.24473)
(3.98478 0.0016327 3.27333)
(-2.08261 -0.00219168 -1.81158)
(-2.09351 -0.000356685 -1.81848)
(-2.08795 0.0018616 -1.81599)
(-2.08641 -0.00078344 -1.81543)
(-2.09103 7.3509e-05 -1.81764)
(-2.0847 0.000772947 -1.814)
(0.141956 -0.00361129 -3.7893)
(0.133185 -0.00187723 -3.79122)
(0.137326 0.00358133 -3.79043)
(0.139872 0.00160306 -3.79172)
(0.135942 0.000216276 -3.79313)
(0.141593 0.000198754 -3.78914)
(-1.2886 -0.0114373 -5.47751)
(-1.32284 -0.00600481 -5.48461)
(-1.31066 0.00947429 -5.48218)
(-1.29457 0.00697873 -5.47964)
(-1.30274 -0.00377453 -5.48299)
(-1.30283 -0.00658662 -5.47674)
(-2.44814 -0.0112123 -6.66337)
(-2.56573 -0.00233036 -6.65792)
(-2.53271 0.00347196 -6.65773)
(-2.46496 0.00579236 -6.66403)
(-2.46556 -0.00284303 -6.67125)
(-2.52836 -0.00971959 -6.64883)
(-4.86419 0.0207967 -6.49947)
(-5.02072 0.022984 -6.42151)
(-4.97212 -0.0287042 -6.44184)
(-4.9004 -0.0229309 -6.4891)
(-4.87761 0.018254 -6.50806)
(-4.98226 0.0200343 -6.43532)
(-6.10926 0.00799343 1.27846)
(-6.12572 0.016879 1.33634)
(-6.10448 -0.0163155 1.30401)
(-6.13436 -0.0149767 1.3021)
(-6.14269 0.0143555 1.28703)
(-6.09733 0.0110443 1.29461)
(-2.89589 -0.0235893 9.40671)
(-2.97244 -0.00812357 9.31545)
(-2.90937 0.0146193 9.3531)
(-2.95427 0.0145852 9.37892)
(-2.96702 2.16362e-05 9.40909)
(-2.87555 -0.0118862 9.33342)
(-7.87966 -0.0131124 2.85389)
(-7.85804 -0.00960255 2.71977)
(-7.8451 0.00913388 2.78598)
(-7.89957 0.0036087 2.8041)
(-7.94273 0.000164907 2.83766)
(-7.79657 0.00586407 2.78554)
(-5.28783 -0.0125597 -1.70357)
(-5.28109 -0.0109667 -1.76061)
(-5.27283 0.0120946 -1.729)
(-5.30052 0.0156359 -1.72575)
(-5.33671 -0.0145004 -1.7115)
(-5.24236 -0.0170301 -1.73384)
(-2.57891 0.000159853 -2.32346)
(-2.58396 0.00011932 -2.3794)
(-2.58323 0.00174859 -2.36396)
(-2.58178 0.00532014 -2.33467)
(-2.58244 -0.00296666 -2.30022)
(-2.5843 -0.00823 -2.39086)
(2.22456 -0.275043 1.15194)
(2.56252 -0.131265 1.09004)
(1.67809 -0.590922 1.20258)
(3.27233 -0.608602 0.245884)
(4.53536 0.611029 -0.328428)
(0.825703 1.52629 1.31744)
(5.58418 -0.00407201 -0.983678)
(6.29852 0.182771 -1.33311)
(5.53666 0.424621 -1.10421)
(6.16053 0.823897 -1.31527)
(7.53362 0.610586 -1.76072)
(3.27685 0.687646 0.0754353)
(7.58739 -0.0740025 -2.51575)
(8.34744 0.0249138 -2.91683)
(8.01145 0.0361907 -2.93064)
(8.16498 0.256312 -2.5871)
(9.2149 -0.0923488 -2.56543)
(6.36271 -0.0664036 -1.79787)
(8.35535 -0.198743 -2.76659)
(9.35269 0.097989 -3.27642)
(8.64375 -0.14358 -3.2218)
(9.00568 -0.107214 -2.88767)
(10.0923 -0.133174 -2.93999)
(7.64549 0.0365961 -2.68505)
(8.82497 -0.108231 -2.77012)
(9.99458 0.247019 -3.46433)
(9.22553 -0.016455 -3.28289)
(9.29146 0.154319 -3.00933)
(9.81291 0.0123291 -2.8522)
(7.56741 0.127611 -2.76243)
(8.55463 0.110441 -2.8398)
(9.64352 0.274006 -3.44628)
(9.23391 0.0405242 -3.59976)
(8.90179 0.490895 -2.94032)
(9.17801 0.0792749 -2.52998)
(7.47298 -0.0855176 -2.80271)
(7.92052 0.0972301 -2.72155)
(8.77986 0.125271 -3.28064)
(8.40397 -0.0243445 -3.66852)
(8.19958 0.593253 -2.7613)
(8.45859 0.098668 -2.10598)
(7.3532 -0.162856 -2.8605)
(7.4305 -0.172637 -2.52217)
(7.9139 0.00873757 -3.20627)
(7.66121 -0.0686958 -3.77999)
(7.45221 0.562083 -2.62222)
(7.50306 0.190482 -1.60262)
(7.26015 -0.053104 -2.95374)
(6.26102 -0.439365 -2.25211)
(6.86201 -0.0708481 -3.38095)
(6.845 -0.0237068 -4.00849)
(6.2828 0.767231 -2.66622)
(5.98282 0.159076 -1.2702)
(6.44658 -0.11048 -3.04506)
(3.75146 -0.490707 -2.15208)
(4.58155 -0.0997401 -3.62099)
(4.9102 0.142945 -4.42357)
(4.05166 1.34597 -2.90857)
(3.40094 0.0500817 -1.20118)
(4.23301 -0.324334 -3.04003)
(0.577892 -0.246177 -1.89569)
(1.47175 0.0527921 -2.76695)
(2.38181 0.149929 -4.0394)
(1.43351 1.434 -2.57066)
(0.103254 0.281722 -0.905907)
(1.09548 -0.384887 -1.77739)
(-2.60358 -0.0538888 0.359862)
(-2.39569 -0.210653 -0.0226816)
(-2.32355 0.0270405 -0.0599467)
(-2.293 0.812406 0.415654)
(-2.72467 0.15417 0.156792)
(-2.81562 0.0682611 1.94039)
(2.6026 -0.364101 6.64129)
(3.05791 0.0129272 6.62711)
(1.78767 0.0397118 6.20036)
(4.94087 0.0302244 5.23199)
(6.6957 0.584209 5.22175)
(0.500088 1.28495 6.38448)
(8.47462 -0.00706173 4.23189)
(9.14498 0.168039 4.48673)
(8.00101 0.503481 4.59791)
(8.7555 0.977538 4.38727)
(9.86747 0.31906 5.05825)
(4.09414 0.442869 6.93819)
(8.46668 -0.0359539 3.77909)
(8.90133 -0.136437 4.20411)
(8.80869 -0.18182 3.9073)
(9.41689 0.379942 4.10536)
(10.6621 -0.202528 4.08257)
(7.72871 -0.299328 3.93895)
(5.41577 0.133259 3.31215)
(5.88522 -0.131689 3.69285)
(6.35148 -0.250755 3.8219)
(6.95287 0.112041 3.07373)
(6.85834 -0.255092 2.48072)
(4.88019 -0.0118935 2.80601)
(1.98618 0.0815716 2.40239)
(0.199188 -0.217633 2.66224)
(4.82417 -0.698327 3.59236)
(1.65849 -1.03304 2.28895)
(4.02047 -0.352323 0.980667)
(0.553999 0.348733 2.26136)
(0.0852638 -0.378849 0.0219838)
(-0.105787 0.229494 1.13949)
(0.341537 -1.0062 1.61593)
(3.87136 -1.69123 0.89806)
(6.70857 -0.435721 1.91552)
(0.0786855 0.248558 2.16543)
(0.212034 0.137101 0.526667)
(1.47638 0.388173 1.29692)
(-0.671242 -0.096163 0.336498)
(4.66075 -0.888243 0.844547)
(7.92968 -0.279641 1.47767)
(1.34522 -0.210945 1.84384)
(5.09308 0.185811 1.74307)
(4.91077 0.254967 1.26374)
(3.64585 -0.437671 1.43235)
(4.966 -0.722121 0.139623)
(7.82893 0.00893658 0.249664)
(6.49674 0.541967 2.53627)
(6.90003 -0.118304 -0.0101066)
(6.13504 -0.0556415 -1.15397)
(5.5969 -0.664668 -0.575273)
(6.37105 -0.508115 -1.56618)
(7.72255 0.195211 -0.988289)
(7.25465 0.982053 0.39981)
(6.18153 -0.206631 -4.11911)
(6.2637 0.0285937 -5.4295)
(5.66676 -0.476056 -5.33925)
(6.11627 -0.0454242 -3.71471)
(6.55006 -0.122997 -2.3618)
(5.83163 0.472187 -5.14431)
(4.28102 -0.144719 -4.07161)
(4.33839 0.176062 -4.5417)
(4.5637 -0.188079 -5.88998)
(3.9571 0.615529 -3.03988)
(4.02061 -0.604771 -1.19451)
(4.05313 -0.143258 -4.61062)
(-1.58835 0.120965 1.81778)
(-0.85211 0.626027 1.26243)
(1.54218 0.506038 -1.86513)
(-0.207206 1.31176 0.964326)
(-2.70169 -0.412762 3.11281)
(0.655057 -0.343075 -0.332692)
(0.87643 -0.540207 10.4399)
(1.38101 -0.00045492 9.86313)
(1.03045 0.182485 9.11559)
(4.31394 0.331874 10.1243)
(6.10533 0.385385 10.7962)
(1.09361 0.925436 8.5831)
(-0.994659 -0.29574 7.98978)
(3.18767 -0.00126065 6.46494)
(3.15506 0.504417 6.29177)
(2.18107 0.972102 7.17425)
(3.07571 0.17686 8.50335)
(-1.70645 0.599189 12.1169)
(3.0296 0.387106 -2.85547)
(2.89264 0.356499 -3.38092)
(3.24009 -0.0302832 -3.05034)
(2.93624 0.0768715 -2.69915)
(4.07227 -0.313366 -2.19408)
(4.03601 -0.463829 0.131328)
(2.33117 -0.0175262 -5.66124)
(2.44656 0.16707 -5.92683)
(2.55995 0.262332 -5.60887)
(2.35893 0.297055 -5.86917)
(2.15981 0.371922 -5.73132)
(2.23638 0.143605 -6.36879)
(2.55756 -0.137031 -5.01885)
(2.63737 -0.168565 -4.94175)
(2.6108 0.0961701 -4.9637)
(2.70185 0.0744261 -4.62433)
(2.80721 0.0567105 -4.25734)
(3.08514 0.144095 -4.65305)
(1.51318 -0.327325 -2.32482)
(1.43187 -0.342984 -1.54155)
(1.35997 -0.0958303 -2.34129)
(1.5347 -0.281651 -2.14735)
(1.90795 -0.353412 -2.2458)
(1.64814 0.0337461 -1.68618)
(0.893824 -0.196058 0.667894)
(1.00023 0.0569258 2.04079)
(0.635976 0.0246215 0.968948)
(1.11709 -0.0967097 -0.833967)
(1.44018 -0.524038 -2.78418)
(1.052 -0.286489 1.75928)
(0.558435 0.251942 2.73311)
(1.24097 0.226344 3.04048)
(0.508427 -0.0931222 3.31703)
(-0.0729474 0.185651 -0.299312)
(0.442572 -0.545552 -3.4785)
(2.15991 -0.0209938 3.56468)
(1.21386 0.186768 0.163937)
(0.477775 -0.028942 0.445424)
(0.507664 -0.407169 2.18772)
(1.18587 -0.300752 -1.91621)
(2.11986 0.00525872 -4.18194)
(2.08221 0.4283 0.129485)
(3.56595 -0.0592112 -5.17251)
(3.86259 0.0753484 -5.63421)
(3.75408 -0.505497 -5.48158)
(4.82455 -0.866764 -5.97801)
(5.22859 -0.0406009 -6.44636)
(3.9705 0.467082 -5.64249)
(4.10079 -0.0264422 -6.01628)
(4.17355 0.353275 -6.31918)
(3.89714 -0.241368 -6.84495)
(4.43653 -0.723147 -6.09016)
(4.89522 -0.193096 -4.58842)
(4.53381 0.593383 -6.70554)
(2.16777 0.0140102 -2.47849)
(2.38103 0.475737 -2.90441)
(2.5081 0.0922187 -3.94374)
(2.13689 -0.365892 -2.13651)
(-0.962389 -0.113289 4.11712)
(2.24947 0.586711 -3.32292)
(1.49735 -0.387336 9.79371)
(1.81406 0.062898 9.64595)
(2.1678 -0.161659 9.42357)
(4.71609 0.0201366 11.4977)
(5.97446 0.207776 12.7096)
(2.48638 0.836324 8.83954)
(-2.10455 0.138871 10.1764)
(-0.0128312 0.480241 8.97016)
(-0.245486 0.526472 9.40255)
(-1.08776 0.642191 9.50514)
(-0.367477 -0.51632 10.3445)
(-3.16998 0.231856 14.1273)
(6.10498 0.202588 1.09607)
(6.18551 -0.0583513 0.528992)
(6.08962 -0.502772 0.509298)
(5.97479 -0.515217 0.87556)
(6.21295 -1.10283 0.883051)
(4.05248 -0.749642 1.36563)
(1.58758 -0.0340889 -1.4093)
(1.55283 0.0399882 -1.35629)
(1.67233 -0.158673 -1.31436)
(1.51846 -0.15467 -1.80786)
(1.36634 -0.102661 -1.88683)
(1.50097 -0.106838 -1.45604)
(3.3052 -0.028298 -1.47482)
(3.31858 -0.034464 -1.49663)
(3.25782 -0.0166633 -1.44035)
(3.28893 -0.108021 -1.48872)
(3.20501 -0.0457775 -1.61944)
(3.16632 0.00423248 -1.54163)
(1.99979 -0.0648719 -0.714751)
(2.01363 0.0190447 -0.58969)
(1.92629 0.108829 -0.597254)
(1.75219 0.051438 -0.630174)
(1.58091 -0.0649298 -0.561512)
(1.84009 -0.125091 -0.476184)
(1.58467 -0.112588 -0.0746697)
(1.47237 0.113021 0.255012)
(1.48235 0.463847 0.0341409)
(1.31046 0.538899 -0.208215)
(1.0904 -0.148283 -0.119871)
(1.33133 -0.451658 0.195969)
(-0.236591 0.0356538 0.748302)
(-0.193509 0.248963 1.02875)
(-0.223921 0.599188 1.17333)
(-0.0468621 1.01069 0.122717)
(-0.172141 -0.0897408 0.319038)
(-0.157865 -0.588369 1.08893)
(-1.23347 -0.0257505 0.706513)
(-0.981008 0.0719228 0.419991)
(-1.03452 0.390195 0.732561)
(-0.70044 0.644923 0.526948)
(-0.707531 0.240447 0.480208)
(-1.30891 -0.0414675 0.798662)
(1.97813e-05 0.0213313 -1.36132)
(0.576108 -0.135942 -1.90431)
(-0.191738 -0.0717858 -0.804917)
(1.41214 0.0134092 -2.44271)
(2.07441 0.0940459 -3.03898)
(-1.78967 0.00948735 -0.946561)
(2.633 0.0326737 -6.48405)
(2.52899 -0.10396 -6.28378)
(2.27785 -0.490374 -5.94855)
(3.331 -0.727556 -6.70558)
(4.36321 0.0496809 -6.00002)
(3.43413 0.478269 -6.39782)
(2.95229 -0.0317178 -4.25312)
(2.95368 -0.0587491 -4.36594)
(2.95932 -0.402064 -4.42964)
(2.77628 -0.758946 -4.03997)
(2.63046 -0.0181283 -2.86154)
(2.78756 0.462667 -4.18306)
(-5.50707 -0.00178373 9.66002)
(-5.50649 -0.0009581 9.63621)
(-5.50739 0.000494929 9.64741)
(-5.50696 -0.00019867 9.65231)
(-5.50656 0.000369906 9.64285)
(-5.50743 0.000404618 9.65282)
(-4.4174 -0.00236642 12.3908)
(-4.41938 -0.00112309 12.3843)
(-4.41996 0.00103331 12.3849)
(-4.41855 -0.000547486 12.3874)
(-4.41899 -8.19658e-05 12.386)
(-4.4191 0.000439648 12.387)
(-2.59035 -0.00344961 15.3431)
(-2.58797 -0.0015669 15.3169)
(-2.5905 0.00108017 15.3262)
(-2.59028 -0.00129381 15.3297)
(-2.58956 0.00028934 15.3237)
(-2.59148 0.000950041 15.3325)
(-3.54122 0.000121281 -0.1933)
(-3.55004 -0.00071422 -0.197268)
(-3.54963 -0.00223812 -0.197275)
(-3.54405 -0.000777199 -0.195934)
(-3.54668 0.000421187 -0.196514)
(-3.54415 -0.00023567 -0.197265)
(-1.7382 -0.00575964 3.0348)
(-1.72477 -0.00373587 3.02068)
(-1.73242 -0.000110538 3.02406)
(-1.72933 -0.00358541 3.02618)
(-1.72618 0.000630514 3.02187)
(-1.733 0.00215176 3.02629)
(1.15224 -0.00706476 2.28341)
(1.15623 -0.00365247 2.22967)
(1.15415 0.000980706 2.25178)
(1.15471 -0.00378456 2.24984)
(1.15549 0.0011168 2.23535)
(1.15352 0.00260724 2.25837)
(-5.62705 -0.00227058 -2.0018)
(-5.62875 -0.00044161 -2.00529)
(-5.62777 0.0013411 -2.00295)
(-5.62651 -0.000574258 -2.00527)
(-5.62781 9.00345e-05 -2.00633)
(-5.62526 2.7572e-05 -2.00435)
(-2.7308 -0.00261213 -3.25134)
(-2.72904 -0.00129936 -3.2614)
(-2.7304 0.000352549 -3.25605)
(-2.72896 -0.00130304 -3.25722)
(-2.7284 0.000377186 -3.2606)
(-2.73032 0.000766905 -3.25596)
(-0.257139 -0.000198941 -3.34522)
(-0.258545 -0.00012692 -3.35638)
(-0.25756 -2.02636e-05 -3.35037)
(-0.257894 -6.38354e-05 -3.35203)
(-0.258637 8.98461e-05 -3.35557)
(-0.257888 8.49149e-05 -3.35007)
(-3.12475 -0.00732641 -3.2758)
(-3.13928 -0.00392448 -3.27035)
(-3.13326 0.00662571 -3.27235)
(-3.12611 0.00524667 -3.27485)
(-3.12893 -0.00323255 -3.27693)
(-3.12961 -0.0055024 -3.27077)
(-0.549361 -0.000686455 -4.03027)
(-0.54901 -0.000284816 -4.02985)
(-0.548992 0.000564265 -4.03006)
(-0.548356 0.000747914 -4.03063)
(-0.546474 -0.000441713 -4.03119)
(-0.55036 -0.000994316 -4.03011)
(-0.0225476 0.000125353 -4.14591)
(-0.0229234 1.95708e-05 -4.14561)
(-0.0226373 0.000138447 -4.14569)
(-0.02262 0.000379503 -4.1459)
(-0.022566 -7.93055e-05 -4.14622)
(-0.0227883 -0.000214511 -4.14547)
(-3.87976 -0.0214797 -2.94576)
(-3.95017 -0.0110906 -2.93289)
(-3.92868 0.0165069 -2.93723)
(-3.88888 0.0167687 -2.94328)
(-3.88842 -0.0116667 -2.95222)
(-3.92581 -0.0213461 -2.92797)
(-0.6998 -0.0048768 -2.972)
(-0.704209 -0.00264264 -2.96813)
(-0.701806 0.0040878 -2.97029)
(-0.701003 0.0041659 -2.97134)
(-0.695765 -0.00319628 -2.97456)
(-0.705381 -0.00562478 -2.96811)
(-0.211043 -0.000692462 -2.93785)
(-0.212201 -0.00037775 -2.93462)
(-0.211654 0.000627453 -2.93616)
(-0.211528 0.000748209 -2.93715)
(-0.211067 -0.000521911 -2.93886)
(-0.212136 -0.000956727 -2.93483)
(-5.20562 -0.0305749 -3.25137)
(-5.41901 -0.0126339 -3.18877)
(-5.35925 0.0176862 -3.20751)
(-5.23787 0.0217113 -3.23841)
(-5.20306 -0.0137939 -3.25765)
(-5.37625 -0.0294532 -3.19204)
(-1.11276 -0.0333313 -1.56407)
(-1.14747 -0.0196071 -1.55891)
(-1.13262 0.0267012 -1.5628)
(-1.1212 0.0242318 -1.56252)
(-1.10633 -0.0187017 -1.5717)
(-1.14399 -0.0306889 -1.55402)
(0.0910548 -0.00247672 -1.57)
(0.0820821 -0.00131442 -1.55457)
(0.0853467 0.00161662 -1.56126)
(0.0883549 0.00213699 -1.5665)
(0.0910677 -0.001809 -1.57344)
(0.0833352 -0.0034901 -1.55656)
(-8.13206 -0.0030912 -2.193)
(-8.45837 0.00812729 -2.01077)
(-8.35899 -0.0103902 -2.06628)
(-8.20062 -0.00688923 -2.15093)
(-8.11548 0.0107632 -2.19023)
(-8.40834 0.00847937 -2.04839)
(-3.33655 -0.0548571 -0.955023)
(-3.61882 -0.0318379 -0.85369)
(-3.52638 0.0373732 -0.890846)
(-3.39371 0.0347576 -0.927897)
(-3.32688 -0.0235294 -0.961809)
(-3.57751 -0.0374615 -0.863052)
(0.502828 -0.0282456 1.61636)
(0.478051 -0.0175504 1.67148)
(0.48851 0.0201753 1.64924)
(0.494063 0.0192354 1.63031)
(0.505015 -0.0169873 1.61201)
(0.47981 -0.0270874 1.66134)
(-9.981 0.0287434 3.97514)
(-10.2108 0.0256339 4.04382)
(-10.117 -0.0313954 4.01884)
(-10.0654 -0.0308053 4.00379)
(-10.0164 0.0244428 4.00603)
(-10.1387 0.0372694 3.99669)
(-6.80045 0.0214033 2.43636)
(-7.21838 0.0116761 2.61638)
(-7.08283 -0.0253203 2.55521)
(-6.91107 -0.0227809 2.50224)
(-6.81692 0.0193615 2.48608)
(-7.14137 0.0400648 2.55366)
(-1.16798 -0.0288485 5.00746)
(-1.36359 -0.0161531 5.112)
(-1.30115 0.0131881 5.0733)
(-1.2107 0.0105736 5.03904)
(-1.1674 -0.00672549 5.03315)
(-1.33829 -0.00975955 5.07519)
(-9.39523 0.0134697 10.5895)
(-9.53696 0.00790353 10.2803)
(-9.46124 -0.00825588 10.3875)
(-9.47401 -0.00592791 10.519)
(-9.48163 -0.00222656 10.644)
(-9.44367 0.00802337 10.2946)
(-7.59782 0.0763172 6.65472)
(-7.76416 0.0411684 6.44935)
(-7.68737 -0.0556898 6.5075)
(-7.68012 -0.0511638 6.62785)
(-7.69403 0.0336205 6.75201)
(-7.67245 0.0734948 6.41843)
(-1.80777 0.0644059 6.22398)
(-2.02648 0.0316253 6.28511)
(-1.95118 -0.051211 6.255)
(-1.87416 -0.0523391 6.25503)
(-1.85353 0.0384019 6.28299)
(-1.96656 0.0789704 6.23936)
(-9.73162 0.0223961 4.84438)
(-9.72269 0.00579383 4.45208)
(-9.71422 -0.00947556 4.59719)
(-9.75821 -0.00924568 4.74033)
(-9.82098 0.00231757 4.88961)
(-9.67509 0.0217515 4.50526)
(-4.69021 0.0589814 1.91144)
(-4.63944 0.0250698 1.59429)
(-4.64863 -0.0320855 1.71079)
(-4.71072 -0.0257454 1.82874)
(-4.77467 0.0111358 1.937)
(-4.5965 0.042931 1.64197)
(-1.46269 0.0489786 1.19703)
(-1.47276 0.0209182 1.09912)
(-1.46269 -0.0288304 1.13396)
(-1.48336 -0.0262748 1.16879)
(-1.51644 0.0159313 1.20667)
(-1.43837 0.0431508 1.11332)
(-5.29292 0.0140999 -6.52677)
(-5.21529 0.0070191 -6.61821)
(-5.24315 -0.00670589 -6.59441)
(-5.27739 -0.00434529 -6.55281)
(-5.30744 0.00475653 -6.53477)
(-5.22045 0.0084381 -6.60627)
(-1.64635 0.0102735 -5.5322)
(-1.63839 0.00309298 -5.53951)
(-1.63345 0.00193587 -5.52388)
(-1.65139 0.0093351 -5.55517)
(-1.65104 -0.00869672 -5.58475)
(-1.62994 -0.00931842 -5.49876)
(-0.568226 0.00131643 -7.74639)
(-0.577925 0.000850212 -7.76469)
(-0.573463 0.00421779 -7.75427)
(-0.570654 0.00983362 -7.76153)
(-0.563781 -0.00822482 -7.77)
(-0.578665 -0.0133427 -7.74718)
(-3.81712 0.00265344 -4.74019)
(-3.82381 0.0021441 -4.7506)
(-3.82069 -0.000963923 -4.75375)
(-3.82248 -0.00141337 -4.74207)
(-3.82149 0.00279115 -4.74259)
(-3.82174 0.00412479 -4.75762)
(-3.30884 -0.00342405 -6.76626)
(-3.32011 -0.0013325 -6.71119)
(-3.31477 0.00249333 -6.73492)
(-3.31341 0.00199168 -6.74776)
(-3.30764 -0.000470328 -6.77259)
(-3.31859 -0.00189926 -6.71534)
(-0.85311 -0.00258103 -4.73534)
(-0.856708 -0.00138129 -4.73094)
(-0.856011 0.00223125 -4.73014)
(-0.855929 0.00259375 -4.73842)
(-0.856363 -0.00221936 -4.74589)
(-0.856385 -0.00385762 -4.72444)
(1.95451 -0.00541553 0.580146)
(1.96353 -0.0127445 0.597871)
(1.98307 -0.00158414 0.602472)
(1.84999 -0.00682645 0.632723)
(1.81877 -0.00506121 0.516629)
(1.89971 0.0124281 0.602398)
(0.846894 6.28223e-05 -4.497)
(0.877088 0.0047089 -4.59239)
(0.910478 0.00212417 -4.5428)
(1.09542 0.0230658 -3.73301)
(1.06629 0.00744919 -3.67655)
(1.11245 -0.0172892 -3.81385)
(0.881525 -0.000715658 -1.96649)
(0.881896 -0.024491 -1.96473)
(0.882299 -0.0800078 -1.9619)
(0.933334 -0.0957576 -1.99454)
(0.87719 -0.0360232 -1.98999)
(0.923255 0.0035888 -2.00446)
(0.646234 -0.000268431 -0.203016)
(0.645924 -0.000131707 -0.206947)
(0.641654 -0.00288727 -0.204321)
(0.647497 0.000433075 -0.197951)
(0.644538 0.000187876 -0.169665)
(0.64075 -0.00417332 -0.192931)
(-0.4034 0.00797023 -1.73981)
(-0.40567 0.0150258 -1.7527)
(-0.396843 0.0306037 -1.78795)
(-0.408938 0.0131732 -1.63381)
(-0.383699 0.00999919 -1.63084)
(-0.383908 0.0223885 -1.70885)
(0.538008 -0.00340532 -2.39237)
(0.538092 -0.00976702 -2.39623)
(0.523964 -0.0275913 -2.39485)
(0.489828 -0.0357648 -2.40292)
(0.469542 -0.0106564 -2.39677)
(0.462689 0.00350468 -2.41496)
(0.23199 1.0385e-05 0.192376)
(0.230686 -0.000490156 0.191742)
(0.230292 -0.000983864 0.191036)
(0.229113 -0.00145581 0.191925)
(0.229609 0.000535602 0.191879)
(0.227221 0.00177601 0.185969)
(-0.152162 0.00135211 -1.36369)
(-0.149297 0.00371767 -1.3596)
(-0.142306 0.00756246 -1.35929)
(-0.125243 0.00570077 -1.3799)
(-0.127425 0.00909545 -1.38546)
(-0.117713 0.00946991 -1.36279)
(0.134436 -0.00273666 -2.14997)
(0.13357 -0.00760904 -2.15125)
(0.12973 -0.0104459 -2.15101)
(0.11295 -0.0124157 -2.14989)
(0.102701 -0.00944817 -2.15582)
(0.108549 -0.00284005 -2.14214)
(-0.27287 -6.3904e-05 0.253142)
(-0.272478 0.000231952 0.252457)
(-0.272526 -0.00246377 0.252015)
(-0.272468 -0.0025911 0.254193)
(-0.272814 0.00248181 0.257675)
(-0.272337 0.00259231 0.248508)
(-1.31988 0.000343694 -1.27406)
(-1.31995 0.00156044 -1.26718)
(-1.31949 0.00378602 -1.26241)
(-1.31329 0.000893935 -1.28927)
(-1.31193 0.00511214 -1.29598)
(-1.31811 0.00761923 -1.25706)
(-0.347566 -0.00135568 -2.50269)
(-0.34907 -0.00325839 -2.50408)
(-0.352097 -0.00306637 -2.50242)
(-0.355146 -0.00368655 -2.50559)
(-0.357638 -0.00376394 -2.5097)
(-0.362547 -0.00141472 -2.49198)
(-0.515273 -0.000407214 0.248092)
(-0.515747 -0.000277948 0.247071)
(-0.515102 -0.00214286 0.246901)
(-0.516918 -0.0023338 0.248701)
(-0.516926 0.00216828 0.25164)
(-0.515282 0.00242774 0.244307)
(-1.83654 0.000575039 -1.98191)
(-1.83605 0.000733808 -1.98444)
(-1.83638 0.00137549 -1.98207)
(-1.83248 -0.00134613 -1.99707)
(-1.83111 0.00230873 -2.00466)
(-1.83702 0.00562567 -1.97385)
(-0.936546 -0.000440951 -3.19615)
(-0.937064 -0.00134287 -3.19744)
(-0.938924 -0.000408499 -3.19566)
(-0.937901 -0.000246165 -3.19952)
(-0.937582 -0.00255424 -3.20385)
(-0.944025 -0.0019882 -3.188)
(-1.74983 0.000268105 1.00958)
(-1.75246 0.000336511 1.01337)
(-1.75125 -0.0015357 1.01127)
(-1.75346 -0.00157659 1.01095)
(-1.75494 0.00169475 1.01093)
(-1.75047 0.00181289 1.01066)
(-3.34396 0.000266003 -4.95493)
(-3.34078 8.75652e-05 -4.96204)
(-3.34383 0.000733697 -4.95595)
(-3.33933 -0.000303205 -4.96575)
(-3.33808 0.000647501 -4.96632)
(-3.34554 0.00239049 -4.95333)
(-1.38032 -0.000128453 -3.64822)
(-1.37888 -0.000612192 -3.6508)
(-1.38094 0.000553441 -3.64987)
(-1.37889 0.00108806 -3.65074)
(-1.37849 -0.00210325 -3.65386)
(-1.38355 -0.00232353 -3.64586)
(3.42357 -0.310561 9.67607)
(3.62239 -0.0482441 9.71657)
(4.28194 -0.556273 9.80433)
(6.6659 -0.384036 11.6822)
(7.37345 0.207334 12.8664)
(4.15081 0.832657 9.32894)
(5.65745 -0.283219 10.0356)
(5.77753 -0.181223 10.2514)
(6.35454 -0.762419 10.624)
(8.55835 -0.545532 12.109)
(8.8848 -0.0165885 13.1976)
(5.5933 0.761469 10.6065)
(7.50452 -0.256192 15.1589)
(7.56052 -0.319691 15.5386)
(7.80458 -0.871507 15.3827)
(9.54873 -0.623988 15.1192)
(9.57973 -0.185074 15.6803)
(6.48464 0.711024 15.5602)
(-2.95974 0.194915 11.3045)
(-2.02396 0.437197 10.6455)
(-2.69865 0.211973 11.9383)
(-2.69096 -0.0771708 10.473)
(-2.25954 -1.5532 11.5757)
(-3.81472 -0.755258 12.8924)
(-2.92174 0.244081 13.9551)
(-2.51318 0.00855718 13.769)
(-3.25506 -0.0702849 14.9528)
(-4.05157 -0.149225 13.7553)
(-3.50108 -2.44102 14.2273)
(-2.36015 -1.30163 10.3478)
(-0.226658 0.291427 9.81931)
(-0.335113 -0.325154 11.0615)
(-0.393802 -0.420543 9.72382)
(-2.08688 0.223391 9.99588)
(-1.6021 -1.55675 10.1068)
(1.08704 -0.51966 3.68052)
(6.65407 0.155065 -2.10842)
(6.94638 0.181058 -2.63876)
(6.43103 -0.174136 -2.6943)
(6.3041 0.178594 -2.23787)
(6.493 -0.755484 -2.07102)
(5.56648 -0.455433 -1.63299)
(5.15974 -0.18787 -0.583539)
(5.35024 0.0755503 -0.423882)
(4.37668 -1.00014 -0.770639)
(2.76404 -0.245538 2.18537)
(3.29379 0.245959 1.85566)
(4.47806 0.730596 -0.90954)
(0.843021 -0.355416 0.172146)
(0.836928 -0.200455 1.3079)
(0.953532 -1.36498 -0.297469)
(0.571415 -0.414773 -1.28732)
(0.414522 0.523103 -1.10266)
(0.916966 1.11945 0.93932)
(0.474327 -0.0826723 -4.61894)
(0.37914 -0.0274016 -4.56489)
(0.427968 -0.261814 -4.47023)
(0.546953 -0.154175 -4.98481)
(0.268024 -0.0521638 -4.89292)
(0.332816 -0.0208809 -4.30183)
(0.214449 -0.109234 -4.81445)