/*--------------------------------*- C++ -*----------------------------------*\
| =========                 |                                                 |
| \\      /  F ield         | OpenFOAM: The Open Source CFD Toolbox           |
|  \\    /   O peration     | Version:  v1612+                                |
|   \\  /    A nd           | Web:      www.OpenFOAM.com                      |
|    \\/     M anipulation  |                                                 |
\*---------------------------------------------------------------------------*/
FoamFile
{
    version     2.0;
    format      ascii;
    class       surfaceScalarField;
    location    "1.7";
    object      alphaPhi;
}
// * * * * * * * * * * * * * * * * * * * * * * * * * * * * * * * * * * * * * //

dimensions      [0 3 -1 0 0 0 0];

internalField   nonuniform List<scalar> 
816
(
-7.87752e-08
6.73072e-07
3.73631e-07
6.2612e-07
3.94554e-06
-5.54056e-06
6.6759e-07
3.85559e-07
6.19108e-07
2.78292e-06
-4.54232e-06
9.13092e-07
9.33422e-07
-1.09309e-06
2.96272e-07
-3.85684e-07
-1.02026e-08
1.43807e-06
-5.75025e-07
7.34944e-07
1.95422e-10
-4.94922e-10
4.17971e-06
5.39695e-11
2.25491e-10
6.89044e-11
3.83106e-06
3.05135e-10
1.98975e-10
1.83587e-10
4.24876e-06
-4.024e-11
3.83966e-11
-7.84733e-11
-4.90554e-06
-1.38816e-10
2.99845e-10
6.44801e-11
-7.0928e-06
2.81556e-10
7.12567e-11
-3.12224e-10
9.06662e-07
3.47144e-10
2.17705e-10
-6.2745e-10
-1.07562e-05
-2.03716e-10
4.63751e-10
-7.42564e-10
1.82992e-07
-3.65576e-10
6.35884e-10
7.08644e-10
1.28798e-07
5.55379e-12
3.80534e-10
3.3926e-10
3.50715e-06
-4.92483e-10
8.07739e-10
6.27402e-11
3.52164e-06
-3.28962e-10
7.13293e-10
2.08599e-06
5.2206e-10
-3.40378e-10
-4.96085e-07
3.97141e-06
-2.72269e-07
7.05674e-06
-4.7144e-07
3.39446e-06
-1.79952e-06
7.1337e-06
3.37209e-06
7.45286e-06
4.37194e-06
4.68458e-07
6.00841e-06
6.73739e-08
9.75249e-08
2.4118e-06
-6.07083e-06
-2.47145e-06
-2.35847e-06
-2.07238e-06
-1.77838e-06
3.40379e-06
-1.64823e-06
-3.06703e-06
2.05582e-06
-6.22754e-06
-3.95969e-06
-2.49016e-06
3.19846e-07
-6.37043e-06
1.15108e-06
-1.87337e-06
-2.89872e-07
3.95096e-07
-9.30236e-07
1.97667e-06
1.80936e-06
7.1389e-07
5.5254e-06
3.64347e-06
1.81016e-06
4.32915e-06
1.55009e-06
7.3632e-06
1.87004e-07
7.83792e-06
7.62711e-06
4.76742e-07
4.70122e-07
-1.48936e-06
6.50936e-08
1.04597e-06
-1.39444e-06
-3.65202e-07
7.63322e-07
1.90165e-06
2.06626e-06
-6.69351e-07
-3.33832e-07
1.73927e-06
-5.75364e-08
9.07461e-07
6.84473e-07
-1.71859e-06
3.87976e-07
3.92122e-07
-1.11833e-06
-4.58231e-07
2.08858e-07
-9.10648e-07
-1.75864e-06
4.90103e-07
-1.93704e-07
3.05253e-07
1.08392e-06
-1.37318e-06
-2.69651e-07
1.1401e-06
-6.26398e-07
-5.76287e-07
2.84025e-06
7.73709e-07
-6.17322e-07
9.14302e-07
1.29889e-06
3.29241e-06
1.25579e-06
1.15515e-06
3.5539e-07
1.14987e-06
4.85371e-07
7.67468e-07
1.17487e-06
7.86401e-07
1.95851e-07
1.27114e-06
8.58941e-07
1.01667e-06
1.27925e-06
-8.23038e-07
-1.36233e-08
3.09926e-07
1.01013e-06
-1.31311e-07
2.43035e-07
-5.31946e-07
8.65387e-07
-5.09443e-08
-4.87053e-07
7.004e-07
-1.66885e-07
1.43295e-06
-5.52151e-07
1.59158e-07
5.23182e-07
1.54866e-06
8.55067e-07
2.02502e-07
6.25433e-07
5.15581e-09
-5.00984e-07
-4.89385e-08
-4.59341e-07
3.10016e-07
-3.12285e-07
-8.57146e-07
3.37231e-07
-3.03545e-07
-4.79738e-07
1.09739e-06
1.19292e-07
-7.22189e-07
9.04718e-07
-8.38237e-07
-5.68021e-08
-2.22043e-07
6.31862e-07
8.83896e-07
4.49746e-08
1.07961e-06
3.2648e-07
1.00894e-06
6.78571e-07
1.09396e-06
4.98009e-10
-6.36687e-10
2.80128e-11
4.43193e-10
3.62343e-10
-2.79289e-06
4.61641e-10
-2.90944e-10
-5.91227e-06
1.05945e-10
-2.35139e-10
4.78562e-06
6.65103e-11
-4.56094e-11
4.48925e-11
-2.44282e-11
-4.22693e-10
3.29841e-10
2.92256e-06
1.86783e-10
2.29579e-10
-7.03662e-06
-2.3498e-10
-2.06668e-11
1.55184e-12
-1.5451e-11
-5.65007e-11
2.86179e-11
-1.6023e-10
-7.14912e-10
2.2866e-06
3.2176e-10
9.79046e-11
-2.94216e-10
1.75777e-06
6.99081e-10
-7.13516e-10
2.92787e-11
-1.66029e-10
-2.8214e-10
8.56965e-07
-2.06981e-10
3.88139e-10
2.66097e-07
3.74058e-10
-4.07545e-11
1.13132e-06
-1.16801e-10
1.79142e-10
-2.47809e-11
3.91796e-06
3.13347e-10
1.86159e-10
2.94824e-07
2.24694e-10
-2.37117e-10
-5.55516e-06
-6.40479e-11
2.93083e-10
2.85999e-07
3.22732e-10
6.41878e-08
6.87401e-10
-1.67831e-10
1.5806e-06
-5.16342e-06
6.24928e-06
5.63667e-06
-7.03936e-07
7.53075e-07
5.60244e-06
-5.56198e-06
-6.13192e-08
4.86891e-06
-2.39073e-06
7.79556e-06
8.38758e-06
8.20725e-07
7.09202e-06
4.34965e-06
-3.86806e-06
5.1466e-06
5.84375e-06
7.62879e-06
-2.47805e-06
3.31867e-06
1.32287e-07
-6.10834e-06
5.56427e-06
-3.98634e-06
-3.56742e-06
6.54742e-06
-5.02868e-06
7.55146e-07
-3.15443e-06
3.59867e-06
3.71873e-06
-8.27963e-07
3.78049e-06
4.98742e-06
-5.16369e-06
2.33817e-06
1.87971e-06
-1.97678e-06
-1.00682e-06
-1.52839e-06
-1.58061e-06
-5.56415e-07
3.14164e-06
4.726e-07
2.81485e-06
3.87393e-06
-2.88228e-06
6.91653e-06
3.15057e-06
7.80166e-06
4.43402e-06
1.46815e-06
6.06909e-06
-2.95547e-06
4.75669e-06
2.46681e-06
-7.58224e-08
2.89914e-06
-4.92632e-06
-2.61062e-06
3.88714e-06
-7.23652e-06
-4.49562e-07
2.53073e-06
2.67616e-06
2.73884e-06
-7.92951e-07
3.18592e-07
1.80317e-06
-1.66156e-06
3.49219e-07
1.19981e-06
4.33072e-07
3.95161e-06
1.05597e-06
-9.79875e-07
3.44383e-06
2.79219e-06
2.25672e-06
5.79412e-07
2.2848e-06
1.63026e-06
5.934e-07
1.26516e-06
2.90854e-06
1.40908e-06
2.36899e-06
2.75065e-06
3.11463e-06
3.18132e-06
1.17665e-06
-1.10932e-06
-1.44182e-06
-7.42618e-07
3.2563e-06
-3.45814e-07
1.22948e-06
1.98043e-06
6.33238e-08
9.86611e-07
1.3971e-06
-5.98305e-07
-7.47978e-07
1.45857e-06
-7.55103e-07
-5.38283e-07
1.303e-06
-6.06404e-07
2.16784e-06
1.02872e-06
-5.37318e-07
-5.53652e-08
1.76131e-06
2.53216e-07
-1.59484e-07
2.20085e-07
2.12846e-06
8.59662e-07
1.89424e-06
3.13109e-06
2.31528e-06
8.59105e-07
1.70895e-06
-1.5849e-06
1.83538e-06
1.93792e-06
-4.91969e-07
1.55991e-06
8.24139e-07
1.75179e-06
-5.42039e-07
2.0218e-07
9.92507e-07
-8.39275e-07
3.0455e-07
1.02201e-06
3.46626e-07
1.23224e-06
9.57456e-07
-2.90059e-07
1.08131e-06
1.84814e-06
1.11977e-06
3.81842e-07
6.93659e-07
1.06263e-06
1.64684e-07
6.49374e-07
1.67347e-06
5.94512e-07
6.12787e-07
1.32692e-06
1.85873e-06
9.47342e-07
5.07448e-07
-3.75861e-07
-4.24571e-07
-5.06756e-07
1.71427e-06
-2.84257e-07
2.64367e-07
1.17341e-06
-2.35416e-07
2.12373e-07
1.02216e-06
-1.01308e-06
-9.14604e-08
1.20692e-06
-1.37823e-06
-1.12528e-08
7.45748e-07
7.70127e-08
6.27938e-07
8.32373e-07
-7.4054e-07
5.43822e-07
5.68478e-07
-1.10404e-07
9.1989e-08
1.50299e-07
1.14258e-06
6.53801e-07
6.34184e-07
1.74091e-06
1.40878e-06
2.92833e-07
4.68856e-07
-3.87367e-07
9.67992e-07
7.79157e-07
7.81279e-08
5.95759e-07
1.47182e-07
3.51429e-07
3.7021e-07
9.54146e-08
4.6085e-07
4.32952e-07
6.02964e-07
-4.57164e-07
1.95056e-07
4.69826e-07
6.66055e-08
-2.46398e-07
2.63051e-07
-2.53888e-07
2.41241e-07
6.27612e-07
-3.85795e-07
1.92985e-08
9.38439e-07
3.47093e-07
5.30993e-07
1.00152e-07
-1.93269e-07
-2.01056e-08
4.27306e-07
-3.86107e-07
3.61948e-07
-1.86756e-07
5.18267e-07
-3.39929e-07
4.05408e-07
-3.10827e-07
-8.38435e-08
1.67027e-07
6.39291e-08
5.16938e-07
4.94794e-07
3.98952e-07
-3.44065e-07
8.50852e-07
7.92695e-07
-3.84736e-07
4.88837e-07
-3.93268e-07
5.4794e-07
1.38192e-07
3.13395e-07
-6.95602e-08
7.34567e-07
5.45196e-07
2.20216e-07
4.24745e-07
3.94332e-07
8.2265e-07
4.65512e-07
6.47824e-07
1.02432e-06
3.77331e-07
-2.93323e-07
-2.30937e-08
9.14757e-07
-2.97739e-07
7.06384e-07
-3.39624e-07
6.01938e-07
-5.47186e-07
6.21106e-07
-5.68569e-07
4.09829e-07
-2.46367e-08
3.3781e-07
-2.5898e-07
1.50227e-07
7.37683e-08
2.11208e-08
4.30064e-07
3.59439e-07
7.90594e-07
6.71455e-07
3.67096e-07
5.91833e-07
5.27981e-07
1.28861e-10
7.92952e-11
-7.76173e-06
3.36036e-10
-8.53023e-06
-5.89495e-11
-9.32278e-06
-4.17996e-10
-5.25034e-06
-4.04194e-10
-1.07425e-05
-2.25548e-10
-1.23001e-05
1.92452e-10
3.69807e-06
2.8389e-10
2.19933e-06
3.76421e-10
-1.38164e-05
1.64062e-10
-1.28761e-05
1.53816e-10
3.04668e-07
6.23011e-10
3.62993e-06
1.76519e-10
-1.00765e-06
-1.0173e-10
-5.66772e-06
-3.32915e-10
-7.06523e-06
-7.9985e-10
-8.32523e-06
-6.4665e-10
-7.38524e-06
-1.74521e-10
1.15946e-06
-7.08321e-11
-8.85774e-06
-1.82015e-10
-8.2146e-06
5.42637e-10
3.55259e-06
1.00382e-10
2.36437e-11
-9.23408e-11
-7.2319e-06
-1.02911e-10
-1.57996e-05
-2.7397e-11
-1.1408e-05
1.09365e-10
3.62396e-06
7.05408e-10
3.10669e-06
-5.73877e-06
2.45364e-06
-5.59811e-06
-4.49241e-06
-2.95901e-07
-2.91519e-06
5.61627e-07
-4.76259e-06
1.03918e-06
-1.8297e-06
-4.55131e-06
4.14725e-07
-1.04583e-05
-6.1347e-06
4.60593e-06
-1.66173e-06
1.09349e-05
-1.14167e-06
1.85145e-06
-9.82482e-07
-8.55425e-06
-6.73874e-06
-3.1923e-06
-9.06952e-06
7.79889e-06
-6.14233e-07
5.3291e-06
4.72977e-06
-1.11021e-06
-1.46216e-06
1.29899e-06
-8.88456e-06
-3.12325e-06
-4.25827e-06
-7.83751e-06
-2.71467e-06
-6.92277e-07
-3.54674e-06
-8.51494e-07
-3.65421e-06
-6.61691e-06
-1.98769e-06
5.73748e-06
2.67784e-06
7.96415e-06
3.55181e-06
4.5755e-06
1.73316e-06
-4.73501e-06
-5.51112e-06
-9.15324e-06
-7.75739e-06
-1.47285e-06
4.75325e-07
6.04851e-06
-2.47759e-06
-5.27711e-06
-1.59183e-06
1.20091e-06
-2.2705e-06
-2.54556e-07
-1.55424e-06
-1.31281e-06
-1.92217e-06
-7.92546e-07
-1.16006e-06
7.19741e-07
-5.23887e-08
4.61231e-07
-3.09482e-06
-5.35845e-07
-6.73708e-07
4.79538e-07
7.4706e-08
2.04226e-06
-9.18404e-07
1.24298e-06
-3.03825e-06
-1.30116e-06
-3.77529e-06
-6.92551e-07
-4.04767e-08
1.37773e-06
1.90434e-06
1.05803e-06
-1.1415e-06
-9.25334e-07
-3.65609e-06
-1.03163e-06
-2.18226e-06
-5.75091e-07
-1.78108e-06
-4.98179e-07
-2.1789e-06
-1.14551e-06
-1.71157e-06
-1.30543e-06
-7.95504e-07
-6.30816e-08
1.43274e-06
6.1768e-07
2.34059e-06
1.72386e-06
8.84054e-07
8.82443e-07
-2.5543e-06
-3.2933e-07
-3.4285e-06
1.27427e-06
5.67819e-07
1.76515e-06
-1.03818e-06
-2.32554e-06
-7.99806e-07
3.09007e-07
-8.29905e-07
-2.76722e-07
-3.56502e-07
-5.59969e-07
-6.65647e-07
-2.43932e-07
-4.70227e-07
4.90423e-07
1.44834e-07
2.58731e-08
-7.88601e-07
-3.8623e-07
-2.69424e-07
7.61806e-07
2.99401e-08
1.11484e-06
-2.09871e-07
5.71595e-07
-8.20261e-07
-6.74933e-07
-1.19488e-06
-1.32946e-08
-1.8833e-07
1.04969e-06
3.32166e-07
4.32654e-07
-5.27144e-07
-2.66935e-07
-1.25882e-06
-4.69664e-07
-8.4049e-07
-5.80486e-07
-6.58069e-07
-9.1073e-07
-6.47666e-07
-1.35091e-06
-5.20812e-07
-1.17204e-06
-1.38793e-07
-1.13767e-07
3.8112e-07
8.74096e-07
6.0386e-07
1.46371e-06
1.65877e-07
6.17093e-07
-6.00608e-07
-1.26298e-07
-9.6272e-07
8.45438e-07
4.96421e-08
1.03222e-06
-4.62786e-07
-9.96063e-07
-6.22859e-07
3.74015e-07
-2.00671e-07
-3.84013e-07
-3.10552e-07
1.40703e-07
8.88707e-08
-1.78697e-07
3.93719e-07
6.11258e-07
6.17829e-07
7.84806e-08
2.72634e-07
5.86741e-07
6.13074e-08
-2.848e-07
-4.26662e-07
-4.88013e-07
-5.15301e-07
-6.26845e-07
-4.31779e-07
-5.12558e-08
2.86587e-07
5.1116e-07
3.2964e-07
1.53088e-07
5.66612e-07
6.26379e-07
2.59548e-10
-1.57519e-10
9.37369e-11
-1.82812e-10
1.42555e-11
1.7295e-10
-1.76894e-07
-6.2113e-06
6.42029e-06
3.69623e-06
4.35957e-06
4.66686e-06
)
;

boundaryField
{
    top_fluid_surface
    {
        type            calculated;
        value           nonuniform List<scalar> 
64
(
0
0
0
1.02778e-10
0
0
1.30275e-10
0
0
3.57548e-12
0
0
0
0
5.11099e-10
0
1.1581e-10
0
9.42332e-11
3.2479e-10
3.74865e-10
2.32594e-11
0
1.79347e-10
0
0
2.13238e-10
0
0
6.49774e-11
0
0
3.62122e-10
2.35272e-10
5.90254e-10
4.24998e-10
6.20659e-11
0
0
0
1.52342e-10
3.5637e-11
0
0
5.39871e-10
3.40057e-10
3.92157e-10
7.83513e-10
0
0
1.95892e-10
2.435e-11
0
3.87657e-10
5.20346e-10
2.89604e-10
0
0
0
5.38989e-10
4.47946e-10
6.31851e-10
5.68098e-10
3.40996e-10
)
;
    }
    bottom_fluid_surface
    {
        type            calculated;
        value           uniform 0;
    }
    lateral_surface_1
    {
        type            calculated;
        value           uniform 0;
    }
    lateral_surface_2
    {
        type            calculated;
        value           uniform 0;
    }
    lateral_surface_3
    {
        type            calculated;
        value           uniform 0;
    }
    lateral_surface_4
    {
        type            calculated;
        value           uniform 0;
    }
}


// ************************************************************************* //
