/*--------------------------------*- C++ -*----------------------------------*\
| =========                 |                                                 |
| \\      /  F ield         | OpenFOAM: The Open Source CFD Toolbox           |
|  \\    /   O peration     | Version:  v1612+                                |
|   \\  /    A nd           | Web:      www.OpenFOAM.com                      |
|    \\/     M anipulation  |                                                 |
\*---------------------------------------------------------------------------*/
FoamFile
{
    version     2.0;
    format      ascii;
    class       volScalarField;
    location    "3.15";
    object      p_rgh;
}
// * * * * * * * * * * * * * * * * * * * * * * * * * * * * * * * * * * * * * //

dimensions      [1 -1 -2 0 0 0 0];

internalField   nonuniform List<scalar> 
320
(
-9800.21
-9800.21
-9800.2
-9800.19
-0.00405224
0.00504981
0.00353793
-0.00307264
-0.00311093
-0.00618116
-0.00546576
-0.000570563
-0.00543533
8.32558e-05
0.000536076
0.000811211
-9799.98
-9800.06
-9800.07
-9800.01
-9800.07
-9799.99
-9800.04
-9800.04
-9799.97
-9799.99
-9800.1
-9800.07
-9800.22
-9800.22
-9800.21
-9800.21
-9800.19
-9800.21
-9800.2
-9800.2
-9800.2
-9800.21
-9800.2
-9800.2
-9800.21
-9800.21
-9800.2
-9800.2
-9800.21
-9800.22
-9800.22
-9800.21
-9800.2
-9800.21
-9800.2
-9800.2
-9800.2
-9800.21
-9800.2
-9800.2
0.00193754
-0.00241016
0.00485021
-0.00151219
0.00519032
0.00585325
-0.00256053
0.00818345
-0.00231122
0.000940269
0.00122132
-3.80567e-05
-0.00551732
0.00227501
0.00119176
-0.00245453
-0.000239412
-0.00372983
0.000885661
0.00126405
-9800.13
-9800
-9800.05
-9799.98
-9800.09
-9800.14
-9800.05
-9800.17
-9800
-9800.01
-9800.08
-9800.12
-9799.97
-9800.1
-9800.09
-9800.06
-9800.07
-9800.06
-9800.07
-9800.1
-9800.21
-9800.22
-9800.22
-9800.22
-9800.21
-9800.2
-9800.2
-9800.2
-9800.21
-9800.22
-9800.21
-9800.2
-9800.21
-9800.2
-9800.2
-9800.19
-9800.19
-9800.19
-9800.2
-9800.21
-9800.2
-9800.22
-9800.22
-9800.21
-9800.21
-9800.21
-9800.2
-9800.2
-9800.21
-9800.21
-9800.21
-9800.2
-9800.21
-9800.2
-9800.2
-9800.2
-9800.19
-9800.2
-9800.2
-9800.21
-9800.21
-9800.21
-9800.2
-9800.2
-9800.21
-9800.21
-9800.21
-9800.21
-9800.21
-9800.21
-9800.2
-9800.2
-9800.2
-9800.2
-9800.2
-9800.21
-9800.21
-9800.21
-9800.21
-9800.21
-9800.21
-9800.21
-9800.2
-9800.2
-9800.21
-9800.21
-9800.21
-9800.2
-9800.2
-9800.2
-9800.2
-9800.2
-9800.2
-9800.2
-9800.21
-9800.21
0.00184811
0.00222917
-0.000342851
0.00856137
-0.00186108
-0.00493401
-0.00202654
-0.00147741
-0.00348783
-0.0121398
-0.00413452
0.0034053
0.00597753
0.00557587
-0.00412494
0.00213145
0.00304009
-0.00156881
-0.0111701
-0.000171929
-0.00191403
0.00492392
0.00220919
-0.0135234
-0.0061339
-0.000180677
0.00430582
0.00457224
-9800.04
-9800.13
-9800.02
-9800.13
-9800.06
-9800.02
-9799.99
-9800
-9800.06
-9799.99
-9799.95
-9800.03
-9800.11
-9800.09
-9799.98
-9800.08
-9800.03
-9800.04
-9799.99
-9800.03
-9800
-9800.09
-9800.12
-9799.96
-9800.03
-9800.09
-9800.06
-9800.05
-9800.23
-9800.2
-9800.23
-9800.21
-9800.21
-9800.21
-9800.21
-9800.21
-9800.2
-9800.19
-9800.22
-9800.23
-9800.22
-9800.22
-9800.22
-9800.21
-9800.21
-9800.2
-9800.2
-9800.2
-9800.21
-9800.21
-9800.19
-9800.2
-9800.19
-9800.21
-9800.22
-9800.23
-9800.22
-9800.21
-9800.23
-9800.21
-9800.21
-9800.21
-9800.21
-9800.21
-9800.2
-9800.2
-9800.21
-9800.22
-9800.21
-9800.21
-9800.21
-9800.21
-9800.21
-9800.2
-9800.2
-9800.2
-9800.2
-9800.2
-9800.2
-9800.2
-9800.2
-9800.21
-9800.22
-9800.22
-9800.22
-9800.21
-9800.22
-9800.21
-9800.21
-9800.21
-9800.21
-9800.21
-9800.21
-9800.21
-9800.21
-9800.21
-9800.21
-9800.21
-9800.21
-9800.21
-9800.21
-9800.2
-9800.2
-9800.2
-9800.2
-9800.2
-9800.2
-9800.2
-9800.2
-9800.21
-9800.21
-9800.22
-0.00121303
0.00950978
0.00495166
-0.00154447
-9799.97
-9800.11
-9800.13
-9800.07
)
;

boundaryField
{
    top_fluid_surface
    {
        type            totalPressure;
        rho             rho;
        psi             none;
        gamma           1;
        p0              uniform 0;
        value           nonuniform List<scalar> 
64
(
-7.01166e-09
0
0
-2.02848e-09
-1.75517e-09
-7.05717e-09
-6.85095e-09
-3.88351e-10
-6.04377e-09
-2.69919e-12
0
-1.67772e-10
0
-1.99331e-09
0
-8.39041e-10
0
0
-1.66949e-09
0
-2.06885e-09
-1.34836e-10
0
0
-6.03968e-09
0
0
-9.1226e-10
-3.90064e-11
-2.56e-09
0
0
0
0
0
0
-1.86122e-09
-6.40364e-09
-8.08949e-10
-1.28963e-09
-2.66384e-09
-2.434e-08
-4.38224e-09
0
0
0
-5.71734e-09
0
0
-3.19054e-10
-2.50581e-08
-4.02587e-10
-4.59719e-09
0
0
-3.41877e-08
-9.07073e-09
0
0
0
-2.91279e-10
0
0
-3.37933e-11
)
;
    }
    bottom_fluid_surface
    {
        type            fixedFluxPressure;
        gradient        uniform 0;
        value           nonuniform List<scalar> 
64
(
-9800.21
-9800.21
-9800.2
-9800.2
-9800.21
-9800.21
-9800.21
-9800.21
-9800.21
-9800.21
-9800.2
-9800.2
-9800.2
-9800.2
-9800.2
-9800.21
-9800.21
-9800.21
-9800.21
-9800.21
-9800.21
-9800.21
-9800.2
-9800.2
-9800.21
-9800.21
-9800.21
-9800.2
-9800.2
-9800.2
-9800.2
-9800.2
-9800.2
-9800.2
-9800.21
-9800.21
-9800.22
-9800.21
-9800.22
-9800.21
-9800.21
-9800.21
-9800.21
-9800.21
-9800.21
-9800.21
-9800.21
-9800.21
-9800.21
-9800.21
-9800.21
-9800.21
-9800.21
-9800.2
-9800.2
-9800.2
-9800.2
-9800.2
-9800.2
-9800.2
-9800.2
-9800.21
-9800.21
-9800.22
)
;
    }
    lateral_surface_1
    {
        type            fixedFluxPressure;
        gradient        uniform 0;
        value           nonuniform List<scalar> 
40
(
0.00184811
0.00222917
-0.000342851
0.00856137
-0.00186108
-0.00493401
-0.00202654
0.00457224
-9800.04
-9800.13
-9800.02
-9800.13
-9800.06
-9800.02
-9799.99
-9800.05
-9800.23
-9800.2
-9800.23
-9800.21
-9800.21
-9800.21
-9800.21
-9800.23
-9800.22
-9800.21
-9800.23
-9800.21
-9800.21
-9800.21
-9800.21
-9800.22
-9800.22
-9800.21
-9800.22
-9800.21
-9800.21
-9800.21
-9800.21
-9800.22
)
;
    }
    lateral_surface_2
    {
        type            fixedFluxPressure;
        gradient        uniform 0;
        value           nonuniform List<scalar> 
40
(
0.00557587
-0.00412494
0.00213145
0.00304009
-0.00156881
-0.0111701
-0.000171929
-0.00191403
-9800.09
-9799.98
-9800.08
-9800.03
-9800.04
-9799.99
-9800.03
-9800
-9800.22
-9800.22
-9800.21
-9800.21
-9800.2
-9800.2
-9800.2
-9800.21
-9800.21
-9800.21
-9800.21
-9800.21
-9800.2
-9800.2
-9800.2
-9800.2
-9800.21
-9800.21
-9800.21
-9800.21
-9800.2
-9800.2
-9800.2
-9800.2
)
;
    }
    lateral_surface_3
    {
        type            fixedFluxPressure;
        gradient        uniform 0;
        value           nonuniform List<scalar> 
40
(
-0.00202654
-0.00147741
-0.00348783
-0.0121398
-0.00413452
0.0034053
0.00597753
0.00557587
-9799.99
-9800
-9800.06
-9799.99
-9799.95
-9800.03
-9800.11
-9800.09
-9800.21
-9800.21
-9800.2
-9800.19
-9800.22
-9800.23
-9800.22
-9800.22
-9800.21
-9800.21
-9800.2
-9800.2
-9800.21
-9800.22
-9800.21
-9800.21
-9800.21
-9800.21
-9800.21
-9800.21
-9800.21
-9800.21
-9800.21
-9800.21
)
;
    }
    lateral_surface_4
    {
        type            fixedFluxPressure;
        gradient        uniform 0;
        value           nonuniform List<scalar> 
40
(
-0.00191403
0.00492392
0.00220919
-0.0135234
-0.0061339
-0.000180677
0.00430582
0.00457224
-9800
-9800.09
-9800.12
-9799.96
-9800.03
-9800.09
-9800.06
-9800.05
-9800.21
-9800.21
-9800.19
-9800.2
-9800.19
-9800.21
-9800.22
-9800.23
-9800.2
-9800.2
-9800.2
-9800.2
-9800.2
-9800.21
-9800.22
-9800.22
-9800.2
-9800.2
-9800.2
-9800.2
-9800.2
-9800.21
-9800.21
-9800.22
)
;
    }
}


// ************************************************************************* //
