/*--------------------------------*- C++ -*----------------------------------*\
| =========                 |                                                 |
| \\      /  F ield         | OpenFOAM: The Open Source CFD Toolbox           |
|  \\    /   O peration     | Version:  v1612+                                |
|   \\  /    A nd           | Web:      www.OpenFOAM.com                      |
|    \\/     M anipulation  |                                                 |
\*---------------------------------------------------------------------------*/
FoamFile
{
    version     2.0;
    format      ascii;
    class       surfaceScalarField;
    location    "3.15";
    object      phi;
}
// * * * * * * * * * * * * * * * * * * * * * * * * * * * * * * * * * * * * * //

dimensions      [0 3 -1 0 0 0 0];

internalField   nonuniform List<scalar> 
816
(
-2.68507e-06
-1.86808e-06
2.53564e-06
-8.87552e-08
-4.72072e-07
2.56377e-06
-9.10307e-07
2.82169e-06
-1.3201e-06
3.65073e-06
-6.93343e-06
-2.25687e-06
2.81221e-06
1.77178e-06
2.78985e-06
-6.99924e-06
-2.46925e-06
1.87427e-06
7.13306e-07
-3.33037e-06
0.000172802
-5.68947e-05
9.92024e-06
5.82759e-05
8.43132e-06
2.6932e-05
-6.93312e-06
0.000117152
-0.000165026
-7.55822e-05
-1.06374e-05
4.01141e-07
-2.77982e-05
-2.08652e-05
1.23193e-05
-0.000142755
0.000192225
-2.88096e-05
1.36531e-05
0.000128342
-6.19189e-05
-3.68773e-05
-3.20198e-06
9.87805e-05
0.000127698
-4.7847e-05
4.69751e-06
-2.19376e-05
0.000237757
-5.98758e-05
8.33936e-06
-8.96497e-05
0.000115302
0.00020206
-7.0347e-06
-6.52358e-05
4.62783e-05
0.000220464
-3.43703e-06
-0.000202929
0.000181882
0.000253787
-4.06754e-06
-0.000107493
6.72624e-05
2.62924e-05
0.000184725
-1.82759e-05
7.75985e-06
2.41455e-06
-1.30073e-05
1.57329e-06
1.04805e-05
6.9404e-06
-1.798e-05
9.61919e-07
5.88715e-06
1.15777e-06
-7.64659e-06
-3.64711e-06
2.56581e-06
-1.25921e-06
5.37445e-06
-1.66784e-06
3.37171e-06
-3.32364e-06
8.15994e-06
-4.67023e-06
2.61026e-06
1.73811e-06
-9.57481e-06
-6.49124e-06
2.61503e-06
-2.8961e-07
-1.72099e-08
-1.61452e-06
7.93631e-06
2.05168e-06
3.40455e-06
-3.3557e-06
6.94266e-06
3.22455e-06
-2.01297e-05
8.55724e-07
7.15921e-06
3.59757e-06
-7.68549e-06
-2.35046e-06
7.46885e-06
9.59032e-07
-2.95935e-06
-1.35003e-07
8.10426e-07
1.42175e-05
6.4693e-06
3.44912e-06
1.77115e-06
-6.25218e-06
-6.53939e-06
5.37953e-07
-4.13743e-06
-7.43973e-06
-1.88919e-06
-1.46146e-06
-3.29592e-06
-2.24806e-06
-4.79119e-06
9.85458e-08
2.29674e-06
1.19815e-07
2.20467e-06
2.84364e-06
6.2237e-07
1.43658e-06
-4.9492e-06
-3.0704e-06
-8.21623e-07
2.53972e-06
2.45469e-08
5.0348e-07
3.50591e-06
1.01203e-06
4.2198e-06
-2.21202e-06
-9.39607e-06
-1.53803e-06
-3.47217e-06
-5.36916e-06
-3.05676e-06
2.85159e-07
-5.39722e-06
-1.69847e-06
-1.34327e-06
6.13383e-06
-2.76829e-06
-7.96464e-07
-1.84949e-06
-6.33331e-07
1.42988e-06
5.33969e-07
2.37042e-08
8.71648e-08
1.21741e-06
-5.74721e-07
1.01178e-06
-1.14241e-06
1.81127e-06
1.041e-06
4.14736e-07
-1.80163e-06
7.58768e-07
5.40601e-07
5.48379e-07
-3.46617e-06
-1.76094e-07
-2.02246e-06
-2.37983e-06
-1.33805e-06
-1.97207e-06
-4.9582e-07
-1.74297e-06
-2.55956e-06
-9.16428e-07
3.3365e-07
3.22829e-07
5.43963e-07
1.04846e-06
-3.95972e-07
6.87752e-07
1.28781e-06
-3.05478e-06
-8.38914e-07
-1.30835e-06
1.87106e-06
1.28464e-07
1.09017e-07
2.2531e-06
2.55932e-06
-1.11744e-07
-1.37118e-06
-8.77693e-07
-1.92917e-06
-2.96182e-06
-2.83865e-06
3.78769e-07
-9.22487e-07
-3.37466e-06
-1.16422e-07
-5.5058e-07
-1.90504e-06
-5.83422e-07
1.78117e-06
-3.12055e-05
1.81078e-05
2.19464e-05
0.000114436
4.98943e-05
5.58188e-06
6.60136e-05
-0.000113515
-4.49539e-06
8.58852e-05
-5.04903e-05
5.81313e-06
-1.23789e-06
-3.42809e-05
-2.43685e-06
-0.000107181
-0.000128744
-0.000145013
5.06338e-07
-0.000169358
-3.87337e-06
7.3366e-06
-0.000220251
-0.000136064
3.66842e-08
-0.000112635
-5.36153e-05
1.74357e-05
9.95674e-05
-0.000143247
9.76312e-06
0.000152403
-7.18177e-05
-0.000138497
5.28391e-06
7.00783e-05
-0.000173707
2.26237e-06
-3.07643e-05
-4.51098e-05
-5.09031e-06
2.07066e-05
1.13594e-05
-1.71392e-06
-0.000219976
-2.31538e-05
-4.46668e-06
-3.52887e-05
1.71546e-05
5.32267e-05
-1.81307e-06
5.75884e-05
8.40563e-05
4.81181e-06
-0.000223299
0.00020844
1.88468e-05
-0.000114109
0.000131326
-0.000154543
-1.97386e-05
-8.47552e-07
9.02772e-05
1.62585e-06
-7.65927e-07
-3.72034e-06
1.92199e-05
7.11851e-06
2.06363e-06
-2.63102e-06
6.60308e-06
-8.45243e-07
-4.89863e-06
2.34388e-06
-2.07335e-06
5.69539e-06
-6.42161e-07
3.05566e-06
8.63571e-06
-7.62033e-06
-1.03693e-05
2.41936e-07
9.62811e-06
-3.95154e-06
-2.16582e-06
9.34313e-06
-1.30891e-06
-1.46516e-05
2.27319e-05
-1.22265e-05
-1.29795e-05
1.59158e-05
-8.87901e-06
7.75042e-06
-9.78852e-06
6.78113e-06
-3.96797e-06
6.30988e-06
3.15078e-06
6.20093e-06
-3.8654e-06
8.98968e-06
-1.7999e-06
-6.95458e-07
-1.65234e-05
1.1221e-06
6.85764e-07
1.98349e-06
-3.36037e-06
5.03712e-06
-1.63627e-06
-9.58468e-06
-4.24889e-07
1.91727e-06
-1.92876e-06
7.811e-06
-2.44167e-06
6.73845e-06
-5.58305e-07
-6.61406e-06
1.76426e-05
-5.22615e-06
-2.14964e-06
1.2467e-05
3.66362e-06
-1.43835e-06
8.67166e-07
-5.89709e-06
2.02731e-06
4.78723e-06
8.60467e-06
1.0552e-06
2.04678e-07
-1.60204e-06
1.33088e-06
-2.29236e-06
-1.40592e-06
-2.89972e-06
1.37408e-06
3.25768e-06
-3.51452e-06
-2.78799e-06
4.9622e-06
2.74775e-06
5.05516e-06
-2.02468e-06
4.4191e-06
-3.93225e-07
-9.46823e-07
4.0109e-06
4.34621e-06
3.75894e-06
1.00672e-05
8.59823e-06
6.17986e-06
7.77146e-06
2.64954e-06
7.72834e-07
-4.23985e-06
-4.36275e-06
4.21524e-06
1.37437e-06
1.73991e-06
1.83768e-08
4.74853e-06
3.78396e-06
2.31956e-06
-2.58708e-07
-7.83619e-06
5.52753e-07
-1.05967e-06
9.46826e-07
3.20505e-07
-2.16748e-06
-6.58583e-07
1.5729e-07
-1.72694e-08
-3.51277e-06
-1.39778e-06
-2.61961e-06
-2.92664e-06
2.81389e-06
3.60868e-06
2.0176e-06
7.5554e-06
3.79866e-06
4.63759e-06
5.39484e-06
3.66019e-06
-8.08523e-07
2.98756e-06
5.79921e-06
8.67819e-07
2.65782e-06
2.63e-06
5.54761e-07
-3.50385e-07
-5.10958e-07
-5.44321e-08
-1.65038e-06
2.99583e-07
-1.75024e-06
8.67073e-07
8.13051e-07
-1.84853e-06
-1.13792e-06
1.42959e-06
2.09462e-06
3.43449e-06
-8.53564e-07
1.46699e-06
1.10558e-07
-9.39646e-07
1.78016e-06
2.63094e-06
1.54782e-06
2.95685e-06
4.20508e-06
3.59353e-06
2.37791e-06
2.87028e-07
1.12413e-06
-6.39545e-07
-3.34713e-06
2.23251e-06
1.24539e-06
7.63913e-07
8.46124e-08
3.05353e-06
1.07954e-06
1.05518e-06
-2.82389e-07
-2.29939e-06
3.63585e-07
-9.06675e-07
1.55307e-07
5.50348e-07
-5.7606e-07
-2.5828e-07
-2.96755e-07
-4.16453e-07
-2.01521e-06
-1.44428e-07
-1.75556e-06
-1.85481e-06
8.67525e-07
2.13907e-06
5.99948e-07
2.24568e-06
2.73532e-06
1.98367e-06
1.57185e-06
1.85356e-06
-1.8486e-07
1.14536e-06
2.87259e-06
-1.09475e-06
8.94488e-09
6.1567e-07
5.00158e-07
2.32283e-07
2.09342e-07
-5.28254e-07
-1.04093e-06
9.06244e-07
5.59392e-07
-1.01507e-06
7.47592e-07
-7.20213e-08
-1.39075e-06
5.73722e-08
-1.10294e-06
-7.25884e-07
-3.12511e-07
-5.43707e-07
-1.17373e-06
4.04034e-08
-3.26448e-07
3.16168e-07
-5.99135e-07
9.94164e-07
-1.56054e-06
-4.11039e-07
1.48885e-06
3.93053e-07
1.26156e-06
1.03118e-06
-1.05798e-06
-1.10643e-08
-6.28012e-07
-1.58062e-06
1.573e-07
-1.70751e-06
8.14935e-08
-1.1436e-06
-1.6031e-07
1.14586e-07
1.4098e-06
-2.32763e-08
-5.50166e-07
2.29982e-07
-5.37282e-07
-4.38495e-07
2.98512e-07
-5.61068e-07
-6.59957e-07
8.66491e-07
1.52367e-06
-5.1621e-07
1.6209e-07
-2.19448e-07
1.15679e-06
7.92341e-07
1.3594e-06
1.41709e-06
2.16272e-07
9.47586e-07
-1.27237e-06
1.12727e-06
1.11516e-06
2.27565e-07
1.83448e-06
7.6243e-07
2.32129e-07
3.42015e-07
-1.15125e-07
5.01481e-07
-6.41422e-07
2.17403e-07
5.69622e-08
-1.07867e-06
-3.41715e-07
-9.68046e-07
9.06319e-07
1.7224e-07
1.18356e-06
7.97091e-07
7.86223e-07
6.09028e-07
1.42011e-06
-1.93442e-05
3.82031e-05
-5.59306e-06
-1.68947e-05
-3.29981e-06
6.57562e-05
-1.27324e-05
-0.000189117
6.72656e-07
-0.000134786
2.64718e-05
-8.61251e-05
5.59705e-06
-1.80475e-06
-4.25662e-06
-6.98223e-05
3.32276e-06
-0.000118914
6.83386e-06
0.000158051
-9.68856e-06
0.000216944
3.74336e-06
0.000163671
1.95078e-05
3.4704e-05
1.68221e-05
-0.000176676
-7.04262e-06
-8.35323e-05
1.1469e-05
-9.96274e-05
-6.5877e-06
-0.000252054
-4.1748e-06
-0.000172408
-3.75829e-06
4.13714e-05
1.73959e-06
3.83759e-05
1.14583e-05
0.000115168
2.84372e-05
-5.89191e-05
-2.85928e-06
-0.000105024
-6.75273e-06
0.000220887
-6.12902e-06
0.000314644
8.79476e-07
0.000297792
-6.11319e-06
0.000138205
-3.62794e-06
5.37221e-06
5.09846e-06
-7.58118e-06
-5.23103e-06
-3.66877e-07
6.24909e-06
-1.31687e-06
-1.08031e-05
-4.29532e-06
8.06354e-06
-5.22784e-06
1.82178e-05
-3.78549e-06
-4.22665e-06
2.28876e-06
-1.50926e-05
6.53628e-06
-1.19599e-05
-1.3178e-07
9.42643e-06
-9.34413e-06
-6.61348e-06
-3.71548e-06
-2.78508e-05
1.06815e-05
-4.58786e-06
5.75127e-06
2.12928e-05
-3.75962e-06
4.44373e-06
7.97597e-06
-1.07496e-05
3.8842e-06
4.48554e-07
-5.5267e-06
-1.34425e-06
-4.64846e-06
-6.25868e-06
-5.15871e-06
-5.85258e-06
-7.02429e-06
3.21707e-06
1.6455e-05
-3.45962e-06
8.37908e-06
3.28935e-06
-4.84338e-06
9.41456e-06
-4.31377e-06
-1.28316e-05
-5.6033e-07
-7.37593e-06
-3.99569e-06
-2.29249e-06
-1.62203e-06
-1.23054e-05
-4.9016e-06
-2.78868e-06
2.61883e-06
-2.07942e-06
1.67568e-06
2.8352e-06
-3.59091e-06
-4.21336e-06
-2.26894e-06
3.83247e-06
4.56061e-06
7.88062e-06
5.63213e-06
-2.55329e-06
-2.64636e-06
-6.81499e-06
-3.97082e-06
-5.58147e-06
1.66847e-06
3.41101e-06
3.35727e-06
-3.92833e-06
-4.76806e-06
-1.11736e-05
-6.16494e-06
-5.56574e-07
5.95887e-07
1.01961e-05
2.59701e-06
2.44694e-06
3.64741e-07
-4.30636e-06
1.17848e-06
-3.16024e-07
2.61902e-06
-3.17374e-07
4.56219e-07
-3.54745e-06
-1.21291e-06
-3.84777e-06
5.98769e-07
1.56633e-06
-2.08839e-06
-7.45258e-07
-5.23042e-07
1.7138e-06
2.20549e-06
4.06332e-06
-7.89145e-07
-6.25789e-06
-2.7347e-07
-4.09643e-06
2.07082e-06
-9.83514e-07
2.76053e-07
-4.72618e-06
-2.00521e-06
-1.3939e-06
1.18746e-06
-7.27396e-07
5.99421e-07
1.39932e-06
-2.06046e-06
-1.61272e-06
-8.97284e-07
9.02007e-07
3.09918e-06
2.02944e-06
3.0665e-06
-4.32576e-07
-1.56531e-06
-2.18577e-06
-1.95084e-06
-1.74443e-06
8.48085e-07
7.28273e-07
5.89484e-07
-1.05617e-06
-3.80395e-06
-2.59579e-06
-3.56374e-06
-4.71949e-07
4.45879e-07
2.87144e-06
2.14589e-06
7.80678e-07
1.18454e-06
-1.08041e-06
1.19258e-06
-2.35065e-07
2.11363e-06
-2.18968e-07
3.82356e-07
-1.44891e-06
-1.55813e-06
-1.36925e-06
-4.38503e-07
1.60254e-07
-6.80875e-07
-4.86137e-07
3.91742e-07
2.33757e-07
2.01613e-06
6.70864e-07
-3.88169e-07
-1.73119e-06
-8.50296e-07
-9.13468e-07
1.51255e-07
-1.71689e-07
-1.45039e-07
-1.51326e-06
-9.51592e-07
-9.56723e-07
8.42297e-07
4.26493e-07
-9.60425e-07
-4.99905e-07
9.78267e-07
1.43305e-06
-7.51165e-07
-9.63011e-07
-7.432e-08
2.97048e-08
-1.19847e-06
-1.43916e-06
1.76798e-07
9.696e-07
1.03933e-06
1.03273e-06
1.5943e-06
4.971e-07
-3.68376e-07
7.49358e-09
-4.78648e-07
-1.84525e-07
1.4007e-07
-6.90552e-07
-4.21943e-07
1.94445e-07
1.05384e-07
9.69195e-05
1.4579e-05
-2.02721e-06
-0.000295898
-4.58359e-06
0.000104643
-3.11088e-06
-5.35539e-06
4.39866e-06
7.69101e-06
-1.80473e-06
2.36297e-06
)
;

boundaryField
{
    top_fluid_surface
    {
        type            calculated;
        value           nonuniform List<scalar> 
64
(
-0.00020031
0.00020885
0.000161573
-0.00010795
-9.94262e-05
-0.000232886
-0.000223664
-4.02567e-05
-0.000212461
-3.56857e-06
2.63135e-05
-3.94107e-06
6.22314e-05
-0.000110887
0.000198342
-7.67751e-05
0.000224537
0.000240359
-0.000110173
0.000339707
-0.000110465
-6.16639e-06
3.55501e-05
2.03071e-05
-0.000213379
9.25446e-05
6.2288e-05
-8.65198e-05
-1.44022e-05
-0.000123806
1.10416e-05
4.89002e-05
8.61321e-05
0.000114576
2.02205e-05
0.000339253
-8.56536e-05
-0.00020913
-7.31023e-05
-7.98017e-05
-0.000141341
-0.000451397
-0.000149603
7.63135e-05
0.000244712
0.000233304
-0.000176429
0.000108378
0.00013654
-5.10246e-05
-0.000435276
-3.22795e-05
-0.000127893
0.000207316
0.00012587
-0.000520088
-0.000257106
1.68588e-05
0.000162034
0.000164541
-4.97433e-05
0.000403306
0.000238528
-3.22162e-05
)
;
    }
    bottom_fluid_surface
    {
        type            calculated;
        value           uniform 0;
    }
    lateral_surface_1
    {
        type            calculated;
        value           uniform 0;
    }
    lateral_surface_2
    {
        type            calculated;
        value           uniform 0;
    }
    lateral_surface_3
    {
        type            calculated;
        value           uniform 0;
    }
    lateral_surface_4
    {
        type            calculated;
        value           uniform 0;
    }
}


// ************************************************************************* //
