/*--------------------------------*- C++ -*----------------------------------*\
| =========                 |                                                 |
| \\      /  F ield         | OpenFOAM: The Open Source CFD Toolbox           |
|  \\    /   O peration     | Version:  v1612+                                |
|   \\  /    A nd           | Web:      www.OpenFOAM.com                      |
|    \\/     M anipulation  |                                                 |
\*---------------------------------------------------------------------------*/
FoamFile
{
    version     2.0;
    format      ascii;
    class       volScalarField;
    location    "7.9";
    object      alpha.water;
}
// * * * * * * * * * * * * * * * * * * * * * * * * * * * * * * * * * * * * * //

dimensions      [0 0 0 0 0 0 0];

internalField   nonuniform List<scalar> 
1116
(
0.719283
0.719283
0.719283
0.719286
0.719292
0.719302
0.840978
0.841062
0.840848
0.841091
0.841389
0.840621
0.974096
0.974096
0.974096
0.974096
0.974096
0.974096
0.97411
0.97411
0.97411
0.97411
0.97411
0.97411
0.97411
0.97411
0.97411
0.97411
0.97411
0.97411
0.955602
0.955039
0.955174
0.955488
0.955369
0.955327
0.866846
0.86699
0.8673
0.866313
0.865144
0.86838
0.794172
0.794846
0.795286
0.793508
0.792969
0.796139
0.758156
0.757431
0.75787
0.757655
0.758619
0.757087
0.75183
0.75015
0.750362
0.751769
0.753347
0.749202
0.744639
0.74137
0.741382
0.745249
0.746922
0.740906
0.719452
0.718616
0.718584
0.719515
0.719905
0.719733
0.795519
0.795724
0.79596
0.796149
0.796476
0.796149
0.795533
0.795446
0.794713
0.795819
0.796695
0.794804
0.851077
0.850887
0.850586
0.851001
0.851275
0.851022
0.936246
0.935643
0.935893
0.935961
0.93593
0.936192
0.933968
0.933705
0.933897
0.933764
0.933769
0.934041
0.765887
0.768644
0.768035
0.766561
0.765909
0.768394
0.423003
0.426624
0.425771
0.424344
0.422209
0.427287
0.164993
0.165131
0.16522
0.16531
0.164297
0.168825
0.142171
0.141565
0.142192
0.140955
0.142678
0.137669
0.154081
0.152848
0.1532
0.152758
0.153747
0.151402
0.110084
0.106919
0.107131
0.109149
0.110409
0.107007
0.104425
0.102784
0.103169
0.104441
0.105301
0.103819
0.497952
0.497489
0.499572
0.495891
0.495537
0.500765
0.155648
0.155297
0.154611
0.155824
0.156775
0.154919
0.182289
0.180109
0.179239
0.182327
0.183971
0.179561
0.322034
0.318126
0.317392
0.321402
0.322817
0.317965
0.363324
0.36262
0.3622
0.363087
0.362859
0.363232
0.285347
0.283872
0.284039
0.284667
0.285112
0.283667
0.161555
0.158183
0.158271
0.16145
0.165666
0.152872
0.0635129
0.0658513
0.0648882
0.0637782
0.0628225
0.0619924
0.0208586
0.0234003
0.0227228
0.0214432
0.0196627
0.0265288
0.0112992
0.0130803
0.0129037
0.0114172
0.0103022
0.0138704
0.0232392
0.0222823
0.0224414
0.023584
0.023928
0.0220975
0.0284099
0.024489
0.0247646
0.0290768
0.0319614
0.0243118
2.61497e-05
2.21386e-05
2.29536e-05
2.58067e-05
2.43221e-05
1.70774e-05
1.86637e-05
1.79303e-05
1.85233e-05
1.81827e-05
1.39979e-05
1.26343e-05
8.79501e-06
8.18301e-06
8.80682e-06
7.42451e-06
5.32631e-06
5.12724e-06
1.61292e-06
1.38314e-06
1.74797e-06
1.16289e-06
3.76546e-07
6.85399e-07
4.74506e-07
3.70822e-07
4.31913e-07
2.52437e-07
7.88107e-08
1.63206e-07
3.09349e-07
1.72131e-07
2.1546e-07
2.22666e-07
1.46928e-07
9.98903e-08
4.64921e-07
3.70822e-07
4.21318e-07
2.2559e-07
1.04843e-07
6.28036e-08
0.000143913
0.000106425
0.000150757
0.000142644
0.000131352
-2.22257e-07
2.77284e-05
3.22788e-05
3.10833e-05
2.82387e-05
2.64073e-05
3.40382e-05
2.87381e-06
3.62671e-06
3.44506e-06
2.7718e-06
2.39008e-06
4.36419e-06
0.000152048
0.000203134
0.000173814
0.000121409
0.000100579
0.000184132
0.00423024
0.00455171
0.00466207
0.00423457
0.00434355
0.0048902
0.0928283
0.0929111
0.0928557
0.0925147
0.0928649
0.0928973
0.0929133
0.0928989
0.0928907
0.0928697
0.0929115
0.0929026
0.0928971
0.0928887
0.0887604
0.0929025
0.0929206
0.0929063
0.0624505
0.0458947
0.0188683
0.0378124
0.0691896
0.0656371
0.0564107
0.0417042
0.031155
0.0134226
0.0119115
0.0106948
0.0564224
0.0563733
0.0562989
0.0519937
0.0338097
0.0415192
0.0563997
0.0561286
0.0556856
0.0551893
0.0544918
0.0523819
0.056369
0.0561636
0.0467941
0.0391871
0.0436605
0.0481581
0.0538125
0.0561007
0.0460409
0.019238
0.0200103
0.053489
0.0326865
0.0560062
0.0477725
0.019744
0.0219932
0.0542823
0.0295319
0.0473295
0.0483026
0.0395061
0.0410314
0.0542896
0.0331696
0.0312182
0.0497275
0.0534909
0.0542896
0.0542896
0.0929423
0.0929423
0.0929321
0.0928926
0.0929137
0.0928929
0.0929423
0.0814304
0.087489
0.092896
0.0929031
0.0928973
0.0847641
0.0369894
0.0268382
0.0334438
0.0633937
0.092865
0.0240591
0.0150096
0.0126285
0.0202805
0.0214337
0.0249192
0.00365901
0.00405211
0.00412866
0.00432978
0.00479863
0.00481496
1.1065e-05
1.69305e-06
0.000624023
0.00227481
0.00216689
0.00139179
9.66668e-07
8.21031e-07
1.62202e-07
1.8857e-07
1.2733e-07
3.33046e-07
7.94693e-05
9.42625e-08
1.20252e-07
1.57493e-07
0.000100693
5.02729e-07
0.00107502
2.50161e-05
2.03073e-07
0.000429652
0.000472826
5.1887e-07
0.00753321
0.00185207
1.31254e-06
4.14735e-05
4.35403e-05
0.000364688
0.00899084
0.000794335
1.67001e-05
3.03749e-05
6.04539e-05
0.00435531
0.00956859
0.00465688
2.9694e-05
0.000719408
0.0011
0.00372298
0.0929423
0.0929321
0.0929011
0.0928874
0.092901
0.0928904
0.0928315
0.0927324
0.092883
0.0928949
0.0929089
0.0752203
0.0907617
0.0651857
0.0616593
0.0430696
0.0711171
0.0452308
0.0319396
0.00694152
0.00319742
0.00180035
0.0123778
0.0145837
4.05834e-05
2.25056e-05
6.19653e-06
0.00056798
1.83525e-05
1.3409e-05
1.19011e-06
1.03838e-06
2.96267e-07
1.88562e-07
6.29441e-07
3.32957e-07
3.89653e-08
7.43135e-08
7.36392e-08
1.75992e-08
2.80251e-08
1.29867e-07
2.08782e-08
6.00305e-08
1.09999e-07
8.40841e-08
1.57128e-07
3.91825e-07
3.35018e-08
9.37015e-08
1.21094e-07
1.70721e-07
1.51689e-06
0.000200252
6.09293e-06
4.69404e-07
3.71221e-07
0.000243137
0.00161739
0.000480799
1.53227e-05
0.00108465
0.00147642
0.00371677
0.00457166
7.44832e-06
0.00446223
0.00674593
0.00609894
0.00727232
0.0067961
0.00500518
0.0924326
0.0579473
0.0928603
0.0928625
0.088821
0.0922683
0.0173155
0.0898055
0.0738139
0.0800562
0.0585448
7.49772e-05
0.00603605
0.0664264
0.0577936
0.034676
0.0200542
1.47003e-06
0.00478821
0.00547825
0.00414791
0.000309386
0.000962357
1.35823e-06
0.000245772
1.17258e-05
5.90042e-06
1.51471e-06
1.47796e-06
1.69446e-06
5.79349e-08
3.27402e-07
1.01948e-07
1.74143e-08
1.40918e-08
2.10151e-06
4.66943e-09
1.92895e-08
1.85076e-08
4.98301e-10
6.00589e-09
6.07874e-09
1.61727e-08
8.69e-07
1.4135e-06
1.86514e-09
1.44712e-06
1.11753e-05
1.51632e-08
7.50875e-07
2.29819e-06
4.37224e-08
4.40263e-07
0.000104223
2.82839e-07
4.89218e-07
1.61732e-06
9.31605e-07
1.20271e-06
0.000129157
1.15099e-05
2.24047e-06
2.12883e-06
0.00269236
0.0040167
3.72417e-06
0.00982182
0.00970038
0.00856419
0.00993557
0.00993557
0.00990536
9.36586e-05
9.50779e-05
9.45437e-05
9.55417e-05
0.000104424
0.000102726
0.000327115
0.000117565
0.000100106
0.000335176
0.000458215
0.000166794
0.000459302
0.000390734
0.000350602
0.000460612
0.000460612
0.000333314
0.000243221
0.000109652
0.000109211
0.000251608
0.000361062
0.000117199
0.000516948
0.000496102
0.00036735
0.000470077
0.000473016
0.000473016
0.000415607
0.000406697
0.000411423
0.000370072
0.000344219
0.000473016
0.000506151
0.000384992
0.000413844
0.000463705
0.000467052
0.000314688
0.000305615
0.000296114
0.000342577
0.000207811
0.000123945
0.000293988
5.03255e-27
6.15933e-18
3.83261e-06
5.88344e-21
1.3922e-23
0.000201331
0.000427033
0.000423656
0.000419931
0.000363576
0.000262413
0.000307202
1.88067e-13
1.01188e-13
3.47402e-05
1.9477e-13
2.76269e-13
1.76948e-13
6.60972e-19
3.90866e-22
2.03617e-24
1.30927e-19
1.46181e-19
1.63026e-24
5.68544e-05
2.96062e-05
5.87763e-05
3.18176e-05
2.40366e-08
6.50583e-06
1.70433e-11
9.94502e-12
8.86798e-12
1.75896e-11
1.80478e-08
1.25879e-11
-1.06591e-15
3.34692e-18
-3.89216e-17
-1.82554e-16
-2.97761e-15
2.89795e-18
1.10658e-07
2.04118e-08
2.19256e-08
1.43405e-07
4.54244e-07
4.86062e-08
1.041e-07
5.3221e-09
5.90361e-10
1.65091e-07
5.88973e-07
3.50092e-08
-2.2643e-13
3.95687e-11
-2.75559e-14
-1.35503e-12
7.95726e-12
1.22094e-10
6.04933e-07
1.37017e-06
2.68199e-07
6.49435e-07
9.64076e-07
4.68768e-06
4.82357e-08
5.60014e-07
2.84652e-07
4.71839e-08
1.59926e-07
1.38521e-06
6.48745e-10
9.41554e-09
7.95884e-09
8.42628e-10
1.71427e-09
1.27345e-08
9.58539e-06
6.2696e-06
8.55324e-06
9.36569e-06
8.51406e-06
5.34915e-06
6.0083e-07
6.71446e-07
6.06374e-07
5.86364e-07
5.54304e-07
1.25087e-06
6.69226e-08
3.86352e-08
2.9797e-08
6.89965e-08
1.105e-07
4.8977e-08
1.27211e-06
1.62624e-06
1.49446e-06
1.28352e-06
1.22132e-06
1.8777e-06
1.1391e-07
1.26884e-07
9.72639e-08
1.00095e-07
6.253e-08
8.66141e-08
1.98811e-07
1.99807e-07
1.99419e-07
1.98776e-07
1.99027e-07
2.01822e-07
1.13639e-07
1.26701e-07
9.69785e-08
9.99266e-08
6.24316e-08
8.65295e-08
1.1391e-07
8.88469e-08
5.85828e-08
6.26592e-08
1.74181e-08
1.21448e-09
2.04406e-07
2.06326e-07
2.05795e-07
2.05271e-07
2.06073e-07
2.08292e-07
1.38609e-07
8.84856e-08
5.77472e-08
6.8149e-08
1.67658e-08
7.25142e-10
7.43109e-08
4.46424e-08
2.66971e-08
5.15302e-08
1.55248e-08
2.72904e-11
5.20306e-08
5.17813e-08
5.19372e-08
5.20852e-08
5.17708e-08
5.18418e-08
0.0065505
0.00690576
0.00680974
0.00641763
0.00607956
0.00676813
1.55852e-11
1.09564e-11
6.08807e-12
1.01831e-11
3.26794e-12
3.57717e-13
-4.05832e-16
-2.91466e-16
-2.91695e-16
-4.73986e-16
-4.9971e-16
7.80507e-18
0.0359504
0.0354208
0.0350389
0.0348918
0.0347246
0.0351257
-8.26292e-21
-6.16619e-21
-1.16097e-19
3.24151e-25
4.14398e-27
2.12046e-27
-1.73599e-15
-2.27874e-16
1.05746e-17
8.16869e-18
5.94484e-13
2.91971e-13
0.037998
0.0379954
0.0378077
0.0375042
0.0373914
0.0377054
-2.9709e-16
-2.34405e-16
-2.8636e-16
-1.2281e-16
-1.80805e-15
-1.26973e-16
-4.11032e-27
-3.52719e-27
-4.69478e-27
-3.80769e-27
-6.24907e-27
-2.6986e-27
0.0386173
0.0386003
0.0385727
0.0385623
0.0385706
0.0385849
-6.83775e-16
-5.85574e-16
-9.00969e-16
-2.95942e-16
-6.07799e-15
-3.853e-16
-6.41016e-27
-6.0855e-27
-6.59967e-27
-5.9382e-27
-1.05753e-26
-4.00559e-27
0.0379157
0.0379408
0.0379758
0.0379647
0.0379646
0.0380173
-3.0584e-16
-2.78214e-16
-5.87262e-16
-3.51844e-17
-4.11932e-15
-2.14634e-16
-5.34032e-27
-6.05769e-27
-6.63027e-27
-6.29465e-27
-7.10147e-27
-4.7786e-27
0.0376101
0.0376211
0.0376619
0.0376405
0.0376384
0.0376676
5.19411e-27
3.59872e-27
1.99323e-27
3.38062e-27
1.0986e-27
1.14101e-28
-4.2133e-27
-4.87841e-27
-5.33443e-27
-5.14436e-27
-5.66018e-27
-3.95549e-27
0.0347251
0.0347773
0.0347638
0.0346692
0.0345962
0.034698
4.57272e-14
3.15239e-14
1.74833e-14
3.01351e-14
9.93712e-15
1.01785e-15
9.07481e-18
8.99957e-18
9.40437e-18
7.97342e-18
1.0595e-17
1.06497e-17
0.0235772
2.84236e-08
0.0404714
0.0582409
0.0146243
0.0154859
2.0238e-10
2.49065e-11
0.00317709
0.0119696
5.1236e-09
5.05328e-08
-1.09166e-17
1.49565e-18
2.49065e-11
0.000198562
1.94873e-19
7.63243e-18
5.68792e-05
0.00574638
8.46816e-08
0.0157952
0.0111469
1.47004e-06
5.52313e-05
2.39043e-09
1.00792e-08
6.78179e-09
3.52565e-07
1.4833e-05
-3.51752e-12
-2.70447e-14
1.38627e-09
-1.7998e-13
-4.44414e-12
7.08137e-06
0.000116016
0.0167367
0.00702218
0.00959205
0.00194459
1.3888e-06
0.000333093
1.28871e-07
8.47719e-08
8.79736e-08
0.000189415
7.84431e-05
1.47672e-06
7.20703e-08
7.83798e-07
9.28447e-08
2.83695e-05
2.72724e-05
0.000427841
0.00494437
0.00364219
0.000523021
1.32643e-06
4.64722e-08
1.93832e-06
0.000563377
0.000788102
8.39596e-05
4.59541e-08
7.43202e-10
7.93321e-09
1.05658e-07
2.98893e-07
2.852e-08
6.13244e-10
1.71209e-10
1.36158e-05
1.37195e-06
3.23775e-05
1.36223e-07
1.3742e-08
5.32185e-09
1.6829e-09
2.76965e-06
6.61252e-06
5.25349e-07
2.48759e-10
1.71209e-10
2.27504e-10
1.28344e-07
2.36776e-07
2.30146e-08
1.62622e-11
4.40395e-11
2.73981e-08
1.7985e-08
1.12809e-08
3.76519e-10
2.19604e-10
7.02516e-08
2.33753e-10
1.05398e-09
1.0296e-09
9.70664e-11
1.21441e-11
3.7124e-11
1.99531e-10
2.24438e-10
1.07396e-10
1.70026e-11
1.11972e-11
1.21503e-11
3.79684e-09
2.55791e-08
1.31749e-10
2.67062e-10
3.44457e-11
2.92953e-09
9.08139e-10
6.94015e-10
2.39212e-10
1.98691e-11
1.21842e-11
2.82792e-11
1.99531e-10
1.8451e-10
1.44864e-10
1.11296e-10
1.12037e-11
1.12037e-11
1.64127e-09
1.56891e-07
6.70284e-07
4.98301e-10
2.63124e-08
2.55237e-07
9.69278e-10
1.13952e-09
1.15733e-09
3.6123e-08
9.07467e-10
7.31166e-11
9.19492e-10
1.86954e-08
1.96623e-08
6.60306e-09
1.17146e-10
3.01013e-10
3.21789e-09
1.54355e-07
1.771e-06
4.35582e-09
1.49623e-09
2.99246e-09
1.64127e-09
1.55458e-07
9.37122e-07
2.66324e-07
7.94306e-11
2.41971e-09
6.62864e-08
2.85462e-07
1.25665e-07
2.69632e-08
1.3898e-10
6.62041e-09
7.95339e-08
1.69521e-07
1.64717e-06
5.47814e-08
2.69788e-09
3.79504e-08
1.08587e-05
9.44445e-06
4.19073e-06
1.37529e-07
-1.11077e-13
5.10161e-08
3.77504e-07
7.01773e-07
1.82704e-07
1.0262e-11
-9.38403e-17
-8.12476e-15
2.82153e-06
8.46253e-07
1.05439e-06
7.45976e-08
5.37622e-10
-1.71241e-09
3.57839e-05
2.71036e-05
1.6836e-05
1.13815e-10
-1.31349e-12
7.38621e-15
7.10932e-08
1.33135e-08
1.48811e-08
-9.19653e-12
-1.31716e-15
-4.78826e-16
0.00951185
0.0072219
0.00677553
0.00778505
0.00754611
0.00903512
1.93952e-13
7.97375e-14
3.09802e-11
2.62253e-12
1.65983e-14
1.37949e-16
-8.78202e-15
-5.46017e-15
-1.47455e-14
-1.72683e-17
1.01008e-18
5.16933e-20
)
;

boundaryField
{
    seabed_topleft_surface
    {
        type            zeroGradient;
    }
    seabed_topright_surface
    {
        type            zeroGradient;
    }
    breakwater_top_surface
    {
        type            zeroGradient;
    }
    breakwater_left_surface
    {
        type            zeroGradient;
    }
    breakwater_right_surface
    {
        type            zeroGradient;
    }
    water_front_surface
    {
        type            zeroGradient;
    }
    water_back_surface
    {
        type            zeroGradient;
    }
    water_left_surface
    {
        type            zeroGradient;
    }
    water_right_surface
    {
        type            zeroGradient;
    }
    water_top_surface
    {
        type            inletOutlet;
        inletValue      uniform 0;
        value           nonuniform List<scalar> 
180
(
0.000459302
0.000390734
0.000350602
0.000460612
0.000460612
0.000333314
0
0.000406697
0.000411423
0
0
0.000473016
0
0
0
0
0
0
0
0
0
0
0
0
0
0
0
0
0
0
0
0
0
0
0
0
6.48745e-10
9.41554e-09
7.95884e-09
8.42628e-10
1.71427e-09
1.27345e-08
6.69226e-08
3.86352e-08
2.9797e-08
6.89965e-08
1.105e-07
4.8977e-08
1.98811e-07
1.99807e-07
1.99419e-07
1.98776e-07
1.99027e-07
2.01822e-07
2.04406e-07
2.06326e-07
2.05795e-07
2.05271e-07
2.06073e-07
2.08292e-07
0
0
0
0
0
0
0
0
0
0
0
0
0
0
0
0
0
0
0
0
0
0
0
0
0
0
0
0
0
0
0
0
0
0
0
0
0
0
0
0
0
0
0
0
0
0
0
0
0
0
2.49065e-11
0.000198562
0
0
0
0
0
0
0
0
0
0
0
0
0
2.72724e-05
7.93321e-09
1.05658e-07
2.98893e-07
2.852e-08
6.13244e-10
1.71209e-10
2.27504e-10
1.28344e-07
2.36776e-07
2.30146e-08
1.62622e-11
4.40395e-11
1.99531e-10
2.24438e-10
1.07396e-10
1.70026e-11
1.11972e-11
1.21503e-11
1.99531e-10
1.8451e-10
1.44864e-10
1.11296e-10
1.12037e-11
1.12037e-11
9.19492e-10
1.86954e-08
1.96623e-08
6.60306e-09
1.17146e-10
3.01013e-10
6.62864e-08
2.85462e-07
1.25665e-07
2.69632e-08
1.3898e-10
6.62041e-09
0
0
0
0
0
0
0
0
0
0
0
0
0
0
0
0
0
0
)
;
    }
}


// ************************************************************************* //
