/*--------------------------------*- C++ -*----------------------------------*\
| =========                 |                                                 |
| \\      /  F ield         | OpenFOAM: The Open Source CFD Toolbox           |
|  \\    /   O peration     | Version:  v1612+                                |
|   \\  /    A nd           | Web:      www.OpenFOAM.com                      |
|    \\/     M anipulation  |                                                 |
\*---------------------------------------------------------------------------*/
FoamFile
{
    version     2.0;
    format      ascii;
    class       volScalarField;
    location    "7.9";
    object      p;
}
// * * * * * * * * * * * * * * * * * * * * * * * * * * * * * * * * * * * * * //

dimensions      [1 -1 -2 0 0 0 0];

internalField   nonuniform List<scalar> 
1116
(
17575.5
17569.9
17574.1
17577.3
17583.3
17580
17340.5
17335
17337.2
17342.9
17355.5
17337.7
17028.8
17023.5
17024.7
17028.8
17036
17023.4
16826.2
16824
16824
16826.2
16829
16823.1
15956.5
15956.3
15956
15956.8
15957.1
15956.7
13906.5
13905.1
13904.8
13906.1
13906.3
13906.9
10904.9
10902.3
10903.8
10906.3
10907
10906.3
7705.46
7705.85
7708
7707.11
7708.86
7715.42
5871.71
5871.67
5872.43
5868.8
5869.86
5865.7
5287.92
5286.03
5286.77
5284.77
5288.6
5278.67
4916.58
4903.88
4904.15
4917.27
4918.75
4905.36
4823.36
4819.74
4821.9
4828.83
4834.24
4831.81
9644.91
9630.88
9632.75
9648.81
9657.51
9643.45
8142.15
8142.24
8135.93
8148.74
8180.69
8135.27
7900.44
7888.91
7887.87
7896.04
7909.19
7879.17
8034.24
8020.11
8021.99
8029.27
8040.7
8010.61
7037.09
7036.06
7037.1
7035.4
7036.95
7034.74
4806.34
4802.55
4805.63
4802.72
4802.28
4807.03
2797.21
2790.37
2792.52
2797.11
2801.79
2795.11
1547.86
1548.42
1550.17
1551.34
1550.47
1548.56
942.688
955.811
952.279
945.451
932.999
972.604
933.562
938.525
937.352
934.479
929.443
934.627
986.563
983.359
982.845
990.058
989.769
984.455
1135.77
1123.82
1128.19
1141.5
1153.87
1129.6
2433.96
2431.55
2439.71
2426.65
2425.67
2446.07
764.993
771.158
766.563
766.511
764.346
770.511
891.598
891.828
887.694
891.438
897.876
887.652
1544.15
1532.19
1529.56
1542.36
1546.52
1525.8
1708.79
1705.85
1705.23
1707.05
1705.89
1706.21
1303.71
1292.92
1294.31
1299.64
1303.89
1290.72
755.431
711.872
718.786
748.622
779.854
693.222
397.705
381.053
402.375
397.981
394.671
369.238
206.243
214.26
212.665
212.831
200.845
219.665
89.6917
98.6681
97.7685
91.6699
89.2252
106.762
167.334
166.584
166.987
168.25
169.766
167.692
115.112
112.312
114.463
117.053
122.234
116.925
-16.4322
-16.2815
-16.4679
-15.8871
-15.49
-16.13
-30.7105
-30.0537
-30.3704
-32.0632
-34.5416
-30.5328
-59.8948
-60.0159
-59.7235
-60.6703
-60.5352
-62.1456
-99.8288
-99.1285
-98.5672
-100.384
-100.495
-99.6562
-110.151
-109.594
-109.65
-110.307
-110.552
-107.471
-92.6163
-92.923
-93.2159
-91.7357
-92.0321
-90.2914
-50.2682
-50.3734
-50.9824
-48.7389
-47.9252
-49.4149
0.102068
-0.903937
0.26035
0.858482
1.39676
-0.862426
10.4686
9.7565
10.2712
11.0486
10.5673
10.0278
-6.03766
-5.69492
-5.47017
-5.3005
-4.7254
-3.49737
3.20207
3.24202
3.04861
2.87235
2.58596
2.72156
-62.6927
-61.7903
-62.2876
-63.3525
-65.0652
-62.4832
2590.13
2537.11
2545.17
2502.46
2486.07
2508.6
2435.15
2413.61
2391.87
2349.4
2308.49
2357.12
1971.01
1890.61
1818.57
1788.19
1896.41
1964.55
1187.26
1090.93
1067.61
1075.78
1057.27
1121.45
566.142
544.146
578.881
558.052
532.241
535.757
327.243
324.853
349.941
392.362
375.583
362.315
324.741
321.592
317.252
317.197
321.897
297.305
317.597
309.218
260.289
236.548
242.94
247.87
305.081
275.641
229.664
185.809
182.718
244.011
285.294
269.411
218.481
158.693
199.781
259.469
365.609
364.891
296.005
358.01
435.029
374.149
399.055
415.869
402.25
407.363
407.127
384.711
1713.88
1584.36
1643.93
1621.07
1544.61
1596.5
1515.68
1370.01
1395.02
1258
1168.51
1315.69
941.643
885.031
892.17
810.533
873.973
850.103
345.274
340.202
346.268
333.435
383.963
403.465
1.76253
-11.6843
-1.96547
36.5503
65.554
62.3275
-28.7934
-32.3664
-33.4012
-34.1967
-34.3289
-28.9008
3.12126
1.4172
1.8224
-2.06599
-5.58917
-8.431
18.7686
11.9783
5.1538
4.17091
4.85116
3.47898
19.3272
12.1357
2.09102
3.27546
3.41875
6.17065
23.135
20.0173
18.2789
19.6955
21.2398
24.0504
35.5048
56.7779
54.204
66.4286
58.3721
28.542
35.4402
61.7921
65.9001
70.9923
55.13
37.1334
1063.85
969.168
1039.58
1071.81
970.773
973.222
781.393
816.112
864.086
740.638
499.774
412.877
469.079
432.33
470.67
254.393
194.342
144.671
47.8876
73.7762
108.699
75.6474
57.257
40.0051
-1.15868
-2.94075
-3.50862
-4.31277
-1.77356
0.0374194
-6.05396
-7.03795
-10.1233
-14.3045
-14.3162
-13.2552
0.882385
0.988515
-0.200235
-2.18504
-2.11713
-3.13609
-4.65364
-6.46179
-8.85653
-7.69752
-5.828
-6.70832
-18.8102
-19.3719
-25.0371
-20.9713
-17.4404
-14.4058
-27.6028
-24.9233
-25.2075
-12.8003
-18.7151
-18.5223
-25.7201
-24.9559
-19.8059
-20.1205
-28.8066
-25.958
-55.2448
-66.5839
-53.4416
-33.2408
-41.2264
-39.7921
352.022
297.691
352.214
473.596
359.066
374.409
88.1999
263.151
252.704
173.903
12.7086
-20.649
-29.4272
-4.37147
43.8893
-12.9074
-38.1499
-49.5845
-67.9915
-47.3903
-14.1556
-20.9903
-37.4673
-38.0771
-28.8164
-26.213
-20.8631
-18.5537
-16.4156
-17.4703
-21.7894
-19.9715
-20.4729
-22.6754
-19.4919
-21.1677
-22.8846
-21.0988
-21.4495
-22.4708
-22.3352
-22.8072
-29.2914
-30.4215
-31.2262
-29.0332
-26.954
-25.0768
-36.7858
-39.2893
-41.4737
-35.729
-35.887
-29.9489
-39.3223
-41.6114
-48.2694
-42.4896
-43.8766
-42.7483
-24.9824
-29.0613
-32.576
-40.0178
-33.6696
-27.7233
-53.4824
-60.1116
-64.7863
-91.3993
-104.27
-57.1051
-11.3903
-12.2698
-12.8934
-10.9691
-8.65512
-12.2459
-29.8393
-28.5637
-30.2137
-30.0507
-30.9763
-30.5077
-58.6072
-56.5029
-57.727
-59.3158
-60.2583
-58.0047
-25.0032
-25.0336
-25.8136
-27.0109
-28.2967
-27.3856
-53.7327
-54.2155
-54.7831
-55.469
-58.1552
-55.8301
-86.2085
-87.868
-88.0547
-86.1114
-86.7363
-87.3831
-48.1872
-46.5598
-46.5279
-49.0754
-50.2462
-48.2319
-68.4479
-67.8088
-67.7383
-68.9884
-69.0676
-67.472
-90.5549
-91.0495
-90.9467
-90.707
-91.151
-90.418
-69.4881
-69.0621
-69.1057
-69.5843
-69.5952
-69.4593
-71.0015
-70.9391
-71.0308
-70.8736
-70.3301
-70.8066
-80.5912
-80.9745
-80.9922
-80.7728
-80.6523
-81.8414
-84.292
-84.186
-84.3932
-84.7824
-85.3995
-84.8027
-69.544
-69.4961
-69.5619
-69.6906
-69.6833
-69.7696
-72.6933
-72.9793
-72.9149
-72.5381
-72.1991
-72.6982
-105.47
-104.978
-105.383
-106.725
-107.628
-105.789
-66.6803
-66.7769
-66.7405
-66.6368
-66.2191
-66.7644
-66.4433
-66.5665
-66.5889
-66.4324
-66.1638
-66.5844
-94.9868
-96.1722
-96.0982
-95.4525
-94.9005
-97.9472
-61.8946
-61.9968
-61.8155
-62.1575
-62.2019
-62.5834
-60.2667
-60.2065
-60.2138
-60.3279
-60.37
-60.4546
-46.3709
-46.085
-46.9494
-46.5266
-46.3288
-47.0726
-49.8205
-49.6987
-49.7759
-49.8237
-50.0596
-49.9389
-58.9842
-59.0057
-59.0048
-58.9718
-59.1346
-59.2232
-25.3559
-25.1856
-25.3878
-25.4368
-25.8466
-24.8809
-47.1295
-46.9694
-47.0743
-47.0465
-47.0972
-46.7132
-61.2579
-61.1827
-61.1829
-61.1528
-61.0673
-61.0148
-29.5271
-29.3244
-29.41
-29.3675
-29.5707
-28.6811
-50.2119
-50.368
-50.3614
-50.0474
-50.032
-50.22
-60.1003
-60.1072
-60.0956
-60.0606
-60.0377
-60.0855
-32.2094
-32.2947
-32.5384
-32.6248
-33.0839
-33.002
-50.2429
-50.2244
-50.0133
-49.8513
-49.5124
-49.5868
-61.2916
-61.2629
-61.2599
-61.2566
-61.2492
-61.1866
-30.5401
-30.0252
-30.2233
-30.6946
-31.3273
-30.0461
-50.4866
-50.4775
-50.4044
-50.3259
-50.2022
-50.2304
-67.1362
-67.1737
-67.1452
-67.0869
-67.0271
-67.0965
115.5
111.793
109.551
110.265
109.698
111.376
-47.7773
-47.8097
-47.5894
-47.1711
-46.9824
-46.9391
-69.0299
-69.1618
-69.3389
-69.4683
-69.5311
-69.5386
134.935
134.538
133.975
132.924
132.179
133.51
-49.3031
-49.1996
-49.0181
-48.8738
-48.79
-48.8208
-67.8264
-67.8228
-67.879
-68.0892
-68.2612
-68.334
141.212
141.069
140.818
140.713
140.738
140.849
-48.5817
-48.5616
-48.5092
-48.4266
-48.3695
-48.3359
-68.2588
-68.2757
-68.3165
-68.364
-68.401
-68.4097
138.562
138.647
138.708
138.63
138.608
138.8
-48.6052
-48.5808
-48.5451
-48.5124
-48.4881
-48.476
-68.4997
-68.5053
-68.5259
-68.5518
-68.5758
-68.5877
135.441
135.524
135.618
135.436
135.34
135.528
-47.2518
-47.2341
-47.2045
-47.1608
-47.1232
-47.1109
-68.699
-68.7048
-68.7147
-68.7247
-68.7356
-68.7381
110.524
110.996
110.743
110.052
109.243
110.329
-46.2198
-46.173
-46.1605
-46.1596
-46.1569
-46.0975
-69.9008
-69.9062
-69.9103
-69.9087
-69.9106
-69.9159
6.48794
-11.9023
-3.87789
22.3019
24.7858
17.8193
-58.3899
-51.7394
-53.1745
-47.4132
-50.2855
-51.8295
-66.1821
-66.2731
-63.0205
-64.2538
-66.8284
-66.1247
-50.3042
-42.5291
-69.5992
-39.1929
-59.3091
-57.3184
-68.1562
-71.0067
-71.3933
-74.4645
-72.881
-67.6713
-72.0456
-74.1898
-74.0901
-73.4281
-68.8833
-66.461
-74.9893
-72.1342
-95.6921
-71.1982
-73.4438
-59.8331
-74.9858
-85.1167
-86.45
-85.5439
-83.8122
-73.1186
-68.7143
-71.8924
-70.9415
-69.7715
-67.4706
-65.2178
-77.0358
-79.2931
-68.6978
-56.6204
-56.3651
-54.065
-69.762
-74.8968
-72.0814
-66.8626
-63.897
-60.6185
-66.8706
-67.1433
-67.1636
-65.7741
-64.7654
-64.7031
-40.1301
-37.8202
-34.4536
-31.9559
-33.492
-34.1239
-51.6571
-50.3189
-48.942
-48.5644
-50.3124
-50.5257
-63.8143
-63.851
-63.6801
-63.3463
-63.4058
-63.3856
-30.3586
-28.0084
-27.3395
-29.2329
-30.757
-31.4494
-49.2271
-48.4792
-48.1821
-48.5082
-48.9969
-48.8154
-63.4424
-63.5457
-63.4751
-63.1121
-62.907
-62.9127
-30.8405
-30.1048
-29.786
-31.7024
-31.7629
-31.4917
-50.2193
-50.1904
-49.9303
-50.2711
-50.3433
-49.9671
-63.6752
-64.0466
-63.8512
-63.5184
-63.005
-62.8219
-36.8695
-37.2511
-38.2472
-37.8384
-37.0226
-36.7898
-51.7398
-51.9045
-51.8947
-52.2266
-51.4867
-52.2015
-63.3634
-63.4998
-63.3625
-63.2668
-62.8854
-62.6875
-43.1673
-44.0373
-46.4534
-43.4625
-42.3651
-41.7131
-52.9481
-52.8997
-52.8954
-53.5566
-53.6802
-55.0754
-62.7294
-62.4912
-62.0618
-62.1878
-62.0508
-61.7904
-41.0815
-40.7668
-43.8426
-46.1634
-44.7895
-43.7998
-51.8291
-51.286
-50.7836
-52.8345
-53.9769
-54.6166
-61.9047
-61.6399
-60.794
-61.1998
-61.3487
-61.385
-30.7967
-29.9993
-30.1913
-37.8581
-39.7389
-36.78
-55.7704
-55.8692
-54.2601
-54.5023
-54.7607
-54.5284
-60.7666
-60.6943
-60.5986
-60.919
-61.1101
-61.0817
-13.4143
-14.6387
-14.5942
-24.5379
-28.2809
-24.6798
-54.0913
-53.7713
-53.4077
-52.7755
-52.1298
-52.2428
-67.3341
-66.8877
-66.6406
-67.11
-67.3354
-67.4709
)
;

boundaryField
{
    seabed_topleft_surface
    {
        type            calculated;
        value           nonuniform List<scalar> 
72
(
21117.1
21111.5
21115.6
21118.9
21124.9
21121.7
21480.4
21475.4
21476.5
21483.4
21497.5
21475.9
21823.3
21818
21819.2
21823.2
21830.5
21817.9
21620.8
21618.6
21618.5
21620.8
21623.5
21617.6
20751.1
20750.9
20750.5
20751.3
20751.6
20751.2
18610.1
18605.9
18606.2
18609.1
18608.7
18609.1
15172.1
15170.2
15173.1
15170.8
15165.8
15181
11615.3
11619
11623.3
11613.7
11612.8
11634.9
9604.44
9600.83
9603.74
9599.06
9604.86
9593.17
8989.54
8979.39
8981.18
8986.08
8997.68
8967.37
8582.84
8554.07
8554.4
8586.53
8596.23
8553.26
8365.78
8358.05
8360.05
8371.56
8378.89
8375.61
)
;
    }
    seabed_topright_surface
    {
        type            calculated;
        value           nonuniform List<scalar> 
72
(
3051.49
2998.87
3006.66
2962.27
2947.61
2970.29
2896.92
2875.31
2853.53
2810.96
2770.25
2818.84
2432.7
2352.26
2259.93
2249.91
2358.22
2426.28
1499.25
1321.51
1165.31
1266.62
1402.39
1449.1
848.432
754.124
736.989
628.972
595.731
593.265
609.59
606.958
631.681
652.934
546.744
571.384
606.977
602.495
595.976
593.48
594.751
559.785
599.682
590.293
495.294
434.15
462.538
489.582
574.596
556.407
460.966
285.323
286.03
511.935
450.933
549.712
458.298
260.695
312.842
531.293
515.738
602.529
538.428
557.181
641.699
646.009
567.07
574.289
651.679
675.296
678.988
656.572
)
;
    }
    breakwater_top_surface
    {
        type            calculated;
        value           nonuniform List<scalar> 
36
(
296.565
290.263
286.15
286.143
284.757
288.4
326.034
325.625
324.141
321.603
320.305
323.175
335.346
335.12
334.732
334.577
334.643
334.824
329.258
329.465
329.699
329.565
329.543
329.994
324.639
324.776
325.071
324.783
324.677
325.007
285.586
286.313
285.993
284.84
283.672
285.257
)
;
    }
    breakwater_left_surface
    {
        type            calculated;
        value           nonuniform List<scalar> 
24
(
4835.49
4831.86
4834.02
4840.96
4846.38
4843.95
1137.51
1125.54
1129.91
1143.24
1155.63
1131.33
115.587
112.724
114.88
117.539
122.767
117.334
-62.6098
-61.7023
-62.1978
-63.2695
-64.9804
-62.3898
)
;
    }
    breakwater_right_surface
    {
        type            calculated;
        value           nonuniform List<scalar> 
24
(
399.631
416.412
403.104
408.281
408.058
385.643
35.6146
61.8855
65.9171
71.0206
55.1647
37.2114
-55.1564
-66.4586
-53.3268
-33.107
-41.1003
-39.695
-53.3108
-59.9419
-64.6347
-91.2259
-104.097
-56.9321
)
;
    }
    water_front_surface
    {
        type            calculated;
        value           nonuniform List<scalar> 
186
(
17575.5
17340.5
17028.8
16826.2
15956.5
13906.5
10904.9
7705.46
5871.71
5287.92
4916.58
4823.36
9644.91
8142.15
7900.44
8034.24
7037.09
4806.34
2797.21
1547.86
942.688
933.562
986.563
1135.77
2433.96
764.993
891.598
1544.15
1708.79
1303.71
755.431
397.705
206.243
89.6917
167.334
115.112
-16.4322
-30.7105
-59.8948
-99.8288
-110.151
-92.6163
-50.2682
0.102068
10.4686
-6.03766
3.20207
-62.6927
2590.13
2435.15
1971.01
1187.26
566.142
327.243
324.741
317.597
305.081
285.294
365.609
399.055
1713.88
1515.68
941.643
345.274
1.76253
-28.7934
3.12126
18.7686
19.3272
23.135
35.5048
35.4402
1063.85
781.393
469.079
47.8876
-1.15868
-6.05396
0.882385
-4.65364
-18.8102
-27.6028
-25.7201
-55.2448
352.022
88.1999
-29.4272
-67.9915
-28.8164
-21.7894
-22.8846
-29.2914
-36.7858
-39.3223
-24.9824
-53.4824
-11.3903
-29.8393
-58.6072
-25.0032
-53.7327
-86.2085
-48.1872
-68.4479
-90.5549
-69.4881
-71.0015
-80.5912
-84.292
-69.544
-72.6933
-105.47
-66.6803
-66.4433
-94.9868
-61.8946
-60.2667
-46.3709
-49.8205
-58.9842
-25.3559
-47.1295
-61.2579
-29.5271
-50.2119
-60.1003
-32.2094
-50.2429
-61.2916
-30.5401
-50.4866
-67.1362
115.5
-47.7773
-69.0299
134.935
-49.3031
-67.8264
141.212
-48.5817
-68.2588
138.562
-48.6052
-68.4997
135.441
-47.2518
-68.699
110.524
-46.2198
-69.9008
6.48794
-58.3899
-66.1821
-50.3042
-68.1562
-72.0456
-74.9893
-74.9858
-68.7143
-77.0358
-69.762
-66.8706
-40.1301
-51.6571
-63.8143
-30.3586
-49.2271
-63.4424
-30.8405
-50.2193
-63.6752
-36.8695
-51.7398
-63.3634
-43.1673
-52.9481
-62.7294
-41.0815
-51.8291
-61.9047
-30.7967
-55.7704
-60.7666
-13.4143
-54.0913
-67.3341
)
;
    }
    water_back_surface
    {
        type            calculated;
        value           nonuniform List<scalar> 
186
(
17580
17337.7
17023.4
16823.1
15956.7
13906.9
10906.3
7715.42
5865.7
5278.67
4905.36
4831.81
9643.45
8135.27
7879.17
8010.61
7034.74
4807.03
2795.11
1548.56
972.604
934.627
984.455
1129.6
2446.07
770.511
887.652
1525.8
1706.21
1290.72
693.222
369.238
219.665
106.762
167.692
116.925
-16.13
-30.5328
-62.1456
-99.6562
-107.471
-90.2914
-49.4149
-0.862426
10.0278
-3.49737
2.72156
-62.4832
2508.6
2357.12
1964.55
1121.45
535.757
362.315
297.305
247.87
244.011
259.469
374.149
384.711
1596.5
1315.69
850.103
403.465
62.3275
-28.9008
-8.431
3.47898
6.17065
24.0504
28.542
37.1334
973.222
412.877
144.671
40.0051
0.0374194
-13.2552
-3.13609
-6.70832
-14.4058
-18.5223
-25.958
-39.7921
374.409
-20.649
-49.5845
-38.0771
-17.4703
-21.1677
-22.8072
-25.0768
-29.9489
-42.7483
-27.7233
-57.1051
-12.2459
-30.5077
-58.0047
-27.3856
-55.8301
-87.3831
-48.2319
-67.472
-90.418
-69.4593
-70.8066
-81.8414
-84.8027
-69.7696
-72.6982
-105.789
-66.7644
-66.5844
-97.9472
-62.5834
-60.4546
-47.0726
-49.9389
-59.2232
-24.8809
-46.7132
-61.0148
-28.6811
-50.22
-60.0855
-33.002
-49.5868
-61.1866
-30.0461
-50.2304
-67.0965
111.376
-46.9391
-69.5386
133.51
-48.8208
-68.334
140.849
-48.3359
-68.4097
138.8
-48.476
-68.5877
135.528
-47.1109
-68.7381
110.329
-46.0975
-69.9159
17.8193
-51.8295
-66.1247
-57.3184
-67.6713
-66.461
-59.8331
-73.1186
-65.2178
-54.065
-60.6185
-64.7031
-34.1239
-50.5257
-63.3856
-31.4494
-48.8154
-62.9127
-31.4917
-49.9671
-62.8219
-36.7898
-52.2015
-62.6875
-41.7131
-55.0754
-61.7904
-43.7998
-54.6166
-61.385
-36.78
-54.5284
-61.0817
-24.6798
-52.2428
-67.4709
)
;
    }
    water_left_surface
    {
        type            calculated;
        value           nonuniform List<scalar> 
42
(
17587.6
17582
17586.2
17589.5
17595.4
17592.1
9658.05
9644.02
9645.9
9661.96
9670.66
9656.6
2442.03
2439.61
2447.8
2434.69
2433.7
2454.18
-16.4159
-16.2653
-16.4517
-15.8708
-15.4737
-16.1139
-11.3903
-12.2698
-12.8934
-10.9691
-8.65512
-12.2459
-29.8393
-28.5637
-30.2137
-30.0507
-30.9763
-30.5077
-58.6072
-56.5029
-57.727
-59.3158
-60.2583
-58.0047
)
;
    }
    water_right_surface
    {
        type            calculated;
        value           nonuniform List<scalar> 
42
(
2591.71
2538.69
2546.75
2504.03
2487.65
2510.18
1715.43
1585.91
1645.48
1622.62
1546.16
1598.05
1065.37
970.687
1041.1
1073.33
972.292
974.741
353.503
298.625
353.702
475.085
360.49
375.888
6.48794
-11.9023
-3.87789
22.3019
24.7858
17.8193
-58.3899
-51.7394
-53.1745
-47.4132
-50.2855
-51.8295
-66.1821
-66.2731
-63.0205
-64.2538
-66.8284
-66.1247
)
;
    }
    water_top_surface
    {
        type            calculated;
        value           nonuniform List<scalar> 
180
(
-100.179
-95.4749
-92.7218
-100.269
-100.269
-91.5358
-68.9122
-96.5699
-96.8942
-69.2275
-70.723
-101.12
-89.4364
-86.9181
-86.501
-90.932
-93.5019
-79.1467
-84.1056
-84.5859
-84.3136
-84.7269
-85.0229
-83.6011
-74.7084
-75.2376
-75.0685
-74.757
-74.5739
-74.9102
-68.7594
-68.8727
-68.8661
-68.7418
-68.7051
-68.8684
-68.67
-68.6706
-68.6705
-68.6701
-68.6701
-68.6709
-68.6746
-68.6727
-68.672
-68.6747
-68.6776
-68.6734
-68.6836
-68.6837
-68.6837
-68.6836
-68.6837
-68.6838
-68.684
-68.6842
-68.6841
-68.6841
-68.6841
-68.6843
-69.0049
-69.0059
-69.0139
-69.0075
-69.0203
-69.0188
-69.2186
-69.2303
-69.2265
-69.2228
-69.2172
-69.2299
-68.7495
-68.7747
-68.7483
-68.6981
-68.6841
-68.6919
-69.6119
-69.6383
-69.5568
-69.5448
-69.536
-69.6024
-69.2315
-69.2464
-69.2314
-69.2321
-69.2338
-69.2252
-69.3922
-69.4075
-69.4011
-69.4034
-69.4049
-69.4037
-69.2754
-69.2837
-69.2781
-69.2679
-69.2634
-69.2667
-68.6723
-68.6722
-68.6721
-68.6717
-68.6714
-68.6715
-68.7335
-78.4423
-68.67
-82.2916
-77.9022
-69.3654
-79.4646
-76.5619
-83.1321
-78.314
-74.6065
-73.9956
-69.7129
-73.7879
-69.7076
-69.4009
-70.0291
-70.5409
-68.6705
-68.6772
-68.6905
-68.672
-68.67
-68.67
-68.67
-68.6788
-68.6862
-68.6716
-68.67
-68.67
-68.67
-68.67
-68.67
-68.67
-68.67
-68.67
-68.67
-68.67
-68.67
-68.67
-68.67
-68.67
-68.6701
-68.6713
-68.6713
-68.6705
-68.67
-68.67
-68.6745
-68.6896
-68.6786
-68.6718
-68.67
-68.6705
-68.7194
-68.6813
-68.6877
-68.9179
-69.0199
-69.2232
-69.3574
-69.6636
-69.4613
-69.8161
-70.0382
-70.046
-69.6719
-70.0054
-69.9831
-69.8
-69.7371
-69.6041
)
;
    }
}


// ************************************************************************* //
