/*--------------------------------*- C++ -*----------------------------------*\
| =========                 |                                                 |
| \\      /  F ield         | OpenFOAM: The Open Source CFD Toolbox           |
|  \\    /   O peration     | Version:  v1612+                                |
|   \\  /    A nd           | Web:      www.OpenFOAM.com                      |
|    \\/     M anipulation  |                                                 |
\*---------------------------------------------------------------------------*/
FoamFile
{
    version     2.0;
    format      ascii;
    class       volScalarField;
    location    "7.9";
    object      p_rgh;
}
// * * * * * * * * * * * * * * * * * * * * * * * * * * * * * * * * * * * * * //

dimensions      [1 -1 -2 0 0 0 0];

internalField   nonuniform List<scalar> 
1116
(
21117.1
21111.5
21115.6
21118.9
21124.9
21121.7
21480.4
21475.4
21476.5
21483.4
21497.5
21475.9
21823.3
21818
21819.2
21823.2
21830.5
21817.9
21620.8
21618.6
21618.5
21620.8
21623.5
21617.6
20751.1
20750.9
20750.5
20751.3
20751.6
20751.2
18610.1
18605.9
18606.2
18609.1
18608.7
18609.1
15172.1
15170.2
15173.1
15170.8
15165.8
15181
11615.3
11619
11623.3
11613.7
11612.8
11634.9
9604.44
9600.83
9603.74
9599.06
9604.86
9593.17
8989.54
8979.39
8981.18
8986.08
8997.68
8967.37
8582.84
8554.07
8554.4
8586.53
8596.23
8553.26
8365.78
8358.05
8360.05
8371.56
8378.89
8375.61
21367.1
21356.1
21361.5
21380.3
21393.8
21374.9
19864.6
19863.4
19846.3
19875.4
19920.2
19847
20440.3
20426
20420.5
20434.8
20451.9
20418.2
21827.5
21804.5
21810.1
21818.3
21829.3
21803.1
20796.8
20791.9
20795.8
20792.1
20793.8
20795.6
16092.5
16129.2
16123.4
16098.8
16088.7
16130
9037.18
9083.64
9073.24
9056.83
9030.08
9098.13
3990.76
3993.34
3996.41
3998.9
3983.13
4047.85
3049.72
3053.93
3059.62
3034.59
3047.5
3013.37
3215.88
3202.69
3206.7
3197.31
3206.83
3177.51
2621.38
2571.6
2574.2
2611.12
2629.37
2573.98
2687.3
2651.21
2661.23
2693.27
2718.3
2672.22
14666.6
14652.8
14712.1
14608.8
14599.1
14747.7
4605.51
4603.06
4581.64
4611.34
4632.49
4593.14
5385.24
5332.03
5306.58
5386.03
5432.78
5314.42
9463.89
9356.12
9335.5
9446.6
9485.45
9345.78
10640.8
10620.6
10609.7
10633.3
10626.5
10636
8324.01
8277.06
8282.53
8303.27
8318.42
8269.82
4740.75
4614.52
4623.6
4731.38
4865.97
4465.67
1979.37
2020.05
2017.76
1986.15
1959.41
1913.63
742.167
812.498
794.293
763.088
707.45
894.604
391.251
443.896
438.666
396.122
366.342
471.36
761.621
737.412
741.716
770.993
780.942
733.991
836.168
737.241
746.15
854.459
930.362
737.509
18.8161
18.8291
18.6707
19.3494
19.6955
18.8069
4.2809
4.91246
4.61608
2.9116
0.289601
4.25162
-25.2421
-25.3842
-25.0704
-26.0647
-26.0016
-27.6187
-65.4226
-64.7301
-64.1564
-65.9928
-66.1317
-65.2818
-75.7835
-75.2307
-75.284
-75.9472
-76.1985
-73.1149
-58.2548
-58.5662
-58.8576
-57.3772
-57.6762
-55.9371
-15.9014
-16.0098
-16.617
-14.3803
-13.5707
-15.0619
39.3915
37.0991
39.7847
40.1044
40.2552
33.4808
45.771
45.2151
45.6888
46.3686
45.8244
45.5467
28.4118
28.7804
28.9989
29.1455
29.7075
31.0033
42.7707
44.5637
43.3642
41.3896
40.3884
43.3912
116.825
128.759
132.049
116.314
118.341
139.682
3051.49
2998.87
3006.66
2962.27
2947.61
2970.29
2896.92
2875.31
2853.53
2810.96
2770.25
2818.84
2432.7
2352.26
2259.93
2249.91
2358.22
2426.28
1499.25
1321.51
1165.31
1266.62
1402.39
1449.1
848.432
754.124
736.989
628.972
595.731
593.265
609.59
606.958
631.681
652.934
546.744
571.384
606.977
602.495
595.976
593.48
594.751
559.785
599.682
590.293
495.294
434.15
462.538
489.582
574.596
556.407
460.966
285.323
286.03
511.935
450.933
549.712
458.298
260.695
312.842
531.293
515.738
602.529
538.428
557.181
641.699
646.009
567.07
574.289
651.679
675.296
678.988
656.572
3096.42
2966.9
3026.33
3002.88
2926.73
2978.32
2898.22
2583.13
2697.3
2639.86
2550.47
2697.57
2203.83
1444.13
1301.87
1317.45
1821.66
2231.51
714.079
575.826
546.851
646.631
714.13
784.927
70.3429
62.6812
73.5266
115.002
150.906
147.92
-13.899
-17.6099
-9.48603
14.0128
12.2924
6.31337
17.867
16.1608
16.5563
12.6683
9.14422
6.30542
34.6697
26.7112
19.8871
18.9047
21.0645
18.2179
49.8795
27.2354
16.8255
24.3301
25.1087
20.9098
148.731
62.0053
33.0297
35.0374
36.6121
44.149
182.553
83.1995
69.1813
81.6072
73.9933
107.37
190.991
145.058
81.0686
96.3111
86.0501
106.655
3367.03
3272.09
3341.74
3373.64
3272.93
3275.12
3081.85
3114.14
3165.81
3042.65
2802.13
2281.57
2718.79
2055
2006.89
1334.86
1962.43
1278.12
855.481
268.5
211.63
144.327
385.261
422.09
24.3775
22.1522
21.1845
34.1534
23.2176
24.9074
18.5164
17.5287
14.4252
10.2413
10.2404
11.2941
25.4245
25.5315
24.3428
22.3566
22.4247
21.4083
19.8881
18.0809
15.6874
16.8457
18.717
17.8425
5.73184
5.17162
-0.492931
3.57412
7.13798
15.0449
-2.9122
-0.370578
-0.657194
17.7018
45.4792
17.8064
-0.80327
26.1773
40.9321
95.5435
107.816
-1.23423
78.6953
123.345
120.625
169.593
149.932
107.459
3558.34
2320.59
3573.21
3694.67
3441.44
3575.09
716.759
3379.31
2820.09
2955.5
2056.11
16.2749
212.06
2309.5
2061.51
1211.4
684.392
-15.1832
130.674
174.955
162.537
23.9776
29.9083
-3.67962
13.9685
8.54024
13.6903
15.8491
17.986
16.9388
12.5635
14.3906
13.8814
11.6761
14.8594
13.2552
11.4665
13.2527
12.902
11.8801
12.0158
11.5439
5.06001
3.95916
3.17314
5.31779
7.44655
9.65756
-2.43439
-4.9127
-7.04394
-1.37668
-1.52101
7.97855
-4.96174
-7.24377
-13.863
-8.10676
-9.48442
-3.96516
9.76344
5.36645
1.84794
86.7254
138.521
6.75541
317.919
307.123
263.458
283.906
271.035
317.163
36.8851
36.0682
35.421
37.3893
40.0951
36.4294
41.7475
31.7282
29.1371
41.9706
47.677
32.4376
34.416
32.1523
28.3718
33.7908
32.8482
26.9928
29.868
23.9472
23.1477
28.2302
31.7714
21.928
28.0863
26.4799
18.9724
23.8237
21.2958
23.6209
4.03116
1.80404
1.91843
1.22761
-1.0441
6.51364
18.2795
14.5637
15.868
15.5194
14.4962
9.79109
1.98011
2.10702
4.68196
-3.83214
-8.43188
2.32921
-26.7899
-27.2845
-26.9376
-26.942
-27.386
-13.828
-6.51058
-6.23349
-6.44135
-9.40529
-13.8775
-11.7664
-17.0465
-16.9841
-15.2032
-16.9186
-16.3751
-16.8516
-16.8262
-17.2095
-17.2272
-17.0078
-16.8873
-18.0764
-37.6397
-38.7354
-37.6561
-39.2342
-41.2535
-40.3707
-15.589
-15.5411
-15.6069
-15.7356
-15.7273
-15.8146
-8.92833
-9.21428
-9.14986
-8.77312
-8.43415
-8.9332
-61.3202
-60.8317
-61.2365
-62.5735
-63.4632
-61.6415
-12.7196
-12.8216
-12.7855
-12.6729
-12.2324
-12.8075
-2.67827
-2.8015
-2.82387
-2.66738
-2.39884
-2.81944
-50.8151
-51.9667
-51.9413
-51.2789
-50.713
-53.5954
-7.93702
-8.01165
-7.8452
-8.19997
-8.2383
-8.5537
3.49838
3.55914
3.55172
3.43714
3.39514
3.3112
-1.80319
-1.66348
-2.42719
-1.96852
-1.80836
-2.69171
4.16684
4.29246
4.21183
4.16295
3.92523
4.0835
4.78507
4.76173
4.76208
4.79761
4.63745
4.54496
18.8452
19.0312
18.8231
18.7648
18.3523
19.3469
6.83163
6.99246
6.88598
6.91385
6.86121
7.2465
2.51981
2.59505
2.59484
2.62484
2.71033
2.76306
14.6229
14.8262
14.7393
14.7819
14.5771
15.4677
3.74924
3.59182
3.59675
3.911
3.92395
3.73511
3.67774
3.6709
3.68246
3.71745
3.74045
3.69279
11.9418
11.8542
11.6092
11.5232
11.0618
11.143
3.71615
3.73305
3.94313
4.10644
4.44346
4.36817
2.47668
2.50539
2.50836
2.5117
2.51907
2.58167
302.488
318.67
314.237
296.473
280.932
312.579
3.46842
3.47752
3.5506
3.62913
3.75283
3.72461
-3.3712
-3.40874
-3.38016
-3.32191
-3.26209
-3.33153
1745.09
1718.02
1698.94
1693.17
1685.23
1704.6
6.17769
6.14529
6.36556
6.78387
6.97261
7.01588
-5.26495
-5.39675
-5.57391
-5.70335
-5.76611
-5.77361
1854.82
1854.31
1845.47
1831.04
1825.31
1840.5
4.65186
4.75543
4.93687
5.08119
5.16502
5.13418
-4.06138
-4.05783
-4.11401
-4.32425
-4.49622
-4.56904
1888.42
1887.52
1886.05
1885.49
1885.88
1886.62
5.37335
5.39341
5.4458
5.52836
5.58552
5.61914
-4.49376
-4.51069
-4.55152
-4.59903
-4.63605
-4.64473
1854.82
1856.01
1857.62
1857.05
1857.02
1859.54
5.34981
5.37417
5.40989
5.4426
5.46686
5.47903
-4.73467
-4.74032
-4.76089
-4.78679
-4.81084
-4.82267
1838.23
1838.79
1840.69
1839.56
1839.37
1840.85
6.70323
6.72094
6.75054
6.79421
6.83179
6.84405
-4.93401
-4.93977
-4.94967
-4.95966
-4.97056
-4.97311
1686.08
1688.85
1688
1683.14
1679.11
1684.68
7.73521
7.78204
7.79453
7.79544
7.79808
7.85748
-6.13578
-6.14116
-6.1453
-6.14368
-6.14558
-6.15093
1090.41
32.244
1825.09
2634.92
713.873
744.908
-4.4349
2.2156
172.029
651.718
3.66981
2.12819
-2.41711
-2.50812
0.744489
12.1598
-3.06344
-2.3597
-3.65081
255.036
-25.4505
701.532
476.423
-13.1086
-11.2242
-17.0516
-17.4377
-20.5091
-18.907
-12.9168
-8.2806
-10.4248
-10.325
-9.66311
-5.11833
-2.24494
-25.7279
710.116
258.137
395.965
56.4592
-15.6268
-3.0767
-31.1548
-32.4904
-31.5842
-19.6475
-14.9354
-4.85526
-8.1228
-7.12655
-6.0006
-1.89846
0.284439
-14.0226
182.903
136.071
10.5903
-12.1616
-9.91799
-15.7025
9.42474
24.3531
-8.38212
-9.93953
-6.6635
-3.10509
-3.37153
-3.37953
-2.00729
-1.00032
-0.938102
4.61536
6.38535
11.1193
12.1951
10.6536
10.0213
2.29803
3.78543
5.36944
5.41894
3.64263
3.42931
-0.0492745
-0.077827
0.100005
0.420212
0.359198
0.379367
13.7876
16.1374
16.806
14.9121
13.388
12.6987
4.72787
5.47582
5.77297
5.44678
4.95814
5.13964
0.322587
0.219297
0.289952
0.65289
0.85803
0.852328
13.3047
14.0414
14.359
12.4426
12.3821
12.6534
3.73579
3.76467
4.0247
3.68394
3.61173
3.98793
0.0898459
-0.281591
-0.0861787
0.246646
0.760028
0.943125
7.27554
6.90081
5.92732
6.30658
7.12358
7.36645
2.21522
2.0506
2.06034
1.73037
2.46836
1.75355
0.401669
0.266428
0.403713
0.49858
0.879641
1.07754
0.977794
0.11454
-2.2303
0.682675
1.77996
2.43206
1.00699
1.06363
1.1101
0.412757
0.274851
-1.12025
1.03981
1.29197
1.71125
1.57894
1.71423
1.97504
3.06701
3.38572
0.375063
-2.01599
-0.644408
0.346892
2.71119
3.17803
3.3973
1.12793
-0.0218533
-0.658887
1.88438
2.1698
2.98261
2.56521
2.41627
2.37997
13.4727
14.1831
14.0002
6.29016
4.40612
7.36496
0.113387
-0.453322
0.602424
-0.547326
-0.80572
-0.573377
3.0029
3.0715
3.16738
2.84596
2.65491
2.68332
450.211
347.998
328.357
362.935
348.654
417.922
-0.136343
0.183693
0.547264
1.17946
1.82519
1.71219
-3.56907
-3.12266
-2.87562
-3.345
-3.57036
-3.7059
)
;

boundaryField
{
    seabed_topleft_surface
    {
        type            fixedFluxPressure;
        gradient        uniform 0;
        value           nonuniform List<scalar> 
72
(
21117.1
21111.5
21115.6
21118.9
21124.9
21121.7
21480.4
21475.4
21476.5
21483.4
21497.5
21475.9
21823.3
21818
21819.2
21823.2
21830.5
21817.9
21620.8
21618.6
21618.5
21620.8
21623.5
21617.6
20751.1
20750.9
20750.5
20751.3
20751.6
20751.2
18610.1
18605.9
18606.2
18609.1
18608.7
18609.1
15172.1
15170.2
15173.1
15170.8
15165.8
15181
11615.3
11619
11623.3
11613.7
11612.8
11634.9
9604.44
9600.83
9603.74
9599.06
9604.86
9593.17
8989.54
8979.39
8981.18
8986.08
8997.68
8967.37
8582.84
8554.07
8554.4
8586.53
8596.23
8553.26
8365.78
8358.05
8360.05
8371.56
8378.89
8375.61
)
;
    }
    seabed_topright_surface
    {
        type            fixedFluxPressure;
        gradient        uniform 0;
        value           nonuniform List<scalar> 
72
(
3051.49
2998.87
3006.66
2962.27
2947.61
2970.29
2896.92
2875.31
2853.53
2810.96
2770.25
2818.84
2432.7
2352.26
2259.93
2249.91
2358.22
2426.28
1499.25
1321.51
1165.31
1266.62
1402.39
1449.1
848.432
754.124
736.989
628.972
595.731
593.265
609.59
606.958
631.681
652.934
546.744
571.384
606.977
602.495
595.976
593.48
594.751
559.785
599.682
590.293
495.294
434.15
462.538
489.582
574.596
556.407
460.966
285.323
286.03
511.935
450.933
549.712
458.298
260.695
312.842
531.293
515.738
602.529
538.428
557.181
641.699
646.009
567.07
574.289
651.679
675.296
678.988
656.572
)
;
    }
    breakwater_top_surface
    {
        type            fixedFluxPressure;
        gradient        uniform 0;
        value           nonuniform List<scalar> 
36
(
1745.09
1718.02
1698.94
1693.17
1685.23
1704.6
1854.82
1854.31
1845.47
1831.04
1825.31
1840.5
1888.42
1887.52
1886.05
1885.49
1885.88
1886.62
1854.82
1856.01
1857.62
1857.05
1857.02
1859.54
1838.23
1838.79
1840.69
1839.56
1839.37
1840.85
1686.08
1688.85
1688
1683.14
1679.11
1684.68
)
;
    }
    breakwater_left_surface
    {
        type            fixedFluxPressure;
        gradient        uniform 0;
        value           nonuniform List<scalar> 
24
(
8365.78
8358.05
8360.05
8371.56
8378.89
8375.61
2687.3
2651.21
2661.23
2693.27
2718.3
2672.22
836.168
737.241
746.15
854.459
930.362
737.509
116.825
128.759
132.049
116.314
118.341
139.682
)
;
    }
    breakwater_right_surface
    {
        type            fixedFluxPressure;
        gradient        uniform 0;
        value           nonuniform List<scalar> 
24
(
567.07
574.289
651.679
675.296
678.988
656.572
190.991
145.058
81.0686
96.3111
86.0501
106.655
78.6953
123.345
120.625
169.593
149.932
107.459
317.919
307.123
263.458
283.906
271.035
317.163
)
;
    }
    water_front_surface
    {
        type            fixedFluxPressure;
        gradient        uniform 0;
        value           nonuniform List<scalar> 
186
(
21117.1
21480.4
21823.3
21620.8
20751.1
18610.1
15172.1
11615.3
9604.44
8989.54
8582.84
8365.78
21367.1
19864.6
20440.3
21827.5
20796.8
16092.5
9037.18
3990.76
3049.72
3215.88
2621.38
2687.3
14666.6
4605.51
5385.24
9463.89
10640.8
8324.01
4740.75
1979.37
742.167
391.251
761.621
836.168
18.8161
4.2809
-25.2421
-65.4226
-75.7835
-58.2548
-15.9014
39.3915
45.771
28.4118
42.7707
116.825
3051.49
2896.92
2432.7
1499.25
848.432
609.59
606.977
599.682
574.596
450.933
515.738
567.07
3096.42
2898.22
2203.83
714.079
70.3429
-13.899
17.867
34.6697
49.8795
148.731
182.553
190.991
3367.03
3081.85
2718.79
855.481
24.3775
18.5164
25.4245
19.8881
5.73184
-2.9122
-0.80327
78.6953
3558.34
716.759
212.06
130.674
13.9685
12.5635
11.4665
5.06001
-2.43439
-4.96174
9.76344
317.919
36.8851
41.7475
34.416
29.868
28.0863
4.03116
18.2795
1.98011
-26.7899
-6.51058
-17.0465
-16.8262
-37.6397
-15.589
-8.92833
-61.3202
-12.7196
-2.67827
-50.8151
-7.93702
3.49838
-1.80319
4.16684
4.78507
18.8452
6.83163
2.51981
14.6229
3.74924
3.67774
11.9418
3.71615
2.47668
302.488
3.46842
-3.3712
1745.09
6.17769
-5.26495
1854.82
4.65186
-4.06138
1888.42
5.37335
-4.49376
1854.82
5.34981
-4.73467
1838.23
6.70323
-4.93401
1686.08
7.73521
-6.13578
1090.41
-4.4349
-2.41711
-3.65081
-11.2242
-8.2806
-25.7279
-3.0767
-4.85526
-14.0226
-15.7025
-3.10509
4.61536
2.29803
-0.0492745
13.7876
4.72787
0.322587
13.3047
3.73579
0.0898459
7.27554
2.21522
0.401669
0.977794
1.00699
1.03981
3.06701
2.71119
1.88438
13.4727
0.113387
3.0029
450.211
-0.136343
-3.56907
)
;
    }
    water_back_surface
    {
        type            fixedFluxPressure;
        gradient        uniform 0;
        value           nonuniform List<scalar> 
186
(
21121.7
21475.9
21817.9
21617.6
20751.2
18609.1
15181
11634.9
9593.17
8967.37
8553.26
8375.61
21374.9
19847
20418.2
21803.1
20795.6
16130
9098.13
4047.85
3013.37
3177.51
2573.98
2672.22
14747.7
4593.14
5314.42
9345.78
10636
8269.82
4465.67
1913.63
894.604
471.36
733.991
737.509
18.8069
4.25162
-27.6187
-65.2818
-73.1149
-55.9371
-15.0619
33.4808
45.5467
31.0033
43.3912
139.682
2970.29
2818.84
2426.28
1449.1
593.265
571.384
559.785
489.582
511.935
531.293
646.009
656.572
2978.32
2697.57
2231.51
784.927
147.92
6.31337
6.30542
18.2179
20.9098
44.149
107.37
106.655
3275.12
2281.57
1278.12
422.09
24.9074
11.2941
21.4083
17.8425
15.0449
17.8064
-1.23423
107.459
3575.09
16.2749
-15.1832
-3.67962
16.9388
13.2552
11.5439
9.65756
7.97855
-3.96516
6.75541
317.163
36.4294
32.4376
26.9928
21.928
23.6209
6.51364
9.79109
2.32921
-13.828
-11.7664
-16.8516
-18.0764
-40.3707
-15.8146
-8.9332
-61.6415
-12.8075
-2.81944
-53.5954
-8.5537
3.3112
-2.69171
4.0835
4.54496
19.3469
7.2465
2.76306
15.4677
3.73511
3.69279
11.143
4.36817
2.58167
312.579
3.72461
-3.33153
1704.6
7.01588
-5.77361
1840.5
5.13418
-4.56904
1886.62
5.61914
-4.64473
1859.54
5.47903
-4.82267
1840.85
6.84405
-4.97311
1684.68
7.85748
-6.15093
744.908
2.12819
-2.3597
-13.1086
-12.9168
-2.24494
-15.6268
-14.9354
0.284439
-9.91799
-6.6635
-0.938102
10.0213
3.42931
0.379367
12.6987
5.13964
0.852328
12.6534
3.98793
0.943125
7.36645
1.75355
1.07754
2.43206
-1.12025
1.97504
0.346892
-0.658887
2.37997
7.36496
-0.573377
2.68332
417.922
1.71219
-3.7059
)
;
    }
    water_left_surface
    {
        type            fixedFluxPressure;
        gradient        uniform 0;
        value           nonuniform List<scalar> 
42
(
21117.1
21111.5
21115.6
21118.9
21124.9
21121.7
21367.1
21356.1
21361.5
21380.3
21393.8
21374.9
14666.6
14652.8
14712.1
14608.8
14599.1
14747.7
18.8161
18.8291
18.6707
19.3494
19.6955
18.8069
36.8851
36.0682
35.421
37.3893
40.0951
36.4294
41.7475
31.7282
29.1371
41.9706
47.677
32.4376
34.416
32.1523
28.3718
33.7908
32.8482
26.9928
)
;
    }
    water_right_surface
    {
        type            fixedFluxPressure;
        gradient        uniform 0;
        value           nonuniform List<scalar> 
42
(
3051.49
2998.87
3006.66
2962.27
2947.61
2970.29
3096.42
2966.9
3026.33
3002.88
2926.73
2978.32
3367.03
3272.09
3341.74
3373.64
3272.93
3275.12
3558.34
2320.59
3573.21
3694.67
3441.44
3575.09
1090.41
32.244
1825.09
2634.92
713.873
744.908
-4.4349
2.2156
172.029
651.718
3.66981
2.12819
-2.41711
-2.50812
0.744489
12.1598
-3.06344
-2.3597
)
;
    }
    water_top_surface
    {
        type            totalPressure;
        rho             rho;
        psi             none;
        gamma           1;
        p0              uniform 0;
        value           nonuniform List<scalar> 
180
(
0
0
0
0
0
0
-0.242235
0
0
-0.557511
-2.05299
0
-20.7664
-18.2481
-17.831
-22.262
-24.8319
-10.4767
-15.4356
-15.9159
-15.6436
-16.0569
-16.3529
-14.9311
-6.03845
-6.56763
-6.39845
-6.08698
-5.90394
-6.24023
-0.089446
-0.202676
-0.196083
-0.0717917
-0.0350824
-0.198393
0
0
0
0
0
0
0
0
0
0
0
0
0
0
0
0
0
0
0
0
0
0
0
0
-0.334884
-0.335942
-0.343882
-0.337539
-0.350298
-0.348767
-0.548604
-0.560262
-0.556458
-0.552758
-0.547197
-0.559934
-0.0795034
-0.104736
-0.078329
-0.0280669
-0.0141495
-0.0218512
-0.94188
-0.968273
-0.886778
-0.87478
-0.866008
-0.932449
-0.561466
-0.576447
-0.561434
-0.56213
-0.56381
-0.555184
-0.722209
-0.737533
-0.731137
-0.733354
-0.734877
-0.733685
-0.605378
-0.613743
-0.608058
-0.597944
-0.593399
-0.596651
-0.00225988
-0.00223077
-0.00205121
-0.00172965
-0.00141506
-0.00148375
-0.0635391
-9.77233
0
0
-9.23222
-0.69542
-10.7946
-7.8919
-14.4621
-9.644
-5.9365
-5.32562
-1.04288
-5.11792
-1.03759
-0.730928
-1.35914
0
0
0
0
0
0
0
0
0
0
0
0
0
0
0
0
0
0
0
0
0
0
0
0
0
0
0
0
0
0
0
0
0
0
0
0
0
-0.0493602
-0.0113222
-0.0177097
-0.247866
-0.349898
-0.553223
-0.687393
-0.993629
-0.791303
-1.14615
-1.36821
-1.37602
-1.00185
-1.33541
-1.31305
-1.13001
-1.06712
-0.934106
)
;
    }
}


// ************************************************************************* //
