/*--------------------------------*- C++ -*----------------------------------*\
| =========                 |                                                 |
| \\      /  F ield         | OpenFOAM: The Open Source CFD Toolbox           |
|  \\    /   O peration     | Version:  v1612+                                |
|   \\  /    A nd           | Web:      www.OpenFOAM.com                      |
|    \\/     M anipulation  |                                                 |
\*---------------------------------------------------------------------------*/
FoamFile
{
    version     2.0;
    format      ascii;
    class       volVectorField;
    location    "7.9";
    object      U;
}
// * * * * * * * * * * * * * * * * * * * * * * * * * * * * * * * * * * * * * //

dimensions      [0 1 -1 0 0 0 0];

internalField   nonuniform List<vector> 
1116
(
(0.462267 0.00271655 -0.32713)
(0.464066 0.000945929 -0.324601)
(0.461452 -0.00243288 -0.324685)
(0.464632 -0.00166104 -0.32705)
(0.468551 -0.00132915 -0.328375)
(0.46079 -0.00112841 -0.326025)
(1.12099 0.00177268 -0.351219)
(1.11842 0.0010809 -0.350185)
(1.11855 -0.00158707 -0.34804)
(1.12124 -0.00379348 -0.352)
(1.12323 0.00207144 -0.355926)
(1.11945 0.00253123 -0.346891)
(1.59933 0.00128596 -0.270146)
(1.59789 0.00137352 -0.268906)
(1.59823 -0.00121553 -0.268297)
(1.59943 -0.00320387 -0.269862)
(1.60093 0.00231651 -0.272049)
(1.59816 0.00378357 -0.267596)
(1.4996 -0.000118846 0.0633836)
(1.49795 0.000318382 0.0652458)
(1.49868 -0.000148808 0.0649216)
(1.499 -0.000948557 0.0640351)
(1.49992 0.00076882 0.062257)
(1.49825 0.00117491 0.0659607)
(0.988528 -0.00128477 0.23577)
(0.982435 -0.00052224 0.236625)
(0.984587 0.000711622 0.235904)
(0.986391 0.000723859 0.236894)
(0.988063 -0.000657696 0.236069)
(0.984267 -0.00149739 0.236423)
(0.479423 -0.00101958 0.193225)
(0.463658 -0.000885136 0.187266)
(0.467971 0.00116036 0.187762)
(0.474724 0.00151037 0.192471)
(0.479216 -0.00124377 0.194474)
(0.465122 -0.00231106 0.185878)
(-0.117818 0.00151104 -0.13416)
(-0.132656 -0.000707918 -0.143192)
(-0.129661 0.000859626 -0.141017)
(-0.120459 -0.00109013 -0.136602)
(-0.115209 0.000295272 -0.130693)
(-0.133224 0.00266102 -0.146087)
(-0.703252 0.00276984 -0.504811)
(-0.703407 0.000831031 -0.512589)
(-0.702713 0.000226832 -0.509921)
(-0.7034 -0.00224409 -0.50701)
(-0.708113 0.00431814 -0.501595)
(-0.700563 0.00729737 -0.513875)
(-0.961176 -0.00202183 -0.680851)
(-0.952048 9.08865e-05 -0.680905)
(-0.952385 0.00151335 -0.680331)
(-0.961055 0.00190504 -0.681294)
(-0.970813 0.00184452 -0.682576)
(-0.948124 -4.03872e-05 -0.677037)
(-0.934823 -0.00435168 -0.664215)
(-0.937565 0.000138259 -0.656071)
(-0.935062 0.00117762 -0.656942)
(-0.936742 0.00551452 -0.663235)
(-0.943376 -0.00299041 -0.672825)
(-0.934268 -0.00897037 -0.64492)
(-0.829206 -0.00404483 -0.565496)
(-0.840048 -0.00114407 -0.545055)
(-0.839861 0.00185946 -0.547507)
(-0.83023 0.00846997 -0.56425)
(-0.831704 -0.00748399 -0.583253)
(-0.846254 -0.0119739 -0.533555)
(-0.39911 0.00348214 -0.431897)
(-0.425335 0.000449841 -0.409835)
(-0.423892 -0.00277221 -0.414014)
(-0.401008 -0.00267456 -0.431508)
(-0.385143 -0.000351167 -0.452121)
(-0.434274 0.00926824 -0.406168)
(0.25011 0.00443683 -1.26247)
(0.258066 0.00124787 -1.24282)
(0.235659 0.00269896 -1.2509)
(0.266278 0.014256 -1.25489)
(0.306852 -0.00376287 -1.25945)
(0.223384 -0.0205044 -1.2578)
(1.76296 -0.00247077 -0.783623)
(1.7501 -0.00378313 -0.766632)
(1.74518 0.00444475 -0.771777)
(1.76426 0.00587257 -0.7778)
(1.77774 -0.000954976 -0.784349)
(1.74027 -0.0158671 -0.769109)
(2.41384 0.000222758 0.0970529)
(2.3893 0.000709757 0.106789)
(2.39058 0.00161517 0.108197)
(2.41349 0.000418416 0.0979581)
(2.43557 0.0052073 0.0906778)
(2.38047 -0.00107681 0.113763)
(2.58415 0.00129017 0.578739)
(2.57786 0.00200613 0.58211)
(2.57714 -0.000942863 0.583455)
(2.58461 -0.00481379 0.578919)
(2.59289 0.00558265 0.577502)
(2.57377 0.00745901 0.584065)
(2.44614 0.000181659 0.699489)
(2.44348 0.00033402 0.704161)
(2.44402 0.000277455 0.703863)
(2.44569 -0.000920989 0.700682)
(2.44686 0.00158135 0.70036)
(2.4435 0.00295844 0.702342)
(2.53289 0.00738775 0.733776)
(2.52736 0.00421689 0.741064)
(2.52147 -0.00302033 0.74018)
(2.53664 -0.00365178 0.735897)
(2.54102 0.00374333 0.7336)
(2.52227 0.00579792 0.742386)
(2.81549 0.0112337 0.969988)
(2.83667 0.00697537 0.967858)
(2.82041 -0.00550649 0.968352)
(2.83169 -0.0102806 0.97007)
(2.83448 0.00669827 0.963888)
(2.82239 0.0166326 0.97593)
(3.23275 -0.000556421 1.18009)
(3.27786 0.000858333 1.18041)
(3.25943 0.00345767 1.17907)
(3.25281 -0.00154933 1.18031)
(3.24885 0.0112908 1.17743)
(3.23893 0.0256439 1.19462)
(3.2209 -0.0245202 0.832458)
(3.31555 -0.00922138 0.82705)
(3.29217 0.0108634 0.825877)
(3.24277 0.0169604 0.832928)
(3.18263 -0.0322453 0.8343)
(3.37582 -0.0296581 0.836634)
(1.65404 -0.0384165 0.452119)
(1.73262 -0.014086 0.448902)
(1.72401 0.0120348 0.444973)
(1.66856 0.0299545 0.456641)
(1.59673 -0.0339486 0.464882)
(1.82807 -0.0581105 0.438052)
(0.671786 -0.0462077 0.280002)
(0.619951 -0.0133343 0.272397)
(0.636533 0.0146427 0.270053)
(0.673611 0.0510811 0.285547)
(0.68577 -0.0334185 0.301656)
(0.60796 -0.0733671 0.24781)
(0.140954 0.0323508 -0.435764)
(-0.0951974 0.0319587 -0.482018)
(-0.0654758 -0.0405214 -0.481671)
(0.135416 -0.0347816 -0.43541)
(0.297306 0.0317748 -0.412029)
(-0.125051 0.0695321 -0.500287)
(-0.56124 0.0121013 -2.48594)
(-0.566512 0.0151676 -2.44995)
(-0.52979 -0.0195695 -2.45479)
(-0.590788 -0.03349 -2.477)
(-0.670547 0.00993153 -2.48635)
(-0.510767 0.0329538 -2.46365)
(1.911 0.0033349 -2.6719)
(1.96355 0.00997589 -2.67077)
(1.96424 -0.0102019 -2.69192)
(1.92203 0.0212568 -2.65825)
(1.92609 -0.0235535 -2.63234)
(1.95972 0.0292897 -2.69738)
(3.26896 -0.002962 -1.30591)
(3.35718 -0.000837125 -1.30389)
(3.34613 -0.00306154 -1.30762)
(3.27377 0.00577512 -1.30288)
(3.2318 -0.0190339 -1.29828)
(3.34859 0.0100957 -1.29406)
(4.037 -0.00204766 -0.162182)
(4.07017 -0.00143628 -0.166427)
(4.06587 0.0001002 -0.160872)
(4.04021 0.00289047 -0.165739)
(4.02757 -0.00659929 -0.16782)
(4.05472 -0.00247691 -0.148854)
(4.46769 -0.000458296 0.361879)
(4.48145 0.0009381 0.361588)
(4.47805 -0.000353721 0.367116)
(4.47211 0.00228181 0.358964)
(4.47022 -0.000438807 0.355452)
(4.46609 -0.00308098 0.371674)
(5.27131 0.00552218 0.169779)
(5.2682 0.00810213 0.196252)
(5.26593 -0.00747507 0.201209)
(5.26948 -0.0047788 0.169354)
(5.28421 0.00180875 0.162123)
(5.25235 0.003535 0.206068)
(6.94013 0.0446696 -0.384755)
(7.01336 0.0372546 -0.366137)
(6.9659 -0.0336991 -0.351404)
(7.01356 -0.0624618 -0.393351)
(7.06424 0.0565336 -0.423162)
(6.88049 0.0860127 -0.332105)
(5.3609 0.0224257 -0.354026)
(6.64241 0.0663868 -0.464533)
(6.44034 -0.0765992 -0.43014)
(5.418 -0.0587978 -0.378856)
(4.71764 0.159815 -0.341664)
(7.21616 0.338638 -0.426488)
(-1.72892 -0.173993 1.27411)
(-0.968036 -0.0950574 1.0365)
(-1.09997 0.0521176 1.08151)
(-1.8504 0.153515 1.26392)
(-2.23195 -0.328678 1.42872)
(0.440956 -0.198659 0.752184)
(-2.50194 -0.0482119 1.36791)
(-2.57256 -0.0520437 1.30405)
(-2.5616 -0.00539016 1.2913)
(-2.55124 0.00278638 1.35534)
(-2.67451 -0.157949 1.38881)
(-2.55949 -0.134449 1.34506)
(-1.73075 0.051716 0.58365)
(-1.88574 0.0243167 0.640353)
(-1.83994 -0.078988 0.62441)
(-1.79698 -0.0938308 0.559226)
(-1.76955 0.0362893 0.515978)
(-1.80869 0.102621 0.673272)
(-1.41311 0.0637688 -0.117054)
(-1.5922 0.0359648 -0.0249596)
(-1.54204 -0.0806598 -0.0212365)
(-1.42368 -0.099668 -0.114278)
(-1.28639 0.029212 -0.0882684)
(-1.52061 0.101643 0.0332504)
(-0.651064 0.147412 -3.24095)
(-0.179509 0.183497 -3.12463)
(0.328778 -0.388849 -3.09593)
(-1.06856 -0.673534 -3.26544)
(-2.68868 0.136722 -3.25813)
(0.447805 0.776248 -3.14199)
(1.45116 0.050526 -4.1448)
(2.32047 0.12872 -4.25123)
(2.42357 -0.0435721 -4.21779)
(1.55135 0.289003 -4.15881)
(1.27387 -0.103426 -4.2041)
(2.53272 0.297799 -4.19442)
(1.833 0.0107582 -2.59909)
(3.63047 0.0140814 -2.66093)
(3.31233 -0.0731257 -2.65354)
(1.86414 -0.051417 -2.56115)
(0.911624 0.00928194 -2.60273)
(4.23325 0.372203 -2.6495)
(5.28546 0.0861548 -1.22698)
(6.72379 0.0568016 -1.15221)
(6.47968 -0.0375542 -1.16135)
(5.46283 -0.171023 -1.22219)
(4.24796 0.0176219 -1.28093)
(7.30809 0.374069 -1.1325)
(7.90755 -0.0795974 -1.03572)
(9.93222 0.162793 -0.984521)
(9.79815 0.146204 -0.994687)
(8.69318 0.417899 -1.02166)
(6.98317 0.0535633 -1.04111)
(10.4555 0.273959 -0.962808)
(8.74718 -0.421051 -1.89144)
(10.4053 -0.0160778 -1.83164)
(10.334 0.227073 -1.81149)
(9.22442 0.925993 -1.89123)
(8.72491 -0.280764 -1.97113)
(11.4279 -0.152877 -1.674)
(7.82624 -0.192134 1.31532)
(8.01602 -0.0720633 0.568666)
(7.99391 -0.0529727 0.794699)
(7.76579 0.160295 1.43193)
(8.01416 -0.223164 1.7021)
(8.74003 -0.144082 0.183906)
(2.53199 0.0223638 7.86295)
(3.48791 0.0526931 7.75632)
(3.42037 -0.13549 7.6876)
(2.30035 -0.103211 7.89645)
(1.5977 0.0691072 7.80791)
(4.62258 0.322641 7.41987)
(-2.11153 -0.0845157 6.69338)
(-1.85062 -0.0544519 6.83972)
(-1.94511 -0.0167368 6.79288)
(-2.24302 0.0666264 6.69331)
(-2.60426 -0.229475 6.67461)
(-0.842553 -0.194411 6.82967)
(-1.4951 0.00236102 1.45972)
(-1.39052 -0.0360877 1.77958)
(-1.44047 -0.0776374 1.69844)
(-1.57321 -0.121578 1.41087)
(-1.84104 -0.206054 1.28445)
(-1.52581 -0.125825 2.27102)
(-1.07668 -0.0360408 -2.03561)
(-0.818257 0.00240406 -1.43074)
(-0.89615 0.0996004 -1.51019)
(-1.11531 0.146026 -2.1213)
(-1.54576 -0.0148275 -2.60722)
(-0.891636 -0.087866 -1.43986)
(-4.32263 -0.0312402 -3.52243)
(-4.27469 -0.0152104 -3.34515)
(-4.25308 0.0519964 -3.3493)
(-4.31955 0.0827574 -3.54455)
(-4.34069 -0.0301949 -3.67079)
(-4.2129 -0.0738771 -3.29988)
(-0.527858 -0.275238 -0.238891)
(-0.114156 -0.239492 -0.307862)
(-0.40945 -0.0645505 -0.237921)
(-0.194457 0.258015 -0.433432)
(0.578241 -0.0834166 -0.14529)
(-0.207952 0.520747 -0.0358948)
(-1.70432 -0.054192 0.19452)
(0.299798 -0.120344 -0.453171)
(0.867342 0.266714 -1.22196)
(-0.260529 0.718233 -0.393854)
(0.129383 -0.184794 0.159414)
(-1.55889 0.00206719 0.225332)
(-1.247 -0.00708237 0.280753)
(1.90557 0.504345 -1.23219)
(1.76125 0.611426 -1.74566)
(0.303282 0.0682685 -0.727705)
(0.49861 -0.711288 -0.0662555)
(-0.499477 -0.422235 -0.125563)
(0.989763 0.22418 -0.523641)
(3.69097 0.693972 -1.62888)
(1.87489 0.859323 -1.15576)
(-0.891942 0.0573538 -0.196784)
(1.87585 -0.538897 -0.187196)
(1.09948 -0.114844 -0.385889)
(3.80204 0.131844 -0.964789)
(5.27989 0.440571 -1.80735)
(4.88004 0.302426 -2.01023)
(2.43467 0.702353 0.245583)
(3.30352 0.257737 0.460673)
(3.63969 -0.0931391 -0.499994)
(4.24733 -0.0478297 -0.935021)
(5.48933 0.253802 -1.96899)
(5.92312 -0.0275612 -2.65729)
(5.81496 0.487349 -1.86845)
(5.1566 0.402109 -0.601958)
(5.58817 -0.0701517 -1.53024)
(4.22389 -0.201685 -1.04471)
(4.88963 0.0480069 -2.01197)
(5.28057 -0.0963547 -2.73537)
(4.99622 0.317295 -2.1858)
(4.99508 0.0700192 -1.20077)
(4.98313 -0.0153515 -1.69642)
(3.7084 -0.264127 -1.0092)
(4.35785 -0.150519 -1.95323)
(4.55884 -0.129765 -2.56483)
(4.24259 0.319218 -2.00019)
(4.56193 -0.217221 -1.56387)
(4.3518 -0.0255021 -1.60267)
(3.34418 -0.269056 -0.645171)
(4.04269 -0.376862 -1.69989)
(4.12647 -0.243926 -2.29422)
(4.3143 0.220835 -1.88815)
(4.91165 -0.698733 -1.81048)
(3.7961 0.0767826 -1.31179)
(3.15406 -0.368762 0.0242173)
(3.84298 -0.773667 -1.24692)
(3.99213 -0.601399 -2.02119)
(4.8052 -0.176774 -2.11818)
(5.06692 -0.379802 -2.07217)
(3.23312 0.579677 -0.960698)
(2.55039 -0.375743 0.569621)
(3.222 -0.973232 -0.674135)
(3.47838 -0.831272 -1.81241)
(3.34264 -0.276736 -2.12949)
(3.38525 0.288704 -2.46825)
(2.18237 0.975255 -0.612885)
(1.08334 -0.276095 0.384918)
(1.66602 -0.512652 -0.567461)
(2.00636 -0.158306 -1.59141)
(1.43123 0.203489 -1.24716)
(1.02145 0.342304 -1.15203)
(0.67627 0.495369 -0.0786432)
(-1.20614 -0.262626 -1.03826)
(-0.29764 0.251277 0.348707)
(-1.63055 -0.339783 -0.5392)
(0.0782394 0.451878 0.0828511)
(0.747603 -0.355309 0.376368)
(-0.669766 0.315868 -0.933741)
(-2.56952 0.254309 -0.732069)
(-1.32757 0.53666 1.35817)
(-0.779939 0.0801102 1.10156)
(0.10356 0.0516319 1.5039)
(-0.890758 -1.0327 1.17951)
(-2.51629 0.108003 -1.0336)
(-2.79752 0.486058 0.906702)
(-1.10688 0.711599 2.75418)
(-1.58081 -0.232964 2.82836)
(-0.522651 -1.27212 2.66328)
(-0.901951 -1.8246 2.06197)
(-2.82755 -0.474709 0.0460004)
(-2.50207 0.349576 2.87175)
(-0.908482 0.105423 3.86623)
(-0.0675525 -0.662543 4.85619)
(-0.27822 -1.31123 4.157)
(0.760685 -1.37772 2.99598)
(-1.11145 -0.543042 2.23027)
(-2.01064 0.559895 2.23321)
(1.17728 -0.331829 3.01038)
(3.24041 -1.07206 3.97884)
(2.58473 -0.722877 6.00041)
(2.79193 -0.157099 4.29004)
(0.583043 0.251825 5.14416)
(-4.76543 0.536272 0.352954)
(-3.79528 0.769964 0.960046)
(0.405923 0.113261 1.90999)
(4.02659 -0.321192 1.63907)
(3.98313 -0.21054 2.25384)
(1.00042 0.19202 1.9883)
(-4.76853 0.138456 0.174014)
(-4.51297 0.257091 -0.123953)
(-2.32441 0.148999 -0.0285566)
(-1.00537 -0.680195 -0.473634)
(-0.27696 -0.565543 0.177019)
(-1.49412 0.145876 -0.382228)
(-6.22317 0.640583 1.10347)
(-6.74986 0.815543 0.430994)
(-3.60499 -0.421356 0.222656)
(-0.463564 -1.72858 0.960044)
(2.12976 -0.470161 1.72404)
(-1.33573 -0.0888465 -0.065321)
(-1.52827 0.491017 1.41711)
(-8.76509 2.35933 1.50489)
(-8.78749 1.85369 0.808941)
(-0.94086 0.361451 2.5185)
(5.87817 0.126396 2.31765)
(2.16065 1.09593 -0.63728)
(2.81838 -0.522086 1.94987)
(0.206351 0.656918 1.27116)
(-4.44804 1.84385 1.0273)
(2.62739 1.8715 2.13798)
(5.54131 0.284805 -1.00641)
(1.58029 2.45203 0.542371)
(3.68333 -1.12853 0.00249735)
(3.98983 -0.860389 -1.29584)
(2.85245 -1.56073 -0.0631946)
(3.01487 1.5704 -4.7702)
(4.61752 -0.734312 -6.44668)
(1.49334 2.56467 0.829951)
(2.70296 0.0482216 -2.94793)
(3.82361 0.442772 -5.15223)
(3.32602 0.100788 -4.95086)
(3.11174 0.523271 -3.58614)
(3.13409 -0.466406 -3.16799)
(1.05145 -0.225099 -0.839124)
(-0.535539 -0.324508 -3.48772)
(-0.493406 0.320449 -1.20754)
(-0.941279 -0.107831 -2.69026)
(-0.632945 0.563063 -0.209493)
(0.517911 0.175512 0.346709)
(-0.532747 0.221851 -3.07714)
(-2.41944 -0.215155 -3.30379)
(-2.22545 0.507419 0.000972808)
(-2.18984 0.145469 -0.446796)
(-0.917006 0.898352 1.82857)
(-2.34647 -0.364497 -0.384878)
(-2.40161 0.227235 -3.90198)
(-3.09559 0.287842 -1.95047)
(-3.8415 0.985723 1.90428)
(-3.48079 0.128498 2.90473)
(-2.80735 0.041718 3.71454)
(-3.84846 -1.3795 -0.570478)
(-2.86691 0.034194 -3.15373)
(-4.05561 0.355282 -0.284609)
(-6.50438 0.397896 4.16965)
(-5.11541 -0.688292 7.22065)
(-5.12961 -0.713987 6.33424)
(-5.44497 -1.44402 1.05452)
(-3.56265 -0.230422 -0.500851)
(-6.74508 0.243907 -1.23991)
(-8.97581 0.250333 1.59782)
(-4.68818 -1.12952 3.41916)
(-1.60848 -0.931151 5.79894)
(-4.66779 -0.898138 3.90879)
(-2.82953 -0.0433128 4.85537)
(-4.27747 -0.0601464 -3.91249)
(-6.50099 0.48504 -3.53252)
(-4.12017 0.26687 -4.49327)
(-2.39559 -0.371387 -3.45021)
(-5.0384 -0.478139 -2.22209)
(-3.45911 0.301661 -2.50614)
(-1.87714 -0.398376 -3.3789)
(-3.40198 -0.296462 -4.46795)
(-2.82103 -0.376604 -4.89959)
(-2.08965 -0.848508 -4.36855)
(-2.54808 -0.494892 -4.18881)
(-1.13834 0.153171 -3.59773)
(-2.04728 -0.467449 -1.42257)
(-1.44032 -1.61967 -2.93581)
(-0.567296 -2.59924 -2.23143)
(0.917359 -2.58032 -0.29373)
(1.80172 -1.3297 0.972976)
(1.62146 -0.0500363 1.14697)
(-5.67757 0.162775 2.38521)
(-6.47843 0.136307 0.701164)
(-4.56076 -0.916129 2.27759)
(-0.638537 -1.10147 5.37716)
(3.10106 -0.470543 2.02756)
(2.12803 1.01728 2.93761)
(-2.77372 -0.230494 4.69352)
(-4.36603 0.480977 4.78659)
(-5.70428 0.0545381 5.9407)
(1.68708 0.624006 3.43847)
(3.57938 0.251138 -3.7495)
(1.1847 1.72962 1.6683)
(-3.1735 -1.12793 3.81021)
(-0.851494 0.860474 -0.776991)
(-0.559073 -1.20877 -0.505923)
(2.71455 1.39325 -5.79662)
(4.32369 -1.0789 -7.21425)
(-2.55087 1.44218 2.85674)
(3.69426 0.448403 -5.33837)
(4.06653 0.626918 -6.26409)
(3.44303 0.289002 -5.43919)
(3.22126 0.318259 -4.23966)
(3.41361 -1.10138 -4.37381)
(2.50191 -1.01514 -3.74719)
(0.955851 -0.853405 -4.25727)
(0.0608212 0.214947 -2.62741)
(0.733585 -0.0093785 -4.22898)
(0.496984 0.25433 -2.56062)
(0.749723 0.350889 -0.650701)
(1.27728 0.67435 -3.64432)
(-1.62511 -0.881037 -4.37247)
(-2.02935 0.247208 -2.65142)
(-1.86431 0.0368059 -2.81699)
(-2.30097 1.54213 -0.24488)
(-2.86117 0.371391 -1.47797)
(-2.22933 0.921158 -3.73584)
(-1.59233 -0.630728 -4.08178)
(-4.06368 0.745594 -1.06672)
(-4.13449 0.253316 0.493752)
(-4.1963 1.24865 2.70446)
(-4.6752 0.015665 -0.961134)
(-1.67841 0.836883 -3.1657)
(-2.96488 -0.782788 -2.25106)
(-6.20361 0.225218 2.0838)
(-5.93339 -0.275045 4.98905)
(-6.05895 0.993618 7.99217)
(-5.84496 0.0835453 2.13084)
(1.34668 1.17021 -0.37652)
(-3.11 -0.808478 1.11697)
(-7.76148 -0.512238 3.7511)
(-6.02076 -1.20206 5.0037)
(-3.64903 -0.35044 5.58282)
(-4.23815 0.186363 3.0098)
(-2.02879 0.652345 2.21047)
(-2.30289 -0.481714 1.42918)
(-5.21468 -0.210014 2.39099)
(-4.25366 -0.285032 2.1119)
(-2.8763 -0.266412 1.12507)
(-2.65169 0.127072 1.4622)
(-3.53972 0.531664 1.89002)
(-1.94789 -0.442019 1.71618)
(-1.61407 -0.562244 1.71484)
(0.0015264 -0.769018 1.40652)
(-0.161287 -0.645778 1.20117)
(-0.468753 -0.576362 1.56062)
(-0.49628 -0.246905 1.7596)
(-0.957294 -0.0659517 1.767)
(0.725226 -1.04403 1.75078)
(1.62184 -2.67535 1.35441)
(2.02118 -2.30479 1.15644)
(2.2372 -1.63431 0.676871)
(2.55785 -0.528007 0.943271)
(-2.8814 0.5094 2.53053)
(-3.1272 -0.163259 2.63417)
(-0.70454 -2.42319 2.78405)
(1.69273 -1.47996 2.0857)
(2.19867 -0.985856 -0.706305)
(2.80104 0.092762 1.39093)
(-2.12876 0.31965 5.38852)
(-3.81526 1.14899 6.63541)
(-3.40414 -0.937735 6.98376)
(2.18076 0.258634 -0.0126828)
(2.82166 0.119671 -4.38406)
(2.52472 0.792272 0.264684)
(-5.92964 0.0718718 4.79103)
(-7.74156 2.33548 5.0971)
(-7.93657 1.04225 4.98543)
(2.13142 1.63546 -4.7357)
(3.57551 -0.645277 -6.34343)
(-6.29015 -0.30204 2.76334)
(3.77711 0.105898 -4.63433)
(3.58 0.288997 -4.55957)
(3.44597 0.794089 -4.26396)
(3.62321 0.821553 -4.25056)
(3.77667 -0.742387 -4.46499)
(3.28673 -0.770727 -3.97805)
(-0.988014 0.228697 -2.93493)
(0.016821 0.313162 -2.85596)
(0.571707 -0.513993 -2.82269)
(-1.43283 -0.788575 -2.98066)
(-3.38299 0.249551 -2.87851)
(0.557225 1.01275 -2.93319)
(-4.75642 0.0498405 0.743869)
(-4.23638 0.198979 1.08686)
(-3.3023 -0.0837783 0.980453)
(-5.16155 -0.174481 0.880236)
(-5.96699 0.191482 0.564283)
(-3.16044 0.532362 0.893728)
(-4.6069 -0.235043 7.87073)
(-4.9908 -0.0389336 7.73104)
(-4.29963 0.207351 7.69307)
(-4.84266 0.320022 7.79905)
(-5.34078 -0.0746764 7.57363)
(-3.62665 0.0798594 7.94512)
(-6.29298 0.0498751 -2.18097)
(-3.88031 0.163059 -2.5552)
(-3.16799 0.0521457 -2.47049)
(-6.3183 0.3274 -2.26775)
(-8.01735 0.0965331 -2.44648)
(-2.53854 0.231296 -2.53414)
(-7.04734 0.0445997 0.315922)
(-7.53646 0.0193358 1.30816)
(-7.08052 0.119358 1.53265)
(-7.10441 0.356873 0.251883)
(-6.58294 -0.0155496 -1.00831)
(-6.99445 -0.0416797 1.68855)
(-4.69364 -0.076267 -0.696216)
(-5.914 -0.0315236 0.428827)
(-5.86597 -0.0196715 0.701786)
(-4.47842 0.39881 -1.05623)
(-3.87653 -0.366349 -2.02669)
(-6.20958 -0.206632 1.95362)
(-7.96867 -0.13209 -3.08502)
(-7.9579 -0.135741 -2.9813)
(-7.94604 0.118206 -2.9801)
(-7.97612 0.272887 -3.14251)
(-7.73043 -0.0374212 -3.74232)
(-7.14049 -0.119177 -2.64771)
(-5.23632 0.053099 -3.84333)
(-6.46949 0.0276496 -2.89793)
(-6.46818 -0.0569017 -2.67884)
(-5.03164 0.00301601 -4.15354)
(-3.92715 0.0686248 -5.20729)
(-7.16937 0.11869 -1.76936)
(-1.28512 0.0275669 -6.44495)
(-2.20144 0.0586466 -6.04156)
(-2.24674 -0.0503324 -5.9721)
(-1.04215 0.0720305 -6.67294)
(-0.512087 0.0493546 -7.04751)
(-3.90363 0.205965 -4.57769)
(-6.11172 -0.0604962 -3.57901)
(-6.49106 -0.0513172 -3.46713)
(-6.49179 -0.0477165 -3.60871)
(-6.11457 -0.0710411 -3.77792)
(-5.91607 -0.0717785 -4.08903)
(-6.14644 -0.0501275 -2.88262)
(-3.73432 0.109698 -5.58443)
(-4.1512 0.105254 -5.52173)
(-4.10386 -0.193996 -5.4263)
(-3.64657 -0.319334 -5.8372)
(-3.39652 0.144048 -6.01894)
(-4.71036 0.265869 -4.92603)
(-1.07449 0.0744091 -5.5563)
(-1.24763 0.0814501 -5.64208)
(-1.23246 -0.0666934 -5.59354)
(-1.04925 -0.0683864 -5.6669)
(-0.973266 0.188385 -5.71881)
(-1.50452 0.262962 -5.46444)
(-4.7448 -0.0732519 -2.33638)
(-5.07464 -0.037975 -3.00544)
(-5.08612 0.0104259 -3.14931)
(-4.74475 0.0530886 -2.44413)
(-4.61309 -0.0987315 -2.23935)
(-4.97775 -0.0881526 -2.69392)
(-3.89621 0.117668 -4.91539)
(-3.76899 0.117816 -5.30223)
(-3.6608 -0.20363 -5.26711)
(-4.00234 -0.306673 -4.95219)
(-4.1641 0.132833 -4.72955)
(-3.9298 0.279352 -5.00844)
(-1.35523 0.0584005 -3.47464)
(-1.33531 0.0485056 -3.62364)
(-1.33369 -0.0623889 -3.57658)
(-1.38317 -0.10293 -3.48833)
(-1.40841 0.077618 -3.43537)
(-1.45755 0.126975 -3.5318)
(-3.61513 -0.138448 1.61294)
(-3.99671 -0.06414 0.662563)
(-4.0066 0.0783569 0.583597)
(-3.64882 0.242599 1.77333)
(-3.41213 -0.121401 2.20278)
(-4.07653 -0.0284481 0.711791)
(-4.22917 0.099987 -2.11875)
(-4.10965 0.11227 -2.83327)
(-4.00206 -0.16487 -2.90978)
(-4.37843 -0.186148 -2.065)
(-4.60712 0.130457 -1.47196)
(-4.04983 0.237771 -2.8439)
(-2.38875 0.0493865 -0.421561)
(-2.24021 0.0482047 -0.635153)
(-2.20952 -0.0510901 -0.624648)
(-2.45954 -0.118444 -0.377275)
(-2.54401 0.0568533 -0.263188)
(-2.22033 0.108853 -0.628213)
(-1.59797 0.0219625 6.26078)
(-1.77396 0.0454231 5.91035)
(-1.81325 -0.164176 5.99259)
(-1.73248 -0.0634252 6.39922)
(-1.75247 0.188692 6.61662)
(-1.55997 0.370062 5.59738)
(-3.92293 -0.0075136 4.37699)
(-3.93475 0.0080025 3.74012)
(-3.90529 -0.0243662 3.59456)
(-3.9733 0.074304 4.33313)
(-4.08083 0.0969608 4.66585)
(-3.84979 0.125709 3.39678)
(-2.65951 0.0156455 2.9657)
(-2.6172 0.0355603 2.68349)
(-2.54647 -0.00665159 2.589)
(-2.65008 -0.00579626 2.90762)
(-2.69525 0.0227723 3.06967)
(-2.52265 0.0348228 2.52336)
(-2.64352 0.00213325 10.2559)
(-1.98923 0.0496474 10.5744)
(-2.06602 -0.101016 10.568)
(-2.83621 -0.0487009 10.1738)
(-3.49632 0.0116477 9.78264)
(-1.00174 0.199669 10.6284)
(-2.55992 -0.0745734 7.94437)
(-2.39182 -0.0294577 8.33967)
(-2.39568 0.0152095 8.25014)
(-2.60664 0.129894 7.75668)
(-2.84361 -0.106863 7.40017)
(-1.982 -0.0770114 8.52579)
(-0.728718 -0.0567228 5.00929)
(-0.798503 -0.0344666 5.03982)
(-0.782789 0.0474446 4.95332)
(-0.716584 0.116368 4.89233)
(-0.696079 -0.0971553 4.79974)
(-0.822774 -0.146046 5.04504)
(-2.35364 -0.0643698 6.12533)
(-2.56003 -0.0398849 6.46078)
(-2.57907 0.0432505 6.40503)
(-2.41083 0.101561 6.10752)
(-2.58898 -0.204047 6.13224)
(-2.34727 -0.277446 6.68151)
(0.0311625 -0.0596673 4.43369)
(-0.18103 -0.0459681 4.70467)
(-0.184271 0.0456351 4.67037)
(0.00165893 0.0710669 4.42503)
(-0.0637409 -0.160895 4.4826)
(-0.335465 -0.204879 4.89056)
(0.683293 -0.0202335 2.84698)
(0.663547 -0.0224564 2.89624)
(0.656088 0.00400197 2.88615)
(0.677406 0.00394302 2.8778)
(0.671717 -0.0504025 2.91469)
(0.616986 -0.0447219 2.94801)
(-1.00256 -0.0162458 1.54938)
(-1.14961 0.00869854 1.58793)
(-1.14982 0.0418058 1.55851)
(-1.00573 0.078186 1.56618)
(-0.936573 -0.0921513 1.5601)
(-1.19775 -0.143581 1.74518)
(1.32747 0.00382283 1.81731)
(1.25239 0.0230018 1.87859)
(1.25079 0.00380484 1.8573)
(1.32621 0.0191568 1.83847)
(1.38392 0.0032949 1.8241)
(1.21174 -0.0290553 1.9264)
(0.881826 -0.00416845 0.781805)
(0.889397 -0.00405057 0.788176)
(0.883872 -0.0026069 0.771992)
(0.888541 -0.00399205 0.791643)
(0.88735 -0.00540377 0.770227)
(0.896081 -0.00401538 0.785929)
(-2.99129 -0.03772 0.171217)
(-3.18443 -0.00192768 0.0872148)
(-3.13911 0.0789448 0.062596)
(-2.93072 0.115408 0.14731)
(-2.75311 -0.0147939 0.130432)
(-3.08281 -0.0823829 -0.00708939)
(1.69513 0.0134872 0.23245)
(1.68079 0.0247044 0.246851)
(1.67794 -0.00850058 0.224341)
(1.70474 -0.00621857 0.202218)
(1.7357 0.0370874 0.159109)
(1.66852 0.0248649 0.219656)
(1.20778 -0.00157698 -0.817837)
(1.21806 -0.000987588 -0.819118)
(1.21138 0.00202965 -0.828739)
(1.20443 0.00233008 -0.821056)
(1.19103 -0.003326 -0.836452)
(1.21209 -0.00444326 -0.834638)
(-3.546 -0.0110158 -1.78391)
(-3.56166 -0.00838587 -1.86791)
(-3.56831 0.00801227 -1.86933)
(-3.55856 0.012543 -1.78348)
(-3.5614 -0.0137754 -1.74843)
(-3.57783 -0.019372 -1.89183)
(2.02693 0.0140246 -3.30664)
(2.04381 0.0108487 -3.45524)
(2.03605 -0.02361 -3.41628)
(2.03075 -0.0351431 -3.27928)
(2.02763 0.0181883 -3.17067)
(2.02735 0.0335434 -3.39831)
(1.47407 0.00924185 -1.04716)
(1.46472 0.0052153 -1.0582)
(1.46508 -0.0117495 -1.05459)
(1.47315 -0.0159574 -1.05107)
(1.4781 0.00604519 -1.04577)
(1.46914 0.0139901 -1.05788)
(2.19027 0.0157772 0.22321)
(2.28685 0.0381291 0.225444)
(2.31991 0.0426932 0.170963)
(2.30488 0.0221405 0.245799)
(2.32048 -0.0420713 0.252246)
(2.2457 -0.041895 0.235456)
(1.20655 -0.0024502 -3.78089)
(1.08758 -0.0413542 -4.01414)
(0.86279 -0.0867405 -4.29695)
(0.7493 -0.0621255 -4.32713)
(0.653725 -0.0258349 -4.27167)
(0.847731 -0.00994708 -4.13726)
(-0.131217 0.0269204 -0.398528)
(-0.224345 0.0998692 -0.457455)
(-0.308031 0.202415 -0.395573)
(-0.140213 0.213069 -0.236698)
(-0.0464988 0.0988797 -0.167992)
(0.0306738 0.0104714 -0.208817)
(0.44134 -0.0110632 -0.149301)
(0.449624 -0.0281478 -0.177333)
(0.461525 -0.0239445 -0.195861)
(0.473507 -0.0130389 -0.213576)
(0.47993 -0.00582541 -0.215574)
(0.4548 0.00142208 -0.200767)
(0.161926 -0.0201192 -1.8884)
(0.143847 -0.059427 -2.0699)
(0.10564 -0.067719 -2.19239)
(0.063849 -0.0572752 -2.13297)
(0.0462239 -0.0156121 -2.10586)
(0.00116335 0.0148 -2.02415)
(0.320531 0.0156038 -1.3723)
(0.343982 0.047398 -1.39139)
(0.387189 0.0839528 -1.33154)
(0.441478 0.0888758 -1.3225)
(0.473938 0.052263 -1.31585)
(0.463264 0.0143119 -1.3654)
(0.273301 -0.00378906 0.161288)
(0.268686 -0.00870869 0.159634)
(0.262358 -0.0021474 0.156883)
(0.253628 0.00373895 0.161398)
(0.249769 -0.00239252 0.158574)
(0.254155 -0.00270507 0.15203)
(0.640836 -0.0162998 -0.848189)
(0.630744 -0.0379828 -0.862617)
(0.603904 -0.0444665 -0.871062)
(0.574565 -0.0412965 -0.871338)
(0.550138 -0.0310309 -0.878293)
(0.562978 -0.0112579 -0.850179)
(-0.095235 0.0116903 -1.05945)
(-0.0849677 0.0338527 -1.07349)
(-0.0655946 0.0478714 -1.05941)
(-0.0333963 0.0468808 -1.06007)
(-0.0138643 0.0277498 -1.06165)
(-0.00472667 0.00615212 -1.0535)
(-0.218818 -0.000827208 0.16392)
(-0.220495 -0.00392346 0.163671)
(-0.221667 -0.00833767 0.162689)
(-0.219377 -0.0107509 0.164801)
(-0.216268 -0.00564716 0.166345)
(-0.215426 0.000296241 0.157427)
(0.0436441 -0.0058498 -0.998237)
(0.039766 -0.0157711 -0.986928)
(0.033749 -0.0206839 -0.985132)
(0.0286196 -0.0215587 -0.995772)
(0.0236563 -0.0105339 -1.01174)
(0.0110396 0.000592001 -0.991933)
(-0.245888 0.00494724 -1.20157)
(-0.239939 0.0159584 -1.21424)
(-0.228884 0.0247257 -1.20896)
(-0.218057 0.0246119 -1.21079)
(-0.210372 0.0148841 -1.21206)
(-0.205506 0.00387674 -1.21108)
(-0.56713 -0.000452378 -0.135171)
(-0.566654 -0.00280343 -0.134927)
(-0.570249 -0.00839313 -0.13555)
(-0.576583 -0.011492 -0.136654)
(-0.581006 -0.00559191 -0.136154)
(-0.574111 0.000216586 -0.140837)
(0.131446 -0.00356018 -2.19486)
(0.127409 -0.00699105 -2.18169)
(0.126086 -0.00824051 -2.18628)
(0.118622 -0.00857891 -2.22418)
(0.116029 -0.00486495 -2.26121)
(0.115172 -0.00107359 -2.2194)
(-0.75484 0.00262571 -1.10005)
(-0.75495 0.00896446 -1.10762)
(-0.749996 0.0156332 -1.10247)
(-0.743594 0.0174887 -1.09327)
(-0.737733 0.00829172 -1.08911)
(-0.738676 4.85283e-05 -1.09211)
(-2.26433 -0.001208 0.277272)
(-2.2649 -0.00112568 0.271058)
(-2.26776 0.00124912 0.272896)
(-2.28319 0.0015679 0.278517)
(-2.29383 -0.00508839 0.288687)
(-2.27493 -0.00536442 0.265409)
(0.185322 -0.00125563 -4.66169)
(0.181869 -0.00226037 -4.66948)
(0.183719 -0.00193253 -4.67401)
(0.204115 -0.00436184 -4.66694)
(0.219349 0.00233591 -4.67781)
(0.194918 0.00562381 -4.68804)
(0.11404 0.0045079 -0.0669037)
(0.10851 0.00772677 -0.0664648)
(0.11629 0.0057013 -0.0637173)
(0.132156 0.0063456 -0.0584833)
(0.144212 0.00843354 -0.0528726)
(0.138478 0.00445208 -0.054165)
(2.39791 -1.40327 -3.06634)
(0.742407 1.13326 -4.54307)
(1.86327 0.343462 -3.47329)
(2.64518 -0.780022 -3.20761)
(2.30713 -0.269036 -1.87499)
(2.90171 0.86875 -2.88199)
(2.9492 -0.905564 -2.26843)
(0.993452 1.25771 -4.98056)
(2.64519 0.684346 0.0757801)
(2.87655 -1.29973 -0.884205)
(1.3529 -1.71221 -4.64295)
(2.93462 0.305389 -2.37894)
(2.18532 -0.0634002 -0.35504)
(0.473202 0.524807 -4.41963)
(2.37614 0.463115 6.10575)
(2.40838 -1.64169 4.36042)
(0.710634 -0.784275 -4.29646)
(2.04086 -0.228998 -1.17871)
(-0.828015 -0.569686 -3.75091)
(0.220696 0.104647 -5.91643)
(-0.720328 -0.478117 -7.1585)
(-2.5016 0.321189 -2.93461)
(-2.75312 -0.231817 -3.36894)
(-2.6632 -0.305959 -1.31867)
(2.34053 0.267214 -4.12022)
(2.45785 0.334699 -7.16161)
(2.12004 -0.627194 -7.1532)
(0.295635 -1.27166 -8.34614)
(0.81017 -1.39118 -4.09376)
(3.59605 -0.283182 -1.48635)
(0.86451 0.163538 -4.64521)
(1.93079 0.25381 -3.97196)
(0.744712 -0.0262503 -5.37729)
(1.99664 -0.544342 -4.39131)
(2.19186 -0.760498 -3.44515)
(0.989137 -0.125023 -3.26294)
(0.490383 -0.617543 -3.1944)
(-2.57845 0.354489 -2.71648)
(-3.50764 -0.488715 -1.32131)
(-4.80311 0.45504 1.95352)
(-2.53684 -0.561155 -2.82782)
(4.98867 0.606836 0.312825)
(2.70262 -0.33758 -0.903616)
(1.57789 0.174135 -4.88636)
(0.968045 -1.45947 -2.27237)
(0.861189 -0.954361 0.80998)
(3.53153 -0.374797 0.341782)
(3.99988 0.40281 0.727894)
(2.87133 0.071901 -1.44335)
(1.89859 0.00782255 -3.19856)
(2.70055 -0.512771 -1.43991)
(2.95056 -0.263487 -1.20838)
(2.8106 -0.0984337 -1.64804)
(2.74991 0.0776808 0.0920731)
(1.96245 -1.19859 0.61004)
(-4.01494 -0.167674 1.08367)
(-4.27478 -0.786745 4.21239)
(-4.51553 0.521027 7.082)
(-0.747832 1.17644 3.73005)
(2.34513 1.44392 1.06296)
(3.41901 -0.566153 1.63234)
(0.0782568 -0.560787 2.39427)
(-0.434506 -0.92527 4.03203)
(-0.131349 0.0826911 5.34093)
(1.91019 1.05566 2.95094)
(2.19388 0.446175 1.38055)
(1.58441 -0.0811124 0.900977)
(1.27581 -0.277248 1.56377)
(1.2677 -0.204296 1.83973)
(1.09504 0.0975863 1.89159)
(1.15025 0.237425 0.886095)
(1.07598 0.000549785 0.455362)
(0.846603 -1.19155 1.89651)
(-2.47402 -1.10992 4.07079)
(-2.65511 -0.774823 4.87146)
(-1.66898 0.599079 4.43276)
(0.107385 1.43553 2.28668)
(0.743364 0.773303 1.59644)
(1.17686 -0.87727 2.77943)
(0.649443 -0.90665 3.72598)
(0.290612 -0.0318492 4.01853)