/*--------------------------------*- C++ -*----------------------------------*\
| =========                 |                                                 |
| \\      /  F ield         | OpenFOAM: The Open Source CFD Toolbox           |
|  \\    /   O peration     | Version:  v1612+                                |
|   \\  /    A nd           | Web:      www.OpenFOAM.com                      |
|    \\/     M anipulation  |                                                 |
\*---------------------------------------------------------------------------*/
FoamFile
{
    version     2.0;
    format      ascii;
    class       surfaceScalarField;
    location    "0.85";
    object      alphaPhi;
}
// * * * * * * * * * * * * * * * * * * * * * * * * * * * * * * * * * * * * * //

dimensions      [0 3 -1 0 0 0 0];

internalField   nonuniform List<scalar> 
2916
(
-2.35716e-07
0.157962
-0.157962
-6.51608e-07
0.157963
-0.157962
-9.36564e-07
0.157963
-0.157963
-8.75744e-07
0.157963
-0.157963
-4.39336e-07
0.157963
-0.157963
0.157962
-0.157963
4.76276e-07
0.407198
-0.249236
7.00657e-07
0.407199
-0.249237
8.4741e-07
0.407199
-0.249237
7.28712e-07
0.407199
-0.249236
2.50757e-07
0.407198
-0.249235
0.407197
-0.249234
8.51332e-07
0.836159
-0.428962
1.66915e-06
0.836161
-0.428962
2.11715e-06
0.83616
-0.428961
1.79708e-06
0.836159
-0.42896
8.78273e-07
0.836158
-0.428959
0.836156
-0.428958
5.35048e-07
1.59507
-0.758913
8.08785e-07
1.59508
-0.758914
1.07054e-06
1.59507
-0.758915
1.44129e-06
1.59507
-0.758915
1.32658e-06
1.59507
-0.758915
1.59507
-0.758914
3.33865e-06
0.753172
-0.62112
-1.39151e-06
0.753173
-0.621114
-5.42087e-06
0.753173
-0.621113
-8.18075e-06
0.753172
-0.621114
-6.92718e-06
0.753172
-0.621116
0.753166
-0.621114
1.79683e-06
0.00539587
-0.000658041
6.2286e-07
0.00539604
-0.000657547
-8.59536e-07
0.00539612
-0.000657605
-1.50054e-06
0.00539614
-0.000657678
-2.48833e-06
0.00539614
-0.000657491
0.00539618
-0.000657937
6.34341e-09
0.000125352
0.00395382
2.69514e-09
0.000125342
0.00395404
-9.68632e-08
0.000125342
0.00395421
-1.81628e-07
0.00012534
0.00395423
-2.5824e-07
0.000125337
0.00395425
0.000125333
0.00395397
1.11622e-08
1.21197e-06
9.34228e-05
8.98321e-09
1.21175e-06
9.34182e-05
7.32237e-09
1.21166e-06
9.34181e-05
5.08424e-09
1.2116e-06
9.34162e-05
1.26996e-09
1.21153e-06
9.34167e-05
1.21154e-06
9.34115e-05
1.69212e-10
7.94465e-09
7.57929e-07
1.58129e-10
7.945e-09
7.57894e-07
1.7834e-10
7.94403e-09
7.57813e-07
1.69141e-10
7.94348e-09
7.57799e-07
9.62532e-11
7.94303e-09
7.57816e-07
7.94294e-09
7.57844e-07
1.2428e-12
2.69289e-11
4.42989e-09
2.50513e-12
2.69406e-11
4.42978e-09
3.28381e-12
2.69363e-11
4.42962e-09
3.23625e-12
2.69319e-11
4.43012e-09
2.13105e-12
2.69268e-11
4.43096e-09
2.69221e-11
4.43205e-09
6.03657e-15
2.15734e-13
1.59168e-11
1.39286e-14
2.15828e-13
1.59242e-11
1.70153e-14
2.15791e-13
1.59263e-11
1.55938e-14
2.15732e-13
1.59283e-11
9.60896e-15
2.15665e-13
1.59302e-11
2.15587e-13
1.5932e-11
1.61315e-17
2.06983e-14
3.61755e-17
2.07122e-14
4.49135e-17
2.07127e-14
4.13804e-17
2.07105e-14
2.59378e-17
2.07065e-14
2.07007e-14
-9.47619e-07
0.0747312
-0.232692
-2.14814e-06
0.0747313
-0.232693
-2.73997e-06
0.0747305
-0.232693
-2.43161e-06
0.0747292
-0.232693
-1.51895e-06
0.0747281
-0.232693
0.0747277
-0.232692
-2.34328e-07
0.228295
-0.402799
-4.47612e-07
0.228295
-0.4028
-4.22621e-07
0.228293
-0.402799
-4.27846e-07
0.228291
-0.402798
-6.09814e-07
0.22829
-0.402796
0.228288
-0.402795
1.0476e-06
0.527768
-0.728436
2.35116e-06
0.527768
-0.728436
3.15199e-06
0.527766
-0.728434
2.99784e-06
0.527763
-0.728432
2.17143e-06
0.527761
-0.728429
0.527759
-0.728426
1.587e-06
1.04093
-1.27207
2.43206e-06
1.04093
-1.27207
3.12623e-06
1.04092
-1.27207
2.58183e-06
1.04092
-1.27207
5.8636e-07
1.04092
-1.27207
1.04091
-1.27206
-4.29501e-08
-0.00253257
-0.217712
-2.06328e-07
-0.0025333
-0.217711
-6.19932e-07
-0.00253361
-0.21771
-1.56446e-06
-0.00253369
-0.217709
-4.34809e-06
-0.00253389
-0.217709
-0.00253209
-0.217708
3.14072e-08
-0.00394088
0.000470811
-2.97426e-07
-0.00394107
0.000470903
-6.04727e-07
-0.00394122
0.000470831
-7.56575e-07
-0.00394124
0.000470737
-1.15203e-06
-0.00394127
0.000470839
-0.00394105
0.000470715
-1.19817e-08
-7.41309e-05
4.53803e-05
-1.32203e-08
-7.41122e-05
4.53873e-05
6.17625e-09
-7.4109e-05
4.53853e-05
2.23397e-08
-7.41044e-05
4.53807e-05
3.05713e-08
-7.41069e-05
4.53824e-05
-7.41068e-05
4.53734e-05
8.23506e-10
-7.58856e-07
3.96888e-07
8.79418e-10
-7.58741e-07
3.97001e-07
9.93628e-10
-7.58644e-07
3.96991e-07
8.68118e-10
-7.58613e-07
3.96916e-07
5.0342e-10
-7.58636e-07
3.96878e-07
-7.58676e-07
3.96659e-07
4.7119e-12
-4.38814e-09
4.2504e-10
4.65516e-12
-4.38806e-09
4.27095e-10
1.25808e-12
-4.38791e-09
4.26844e-10
-2.65967e-12
-4.38839e-09
4.2461e-10
-4.2897e-12
-4.3892e-09
4.21188e-10
-4.39023e-09
4.20507e-10
-7.27169e-15
-1.57365e-11
5.54359e-12
-2.9497e-14
-1.57438e-11
5.53521e-12
-5.61636e-14
-1.57458e-11
5.53607e-12
-6.78111e-14
-1.57479e-11
5.54249e-12
-5.66075e-14
-1.57498e-11
5.55299e-12
-1.57516e-11
5.55515e-12
-1.63317e-16
1.72062e-16
1.30227e-14
-1.47138e-16
1.72716e-16
1.30261e-14
-1.28825e-16
1.72833e-16
1.30282e-14
-1.10857e-16
1.72635e-16
1.30312e-14
-7.76012e-17
1.72212e-16
1.30356e-14
1.71598e-16
1.30403e-14
9.35294e-20
6.34094e-17
5.27923e-19
6.34485e-17
8.62212e-19
6.34456e-17
9.31387e-19
6.34309e-17
6.80178e-19
6.34123e-17
6.33901e-17
-1.41259e-06
-0.0745837
-0.158107
-2.50426e-06
-0.0745847
-0.158107
-2.80076e-06
-0.074586
-0.158107
-2.07063e-06
-0.0745873
-0.158106
-1.1516e-06
-0.074588
-0.158106
-0.0745878
-0.158105
-3.35042e-07
-0.0685741
-0.408809
-6.60776e-07
-0.0685756
-0.408809
-5.39825e-07
-0.0685776
-0.408808
1.85193e-08
-0.0685796
-0.408806
4.25132e-07
-0.0685803
-0.408805
-0.0685794
-0.408803
3.21676e-06
0.0993838
-0.896396
3.35173e-06
0.0993869
-0.896398
3.22612e-06
0.0993853
-0.896396
2.80079e-06
0.0993835
-0.896393
2.64441e-06
0.0993828
-0.896391
0.099384
-0.896386
2.53289e-06
0.371378
-1.63445
2.81265e-06
0.37138
-1.63446
2.65464e-06
0.371378
-1.63445
2.21313e-06
0.371376
-1.63445
1.17635e-06
0.371376
-1.63445
0.371378
-1.63445
6.82662e-07
-0.000456448
-0.000487463
5.9367e-07
-0.000456528
-0.000487395
4.28494e-07
-0.000456456
-0.000487392
2.88352e-07
-0.000456368
-0.000487419
-4.09781e-07
-0.000456469
-0.000487466
-0.000456348
-0.000487561
-8.67102e-09
-4.52533e-05
5.4511e-05
-9.51657e-09
-4.52598e-05
5.45152e-05
-3.99384e-09
-4.52575e-05
5.45127e-05
-2.95175e-09
-4.52534e-05
5.45124e-05
-5.06052e-09
-4.52552e-05
5.45153e-05
-4.52479e-05
5.45072e-05
-3.99196e-12
-3.77537e-07
8.74648e-07
3.61604e-10
-3.77641e-07
8.74634e-07
1.26177e-09
-3.77639e-07
8.74613e-07
1.84194e-09
-3.77568e-07
8.74653e-07
1.69004e-09
-3.77528e-07
8.74745e-07
-3.7731e-07
8.74732e-07
-1.41572e-12
-5.89775e-12
9.73451e-09
8.45954e-12
-8.42952e-12
9.73766e-09
1.31001e-11
-8.21884e-12
9.7371e-09
1.24131e-11
-5.68714e-12
9.73651e-09
8.79737e-12
-1.76893e-12
9.73717e-09
-1.90163e-12
9.73402e-09
3.23445e-14
-5.17687e-12
6.0692e-11
-6.03732e-15
-5.16828e-12
6.07128e-11
-7.36339e-14
-5.16906e-12
6.07085e-11
-1.14635e-13
-5.17558e-12
6.06988e-11
-9.74138e-14
-5.18631e-12
6.06911e-11
-5.18809e-12
6.06755e-11
-2.43027e-16
5.04552e-16
1.67294e-14
-7.04524e-16
5.04656e-16
1.67254e-14
-1.05713e-15
5.04976e-16
1.67257e-14
-1.12587e-15
5.05382e-16
1.67295e-14
-8.13675e-16
5.05836e-16
1.67356e-14
5.05874e-16
1.67415e-14
-2.36911e-18
6.30852e-18
1.48938e-16
-3.75614e-18
6.31105e-18
1.48941e-16
-4.17994e-18
6.30849e-18
1.48976e-16
-3.73754e-18
6.30399e-18
1.49031e-16
-2.36553e-18
6.29863e-18
1.491e-16
6.29324e-18
1.49169e-16
2.10667e-21
2.87978e-17
4.86806e-21
2.88139e-17
7.03202e-21
2.88131e-17
7.37066e-21
2.88074e-17
5.2315e-21
2.87999e-17
2.8792e-17
3.87426e-07
-0.292045
0.133937
-1.16533e-07
-0.292045
0.133939
-4.41791e-08
-0.292046
0.133939
5.04008e-07
-0.292046
0.133939
4.87123e-07
-0.292045
0.13394
-0.292044
0.13394
1.1712e-06
-0.518482
-0.182372
4.11176e-07
-0.518481
-0.182371
2.09546e-07
-0.518482
-0.182371
2.93023e-07
-0.518481
-0.18237
7.98418e-07
-0.51848
-0.182369
-0.518477
-0.182369
1.94151e-06
-0.326386
-1.08839
3.14379e-07
-0.32638
-1.08839
-1.51464e-06
-0.326379
-1.08839
-2.37574e-06
-0.326378
-1.08839
-1.13121e-06
-0.326378
-1.08839
-0.326374
-1.08839
1.70792e-06
-0.00275892
-1.12008
2.53541e-06
-0.00275857
-1.12008
4.20381e-06
-0.00275857
-1.12008
6.40675e-06
-0.00275873
-1.12008
5.21799e-06
-0.00275896
-1.12008
-0.00275936
-1.12008
2.55751e-10
-5.10726e-05
-0.00320073
-2.34663e-10
-5.10751e-05
-0.00320032
2.22969e-10
-5.10733e-05
-0.00320031
1.3011e-09
-5.10733e-05
-0.00320049
4.45666e-10
-5.10757e-05
-0.00320076
-5.10701e-05
-0.00320126
-5.68075e-11
-8.51086e-07
4.2208e-06
-9.07616e-11
-8.51042e-07
4.22234e-06
-5.31568e-11
-8.51035e-07
4.22172e-06
-5.04537e-12
-8.51076e-07
4.22156e-06
1.173e-10
-8.51157e-07
4.22202e-06
-8.51151e-07
4.2199e-06
-1.31374e-11
-1.03052e-08
2.41307e-08
3.75519e-12
-1.03088e-08
2.41371e-08
5.22162e-12
-1.03081e-08
2.41343e-08
4.2289e-13
-1.03073e-08
2.4135e-08
2.17627e-12
-1.0308e-08
2.41392e-08
-1.03044e-08
2.41303e-08
-3.05683e-14
-6.03235e-11
1.09435e-10
2.05992e-14
-6.03449e-11
1.09459e-10
4.12945e-14
-6.03406e-11
1.09454e-10
5.90268e-14
-6.03305e-11
1.09464e-10
6.8134e-14
-6.03225e-11
1.09485e-10
-6.03067e-11
1.09445e-10
4.82004e-17
-9.8214e-15
8.68747e-14
-7.1933e-17
-9.82347e-15
8.68832e-14
-1.19142e-16
-9.81786e-15
8.68882e-14
-1.5985e-17
-9.81256e-15
8.68962e-14
1.15666e-16
-9.80834e-15
8.69065e-14
-9.80359e-15
8.68847e-14
-9.59653e-19
-5.77533e-18
1.40575e-16
-2.88024e-18
-5.77487e-18
1.40565e-16
-3.84742e-18
-5.77215e-18
1.40552e-16
-3.61132e-18
-5.77098e-18
1.40562e-16
-2.18898e-18
-5.77102e-18
1.40587e-16
-5.76941e-18
1.40601e-16
-8.47237e-21
6.18973e-20
5.77957e-17
-1.91624e-20
6.12182e-20
5.78004e-17
-2.32244e-20
6.02023e-20
5.78146e-17
-2.11329e-20
5.90905e-20
5.78361e-17
-1.33117e-20
5.804e-20
5.7862e-17
5.74713e-20
5.78874e-17
9.49297e-24
2.28197e-19
1.68127e-23
2.28362e-19
2.17687e-23
2.28376e-19
2.10755e-23
2.2834e-19
1.30077e-23
2.28285e-19
2.28234e-19
-3.76689e-118
-1.59389e-110
3.266e-116
-1.01374e-118
-1.59673e-110
3.27503e-116
1.18209e-119
-1.59727e-110
3.27804e-116
5.79112e-119
-1.59597e-110
3.27684e-116
6.055e-119
-1.59312e-110
3.27262e-116
-1.58865e-110
3.26652e-116
-1.25959e-112
-7.8661e-105
1.67928e-110
-1.18096e-113
-7.88946e-105
1.6855e-110
3.16787e-113
-7.89604e-105
1.68766e-110
5.85116e-113
-7.89296e-105
1.68755e-110
8.01086e-113
-7.88239e-105
1.68594e-110
-7.86661e-105
1.68376e-110
-2.31678e-107
-1.9101e-99
4.38187e-105
1.39739e-109
-1.91633e-99
4.39862e-105
9.33309e-108
-1.91808e-99
4.40399e-105
1.50044e-107
-1.91739e-99
4.40354e-105
1.92015e-107
-1.91485e-99
4.39899e-105
-1.9109e-99
4.39241e-105
-2.84859e-102
-2.99387e-94
7.50922e-100
1.13227e-103
-3.00412e-94
7.53757e-100
1.33569e-102
-3.0068e-94
7.54581e-100
2.11132e-102
-3.00563e-94
7.54439e-100
2.66925e-102
-3.00153e-94
7.5359e-100
-2.99504e-94
7.5229e-100
-2.31072e-97
-3.37717e-89
9.2366e-95
2.81617e-98
-3.38909e-89
9.26938e-95
1.566e-97
-3.39204e-89
9.27807e-95
2.29659e-97
-3.39064e-89
9.27599e-95
2.75046e-97
-3.38595e-89
9.26487e-95
-3.37842e-89
9.24712e-95
-5.26219e-93
-2.9145e-84
8.41852e-90
1.12386e-92
-2.92514e-84
8.44587e-90
1.83996e-92
-2.92766e-84
8.45447e-90
2.27447e-92
-2.92656e-84
8.45221e-90
2.41698e-92
-2.92257e-84
8.44227e-90
-2.916e-84
8.42585e-90
1.00109e-87
-2.01305e-79
5.70986e-85
1.36768e-87
-2.02069e-79
5.72592e-85
1.55265e-87
-2.02253e-79
5.73161e-85
1.65054e-87
-2.02187e-79
5.73005e-85
1.50339e-87
-2.01915e-79
5.72351e-85
-2.0146e-79
5.71219e-85
1.19974e-82
-1.16116e-74
2.77387e-80
7.38486e-83
-1.1657e-74
2.77869e-80
7.42814e-83
-1.16686e-74
2.78016e-80
7.24466e-83
-1.16648e-74
2.77894e-80
5.08495e-83
-1.16489e-74
2.77544e-80
-1.16223e-74
2.76965e-80
7.51552e-78
-5.87252e-70
7.14382e-76
2.38936e-78
-5.89562e-70
7.11922e-76
1.56525e-78
-5.90148e-70
7.11109e-76
1.04107e-78
-5.89943e-70
7.10406e-76
-5.15807e-79
-5.89117e-70
7.09568e-76
-5.87755e-70
7.08358e-76
3.02518e-73
-2.44887e-65
-3.38973e-66
-2.24825e-74
-2.45491e-65
-3.43615e-66
-6.43963e-74
-2.45636e-65
-3.44851e-66
-7.92618e-74
-2.45545e-65
-3.44695e-66
-1.53355e-73
-2.45253e-65
-3.43659e-66
-2.44773e-65
-3.42085e-66
1.27319e-68
-6.05454e-61
-6.23197e-61
-2.82391e-69
-6.06367e-61
-6.25144e-61
-6.16011e-69
-6.06649e-61
-6.25532e-61
-7.55273e-69
-6.0661e-61
-6.25084e-61
-1.02756e-68
-6.06297e-61
-6.23982e-61
-6.05749e-61
-6.22302e-61
1.83724e-64
-4.27721e-56
-2.20793e-64
-4.28212e-56
-4.55239e-64
-4.28371e-56
-5.99352e-64
-4.2833e-56
-6.5272e-64
-4.28133e-56
-4.27859e-56
-3.46014e-113
-2.04544e-105
8.21137e-111
-4.29451e-114
-2.05084e-105
8.23474e-111
7.84734e-114
-2.05191e-105
8.23999e-111
1.52974e-113
-2.05042e-105
8.23481e-111
2.11682e-113
-2.04681e-105
8.22103e-111
-2.04142e-105
8.19968e-111
-1.10931e-107
-1.04293e-99
4.37033e-105
1.59326e-108
-1.04664e-99
4.38636e-105
6.71218e-108
-1.04758e-99
4.39074e-105
1.10471e-107
-1.04713e-99
4.38911e-105
1.60744e-107
-1.04565e-99
4.38312e-105
-1.04351e-99
4.37408e-105
-2.06795e-102
-2.60519e-94
1.1798e-99
6.12895e-103
-2.61495e-94
1.1843e-99
1.73758e-102
-2.61737e-94
1.18548e-99
2.69558e-102
-2.61622e-94
1.185e-99
3.75043e-102
-2.61246e-94
1.18334e-99
-2.60677e-94
1.18074e-99
-2.55086e-97
-4.17509e-89
2.08863e-94
9.59412e-98
-4.19111e-89
2.09663e-94
2.50378e-97
-4.1948e-89
2.09856e-94
3.82749e-97
-4.19279e-89
2.09762e-94
5.33364e-97
-4.18655e-89
2.09454e-94
-4.17691e-89
2.08971e-94
-1.52919e-92
-4.77032e-84
2.6482e-89
1.80116e-92
-4.789e-84
2.65828e-89
3.12797e-92
-4.79302e-84
2.66067e-89
4.38389e-92
-4.79071e-84
2.65941e-89
5.72536e-92
-4.78349e-84
2.65545e-89
-4.77215e-84
2.6492e-89
4.98597e-88
-4.11033e-79
2.49329e-84
2.21174e-87
-4.12676e-79
2.50266e-84
3.17371e-87
-4.13033e-79
2.50489e-84
3.90516e-87
-4.12842e-79
2.50372e-84
4.51348e-87
-4.12224e-79
2.50001e-84
-4.11231e-79
2.4941e-84
1.57621e-82
-2.76921e-74
1.75636e-79
1.7388e-82
-2.78046e-74
1.7625e-79
2.14201e-82
-2.78294e-74
1.76393e-79
2.32426e-82
-2.7817e-74
1.76307e-79
2.17105e-82
-2.77754e-74
1.76044e-79
-2.77075e-74
1.75629e-79
1.32601e-77
-1.50206e-69
8.73348e-75
7.12636e-78
-1.50806e-69
8.75672e-75
5.7863e-78
-1.50937e-69
8.76126e-75
3.95755e-78
-1.50869e-69
8.75637e-75
-2.93351e-79
-1.50642e-69
8.74382e-75
-1.50272e-69
8.72502e-75
3.4646e-73
-6.83439e-65
2.35034e-70
-1.15381e-73
-6.8606e-65
2.35071e-70
-1.67336e-73
-6.86602e-65
2.34991e-70
-2.45323e-73
-6.86257e-65
2.34824e-70
-5.15897e-73
-6.85201e-65
2.34566e-70
-6.83507e-65
2.34248e-70
-1.29037e-68
-2.5844e-60
-2.24328e-61
-2.59621e-68
-2.59131e-60
-2.2737e-61
-2.30593e-68
-2.59262e-60
-2.27947e-61
-2.22819e-68
-2.59143e-60
-2.27596e-61
-3.17543e-68
-2.58821e-60
-2.26562e-61
-2.58316e-60
-2.24918e-61
-9.13261e-64
-5.43656e-56
-5.35197e-56
-1.13204e-63
-5.44742e-56
-5.36518e-56
-9.6432e-64
-5.45017e-56
-5.36656e-56
-8.72382e-64
-5.44959e-56
-5.36215e-56
-1.09079e-63
-5.44648e-56
-5.353e-56
-5.44158e-56
-5.33952e-56
-2.39593e-59
-3.05968e-51
-3.45578e-59
-3.06358e-51
-4.74461e-59
-3.06472e-51
-5.78538e-59
-3.06451e-51
-6.16079e-59
-3.0634e-51
-3.06207e-51
-1.14211e-108
-8.60813e-101
4.98436e-106
1.85883e-110
-8.62451e-101
4.99456e-106
4.77483e-109
-8.62742e-101
4.99653e-106
7.56095e-109
-8.62252e-101
4.99379e-106
9.50081e-109
-8.61106e-101
4.98719e-106
-8.59539e-101
4.97801e-106
-3.82227e-103
-4.73601e-95
2.87538e-100
1.42615e-103
-4.74872e-95
2.88332e-100
3.62781e-103
-4.7521e-95
2.88547e-100
5.4301e-103
-4.75061e-95
2.88456e-100
7.36442e-103
-4.74581e-95
2.88161e-100
-4.73974e-95
2.87776e-100
-7.64168e-98
-1.26847e-89
8.40071e-95
4.39359e-98
-1.27209e-89
8.42502e-95
9.72278e-98
-1.27302e-89
8.43134e-95
1.40013e-97
-1.27261e-89
8.42858e-95
1.84441e-97
-1.2713e-89
8.41979e-95
-1.26955e-89
8.40782e-95
-8.62718e-93
-2.15708e-84
1.60111e-89
8.38415e-93
-2.16342e-84
1.60581e-89
1.57861e-92
-2.16492e-84
1.60694e-89
2.19872e-92
-2.16418e-84
1.60638e-89
2.83559e-92
-2.16189e-84
1.60466e-89
-2.15872e-84
1.60227e-89
-2.33337e-88
-2.57585e-79
2.16301e-84
1.29056e-87
-2.58363e-79
2.16939e-84
1.9898e-87
-2.58543e-79
2.17094e-84
2.56517e-87
-2.58457e-79
2.17018e-84
3.09943e-87
-2.58183e-79
2.16786e-84
-2.57795e-79
2.1646e-84
7.27659e-83
-2.27555e-74
2.13203e-79
1.40402e-82
-2.28262e-74
2.13823e-79
1.81961e-82
-2.2843e-74
2.13977e-79
2.08518e-82
-2.28358e-74
2.13906e-79
2.21815e-82
-2.28118e-74
2.13678e-79
-2.27768e-74
2.13355e-79
1.14192e-77
-1.54229e-69
1.54612e-74
9.61153e-78
-1.54711e-69
1.55037e-74
9.37952e-78
-1.54826e-69
1.55138e-74
8.47931e-78
-1.54777e-69
1.55082e-74
6.441e-78
-1.5461e-69
1.54914e-74
-1.54365e-69
1.54676e-74
5.16845e-73
-8.28901e-65
8.11615e-70
1.34072e-73
-8.31419e-65
8.13468e-70
-3.56384e-75
-8.31983e-65
8.13833e-70
-1.48939e-73
-8.31677e-65
8.13473e-70
-3.63959e-73
-8.3073e-65
8.12575e-70
-8.2935e-65
8.11369e-70
-1.72656e-68
-3.63786e-60
2.85628e-65
-2.6944e-68
-3.6481e-60
2.85933e-65
-2.67403e-68
-3.65012e-60
2.85972e-65
-2.82227e-68
-3.64854e-60
2.85855e-65
-3.60669e-68
-3.64425e-60
2.85617e-65
-3.63813e-60
2.85332e-65
-2.21027e-63
-1.32768e-55
3.72638e-62
-1.73331e-63
-1.33093e-55
3.50829e-62
-1.20685e-63
-1.3315e-55
3.483e-62
-9.03747e-64
-1.33089e-55
3.52757e-62
-9.54104e-64
-1.32941e-55
3.62381e-62
-1.32732e-55
3.7739e-62
-1.04109e-58
-2.51917e-51
-1.97357e-51
-5.26685e-59
-2.52433e-51
-1.97696e-51
-1.65093e-59
-2.52559e-51
-1.97717e-51
7.05164e-60
-2.52533e-51
-1.97574e-51
1.21893e-59
-2.52409e-51
-1.97293e-51
-2.52254e-51
-1.96885e-51
-1.43208e-54
-9.75508e-47
-1.0708e-54
-9.76824e-47
-1.22019e-54
-9.77243e-47
-1.26822e-54
-9.77286e-47
-9.51911e-55
-9.77111e-47
-9.76993e-47
-4.32535e-104
-4.4169e-96
3.22511e-101
6.82705e-105
-4.41998e-96
3.22781e-101
2.66515e-104
-4.41976e-96
3.22776e-101
3.85425e-104
-4.41745e-96
3.22604e-101
4.65614e-104
-4.41299e-96
3.2227e-101
-4.40702e-96
3.2182e-101
-1.59294e-98
-2.78086e-90
2.14163e-95
1.02072e-98
-2.78466e-90
2.14473e-95
2.15149e-98
-2.78552e-90
2.1454e-95
3.05165e-98
-2.78471e-90
2.14473e-95
4.00818e-98
-2.78274e-90
2.14312e-95
-2.78037e-90
2.14115e-95
-3.5563e-93
-8.44775e-85
7.18468e-90
3.42064e-93
-8.46053e-85
7.1959e-90
6.52575e-93
-8.46324e-85
7.19818e-90
9.00952e-93
-8.4608e-85
7.19594e-90
1.14702e-92
-8.45475e-85
7.19051e-90
-8.44688e-85
7.18346e-90
-3.34513e-88
-1.6041e-79
1.56113e-84
7.62576e-88
-1.60666e-79
1.56363e-84
1.22825e-87
-1.60714e-79
1.5641e-84
1.60978e-87
-1.60668e-79
1.56361e-84
1.98659e-87
-1.6055e-79
1.56241e-84
-1.60391e-79
1.56081e-84
1.98367e-83
-2.08515e-74
2.37615e-79
1.13532e-82
-2.08867e-74
2.38006e-79
1.60311e-82
-2.08938e-74
2.38085e-79
1.94486e-82
-2.0888e-74
2.38012e-79
2.23953e-82
-2.08727e-74
2.37831e-79
-2.08512e-74
2.37582e-79
1.11895e-77
-1.92343e-69
2.58897e-74
1.28281e-77
-1.92682e-69
2.59331e-74
1.3694e-77
-1.92755e-69
2.5942e-74
1.38827e-77
-1.92705e-69
2.59343e-74
1.35158e-77
-1.92561e-69
2.59141e-74
-1.92355e-69
2.58858e-74
1.05934e-72
-1.27183e-64
1.99006e-69
6.91997e-73
-1.2741e-64
1.99331e-69
4.82531e-73
-1.27459e-64
1.99393e-69
2.71488e-73
-1.27423e-64
1.99328e-69
3.31737e-74
-1.27323e-64
1.99165e-69
-1.27177e-64
1.98939e-69
2.05488e-68
-6.06008e-60
1.0367e-64
-2.01214e-69
-6.07067e-60
1.03819e-64
-1.67367e-68
-6.07269e-60
1.03845e-64
-3.00094e-68
-6.07075e-60
1.03809e-64
-4.26833e-68
-6.06568e-60
1.03725e-64
-6.05847e-60
1.03613e-64
-1.68569e-63
-2.11955e-55
3.35697e-60
-1.40734e-63
-2.12304e-55
3.36078e-60
-1.42593e-63
-2.12362e-55
3.36137e-60
-1.50862e-63
-2.1229e-55
3.36029e-60
-1.63723e-63
-2.12113e-55
3.35794e-60
-2.11864e-55
3.35489e-60
-1.08981e-58
-5.74346e-51
4.90485e-56
-4.32522e-59
-5.75201e-51
4.908e-56
-1.0257e-59
-5.75358e-51
4.9094e-56
9.59247e-60
-5.75194e-51
4.9097e-56
1.80261e-59
-5.74778e-51
4.90905e-56
-5.74189e-51
4.90815e-56
-2.80768e-54
-7.66413e-47
-4.96941e-47
-2.95406e-55
-7.67551e-47
-4.97428e-47
1.03831e-54
-7.67881e-47
-4.97496e-47
2.16035e-54
-7.67873e-47
-4.97342e-47
2.73473e-54
-7.67624e-47
-4.96988e-47
-7.67278e-47
-4.96454e-47
-5.29282e-50
-1.72381e-42
-3.28683e-50
-1.72602e-42
-2.37604e-50
-1.72683e-42
-1.90005e-50
-1.7271e-42
-8.65308e-51
-1.72709e-42
-1.72727e-42
2.9716e-06
0.811446
-0.677511
2.09645e-06
0.81145
-0.67751
1.3291e-06
0.811451
-0.67751
1.31775e-06
0.811451
-0.677511
1.30475e-06
0.811451
-0.677511
0.81145
-0.677509
8.83855e-06
1.60345
-0.791923
5.7086e-06
1.60346
-0.791912
3.68738e-06
1.60346
-0.791911
2.37389e-06
1.60345
-0.791911
2.10868e-06
1.60345
-0.791912
1.60345
-0.791908
1.2173e-05
-1.60996
8.67486e-06
-1.60994
6.7003e-06
-1.60994
6.08579e-06
-1.60994
7.31005e-06
-1.60994
-1.60993
5.39985e-06
0.264002
-1.1238
3.10009e-06
0.264003
-1.12379
1.33749e-06
0.264003
-1.12379
5.97727e-07
0.264003
-1.12379
1.41228e-06
0.264003
-1.12379
0.264003
-1.12379
2.43147e-06
1.78355
-2.16755
2.96294e-06
1.78356
-2.16754
4.16443e-06
1.78356
-2.16754
5.32372e-06
1.78356
-2.16754
6.1144e-06
1.78356
-2.16754
1.78356
-2.16754
-3.27042e-06
-1.94434
-6.7962e-07
-1.94434
4.76023e-06
-1.94434
8.55649e-06
-1.94434
1.04589e-05
-1.94434
-1.94434
4.8423e-08
-0.802058
-0.817016
-1.29326e-06
-0.802061
-0.817012
-1.42256e-06
-0.80206
-0.817012
-4.50966e-07
-0.80206
-0.817013
2.83019e-07
-0.80206
-0.817013
-0.802059
-0.817011
3.27448e-07
0.106497
-0.000610113
-1.33521e-06
0.106498
-0.000610133
8.28752e-07
0.106497
-0.000610134
4.4967e-06
0.106497
-0.000610131
3.05025e-06
0.106498
-0.000610124
0.1065
-0.000610114
5.67998e-07
-3.92475e-17
-9.2315e-08
-3.92371e-17
6.2677e-07
-3.92373e-17
1.50644e-06
-3.92493e-17
6.84841e-07
-3.92674e-17
-3.92755e-17
1.15647e-07
-0.000333614
0.00698292
-6.29599e-07
-0.000333627
0.00698303
1.27933e-06
-0.000333627
0.00698295
3.24537e-06
-0.000333626
0.006983
1.43077e-06
-0.000333623
0.00698316
-0.000333615
0.00698313
2.10904e-10
-2.49668e-18
-0.000943726
3.22319e-10
-2.49601e-18
-0.00094376
5.50597e-10
-2.49603e-18
-0.000943761
5.09326e-10
-2.49678e-18
-0.000943757
1.54639e-11
-2.49792e-18
-0.000943747
-2.4984e-18
-0.00094373
-1.15801e-23
-4.17442e-17
-2.63983e-23
-4.17331e-17
-3.15731e-23
-4.17333e-17
-4.01873e-23
-4.17461e-17
-3.57054e-23
-4.17653e-17
-4.17739e-17
-1.20357e-07
0.00378654
-4.14271e-06
1.57058e-07
0.00378667
-4.14421e-06
3.72293e-07
0.00378666
-4.14361e-06
4.6574e-07
0.00378665
-4.14345e-06
4.51412e-07
0.00378664
-4.1439e-06
0.00378656
-4.14184e-06
-2.96722e-09
-5.36002e-16
-7.17936e-08
-3.40112e-09
-5.35859e-16
-7.18216e-08
-2.84098e-09
-5.35862e-16
-7.18097e-08
-1.02228e-09
-5.36027e-16
-7.18073e-08
2.30039e-09
-5.36278e-16
-7.18157e-08
-5.36394e-16
-7.17789e-08
-1.65899e-22
-5.77746e-16
-1.66427e-22
-5.77592e-16
-3.19146e-22
-5.77595e-16
-5.28553e-22
-5.77773e-16
-4.76564e-22
-5.78043e-16
-5.78169e-16
-2.91508e-12
7.15567e-08
-2.2746e-08
5.36794e-13
7.15847e-08
-2.27523e-08
1.45658e-12
7.15727e-08
-2.27497e-08
3.2992e-12
7.15703e-08
-2.27501e-08
7.16932e-12
7.15788e-08
-2.27539e-08
7.15419e-08
-2.27451e-08
-3.88334e-14
-1.64705e-14
-2.36952e-10
1.68043e-14
-1.64663e-14
-2.37017e-10
2.77212e-14
-1.64664e-14
-2.36986e-10
2.31606e-14
-1.64715e-14
-2.36992e-10
6.3507e-14
-1.64793e-14
-2.37036e-10
-1.64828e-14
-2.36947e-10
-6.75235e-21
-1.7168e-14
-5.50905e-21
-1.71635e-14
-5.05867e-21
-1.71637e-14
-1.7311e-21
-1.7169e-14
1.01814e-21
-1.7177e-14
-1.71809e-14
-9.29058e-15
2.37323e-10
-1.126e-10
-7.8441e-14
2.37388e-10
-1.12629e-10
-2.08794e-13
2.37357e-10
-1.12621e-10
-2.63554e-13
2.37364e-10
-1.1263e-10
-1.48324e-13
2.37407e-10
-1.12653e-10
2.37319e-10
-1.12607e-10
-2.62197e-16
1.75684e-14
-1.6745e-13
-4.18325e-16
1.7564e-14
-1.67479e-13
-6.32651e-16
1.7564e-14
-1.67492e-13
-5.71426e-16
1.75694e-14
-1.67522e-13
-1.9108e-16
1.75775e-14
-1.67566e-13
1.75813e-14
-1.67508e-13
-1.73923e-19
-1.10808e-16
-2.01474e-19
-1.10794e-16
-2.54269e-19
-1.10837e-16
-2.08735e-19
-1.10865e-16
-8.2243e-20
-1.10879e-16
-1.10873e-16
-2.06689e-16
1.72757e-13
-8.18742e-14
-5.56348e-16
1.72785e-13
-8.18818e-14
-6.05696e-16
1.72801e-13
-8.18872e-14
-4.30962e-16
1.72833e-13
-8.18955e-14
-1.79586e-16
1.72878e-13
-8.19058e-14
1.72819e-13
-8.18846e-14
-1.05128e-18
3.22717e-16
-1.25414e-16
-2.58087e-18
3.2289e-16
-1.25476e-16
-2.78779e-18
3.22708e-16
-1.25474e-16
-1.81042e-18
3.22597e-16
-1.2545e-16
-6.95973e-19
3.22538e-16
-1.25419e-16
3.22407e-16
-1.2539e-16
-3.44763e-22
-5.03577e-19
-9.87559e-22
-5.0381e-19
-1.04362e-21
-5.03813e-19
-6.99814e-22
-5.03724e-19
-3.74638e-22
-5.03595e-19
-5.03485e-19
-1.25703e-18
1.49391e-16
-3.89593e-17
-5.78899e-19
1.49435e-16
-3.89546e-17
5.30964e-19
1.49405e-16
-3.89481e-17
1.38509e-18
1.49363e-16
-3.89506e-17
1.47211e-18
1.49324e-16
-3.89588e-17
1.49305e-16
-3.89635e-17
-9.00468e-21
8.51878e-17
-1.57198e-19
-7.69294e-21
8.52251e-17
-1.57203e-19
-2.87789e-21
8.52239e-17
-1.57198e-19
1.64769e-21
8.5208e-17
-1.57219e-19
3.74925e-21
8.51862e-17
-1.57255e-19
8.51728e-17
-1.57273e-19
-7.76858e-24
-1.61576e-21
-8.22789e-24
-1.61582e-21
-4.80172e-24
-1.61588e-21
-8.19975e-25
-1.61616e-21
1.33937e-24
-1.61653e-21
-1.61679e-21
1.75324e-23
8.68048e-17
4.24441e-18
2.29257e-21
8.67965e-17
4.24377e-18
5.43684e-21
8.67891e-17
4.24214e-18
7.83687e-21
8.67972e-17
4.2408e-18
7.70896e-21
8.68151e-17
4.23966e-18
8.68301e-17
4.23943e-18
-1.00948e-23
5.32481e-19
-7.03972e-23
-2.52708e-24
5.32464e-19
-7.04287e-23
9.67206e-24
5.32458e-19
-7.04616e-23
2.01601e-23
5.32536e-19
-7.0509e-23
2.14068e-23
5.32655e-19
-7.05661e-23
5.32754e-19
-7.05964e-23
-2.96721e-26
-2.37512e-24
-1.94528e-26
-2.37594e-24
-3.74532e-27
-2.37717e-24
9.90545e-27
-2.37863e-24
1.51567e-26
-2.38015e-24
-2.38162e-24
2.36753e-24
4.23906e-19
1.26973e-19
-1.83121e-23
4.23982e-19
1.26996e-19
-3.07754e-23
4.24128e-19
1.27038e-19
-2.95832e-23
4.24324e-19
1.27093e-19
-1.71406e-23
4.24541e-19
1.27153e-19
4.24758e-19
1.27216e-19
-2.45809e-26
2.20926e-21
3.52875e-22
-3.79144e-26
2.20985e-21
3.52976e-22
-4.43986e-26
2.21084e-21
3.53138e-22
-3.12646e-26
2.21207e-21
3.53333e-22
-8.70628e-27
2.21337e-21
3.53538e-22
2.21469e-21
3.53743e-22
-4.95454e-29
-1.36064e-27
-4.7321e-29
-1.36178e-27
-5.0464e-29
-1.36227e-27
-3.40386e-29
-1.36259e-27
-1.75452e-30
-1.36283e-27
-1.36298e-27
-4.04786e-26
1.77936e-21
1.42662e-21
-7.88268e-26
1.78055e-21
1.42758e-21
-1.01639e-25
1.78099e-21
1.42794e-21
-1.03569e-25
1.78119e-21
1.42811e-21
-7.97439e-26
1.78129e-21
1.42819e-21
1.78142e-21
1.4283e-21
-3.38117e-29
8.1406e-24
3.3924e-24
-4.68059e-29
8.14632e-24
3.39478e-24
-7.57281e-29
8.14911e-24
3.39596e-24
-7.28839e-29
8.15094e-24
3.39672e-24
-3.20612e-29
8.15226e-24
3.39727e-24
8.15377e-24
3.3979e-24
-2.43917e-33
2.19019e-27
-5.29612e-32
2.19184e-27
-1.00144e-31
2.1927e-27
-1.02684e-31
2.19325e-27
-5.37358e-32
2.19362e-27
2.1941e-27
-3.74103e-43
6.15553e-39
-2.80467e-35
1.7045e-38
6.58184e-43
6.16168e-39
-2.80738e-35
1.70622e-38
8.684e-43
6.16465e-39
-2.80868e-35
1.70704e-38
8.0646e-43
6.16631e-39
-2.80942e-35
1.7075e-38
5.13706e-43
6.16724e-39
-2.80984e-35
1.70775e-38
6.16859e-39
-2.81043e-35
1.70813e-38
-6.53895e-47
1.4376e-41
-3.29305e-38
1.58493e-41
9.36438e-46
1.43901e-41
-3.29622e-38
1.5865e-41
1.10445e-45
1.43971e-41
-3.2978e-38
1.58729e-41
9.55886e-46
1.4401e-41
-3.29872e-38
1.58773e-41
5.64305e-46
1.44032e-41
-3.29927e-38
1.58799e-41
1.44066e-41
-3.30004e-38
1.58839e-41
3.42173e-50
-7.01387e-42
2.33091e-45
1.79888e-49
-7.02119e-42
2.33345e-45
1.97455e-49
-7.02488e-42
2.33471e-45
1.59078e-49
-7.02707e-42
2.33543e-45
8.41356e-50
-7.02836e-42
2.33585e-45
-7.03031e-42
2.33654e-45
4.59867e-40
1.11151e-35
-3.32477e-32
9.72732e-40
1.11261e-35
-3.32795e-32
1.05525e-39
1.11313e-35
-3.32944e-32
8.23937e-40
1.11342e-35
-3.33029e-32
4.02234e-40
1.11358e-35
-3.33077e-32
1.11381e-35
-3.3314e-32
1.00367e-42
3.11267e-38
-4.70929e-35
1.41608e-42
3.11571e-38
-4.7138e-35
1.35899e-42
3.11718e-38
-4.716e-35
8.96304e-43
3.11801e-38
-4.71727e-35
3.52904e-43
3.11849e-38
-4.71802e-35
3.11917e-38
-4.71905e-35
3.22214e-46
-1.42023e-38
4.40917e-46
-1.42168e-38
4.13084e-46
-1.42241e-38
2.5523e-46
-1.42285e-38
1.16518e-46
-1.42311e-38
-1.42348e-38
6.46095e-37
1.39658e-32
-2.75255e-29
6.7771e-37
1.39792e-32
-2.75508e-29
5.36789e-37
1.39854e-32
-2.75624e-29
1.93227e-37
1.39888e-32
-2.75687e-29
1.65598e-38
1.39907e-32
-2.75723e-29
1.39933e-32
-2.7577e-29
1.4374e-39
4.61118e-35
-4.57844e-32
1.23369e-39
4.61558e-35
-4.58269e-32
7.80001e-40
4.6177e-35
-4.58474e-32
6.37169e-41
4.6189e-35
-4.5859e-32
-1.17702e-40
4.61959e-35
-4.58659e-32
4.62057e-35
-4.58752e-32
6.25646e-43
-1.9211e-35
4.61134e-43
-1.92296e-35
3.03383e-43
-1.92391e-35
6.42755e-44
-1.92446e-35
-1.41645e-44
-1.92479e-35
-1.92525e-35
2.9955e-34
1.21641e-29
-1.55389e-26
1.11718e-34
1.21753e-29
-1.55523e-26
-7.08075e-35
1.21804e-29
-1.55582e-26
-2.38146e-34
1.21831e-29
-1.55614e-26
-2.36436e-34
1.21846e-29
-1.55631e-26
1.21865e-29
-1.55653e-26
9.13138e-37
4.66719e-32
-2.97226e-29
4.69397e-37
4.6715e-32
-2.97487e-29
-2.64159e-38
4.67356e-32
-2.97612e-29
-3.87257e-37
4.67472e-32
-2.97682e-29
-5.74895e-37
4.67539e-32
-2.97724e-29
4.67632e-32
-2.9778e-29
5.45314e-40
-1.66629e-32
1.73465e-40
-1.6678e-32
-4.32423e-41
-1.66855e-32
-2.82817e-40
-1.66898e-32
-4.43138e-40
-1.66924e-32
-1.6696e-32
9.16246e-33
7.17867e-27
-5.84059e-24
-7.72951e-32
7.18484e-27
-5.84517e-24
-1.92688e-31
7.18752e-27
-5.84706e-24
-2.55677e-31
7.18895e-27
-5.84804e-24
-2.24331e-31
7.18973e-27
-5.84856e-24
7.19073e-27
-5.84922e-24
1.54829e-34
3.18954e-29
-1.26504e-26
3.39761e-35
3.19234e-29
-1.26606e-26
-2.23173e-34
3.19365e-29
-1.26654e-26
-3.98319e-34
3.19441e-29
-1.26683e-26
-4.76025e-34
3.19486e-29
-1.26701e-26
3.19545e-29
-1.26723e-26
7.24957e-38
-8.05312e-30
-7.2441e-38
-8.05993e-30
-2.77868e-37
-8.06326e-30
-3.75318e-37
-8.06528e-30
-4.60011e-37
-8.06656e-30
-8.06825e-30
-5.51151e-29
2.88641e-24
-1.04723e-28
2.88867e-24
-1.4155e-28
2.8896e-24
-1.40504e-28
2.89007e-24
-1.07127e-28
2.89032e-24
2.89064e-24
-3.17479e-32
1.47144e-26
-1.3398e-31
1.47263e-26
-2.23868e-31
1.47319e-26
-2.5332e-31
1.47352e-26
-2.2298e-31
1.47373e-26
1.47399e-26
-5.60829e-35
-1.53604e-34
-2.2153e-34
-2.78122e-34
-2.89725e-34
-1.99987e-100
2.82054e-97
-3.35679e-92
7.70894e-101
2.82103e-97
-3.35696e-92
1.90425e-100
2.82178e-97
-3.35782e-92
2.59912e-100
2.82229e-97
-3.35854e-92
3.10168e-100
2.82256e-97
-3.35904e-92
2.82307e-97
-3.35985e-92
-1.98049e-105
8.42985e-102