/*--------------------------------*- C++ -*----------------------------------*\
| =========                 |                                                 |
| \\      /  F ield         | OpenFOAM: The Open Source CFD Toolbox           |
|  \\    /   O peration     | Version:  v1612+                                |
|   \\  /    A nd           | Web:      www.OpenFOAM.com                      |
|    \\/     M anipulation  |                                                 |
\*---------------------------------------------------------------------------*/
FoamFile
{
    version     2.0;
    format      ascii;
    class       volScalarField;
    location    "0.85";
    object      p;
}
// * * * * * * * * * * * * * * * * * * * * * * * * * * * * * * * * * * * * * //

dimensions      [1 -1 -2 0 0 0 0];

internalField   nonuniform List<scalar> 
1116
(
30210.1
30210.1
30210.1
30210.1
30210.1
30210.1
28777.8
28777.8
28777.8
28777.8
28777.8
28777.8
26062.1
26062.1
26062
26062
26062
26062
19195.1
19195.1
19195.1
19195.1
19195
19195
5414.78
5414.76
5414.75
5414.73
5414.72
5414.7
261.434
261.436
261.436
261.436
261.44
261.448
95.4994
95.5003
95.5013
95.5022
95.5026
95.5032
82.0659
82.0648
82.065
82.0654
82.0656
82.0654
66.8559
66.8557
66.8554
66.8554
66.8559
66.8565
53.9934
53.994
53.994
53.9939
53.994
53.9942
46.2127
46.2127
46.2123
46.2118
46.2114
46.2111
41.9215
41.9212
41.9209
41.9206
41.9204
41.9202
21601.6
21601.6
21601.6
21601.6
21601.6
21601.6
20277.9
20277.9
20277.9
20277.9
20277.9
20277.9
18080
18080
18080
18080
18080
18080
9341.13
9341.11
9341.1
9341.07
9341.06
9341.06
-48.5855
-48.5838
-48.5785
-48.5738
-48.577
-48.5559
-49.5851
-49.5861
-49.5869
-49.5864
-49.5863
-49.5848
42.5345
42.534
42.5343
42.534
42.533
42.5306
53.444
53.4432
53.4425
53.4418
53.4417
53.4414
46.0685
46.0687
46.0685
46.0685
46.069
46.0697
37.7269
37.7266
37.7263
37.7262
37.7262
37.7264
31.3846
31.3843
31.384
31.3837
31.3835
31.3833
27.479
27.4791
27.4791
27.479
27.4789
27.4787
14132
14132
14132
14132
14132.1
14132.1
13351
13351
13351
13351
13351.1
13351.1
12257.7
12257.6
12257.6
12257.6
12257.5
12257.5
1825.48
1825.45
1825.43
1825.42
1825.42
1825.42
-23.5004
-23.5022
-23.507
-23.5093
-23.5101
-23.5014
19.7055
19.7062
19.7076
19.7082
19.7079
19.7069
32.1516
32.1512
32.1508
32.1497
32.1489
32.1479
29.6345
29.6347
29.6341
29.6342
29.6353
29.6363
26.6133
26.6134
26.613
26.6126
26.6122
26.6116
19.5624
19.5621
19.5622
19.5623
19.5625
19.5627
14.2704
14.2706
14.2707
14.2708
14.2708
14.2708
10.5998
10.6
10.6001
10.6002
10.6001
10.5999
6894.16
6894.17
6894.17
6894.17
6894.17
6894.16
8093.51
8093.48
8093.48
8093.48
8093.46
8093.44
8222.48
8222.48
8222.49
8222.5
8222.48
8222.43
-254.814
-254.809
-254.82
-254.833
-254.854
-254.878
-42.0634
-42.0591
-42.0582
-42.0593
-42.0601
-42.0604
32.1793
32.1793
32.1799
32.1801
32.1805
32.1798
22.2669
22.2683
22.2683
22.2682
22.2683
22.2676
13.5002
13.5009
13.5009
13.5014
13.5017
13.5017
6.90578
6.90514
6.90487
6.90474
6.90466
6.90452
0.594595
0.594321
0.594391
0.59446
0.594594
0.594707
-4.11359
-4.1134
-4.11319
-4.11292
-4.11261
-4.11236
-7.8334
-7.83338
-7.83338
-7.83337
-7.83341
-7.83349
-4.83794
-4.83801
-4.83804
-4.83804
-4.83803
-4.83802
-4.83329
-4.83333
-4.83334
-4.83332
-4.8333
-4.83327
-4.82354
-4.82357
-4.82357
-4.82355
-4.82353
-4.8235
-4.80851
-4.80852
-4.80852
-4.8085
-4.80848
-4.80845
-4.78784
-4.78783
-4.78782
-4.78781
-4.78778
-4.78776
-4.76113
-4.76111
-4.76109
-4.76108
-4.76106
-4.76104
-4.72813
-4.72809
-4.72807
-4.72805
-4.72804
-4.72803
-4.68897
-4.68892
-4.68889
-4.68888
-4.68888
-4.68889
-4.64457
-4.64451
-4.64449
-4.6445
-4.64452
-4.64454
-4.59738
-4.59733
-4.59732
-4.59735
-4.59738
-4.59742
-4.55226
-4.55223
-4.55224
-4.55228
-4.55233
-4.55238
-4.51666
-4.51667
-4.5167
-4.51674
-4.51679
-4.51684
-14.6518
-14.6519
-14.6519
-14.6519
-14.6518
-14.6518
-14.6471
-14.6472
-14.6472
-14.6471
-14.6471
-14.647
-14.6374
-14.6374
-14.6374
-14.6373
-14.6373
-14.6372
-14.6222
-14.6222
-14.6222
-14.6222
-14.6221
-14.6221
-14.6012
-14.6012
-14.6012
-14.6011
-14.6011
-14.6011
-14.5737
-14.5737
-14.5737
-14.5737
-14.5737
-14.5736
-14.5393
-14.5393
-14.5392
-14.5392
-14.5392
-14.5392
-14.4975
-14.4975
-14.4975
-14.4975
-14.4975
-14.4975
-14.4489
-14.4489
-14.4489
-14.4489
-14.4489
-14.449
-14.3953
-14.3953
-14.3953
-14.3953
-14.3954
-14.3954
-14.3401
-14.3401
-14.3402
-14.3402
-14.3403
-14.3404
-14.2909
-14.2909
-14.291
-14.291
-14.2911
-14.2911
-24.4695
-24.4696
-24.4696
-24.4695
-24.4695
-24.4695
-24.465
-24.4651
-24.4651
-24.465
-24.465
-24.4649
-24.4557
-24.4557
-24.4557
-24.4556
-24.4556
-24.4556
-24.441
-24.441
-24.441
-24.441
-24.4409
-24.4409
-24.4204
-24.4204
-24.4204
-24.4204
-24.4203
-24.4203
-24.3929
-24.3929
-24.3929
-24.3929
-24.3928
-24.3928
-24.3573
-24.3573
-24.3573
-24.3573
-24.3573
-24.3573
-24.3122
-24.3122
-24.3122
-24.3122
-24.3122
-24.3122
-24.256
-24.256
-24.256
-24.256
-24.256
-24.2561
-24.1874
-24.1874
-24.1874
-24.1875
-24.1875
-24.1876
-24.1099
-24.1099
-24.11
-24.11
-24.1101
-24.1101
-24.0271
-24.0272
-24.0272
-24.0272
-24.0273
-24.0273
-34.2908
-34.2908
-34.2908
-34.2908
-34.2908
-34.2907
-34.2868
-34.2868
-34.2868
-34.2868
-34.2867
-34.2867
-34.2784
-34.2784
-34.2784
-34.2783
-34.2783
-34.2782
-34.265
-34.265
-34.265
-34.265
-34.2649
-34.2649
-34.2458
-34.2458
-34.2458
-34.2458
-34.2458
-34.2457
-34.2195
-34.2195
-34.2194
-34.2194
-34.2194
-34.2194
-34.1838
-34.1838
-34.1838
-34.1838
-34.1838
-34.1838
-34.1358
-34.1358
-34.1358
-34.1358
-34.1358
-34.1358
-34.0717
-34.0717
-34.0718
-34.0718
-34.0718
-34.0719
-33.9877
-33.9878
-33.9878
-33.9878
-33.9879
-33.9879
-33.8775
-33.8775
-33.8776
-33.8776
-33.8776
-33.8776
-33.734
-33.734
-33.734
-33.734
-33.734
-33.734
2314.65
2314.61
2314.6
2314.58
2314.57
2314.55
-18044.7
-18044.7
-18044.7
-18044.7
-18044.7
-18044.7
-26174.6
-26174.7
-26174.8
-26174.8
-26174.8
-26174.8
7238.31
7238.29
7238.3
7238.31
7238.29
7238.25
-10736.9
-10736.9
-10736.9
-10736.9
-10736.9
-10736.9
-8969.77
-8969.82
-8969.81
-8969.85
-8969.89
-8969.93
6130.7
6130.73
6130.74
6130.74
6130.75
6130.76
18.9658
18.9779
18.979
18.982
18.9863
18.9915
-536.551
-536.547
-536.549
-536.549
-536.547
-536.561
660.804
660.809
660.804
660.803
660.804
660.8
-156.812
-156.808
-156.807
-156.805
-156.804
-156.807
-224.801
-224.801
-224.8
-224.798
-224.796
-224.795
-41.7227
-41.7221
-41.722
-41.7221
-41.723
-41.7249
-104.093
-104.091
-104.09
-104.091
-104.092
-104.093
-101.006
-101.005
-101.004
-101.004
-101.004
-101.004
58.2836
58.2842
58.2845
58.2845
58.2842
58.2839
-13.4455
-13.4446
-13.4436
-13.4429
-13.4426
-13.4425
-56.6464
-56.6459
-56.6456
-56.6455
-56.6453
-56.6453
9.6289
9.62959
9.6301
9.63064
9.63066
9.63051
-24.7084
-24.7079
-24.7075
-24.7075
-24.7077
-24.708
-58.6539
-58.654
-58.6539
-58.6539
-58.6539
-58.6538
-5.75637
-5.7562
-5.75599
-5.75584
-5.75591
-5.75602
-31.0899
-31.0897
-31.0896
-31.0897
-31.0899
-31.09
-58.224
-58.224
-58.224
-58.2241
-58.2242
-58.2242
-13.2426
-13.2426
-13.2427
-13.243
-13.2433
-13.2435
-34.5562
-34.5561
-34.5562
-34.5565
-34.5567
-34.5568
-57.8272
-57.8272
-57.8273
-57.8274
-57.8274
-57.8275
-18.834
-18.8341
-18.8343
-18.8345
-18.8347
-18.8348
-38.6899
-38.6899
-38.6902
-38.6904
-38.6906
-38.6906
-58.9051
-58.9052
-58.9053
-58.9054
-58.9054
-58.9054
-23.1036
-23.1037
-23.1038
-23.1038
-23.1037
-23.1036
-41.2021
-41.2022
-41.2024
-41.2024
-41.2024
-41.2024
-59.626
-59.6261
-59.6261
-59.6262
-59.6262
-59.6262
-27.5413
-27.5414
-27.5414
-27.5413
-27.5412
-27.5412
-44.2181
-44.2182
-44.2182
-44.2182
-44.2181
-44.2181
-60.5784
-60.5784
-60.5784
-60.5784
-60.5784
-60.5784
-42.4046
-42.4047
-42.4047
-42.4047
-42.4046
-42.4046
-52.6769
-52.677
-52.677
-52.6769
-52.6769
-52.6768
-63.2692
-63.2692
-63.2692
-63.2692
-63.2692
-63.2691
-41.6518
-41.6519
-41.6519
-41.6518
-41.6517
-41.6517
-52.1437
-52.1438
-52.1437
-52.1437
-52.1436
-52.1436
-63.0721
-63.0721
-63.072
-63.072
-63.072
-63.072
-40.6058
-40.6058
-40.6057
-40.6057
-40.6056
-40.6055
-51.4147
-51.4147
-51.4146
-51.4146
-51.4145
-51.4145
-62.8067
-62.8067
-62.8067
-62.8066
-62.8066
-62.8066
-39.1321
-39.1321
-39.1321
-39.132
-39.132
-39.1319
-50.4205
-50.4204
-50.4204
-50.4204
-50.4203
-50.4203
-62.4559
-62.4558
-62.4558
-62.4558
-62.4558
-62.4558
-37.0419
-37.0419
-37.0419
-37.0418
-37.0418
-37.0417
-49.0805
-49.0805
-49.0805
-49.0805
-49.0804
-49.0804
-62.0041
-62.0041
-62.0041
-62.0041
-62.0041
-62.0041
-34.1229
-34.1229
-34.1229
-34.1228
-34.1228
-34.1227
-47.3156
-47.3156
-47.3156
-47.3155
-47.3155
-47.3155
-61.4449
-61.4449
-61.4449
-61.4448
-61.4448
-61.4448
-44.0996
-44.0996
-44.0996
-44.0996
-44.0996
-44.0995
-53.9267
-53.9267
-53.9267
-53.9266
-53.9266
-53.9266
-63.7552
-63.7552
-63.7552
-63.7552
-63.7552
-63.7552
-44.0964
-44.0964
-44.0964
-44.0964
-44.0964
-44.0963
-53.9246
-53.9246
-53.9246
-53.9246
-53.9246
-53.9246
-63.7545
-63.7545
-63.7545
-63.7545
-63.7545
-63.7545
-44.0897
-44.0897
-44.0897
-44.0897
-44.0897
-44.0896
-53.9203
-53.9203
-53.9203
-53.9203
-53.9203
-53.9202
-63.753
-63.753
-63.753
-63.753
-63.7529
-63.7529
-44.079
-44.079
-44.0789
-44.0789
-44.0789
-44.0789
-53.9133
-53.9133
-53.9133
-53.9133
-53.9133
-53.9133
-63.7505
-63.7505
-63.7505
-63.7505
-63.7505
-63.7504
-44.0632
-44.0632
-44.0632
-44.0631
-44.0631
-44.0631
-53.9029
-53.9029
-53.9029
-53.9029
-53.9029
-53.9028
-63.7467
-63.7467
-63.7467
-63.7467
-63.7467
-63.7467
-44.0407
-44.0407
-44.0407
-44.0407
-44.0406
-44.0406
-53.8877
-53.8877
-53.8877
-53.8876
-53.8876
-53.8876
-63.741
-63.741
-63.741
-63.741
-63.741
-63.741
-44.0085
-44.0085
-44.0085
-44.0085
-44.0085
-44.0085
-53.8651
-53.8651
-53.8651
-53.8651
-53.8651
-53.8651
-63.7324
-63.7324
-63.7324
-63.7324
-63.7324
-63.7325
-43.9611
-43.9611
-43.9611
-43.9611
-43.9611
-43.9611
-53.8303
-53.8303
-53.8303
-53.8303
-53.8303
-53.8303
-63.7188
-63.7188
-63.7188
-63.7188
-63.7188
-63.7188
-43.887
-43.887
-43.887
-43.887
-43.8871
-43.8871
-53.7738
-53.7738
-53.7738
-53.7738
-53.7738
-53.7738
-63.6962
-63.6962
-63.6962
-63.6962
-63.6962
-63.6962
-43.7623
-43.7623
-43.7623
-43.7623
-43.7623
-43.7623
-53.6771
-53.6771
-53.6771
-53.6771
-53.6771
-53.6771
-63.6567
-63.6567
-63.6567
-63.6567
-63.6566
-63.6566
-43.5396
-43.5396
-43.5396
-43.5396
-43.5396
-43.5395
-53.5047
-53.5047
-53.5047
-53.5047
-53.5046
-53.5046
-63.5857
-63.5857
-63.5857
-63.5857
-63.5857
-63.5856
-43.133
-43.1331
-43.133
-43.133
-43.1329
-43.1329
-53.1902
-53.1902
-53.1901
-53.1901
-53.19
-53.19
-63.4582
-63.4581
-63.4581
-63.4581
-63.4581
-63.4581
)
;

boundaryField
{
    seabed_topleft_surface
    {
        type            calculated;
        value           nonuniform List<scalar> 
72
(
35132
35132
35132
35132
35132
35132
33699.7
33699.7
33699.7
33699.6
33699.6
33699.6
30983.9
30983.9
30983.9
30983.9
30983.9
30983.9
24117
24117
24116.9
24116.9
24116.9
24116.9
8871.69
8871.67
8871.66
8871.65
8871.63
8871.6
582.363
582.366
582.365
582.365
582.369
582.373
100.849
100.85
100.851
100.852
100.852
100.853
86.9934
86.9923
86.9926
86.993
86.9931
86.993
71.7779
71.7777
71.7774
71.7774
71.7779
71.7784
58.9153
58.9159
58.9158
58.9157
58.9158
58.916
51.1345
51.1345
51.1341
51.1337
51.1333
51.133
46.8434
46.843
46.8427
46.8425
46.8422
46.842
)
;
    }
    seabed_topright_surface
    {
        type            calculated;
        value           nonuniform List<scalar> 
72
(
0.0839135
0.0838432
0.0838181
0.0838172
0.0838284
0.0838397
0.0885703
0.0885274
0.0885173
0.0885307
0.088556
0.0885881
0.0983117
0.0982847
0.0982834
0.0983009
0.0983284
0.0983602
0.113342
0.113332
0.113336
0.113353
0.113378
0.113406
0.134018
0.134024
0.134033
0.13405
0.134071
0.134093
0.160725
0.160748
0.160763
0.16078
0.160798
0.160814
0.193725
0.193763
0.193785
0.193801
0.193814
0.193821
0.232886
0.23294
0.232964
0.232974
0.232976
0.232969
0.277284
0.277342
0.277361
0.277357
0.27734
0.277315
0.324479
0.324526
0.324532
0.32451
0.324474
0.324433
0.369599
0.369629
0.369617
0.369578
0.369529
0.36948
0.405191
0.405188
0.405159
0.405114
0.405063
0.405014
)
;
    }
    breakwater_top_surface
    {
        type            calculated;
        value           nonuniform List<scalar> 
36
(
-37.4996
-37.4997
-37.4997
-37.4997
-37.4996
-37.4996
-36.7468
-36.7469
-36.7469
-36.7468
-36.7467
-36.7467
-35.7008
-35.7008
-35.7007
-35.7007
-35.7006
-35.7005
-34.2271
-34.2271
-34.2271
-34.227
-34.227
-34.2269
-32.1369
-32.1369
-32.1369
-32.1368
-32.1368
-32.1367
-29.2179
-29.2179
-29.2179
-29.2178
-29.2178
-29.2177
)
;
    }
    breakwater_left_surface
    {
        type            calculated;
        value           nonuniform List<scalar> 
24
(
41.9384
41.938
41.9377
41.9375
41.9372
41.937
27.4955
27.4956
27.4956
27.4955
27.4954
27.4952
10.6159
10.6162
10.6163
10.6163
10.6163
10.6161
-7.81753
-7.81751
-7.8175
-7.8175
-7.81754
-7.81762
)
;
    }
    breakwater_right_surface
    {
        type            calculated;
        value           nonuniform List<scalar> 
24
(
-4.49981
-4.49981
-4.49984
-4.49989
-4.49994
-4.49999
-14.2744
-14.2744
-14.2745
-14.2745
-14.2746
-14.2746
-24.011
-24.011
-24.011
-24.0111
-24.0111
-24.0111
-33.7181
-33.7181
-33.7181
-33.7181
-33.7181
-33.7181
)
;
    }
    water_front_surface
    {
        type            calculated;
        value           nonuniform List<scalar> 
186
(
30210.1
28777.8
26062.1
19195.1
5414.78
261.434
95.4994
82.0659
66.8559
53.9934
46.2127
41.9215
21601.6
20277.9
18080
9341.13
-48.5855
-49.5851
42.5345
53.444
46.0685
37.7269
31.3846
27.479
14132
13351
12257.7
1825.48
-23.5004
19.7055
32.1516
29.6345
26.6133
19.5624
14.2704
10.5998
6894.16
8093.51
8222.48
-254.814
-42.0634
32.1793
22.2669
13.5002
6.90578
0.594595
-4.11359
-7.8334
-4.83794
-4.83329
-4.82354
-4.80851
-4.78784
-4.76113
-4.72813
-4.68897
-4.64457
-4.59738
-4.55226
-4.51666
-14.6518
-14.6471
-14.6374
-14.6222
-14.6012
-14.5737
-14.5393
-14.4975
-14.4489
-14.3953
-14.3401
-14.2909
-24.4695
-24.465
-24.4557
-24.441
-24.4204
-24.3929
-24.3573
-24.3122
-24.256
-24.1874
-24.1099
-24.0271
-34.2908
-34.2868
-34.2784
-34.265
-34.2458
-34.2195
-34.1838
-34.1358
-34.0717
-33.9877
-33.8775
-33.734
2314.65
-18044.7
-26174.6
7238.31
-10736.9
-8969.77
6130.7
18.9658
-536.551
660.804
-156.812
-224.801
-41.7227
-104.093
-101.006
58.2836
-13.4455
-56.6464
9.6289
-24.7084
-58.6539
-5.75637
-31.0899
-58.224
-13.2426
-34.5562
-57.8272
-18.834
-38.6899
-58.9051
-23.1036
-41.2021
-59.626
-27.5413
-44.2181
-60.5784
-42.4046
-52.6769
-63.2692
-41.6518
-52.1437
-63.0721
-40.6058
-51.4147
-62.8067
-39.1321
-50.4205
-62.4559
-37.0419
-49.0805
-62.0041
-34.1229
-47.3156
-61.4449
-44.0996
-53.9267
-63.7552
-44.0964
-53.9246
-63.7545
-44.0897
-53.9203
-63.753
-44.079
-53.9133
-63.7505
-44.0632
-53.9029
-63.7467
-44.0407
-53.8877
-63.741
-44.0085
-53.8651
-63.7324
-43.9611
-53.8303
-63.7188
-43.887
-53.7738
-63.6962
-43.7623
-53.6771
-63.6567
-43.5396
-53.5047
-63.5857
-43.133
-53.1902
-63.4582
)
;
    }
    water_back_surface
    {
        type            calculated;
        value           nonuniform List<scalar> 
186
(
30210.1
28777.8
26062
19195
5414.7
261.448
95.5032
82.0654
66.8565
53.9942
46.2111
41.9202
21601.6
20277.9
18080
9341.06
-48.5559
-49.5848
42.5306
53.4414
46.0697
37.7264
31.3833
27.4787
14132.1
13351.1
12257.5
1825.42
-23.5014
19.7069
32.1479
29.6363
26.6116
19.5627
14.2708
10.5999
6894.16
8093.44
8222.43
-254.878
-42.0604
32.1798
22.2676
13.5017
6.90452
0.594707
-4.11236
-7.83349
-4.83802
-4.83327
-4.8235
-4.80845
-4.78776
-4.76104
-4.72803
-4.68889
-4.64454
-4.59742
-4.55238
-4.51684
-14.6518
-14.647
-14.6372
-14.6221
-14.6011
-14.5736
-14.5392
-14.4975
-14.449
-14.3954
-14.3404
-14.2911
-24.4695
-24.4649
-24.4556
-24.4409
-24.4203
-24.3928
-24.3573
-24.3122
-24.2561
-24.1876
-24.1101
-24.0273
-34.2907
-34.2867
-34.2782
-34.2649
-34.2457
-34.2194
-34.1838
-34.1358
-34.0719
-33.9879
-33.8776
-33.734
2314.55
-18044.7
-26174.8
7238.25
-10736.9
-8969.93
6130.76
18.9915
-536.561
660.8
-156.807
-224.795
-41.7249
-104.093
-101.004
58.2839
-13.4425
-56.6453
9.63051
-24.708
-58.6538
-5.75602
-31.09
-58.2242
-13.2435
-34.5568
-57.8275
-18.8348
-38.6906
-58.9054
-23.1036
-41.2024
-59.6262
-27.5412
-44.2181
-60.5784
-42.4046
-52.6768
-63.2691
-41.6517
-52.1436
-63.072
-40.6055
-51.4145
-62.8066
-39.1319
-50.4203
-62.4558
-37.0417
-49.0804
-62.0041
-34.1227
-47.3155
-61.4448
-44.0995
-53.9266
-63.7552
-44.0963
-53.9246
-63.7545
-44.0896
-53.9202
-63.7529
-44.0789
-53.9133
-63.7504
-44.0631
-53.9028
-63.7467
-44.0406
-53.8876
-63.741
-44.0085
-53.8651
-63.7325
-43.9611
-53.8303
-63.7188
-43.8871
-53.7738
-63.6962
-43.7623
-53.6771
-63.6566
-43.5395
-53.5046
-63.5856
-43.1329
-53.19
-63.4581
)
;
    }
    water_left_surface
    {
        type            calculated;
        value           nonuniform List<scalar> 
42
(
30227
30227
30227
30227
30227
30227
21618.1
21618.1
21618.1
21618.1
21618.1
21618.1
14148.2
14148.2
14148.2
14148.2
14148.2
14148.2
6910.04
6910.04
6910.04
6910.05
6910.04
6910.04
2314.65
2314.61
2314.6
2314.58
2314.57
2314.55
-18044.7
-18044.7
-18044.7
-18044.7
-18044.7
-18044.7
-26174.6
-26174.7
-26174.8
-26174.8
-26174.8
-26174.8
)
;
    }
    water_right_surface
    {
        type            calculated;
        value           nonuniform List<scalar> 
42
(
-4.82109
-4.82116
-4.82118
-4.82118
-4.82117
-4.82116
-14.6353
-14.6354
-14.6354
-14.6354
-14.6353
-14.6353
-24.4533
-24.4534
-24.4534
-24.4534
-24.4533
-24.4533
-34.2749
-34.275
-34.275
-34.2749
-34.2749
-34.2749
-44.0996
-44.0996
-44.0996
-44.0996
-44.0996
-44.0995
-53.9267
-53.9267
-53.9267
-53.9266
-53.9266
-53.9266
-63.7552
-63.7552
-63.7552
-63.7552
-63.7552
-63.7552
)
;
    }
    water_top_surface
    {
        type            calculated;
        value           nonuniform List<scalar> 
180
(
-68658.7
-68658.7
-68658.7
-68658.7
-68658.7
-68658.7
-58619.2
-58619.2
-58619.2
-58619.2
-58619.2
-58619.3
-6110.62
-6110.65
-6110.63
-6110.64
-6110.66
-6110.75
-144.946
-144.949
-144.947
-144.944
-144.937
-144.926
-89.4539
-89.4527
-89.4536
-89.4543
-89.454
-89.4506
-70.2656
-70.2656
-70.2657
-70.2657
-70.2658
-70.2657
-68.6891
-68.6892
-68.6892
-68.6892
-68.6892
-68.6892
-68.7005
-68.7005
-68.7005
-68.7004
-68.7004
-68.7003
-68.67
-68.67
-68.67
-68.67
-68.67
-68.67
-68.67
-68.67
-68.67
-68.67
-68.67
-68.67
-68.67
-68.67
-68.67
-68.67
-68.67
-68.67
-68.67
-68.67
-68.67
-68.67
-68.67
-68.67
-68.67
-68.67
-68.67
-68.67
-68.67
-68.67
-68.67
-68.67
-68.67
-68.67
-68.67
-68.67
-68.67
-68.67
-68.67
-68.67
-68.67
-68.67
-68.67
-68.67
-68.67
-68.67
-68.67
-68.67
-68.67
-68.67
-68.67
-68.67
-68.67
-68.67
-68.67
-68.67
-68.67
-68.67
-68.67
-68.67
-68.67
-68.67
-68.67
-68.67
-68.67
-68.67
-68.67
-68.67
-68.67
-68.67
-68.67
-68.67
-68.67
-68.67
-68.67
-68.67
-68.67
-68.67
-68.67
-68.67
-68.67
-68.67
-68.67
-68.67
-68.67
-68.67
-68.67
-68.67
-68.67
-68.67
-68.67
-68.67
-68.67
-68.67
-68.67
-68.67
-68.67
-68.67
-68.67
-68.67
-68.67
-68.67
-68.67
-68.67
-68.67
-68.67
-68.67
-68.67
-68.67
-68.67
-68.67
-68.67
-68.67
-68.67
-68.67
-68.67
-68.67
-68.67
-68.67
-68.67
-68.67
-68.67
-68.67
-68.67
-68.67
-68.67
-68.67
-68.67
-68.67
-68.67
-68.67
-68.67
)
;
    }
}


// ************************************************************************* //
