/*--------------------------------*- C++ -*----------------------------------*\
| =========                 |                                                 |
| \\      /  F ield         | OpenFOAM: The Open Source CFD Toolbox           |
|  \\    /   O peration     | Version:  v1612+                                |
|   \\  /    A nd           | Web:      www.OpenFOAM.com                      |
|    \\/     M anipulation  |                                                 |
\*---------------------------------------------------------------------------*/
FoamFile
{
    version     2.0;
    format      ascii;
    class       surfaceScalarField;
    location    "0.85";
    object      phi;
}
// * * * * * * * * * * * * * * * * * * * * * * * * * * * * * * * * * * * * * //

dimensions      [0 3 -1 0 0 0 0];

internalField   nonuniform List<scalar> 
2916
(
-2.84466e-07
0.163978
-0.163977
-7.04922e-07
0.163978
-0.163978
-9.83592e-07
0.163978
-0.163978
-8.64435e-07
0.163978
-0.163978
-3.97927e-07
0.163978
-0.163978
0.163978
-0.163978
4.19536e-07
0.420432
-0.256455
7.17099e-07
0.420434
-0.256456
9.65477e-07
0.420434
-0.256455
9.58548e-07
0.420433
-0.256455
5.51745e-07
0.420433
-0.256454
0.420431
-0.256453
9.0335e-07
0.8598
-0.439369
1.80911e-06
0.859802
-0.439369
2.23579e-06
0.859802
-0.439368
1.98024e-06
0.859801
-0.439367
7.47603e-07
0.8598
-0.439366
0.859797
-0.439365
5.76461e-07
1.62338
-0.763585
8.60531e-07
1.62339
-0.763587
1.35169e-06
1.62339
-0.763587
1.70259e-06
1.62339
-0.763588
1.02741e-06
1.62339
-0.763588
1.62338
-0.763586
5.40163e-06
2.93572
-1.31234
-2.06189e-06
2.93572
-1.31232
-8.04406e-06
2.93572
-1.31233
-1.20246e-05
2.93572
-1.31233
-1.00546e-05
2.93572
-1.31234
2.93572
-1.31234
2.68776e-05
3.21895
-0.283262
1.0252e-05
3.21896
-0.283224
-1.1865e-05
3.21897
-0.283228
-2.24919e-05
3.21897
-0.283233
-3.4604e-05
3.21896
-0.283229
3.21895
-0.28327
4.80676e-06
2.08544
1.13351
-1.14551e-05
2.08538
1.13359
-3.80275e-05
2.08536
1.13363
-5.215e-05
2.08535
1.13363
-6.81613e-05
2.08534
1.13364
2.08532
1.13356
9.95058e-05
1.15495
0.930391
6.63739e-05
1.15492
0.930486
4.54459e-05
1.15487
0.930509
2.51215e-05
1.15486
0.930521
1.56579e-06
1.15485
0.930524
1.15487
0.930457
6.64243e-05
0.66264
0.492236
6.90751e-05
0.662682
0.492227
7.45923e-05
0.662666
0.492195
6.40096e-05
0.662663
0.492194
3.36069e-05
0.662664
0.492211
0.662673
0.492228
3.32793e-05
0.38675
0.275843
8.84534e-05
0.386819
0.275811
0.000118217
0.386825
0.275813
0.000114076
0.386821
0.275845
7.33074e-05
0.386809
0.275895
0.386793
0.275957
4.1432e-05
0.188662
0.198048
9.41619e-05
0.188695
0.19808
0.000114153
0.188693
0.198115
0.000105104
0.188681
0.198151
6.60144e-05
0.188664
0.198187
0.18864
0.198221
4.22576e-05
0.18863
8.16664e-05
0.188659
9.90412e-05
0.188677
9.20374e-05
0.188689
5.89955e-05
0.188697
0.1887
-1.06297e-06
0.0800631
-0.244039
-2.3314e-06
0.0800632
-0.24404
-2.96876e-06
0.0800623
-0.24404
-2.57508e-06
0.080061
-0.24404
-1.28733e-06
0.0800598
-0.244039
0.0800593
-0.244039
-2.62516e-07
0.24198
-0.418372
-4.66193e-07
0.24198
-0.418372
-4.03896e-07
0.241979
-0.418372
-3.48863e-07
0.241977
-0.41837
-5.24604e-07
0.241975
-0.418369
0.241973
-0.418368
1.36923e-06
0.554664
-0.752054
2.70731e-06
0.554664
-0.752054
3.67501e-06
0.554661
-0.752052
3.5329e-06
0.554659
-0.752049
1.92649e-06
0.554656
-0.752046
0.554654
-0.752043
1.98651e-06
1.1068
-1.31572
2.80782e-06
1.1068
-1.31572
3.53829e-06
1.1068
-1.31572
2.79207e-06
1.10679
-1.31572
7.54752e-07
1.10679
-1.31572
1.10679
-1.31572
-7.52924e-08
2.32306
-2.5286
-1.40997e-06
2.32305
-2.52857
-3.03369e-06
2.32304
-2.52857
-7.33307e-06
2.32304
-2.52858
-2.07367e-05
2.32306
-2.52859
2.32302
-2.5286
1.01642e-05
1.32282
0.716961
-2.83718e-05
1.32272
0.717147
-8.6192e-05
1.32272
0.717135
-9.8213e-05
1.3227
0.717127
-0.000162512
1.32275
0.717146
1.32264
0.716943
-4.48429e-05
0.696949
1.75943
-5.77056e-05
0.696797
1.75952
6.5921e-06
0.696766
1.75952
6.04195e-05
0.696728
1.75955
0.000101537
0.696731
1.75962
0.696768
1.75953
0.000156736
0.528789
1.09838
0.000170836
0.528768
1.0985
0.000194294
0.528717
1.09854
0.000162436
0.5287
1.09858
9.75971e-05
0.528715
1.0986
0.528777
1.09854
7.7732e-05
0.377063
0.643876
8.40064e-05
0.377083
0.643911
2.37103e-05
0.377082
0.643896
-5.02429e-05
0.377092
0.643879
-7.91092e-05
0.377107
0.643851
0.37714
0.643791
-5.60326e-06
0.226875
0.426038
-5.40454e-05
0.226932
0.42601
-0.000109364
0.226932
0.426017
-0.000134748
0.226918
0.426045
-0.000113799
0.226902
0.426083
0.22688
0.426107
-5.5171e-05
0.106717
0.318272
-5.27232e-05
0.106737
0.318277
-4.61266e-05
0.106725
0.318318
-3.87898e-05
0.106699
0.318365
-2.61167e-05
0.106665
0.318414
0.106623
0.318454
8.70882e-06
0.295343
5.07031e-05
0.295357
8.40078e-05
0.295371
9.2257e-05
0.295381
6.8053e-05
0.295387
0.295391
-1.51891e-06
-0.0716374
-0.1724
-2.81648e-06
-0.0716385
-0.1724
-3.06134e-06
-0.0716398
-0.1724
-2.26147e-06
-0.0716413
-0.172399
-9.45918e-07
-0.071642
-0.172399
-0.0716418
-0.172398
-2.53034e-07
-0.0541866
-0.435822
-6.49812e-07
-0.0541881
-0.435822
-4.39371e-07
-0.0541902
-0.435821
2.13015e-07
-0.0541924
-0.43582
5.39197e-07
-0.0541931
-0.435818
-0.0541921
-0.435817
3.77498e-06
0.129306
-0.93555
3.78277e-06
0.12931
-0.935552
3.71915e-06
0.129309
-0.935551
3.21651e-06
0.129307
-0.935548
2.8088e-06
0.129306
-0.935545
0.129308
-0.93554
3.07939e-06
0.55671
-1.74313
3.33023e-06
0.556715
-1.74313
3.04887e-06
0.556713
-1.74313
2.45198e-06
0.55671
-1.74312
1.39438e-06
0.55671
-1.74312
0.556714
-1.74312
2.99501e-05
0.149845
-2.12177
2.60333e-05
0.149871
-2.12172
1.82435e-05
0.149855
-2.1217
1.40948e-05
0.149838
-2.1217
-1.60191e-05
0.149854
-2.12171
0.149832
-2.12173
-8.39393e-05
-0.597925
1.46482
-9.0258e-05
-0.597941
1.46497
-3.10854e-05
-0.597942
1.46488
-1.09476e-05
-0.597925
1.46487
-2.58804e-05
-0.597876
1.46489
-0.597892
1.46464
3.68625e-06
-0.279633
1.44114
4.40274e-05
-0.27966
1.44119
0.000165766
-0.279673
1.44114
0.000228223
-0.279645
1.44121
0.000208981
-0.279578
1.44133
-0.279488
1.44133
-1.04895e-05
0.0292306
0.789517
9.88186e-05
0.0291794
0.789556
0.000138307
0.0291821
0.789643
0.000115976
0.029238
0.789708
7.69252e-05
0.029331
0.789725
0.0294478
0.789682
4.6993e-05
0.0748263
0.59824
-4.93133e-06
0.0747901
0.598359
-0.000103722
0.0747985
0.598379
-0.000162419
0.0748287
0.598349
-0.000133486
0.0748747
0.598281
0.074941
0.598165
-5.60989e-05
0.0701722
0.430755
-0.000178063
0.070169
0.430755
-0.000266877
0.0701652
0.430743
-0.000283975
0.07016
0.430735
-0.000204967
0.0701564
0.430728
0.0701563
0.430689
-8.69605e-05
0.0387991
0.349731
-0.000134709
0.0387974
0.349697
-0.000148812
0.0387834
0.349716
-0.000133073
0.0387629
0.34975
-8.37169e-05
0.0387386
0.349787
0.0387136
0.349815
1.43126e-05
0.334126
4.60426e-05
0.334122
7.0522e-05
0.33413
7.61126e-05
0.33414
5.52983e-05
0.334148
0.334161
4.66543e-07
-0.299046
0.126645
1.83102e-07
-0.299046
0.126646
2.20531e-07
-0.299047
0.126647
7.04301e-07
-0.299047
0.126647
8.03265e-07
-0.299046
0.126647
-0.299045
0.126647
1.23982e-06
-0.516122
-0.218747
4.53291e-07
-0.516121
-0.218747
2.37641e-07
-0.516121
-0.218747
4.56855e-07
-0.516121
-0.218746
9.49149e-07
-0.516119
-0.218745
-0.516116
-0.218744
2.01479e-06
-0.305035
-1.14664
4.22632e-07
-0.305028
-1.14664
-1.38899e-06
-0.305027
-1.14664
-2.20079e-06
-0.305027
-1.14664
-8.65094e-07
-0.305026
-1.14664
-0.305022
-1.14664
2.06964e-06
-0.130166
-1.918
3.45189e-06
-0.13016
-1.918
5.76547e-06
-0.130159
-1.918
9.12106e-06
-0.130158
-1.918
7.91355e-06
-0.130151
-1.918
-0.130141
-1.918
1.15009e-05
-1.70695
-0.544999
7.07957e-07
-1.70695
-0.544919
5.96978e-06
-1.70695
-0.544917
1.32974e-05
-1.70692
-0.544953
-4.1708e-06
-1.70684
-0.545007
-1.70676
-0.545117
-2.17913e-05
-1.08843
0.846315
-2.92862e-05
-1.0884
0.846423
-7.53996e-06
-1.08843
0.846348
-1.98511e-06
-1.08841
0.846355
1.77226e-05
-1.08837
0.846384
-1.08836
0.846249
-5.59006e-05
-0.347954
0.700726
2.86919e-05
-0.347985
0.700702
3.82657e-05
-0.347985
0.700687
1.41089e-05
-0.347939
0.700756
2.20693e-05
-0.347895
0.700855
-0.347899
0.700892
-4.16592e-05
-0.167313
0.608918
1.17525e-05
-0.167391
0.608917
2.53132e-05
-0.167353
0.608991
4.33062e-05
-0.167291
0.609037
5.77523e-05
-0.167237
0.609051
-0.167196
0.609037
1.71405e-05
-0.0439318
0.474846
-7.93785e-06
-0.0439498
0.474938
-1.71307e-05
-0.0439126
0.474943
4.48495e-07
-0.0438728
0.474911
2.02622e-05
-0.0438364
0.474859
-0.0437983
0.474788
-4.09691e-05
-0.00136398
0.388227
-0.000120953
-0.00136109
0.388242
-0.000160431
-0.00135097
0.388222
-0.000151578
-0.00134385
0.3882
-9.2237e-05
-0.00133848
0.388174
-0.00132862
0.38813
-5.01263e-05
0.00680899
0.341605
-0.000101769
0.00680668
0.341583
-0.000123316
0.00680022
0.34159
-0.000113725
0.00679272
0.341608
-7.25356e-05
0.00678485
0.341627
0.00677799
0.341638
1.10554e-05
0.340925
2.16066e-05
0.34092
2.79029e-05
0.340926
2.76589e-05
0.340934
1.82726e-05
0.340944
0.340958
4.42883e-07
-0.000125478
0.000125035
1.34668e-07
-0.000125494
0.000125018
-6.41204e-09
-0.000125518
0.000125007
-5.60429e-08
-0.000125545
0.000124981
-4.79715e-08
-0.00012557
0.000124958
-0.000125592
0.000124944
2.6189e-07
-0.000256351
0.000130104
1.31033e-08
-0.000256369
0.000130093
-7.85873e-08
-0.000256396
0.000130077
-1.38481e-07
-0.00025641
0.000130063
-1.89136e-07
-0.000256417
0.000130045
-0.000256429
0.000130034
1.51217e-07
-0.000396765
0.000139838
-4.43619e-08
-0.000396795
0.000139836
-1.16927e-07
-0.000396827
0.000139818
-1.61994e-07
-0.000396837
0.000139811
-1.89096e-07
-0.000396837
0.000139797
-0.000396846
0.00013979
-5.17407e-09
-0.000550124
0.000153015
-1.03923e-07
-0.000550166
0.000153018
-1.36633e-07
-0.0005502
0.000153006
-1.54475e-07
-0.000550203
0.000153004
-1.60848e-07
-0.000550195
0.000152996
-0.000550195
0.000152996
-1.75959e-07
-0.000717231
0.000167075
-1.45158e-07
-0.000717246
0.000167067
-1.13514e-07
-0.00071728
0.000167057
-1.00476e-07
-0.00071726
0.00016706
-8.99924e-08
-0.000717235
0.000167058
-0.00071722
0.000167064
-3.34356e-07
-0.000893789
0.000176896
-1.21204e-07
-0.000893762
0.000176852
-3.9137e-08
-0.000893761
0.000176868
1.43793e-08
-0.000893728
0.000176874
4.17554e-08
-0.00089369
0.00017689
-0.000893658
0.000176923
-4.85301e-07
-0.00106742
0.000174372
-1.0936e-07
-0.00106741
0.000174274
4.44219e-08
-0.00106736
0.000174301
1.43629e-07
-0.00106732
0.000174321
1.85642e-07
-0.00106729
0.000174364
-0.00106725
0.000174428
-5.79405e-07
-0.00121389
0.000147511
-1.43986e-07
-0.00121391
0.000147344
1.17922e-07
-0.00121388
0.000147341
2.8291e-07
-0.00121385
0.000147366
3.32226e-07
-0.00121379
0.000147423
-0.00121374
0.000147513
-5.86746e-07
-0.00128865
7.59309e-05
-8.3263e-08
-0.00128872
7.56488e-05
2.31983e-07
-0.0012887
7.56122e-05
4.29023e-07
-0.00128865
7.5637e-05
4.61164e-07
-0.00128857
7.57179e-05
-0.00128847
7.58494e-05
-5.82571e-07
-0.00121418
-7.33008e-05
-1.81519e-08
-0.00121425
-7.3753e-05
3.61732e-07
-0.00121422
-7.38049e-05
5.8531e-07
-0.00121415
-7.37429e-05
5.81283e-07
-0.00121405
-7.3587e-05
-0.00121387
-7.33626e-05
-2.61364e-07
-0.000859408
-0.000353959
2.60194e-07
-0.000859491
-0.000354043
5.38992e-07
-0.00085947
-0.00035399
6.83629e-07
-0.000859458
-0.000353865
6.28771e-07
-0.000859402
-0.000353642
-0.000859216
-0.000353291
1.40219e-07
-0.000859029
3.41524e-07
-0.000858803
3.7745e-07
-0.000858723
3.45576e-07
-0.000858671
2.84073e-07
-0.000858584
-0.000858384
2.77727e-07
-0.000124319
0.00024856
7.22649e-09
-0.000124334
0.000248547
-8.57915e-08
-0.000124363
0.000248535
-1.47689e-07
-0.000124379
0.000248528
-2.0235e-07
-0.000124399
0.000248526
-0.00012442
0.000248525
1.44208e-07
-0.000254719
0.00025952
-6.3741e-08
-0.000254736
0.000259508
-1.45926e-07
-0.000254761
0.000259498
-2.174e-07
-0.000254771
0.000259494
-3.13846e-07
-0.000254774
0.000259496
-0.000254783
0.000259496
6.37709e-08
-0.000396455
0.000280824
-9.61978e-08
-0.000396481
0.000280813
-1.68839e-07
-0.000396506
0.00028081
-2.26982e-07
-0.00039651
0.000280807
-2.96625e-07
-0.000396503
0.00028081
-0.000396505
0.00028081
-4.35456e-08
-0.000554567
0.000310704
-1.27759e-07
-0.000554589
0.000310687
-1.65243e-07
-0.000554613
0.000310687
-1.96046e-07
-0.000554603
0.000310685
-2.27917e-07
-0.000554585
0.000310686
-0.00055457
0.000310687
-1.36889e-07
-0.000732731
0.000345248
-9.41363e-08
-0.000732742
0.000345219
-9.4886e-08
-0.000732744
0.000345226
-8.74719e-08
-0.000732722
0.000345223
-8.63848e-08
-0.000732687
0.000345227
-0.000732657
0.000345233
-2.13034e-07
-0.000932624
0.000377296
-6.465e-08
-0.000932626
0.000377239
7.36412e-09
-0.00093262
0.000377248
5.84205e-08
-0.000932583
0.000377251
9.96243e-08
-0.000932533
0.000377263
-0.000932486
0.000377284
-3.16404e-07
-0.00115059
0.000393346
-4.8859e-08
-0.00115069
0.0003932
1.10629e-07
-0.00115069
0.000393199
2.26044e-07
-0.00115064
0.000393207
3.04824e-07
-0.00115056
0.000393231
-0.00115047
0.000393273
-3.03694e-07
-0.00136051
0.000358684
8.00597e-10
-0.00136066
0.000358375
1.73688e-07
-0.00136068
0.000358327
3.0991e-07
-0.00136065
0.000358332
3.98111e-07
-0.00136058
0.000358385
-0.00136049
0.000358486
-4.07651e-07
-0.00149507
0.000211914
-1.48558e-08
-0.00149539
0.000211389
2.64621e-07
-0.00149544
0.000211276
4.6815e-07
-0.0014954
0.000211282
5.46701e-07
-0.00149528
0.000211373
-0.00149508
0.000211549
-4.94251e-07
-0.00146464
-0.000102267
-1.58028e-08
-0.0014651
-0.000103122
3.67848e-07
-0.00146518
-0.000103258
6.27781e-07
-0.00146512
-0.000103155
6.85086e-07
-0.00146494
-0.00010288
-0.00146461
-0.000102442
-2.3245e-07
-0.00108109
-0.000736337
2.53394e-07
-0.00108163
-0.000736544
5.595e-07
-0.00108171
-0.000736477
7.50769e-07
-0.00108167
-0.000736249
7.65861e-07
-0.00108148
-0.000735845
-0.00108106
-0.000735184
2.71907e-07
-0.00193947
3.36492e-07
-0.0019393
2.38008e-07
-0.00193924
1.60197e-07
-0.00193917
2.28465e-07
-0.00193901
-0.00193868
2.2054e-07
-0.000117793
0.000365682
-1.87534e-08
-0.000117806
0.000365671
-1.07223e-07
-0.000117833
0.000365661
-1.62076e-07
-0.000117844
0.000365659
-2.01512e-07
-0.000117857
0.000365664
-0.000117873
0.000365666
1.18583e-07
-0.000242753
0.000383625
-6.35533e-08
-0.000242766
0.000383614
-1.46701e-07
-0.00024278
0.000383609
-2.14561e-07
-0.000242786
0.00038361
-2.93955e-07
-0.000242783
0.000383618
-0.000242784
0.000383622
5.16028e-08
-0.000381732
0.000419145
-9.94719e-08
-0.000381748
0.000419135
-1.61506e-07
-0.000381762
0.000419134
-2.16249e-07
-0.000381756
0.000419137
-2.69604e-07
-0.000381743
0.000419143
-0.000381732
0.000419148
-1.14197e-08
-0.000542118
0.000470683
-9.31305e-08
-0.000542122
0.000470672
-1.32103e-07
-0.000542127
0.000470672
-1.62973e-07
-0.000542109
0.000470673
-1.92327e-07
-0.000542082
0.000470677
-0.000542054
0.000470684
-7.64708e-08
-0.000730427
0.000533508
-5.63891e-08
-0.000730421
0.000533479
-5.44988e-08
-0.000730405
0.000533488
-5.49536e-08
-0.000730375
0.000533487
-5.96308e-08
-0.000730334
0.000533493
-0.000730292
0.000533505
-1.32066e-07
-0.000949322
0.000596546
-2.13013e-08
-0.000949333
0.000596473
3.91963e-08
-0.000949316
0.000596477
7.57546e-08
-0.000949276
0.000596483
9.82233e-08
-0.000949228
0.000596495
-0.000949186
0.00059652
-1.12368e-07
-0.00119492
0.000639578
4.46323e-08
-0.00119498
0.000639428
1.2931e-07
-0.00119498
0.000639413
1.9018e-07
-0.00119496
0.000639418
2.29521e-07
-0.00119492
0.000639437
-0.00119489
0.000639479
-1.23345e-07
-0.00146044
0.00062501
6.307e-08
-0.00146063
0.000624703
1.79045e-07
-0.00146068
0.00062463
2.57044e-07
-0.00146067
0.000624621
2.96753e-07
-0.00146061
0.000624651
-0.00146055
0.00062473
-2.75342e-07
-0.00174529
0.000497747
6.88687e-09
-0.0017457
0.000497122
2.16241e-07
-0.0017458
0.000496982
3.64366e-07
-0.00174577
0.000496988
4.01005e-07
-0.00174565
0.000497096
-0.00174547
0.000497312
-3.27399e-07
-0.00187134
2.48176e-05
7.85462e-08
-0.0018721
2.40074e-05
3.64279e-07
-0.00187222
2.38836e-05
5.44681e-07
-0.00187208
2.3984e-05
5.66244e-07
-0.00187177
2.42527e-05
-0.00187131
2.47138e-05
-2.31606e-07
-0.00161994
-0.000986701
2.56878e-07
-0.00162082
-0.000986944
5.76273e-07
-0.00162093
-0.000986818
7.71294e-07
-0.00162075
-0.000986488
7.81621e-07
-0.00162036
-0.000985933
-0.00161973
-0.000985053
2.12086e-07
-0.00355872
1.31861e-07
-0.00355897
-6.85202e-08
-0.00355896
-1.66853e-07
-0.0035588
-1.5985e-08
-0.00355849
-0.00355806
1.55486e-07
-0.000105123
0.000470242
-4.06247e-08
-0.000105135
0.000470235
-1.1047e-07
-0.000105156
0.000470221
-1.55063e-07
-0.000105162
0.000470225
-1.86835e-07
-0.000105172
0.000470234
-0.000105184
0.00047024
8.05262e-08
-0.000218429
0.000496221
-6.98118e-08
-0.000218439
0.000496214
-1.37057e-07
-0.000218447
0.000496211
-1.9448e-07
-0.000218447
0.000496217
-2.5793e-07
-0.000218442
0.000496227
-0.00021844
0.000496236
3.66514e-08
-0.00034873
0.00054889
-8.91886e-08
-0.000348734
0.000548887
-1.41873e-07
-0.00034874
0.000548887
-1.86588e-07
-0.00034873
0.000548892
-2.3218e-07
-0.000348714
0.000548901
-0.0003487
0.000548912
-1.95455e-09
-0.000507584
0.000629181
-6.39204e-08
-0.000507578
0.000629176
-1.00373e-07
-0.000507564
0.000629179
-1.30636e-07
-0.000507543
0.000629182
-1.6038e-07
-0.000507516
0.000629188
-0.000507488
0.000629198
-2.58996e-08
-0.000711537
0.000737368
-3.31609e-08
-0.000711521
0.000737355
-3.27325e-08
-0.000711495
0.000737355
-4.14577e-08
-0.000711459
0.000737355
-5.40569e-08
-0.000711421
0.00073736
-0.000711385
0.000737371
8.9323e-09
-0.00098506
0.000870196
4.3946e-08
-0.000985039
0.000870157
5.63252e-08
-0.000985009
0.00087015
5.75436e-08
-0.000984966
0.000870146
5.57382e-08
-0.000984926
0.000870147
-0.000984893
0.000870154
8.64936e-08
-0.00135393
0.00100868
1.34829e-07
-0.00135392
0.00100859
1.42476e-07
-0.0013539
0.00100856
1.40384e-07
-0.00135386
0.00100855
1.30842e-07
-0.00135382
0.00100854
-0.00135378
0.00100855
8.53683e-08
-0.00182524
0.00109661
1.7143e-07
-0.0018253
0.00109638
1.82029e-07
-0.00182529
0.00109632
1.78384e-07
-0.00182525
0.00109629
1.5993e-07
-0.0018252
0.0010963
-0.00182513
0.00109636
7.07245e-08
-0.00233458
0.0010074
2.33734e-07
-0.00233479
0.00100701
2.75372e-07
-0.00233475
0.0010069
2.81148e-07
-0.00233463
0.00100686
2.45994e-07
-0.00233443
0.0010069
-0.00233418
0.00100702
8.12767e-09
-0.00284373
0.000534482
3.16012e-07
-0.00284416
0.000534024
4.78844e-07
-0.00284404
0.000533919
5.52726e-07
-0.0028437
0.000533928
5.23945e-07
-0.00284316
0.000534019
-0.00284242
0.000534244
7.79506e-08
-0.00273159
-0.00109813
3.94292e-07
-0.00273202
-0.00109823
6.89395e-07
-0.00273197
-0.00109805
9.66698e-07
-0.00273164
-0.00109767
1.0507e-06
-0.00273096
-0.00109704
-0.00272979
-0.00109599
-6.13712e-07
-0.00628878
-8.37851e-07
-0.00629028
-9.1702e-07
-0.00629034
-9.38885e-07
-0.00628992
-6.51193e-07
-0.00628931
-0.00628884
3.24039e-06
0.826472
-0.69983
2.33378e-06
0.826476
-0.699829
1.65034e-06
0.826476
-0.699829
1.56649e-06
0.826476
-0.699829
1.64246e-06
0.826476
-0.699829
0.826476
-0.699827
8.99872e-06
1.6712
-0.844737
5.91676e-06
1.6712
-0.844725
3.91702e-06
1.6712
-0.844725
2.57275e-06
1.6712
-0.844725
2.21496e-06
1.6712
-0.844726
1.6712
-0.844722
1.28759e-05
-1.76226
9.25627e-06
-1.76224
7.58276e-06
-1.76224
7.23495e-06
-1.76224
8.29596e-06
-1.76224
-1.76222
5.56993e-06
0.221564
-1.14015
3.23841e-06
0.221566
-1.14014
1.42363e-06
0.221566
-1.14014
6.89377e-07
0.221566
-1.14014
1.45029e-06
0.221565
-1.14014
0.221566
-1.14014
2.16487e-06
1.86863
-2.4918
2.55789e-06
1.86863
-2.49179
3.7725e-06
1.86863
-2.49179
5.25858e-06
1.86863
-2.49179
6.31645e-06
1.86863
-2.49179
1.86863
-2.49178
-3.0175e-06
-4.85489
1.51555e-07
-4.85488
7.172e-06
-4.85488
1.31256e-05
-4.85488
1.51783e-05
-4.85487
-4.85484
-6.09295e-08
-1.01551
-1.27128
-1.62291e-06
-1.01551
-1.27127
-1.7567e-06
-1.01551
-1.27127
-6.19457e-07
-1.01551
-1.27127
1.72725e-07
-1.01551
-1.27127
-1.01551
-1.27126
1.33038e-06
0.311383
-3.8187
-2.40941e-06
0.311391
-3.81869
2.34967e-06
0.311388
-3.8187
9.92673e-06
0.311389
-3.8187
5.63168e-06
0.311392
-3.81869
0.311406
-3.81869
4.68588e-06
-7.08858
-3.51597e-06
-7.08857
2.73737e-06
-7.08858
1.09004e-05
-7.08859
3.3411e-06
-7.08857
-7.08856
1.36869e-06
-4.75135
1.56207
-1.52294e-06
-4.75136
1.5621
6.7814e-06
-4.75136
1.56209
1.4881e-05
-4.75136
1.56209
6.25364e-06
-4.75135
1.56209
-4.75131
1.56205
6.10592e-05
-4.32208
-4.24803
8.19878e-05
-4.32205
-4.24802
0.000101546
-4.32205
-4.24803
0.000100085
-4.32204
-4.24802
3.92811e-05
-4.32201
-4.24797
-4.32194
-4.24801
-3.43574e-05
-4.28547
-6.23509e-05
-4.28547
-7.63309e-05
-4.28547
-9.32596e-05
-4.28546
-7.23873e-05
-4.28543
-4.28538
-3.05601e-05
1.33269
-0.315589
3.42035e-05
1.3327
-0.315585
8.9861e-05
1.3327
-0.315577
0.000115929
1.3327
-0.315574
0.000109455
1.33268
-0.31558
1.33267
-0.315614
5.94276e-06
-1.13999
-1.77535
-1.62667e-05
-1.13999
-1.77532
-3.20602e-05
-1.13999
-1.77533
-1.31106e-05
-1.14001
-1.77533
1.60232e-05
-1.14002
-1.7753
-1.14
-1.77532
-1.97345e-05
-1.88992
-1.87263e-05
-1.88991
-3.01748e-05
-1.88991
-5.11919e-05
-1.8899
-4.51621e-05
-1.8899
-1.88988
-4.09881e-05
1.14927
-0.618506
6.77117e-06
1.1493
-0.61852
1.83098e-05
1.14927
-0.618526
4.84626e-05
1.14928
-0.618532
9.74314e-05
1.14929
-0.618538
1.14926
-0.618531
-3.91513e-05
-0.0064928
-0.619541
7.55767e-06
-0.0065058
-0.619549
1.80884e-05
-0.00650813
-0.619549
1.85076e-05
-0.00650203
-0.619544
4.12395e-05
-0.00649796
-0.61954
-0.00648482
-0.619532
-2.7987e-05
-0.888775
-2.31594e-05
-0.88878
-1.70171e-05
-0.888779
-1.00344e-05
-0.888778
2.78428e-07
-0.888774
-0.888759
-1.32937e-05
0.409735
-0.327508
-3.26293e-05
0.409724
-0.32752
-8.17393e-05
0.409727
-0.32752
-9.27069e-05
0.409745
-0.32751
-4.93714e-05
0.409767
-0.327495
0.409782
-0.327472
-2.36106e-05
0.177692
-0.38748
-3.37529e-05
0.177675
-0.387494
-4.09242e-05
0.177682
-0.387497
-3.33288e-05
0.177692
-0.387496
-1.00698e-05
0.177702
-0.387497
0.177721
-0.387482
-9.37602e-06
-0.568993
-1.34455e-05
-0.569003
-1.49702e-05
-0.569003
-1.43857e-05
-0.569003
-7.32735e-06
-0.569003
-0.568992
-2.36346e-05
0.443706
-0.162266
-5.7405e-05
0.443706
-0.162274
-6.17727e-05
0.443731
-0.162258
-4.16826e-05
0.443746
-0.16224
-1.75408e-05
0.443752
-0.162223
0.443749
-0.162202
-1.18372e-05
0.178424
-0.122186
-2.78892e-05
0.178417
-0.122195
-2.67103e-05
0.178424
-0.122193
-1.65371e-05
0.178428
-0.12219
-5.84688e-06
0.17843
-0.122187
0.178439
-0.122177
-2.65868e-06
-0.241246
-5.50223e-06
-0.241251
-4.90689e-06
-0.24125
-3.1678e-06
-0.241249
-1.47455e-06
-0.241248
-0.241243
-2.5593e-05
0.34645
-0.0338443
-1.16026e-05
0.346484
-0.0338435
1.62798e-05
0.34649
-0.0338366
3.55388e-05
0.346483
-0.0338334
3.50946e-05
0.346469
-0.0338323
0.34645
-0.0338273
-2.30693e-05
0.270374
-0.0460892
-1.64327e-05
0.270373
-0.0460924
-2.67442e-06
0.270374
-0.04609
7.53778e-06
0.270372
-0.0460887
1.08841e-05
0.270368
-0.0460883
0.27037
-0.0460839
-4.19974e-06
-0.11627
-3.13169e-06
-0.116273
-1.15078e-06
-0.116272
4.1991e-07
-0.116272
1.13751e-06
-0.116271
-0.116268
-2.84831e-06
0.321465
0.0329134
9.8277e-06
0.321471
0.0329134
2.16314e-05
0.321466
0.0329095
2.82535e-05
0.32146
0.0329033
2.64157e-05
0.321451
0.032896
0.321439
0.0328919
-2.82055e-06
0.266112
0.00926475
4.69349e-06
0.266111
0.00926406
9.54189e-06
0.26611
0.00926442
1.2064e-05
0.266108
0.00926343
1.09937e-05
0.266105
0.00926145
0.266105
0.00926298
-6.4877e-07
-0.0411229
6.78706e-07
-0.041124
1.60506e-06
-0.0411241
2.07245e-06
-0.0411244
1.81152e-06
-0.0411248
-0.0411235
2.21974e-06
0.281734
0.0927828
-8.35868e-06
0.28173
0.0927818
-1.72556e-05
0.281731
0.0927808
-1.79281e-05
0.281736
0.0927797
-1.09126e-05
0.281741
0.0927784
0.281743
0.0927775
1.01631e-06
0.244964
0.0460372
-4.49191e-07
0.244962
0.0460372
-2.08536e-06
0.244963
0.0460373
-1.91701e-06
0.244965
0.0460371
-8.17615e-07
0.244966
0.0460367
0.244969
0.0460366
7.23239e-07
-0.00317607
3.46515e-07
-0.00317677
-5.80852e-08
-0.00317684
-1.02762e-07
-0.00317691
6.37274e-08
-0.003177
-0.00317642
-1.64854e-06
0.239294
0.194419
-8.10471e-06
0.239291
0.194418
-1.2347e-05
0.239292
0.194419
-1.32619e-05
0.239294
0.194421
-9.94784e-06
0.239297
0.194423
0.239299
0.194425
1.07596e-06
0.199745
0.0855863
-4.9095e-07
0.199745
0.0855856
-1.70652e-06
0.199745
0.0855858
-2.0328e-06
0.199746
0.0855859
-1.18437e-06
0.199746
0.0855861
0.199748
0.0855865
2.20578e-07
0.0171214
-2.62321e-07
0.0171211
-5.64784e-07
0.017121
-6.22264e-07
0.017121
-3.82706e-07
0.017121
0.0171211
1.54759e-06
0.00834946
-0.0314555
0.0231045
7.23758e-07
0.00834932
-0.0314553
0.0231043
3.99818e-07
0.00834928
-0.0314554
0.0231042
1.83732e-07
0.00834926
-0.0314555
0.0231041
-1.10677e-08
0.00834924
-0.0314556
0.023104
0.00834922
-0.031456
0.023104
1.01887e-06
0.0142489
-0.0217061
0.0158046
5.15046e-07
0.0142487
-0.0217061
0.0158043
3.14364e-07
0.0142486
-0.0217061
0.0158042
9.31824e-08
0.0142486
-0.0217063
0.0158042
-1.87525e-07
0.0142486
-0.0217064
0.0158041
0.0142486
-0.0217068
0.0158042
3.42756e-07
-0.00764465
0.0056711
2.2972e-07
-0.00764467
0.00567101
1.64925e-07
-0.00764465
0.00567097
4.04685e-08
-0.00764469
0.00567094
-1.47879e-07
-0.00764474
0.00567092
-0.00764493
0.00567094
1.33449e-06
0.0124296
-0.0438882
5.55245e-07
0.0124294
-0.0438883
2.26221e-07
0.0124294
-0.0438885
-1.0939e-07
0.0124294
-0.0438887
-5.91753e-07
0.0124294
-0.043889
0.0124294
-0.0438894
7.68533e-07
0.0204102
-0.0296904
2.846e-07
0.02041
-0.0296904
9.67337e-08
0.02041
-0.0296905
-2.51328e-07
0.0204099
-0.0296907
-7.8554e-07
0.0204099
-0.0296908
0.02041
-0.0296911
2.59643e-07
-0.0100818
1.7854e-07
-0.0100818
1.10795e-07
-0.0100818
-9.11372e-08
-0.0100819
-3.87956e-07
-0.010082
-0.0100821
1.11137e-06
0.018337
-0.0622287
1.92043e-07
0.0183368
-0.0622289
-2.05993e-07
0.0183368
-0.0622291
-6.34434e-07
0.0183368
-0.0622295
-1.06821e-06
0.0183368
-0.0622298
0.0183369
-0.0622302
5.90273e-07
0.0289081
-0.0402652
5.54553e-08
0.0289079
-0.0402651
-1.73987e-07
0.0289079
-0.0402653
-5.81127e-07
0.0289079
-0.0402654
-1.11432e-06
0.0289079
-0.0402656
0.0289081
-0.0402658
1.67308e-07
-0.0129712
3.84075e-08
-0.0129711
-5.2892e-08
-0.0129712
-2.71593e-07
-0.0129713
-5.47557e-07
-0.0129714
-0.0129715
6.03688e-07
0.0272952
-0.0895271
-3.86129e-07
0.027295
-0.0895273
-8.76803e-07
0.027295
-0.0895278
-1.22984e-06
0.0272951
-0.0895283
-1.41836e-06
0.0272952
-0.0895288
0.0272953
-0.0895292
3.48267e-07
0.0407387
-0.053712
-2.15506e-07
0.0407385
-0.0537119
-5.33551e-07
0.0407385
-0.0537121
-8.55941e-07
0.0407386
-0.0537122
-1.2617e-06
0.0407387
-0.0537123
0.040739
-0.0537125
5.73935e-08
-0.0159618
-8.72958e-08
-0.0159617
-2.07561e-07
-0.0159618
-3.98053e-07
-0.0159619
-6.07838e-07
-0.0159619
-0.015962
1.43229e-07
0.0409937
-0.130523
-1.01876e-06
0.0409936
-0.130523
-1.63467e-06
0.0409936
-0.130524
-1.9347e-06
0.0409938
-0.130525
-1.80602e-06
0.040994
-0.130526
0.0409942
-0.130527
1.37617e-07
0.057027
-0.069748
-4.88438e-07
0.0570268
-0.0697478
-8.5719e-07
0.0570269
-0.0697479
-1.13041e-06
0.057027
-0.069748
-1.28354e-06
0.0570272
-0.069748
0.0570275
-0.0697483
-5.78782e-08
-0.0181516
-2.22746e-07
-0.0181515
-3.90038e-07
-0.0181515
-5.04298e-07
-0.0181515
-5.85107e-07
-0.0181515
-0.0181516
-6.15653e-07
0.063894
-2.09104e-06
0.0638939
-2.98597e-06
0.0638942
-3.09447e-06
0.0638946
-2.37195e-06
0.063895
0.0638953
-3.99039e-07
0.0797308
-9.8016e-07
0.0797306
-1.35733e-06
0.0797308
-1.5022e-06
0.0797311
-1.33929e-06
0.0797314
0.079732
-2.47585e-07
-4.47813e-07
-5.54477e-07
-6.41254e-07
-6.39904e-07
9.20945e-08
0.00054611
-7.63024e-05
-3.93228e-08
0.000546107
-7.63114e-05
-9.39563e-08
0.0005461
-7.63223e-05
-1.31011e-07
0.000546108
-7.63266e-05
-1.56948e-07
0.00054612
-7.63341e-05
0.00054613
-7.63437e-05
3.43631e-08
0.000594532
-4.87076e-05
-3.4782e-08
0.000594539
-4.87109e-05
-6.72701e-08
0.000594542
-4.87165e-05
-9.07148e-08
0.000594554
-4.87198e-05
-1.10915e-07
0.000594571
-4.87245e-05
0.000594587
-4.87305e-05
2.06029e-09
-1.70795e-05
-9.14757e-09
-1.70803e-05
-1.75177e-08
-1.7082e-05
-2.69708e-08
-1.70833e-05
-4.31442e-08
-1.70849e-05
-1.70867e-05
4.281e-08
0.000578529
-0.000159144
-6.68071e-08
0.000578532
-0.000159144
-1.1774e-07
0.000578532
-0.000159149
-1.60097e-07
0.000578541
-0.000159149
-2.09023e-07
0.000578555
-0.000159146
0.000578569
-0.000159144
2.15585e-09
0.000631647
-0.000102155
-5.20832e-08
0.000631656
-0.000102154
-8.00584e-08
0.000631663
-0.000102155
-1.07563e-07
0.000631677
-0.000102155
-1.42219e-07
0.000631697
-0.000102152
0.000631717
-0.000102151
-8.46319e-09
-3.59944e-05
-1.4879e-08
-3.59946e-05
-2.15989e-08
-3.59945e-05
-3.18538e-08
-3.59943e-05
-5.1443e-08
-3.59934e-05
-3.59922e-05
1.03309e-08
0.000645489
-0.000256156
-7.6793e-08
0.000645492
-0.00025615
-1.16565e-07
0.000645496
-0.000256151
-1.51129e-07
0.000645505
-0.000256144
-1.86599e-07
0.000645518
-0.000256134
0.000645533
-0.000256128
-1.29535e-08
0.00070926
-0.00016618
-5.54855e-08
0.000709268
-0.000166175
-7.73847e-08
0.000709277
-0.000166173
-9.97279e-08
0.000709291
-0.000166168
-1.24735e-07
0.000709309
-0.000166161
0.000709328
-0.000166156
-1.02626e-08
-5.90721e-05
-1.53654e-08
-5.90711e-05
-2.03935e-08
-5.90696e-05
-2.83557e-08
-5.90676e-05
-4.34603e-08
-5.9065e-05
-5.90627e-05
-7.0253e-09
0.000751264
-0.000378508
-5.36573e-08
0.000751265
-0.000378493
-8.25946e-08
0.000751272
-0.00037848
-1.07226e-07
0.000751278
-0.000378469
-1.30047e-07
0.000751288
-0.000378455
0.000751301
-0.000378443
-2.007e-08
0.000834858
-0.000249934
-4.33972e-08
0.000834861
-0.000249927
-5.54661e-08
0.000834869
-0.000249919
-6.92309e-08
0.00083488
-0.000249911
-8.57089e-08
0.000834894
-0.000249902
0.00083491
-0.000249894
-6.08653e-09
-9.00318e-05
-9.42815e-09
-9.0029e-05
-1.23737e-08
-9.00264e-05
-1.71278e-08
-9.00232e-05
-2.73561e-08
-9.00199e-05
-9.00179e-05
-1.57344e-08
0.000902688
-0.000543919
-2.57574e-08
0.000902679
-0.000543907
-3.01838e-08
0.00090268
-0.00054389
-4.13619e-08
0.000902684
-0.000543873
-5.41503e-08
0.000902689
-0.000543858
0.000902697
-0.00054385
-2.42726e-10
0.00102219
-0.000369513
-1.24859e-08
0.00102218
-0.000369503
-1.87207e-08
0.00102218
-0.000369496
-2.739e-08
0.00102219
-0.000369486
-3.88255e-08
0.0010222
-0.000369479
0.00102221
-0.000369478
3.13332e-09
-0.0001354
1.67442e-09
-0.000135397
-1.08893e-09
-0.000135395
-5.09826e-09
-0.000135394
-1.24533e-08
-0.000135394
-0.000135396
5.74259e-08
0.00110934
-0.000783081
5.17464e-08