/*--------------------------------*- C++ -*----------------------------------*\
| =========                 |                                                 |
| \\      /  F ield         | OpenFOAM: The Open Source CFD Toolbox           |
|  \\    /   O peration     | Version:  v1612+                                |
|   \\  /    A nd           | Web:      www.OpenFOAM.com                      |
|    \\/     M anipulation  |                                                 |
\*---------------------------------------------------------------------------*/
FoamFile
{
    version     2.0;
    format      ascii;
    class       volScalarField;
    location    "3.45";
    object      p;
}
// * * * * * * * * * * * * * * * * * * * * * * * * * * * * * * * * * * * * * //

dimensions      [1 -1 -2 0 0 0 0];

internalField   nonuniform List<scalar> 
320
(
14724.8
14724.8
14724.8
14724.8
4.94861
4.94872
4.94838
4.9474
4.94817
4.94781
4.94976
4.94761
4.9485
4.94862
4.94856
4.9501
4914.8
4914.86
4914.88
4914.81
4914.86
4914.85
4914.81
4914.82
4914.87
4914.86
4914.84
4914.8
14724.8
14724.8
14724.8
14724.8
14724.8
14724.8
14724.8
14724.8
14724.8
14724.8
14724.8
14724.8
24534.8
24534.8
24534.8
24534.8
24534.8
24534.8
24534.8
24534.8
24534.8
24534.8
24534.8
24534.8
24534.8
24534.8
24534.8
24534.8
4.94804
4.94831
4.94869
4.9478
4.94734
4.94664
4.94693
4.9471
4.94651
4.94655
4.94707
4.94695
4.94782
4.9482
4.94838
4.94783
4.94815
4.94822
4.94877
4.94984
4914.8
4914.84
4914.81
4914.8
4914.82
4914.82
4914.81
4914.82
4914.79
4914.79
4914.81
4914.83
4914.86
4914.83
4914.87
4914.87
4914.83
4914.82
4914.84
4914.82
14724.8
14724.8
14724.8
14724.8
14724.8
14724.8
14724.8
14724.8
14724.8
14724.8
14724.8
14724.8
14724.8
14724.8
14724.8
14724.8
14724.8
14724.8
14724.8
14724.8
24534.8
24534.8
24534.8
24534.8
24534.8
24534.8
24534.8
24534.8
24534.8
24534.8
24534.8
24534.8
24534.8
24534.8
24534.8
24534.8
24534.8
24534.8
24534.8
24534.8
34344.8
34344.8
34344.8
34344.8
34344.8
34344.8
34344.8
34344.8
34344.8
34344.8
34344.8
34344.8
34344.8
34344.8
34344.8
34344.8
34344.8
34344.8
34344.8
34344.8
34344.8
34344.8
34344.8
34344.8
34344.8
34344.8
34344.8
34344.8
34344.8
34344.8
34344.8
34344.8
34344.8
34344.8
34344.8
34344.8
4.95015
4.94846
4.949
4.94791
4.947
4.94617
4.9467
4.94719
4.94556
4.94631
4.94703
4.9471
4.94654
4.94672
4.9463
4.94733
4.9481
4.94758
4.94759
4.94774
4.94803
4.9487
4.94838
4.94825
4.94878
4.94956
4.94979
4.95004
4914.86
4914.83
4914.86
4914.81
4914.79
4914.8
4914.86
4914.84
4914.81
4914.89
4914.85
4914.78
4914.79
4914.82
4914.82
4914.87
4914.87
4914.86
4914.86
4914.8
4914.82
4914.83
4914.89
4914.88
4914.86
4914.87
4914.82
4914.8
14724.8
14724.8
14724.8
14724.8
14724.8
14724.8
14724.8
14724.8
14724.8
14724.8
14724.8
14724.8
14724.8
14724.8
14724.8
14724.8
14724.8
14724.8
14724.8
14724.8
14724.8
14724.8
14724.8
14724.8
14724.8
14724.8
14724.8
14724.8
24534.8
24534.8
24534.8
24534.8
24534.8
24534.8
24534.8
24534.8
24534.8
24534.8
24534.8
24534.8
24534.8
24534.8
24534.8
24534.8
24534.8
24534.8
24534.8
24534.8
24534.8
24534.8
24534.8
24534.8
24534.8
24534.8
24534.8
24534.8
34344.8
34344.8
34344.8
34344.8
34344.8
34344.8
34344.8
34344.8
34344.8
34344.8
34344.8
34344.8
34344.8
34344.8
34344.8
34344.8
34344.8
34344.8
34344.8
34344.8
34344.8
34344.8
34344.8
34344.8
34344.8
34344.8
34344.8
34344.8
4.94829
4.94927
4.94822
4.94783
4914.84
4914.84
4914.85
4914.83
)
;

boundaryField
{
    top_fluid_surface
    {
        type            calculated;
        value           nonuniform List<scalar> 
64
(
0
-1.87014e-09
-1.17614e-08
0
-2.20068e-09
-4.60729e-09
-3.22108e-10
0
-2.47924e-08
-1.15758e-08
0
-3.23881e-10
0
-1.96274e-10
-5.19066e-11
0
0
0
0
0
0
0
0
0
-1.10384e-08
0
-2.03736e-10
-6.58624e-11
0
0
-6.63442e-10
0
-3.62312e-10
0
-8.38468e-09
0
0
0
-8.5006e-09
-3.97218e-11
0
-4.88403e-08
-2.02979e-08
0
0
0
-1.24823e-10
-5.08015e-13
-5.74593e-09
-3.91872e-11
-1.32013e-08
0
-9.23847e-10
-4.16907e-11
-7.89783e-10
-4.17202e-08
-6.62361e-10
0
0
0
-1.57495e-09
0
0
0
)
;
    }
    bottom_fluid_surface
    {
        type            calculated;
        value           nonuniform List<scalar> 
64
(
39249.8
39249.8
39249.8
39249.8
39249.8
39249.8
39249.8
39249.8
39249.8
39249.8
39249.8
39249.8
39249.8
39249.8
39249.8
39249.8
39249.8
39249.8
39249.8
39249.8
39249.8
39249.8
39249.8
39249.8
39249.8
39249.8
39249.8
39249.8
39249.8
39249.8
39249.8
39249.8
39249.8
39249.8
39249.8
39249.8
39249.8
39249.8
39249.8
39249.8
39249.8
39249.8
39249.8
39249.8
39249.8
39249.8
39249.8
39249.8
39249.8
39249.8
39249.8
39249.8
39249.8
39249.8
39249.8
39249.8
39249.8
39249.8
39249.8
39249.8
39249.8
39249.8
39249.8
39249.8
)
;
    }
    lateral_surface_1
    {
        type            calculated;
        value           nonuniform List<scalar> 
40
(
4.95015
4.94846
4.949
4.94791
4.947
4.94617
4.9467
4.95004
4914.86
4914.83
4914.86
4914.81
4914.79
4914.8
4914.86
4914.8
14724.8
14724.8
14724.8
14724.8
14724.8
14724.8
14724.8
14724.8
24534.8
24534.8
24534.8
24534.8
24534.8
24534.8
24534.8
24534.8
34344.8
34344.8
34344.8
34344.8
34344.8
34344.8
34344.8
34344.8
)
;
    }
    lateral_surface_2
    {
        type            calculated;
        value           nonuniform List<scalar> 
40
(
4.94672
4.9463
4.94733
4.9481
4.94758
4.94759
4.94774
4.94803
4914.82
4914.82
4914.87
4914.87
4914.86
4914.86
4914.8
4914.82
14724.8
14724.8
14724.8
14724.8
14724.8
14724.8
14724.8
14724.8
24534.8
24534.8
24534.8
24534.8
24534.8
24534.8
24534.8
24534.8
34344.8
34344.8
34344.8
34344.8
34344.8
34344.8
34344.8
34344.8
)
;
    }
    lateral_surface_3
    {
        type            calculated;
        value           nonuniform List<scalar> 
40
(
4.9467
4.94719
4.94556
4.94631
4.94703
4.9471
4.94654
4.94672
4914.86
4914.84
4914.81
4914.89
4914.85
4914.78
4914.79
4914.82
14724.8
14724.8
14724.8
14724.8
14724.8
14724.8
14724.8
14724.8
24534.8
24534.8
24534.8
24534.8
24534.8
24534.8
24534.8
24534.8
34344.8
34344.8
34344.8
34344.8
34344.8
34344.8
34344.8
34344.8
)
;
    }
    lateral_surface_4
    {
        type            calculated;
        value           nonuniform List<scalar> 
40
(
4.94803
4.9487
4.94838
4.94825
4.94878
4.94956
4.94979
4.95004
4914.82
4914.83
4914.89
4914.88
4914.86
4914.87
4914.82
4914.8
14724.8
14724.8
14724.8
14724.8
14724.8
14724.8
14724.8
14724.8
24534.8
24534.8
24534.8
24534.8
24534.8
24534.8
24534.8
24534.8
34344.8
34344.8
34344.8
34344.8
34344.8
34344.8
34344.8
34344.8
)
;
    }
}


// ************************************************************************* //
