/*--------------------------------*- C++ -*----------------------------------*\
| =========                 |                                                 |
| \\      /  F ield         | OpenFOAM: The Open Source CFD Toolbox           |
|  \\    /   O peration     | Version:  v1612+                                |
|   \\  /    A nd           | Web:      www.OpenFOAM.com                      |
|    \\/     M anipulation  |                                                 |
\*---------------------------------------------------------------------------*/
FoamFile
{
    version     2.0;
    format      ascii;
    class       volVectorField;
    location    "3.45";
    object      U;
}
// * * * * * * * * * * * * * * * * * * * * * * * * * * * * * * * * * * * * * //

dimensions      [0 1 -1 0 0 0 0];

internalField   nonuniform List<vector> 
320
(
(-3.54084e-06 -7.73029e-06 4.97101e-06)
(-1.78112e-06 -6.21118e-06 -3.8702e-06)
(-5.0035e-06 -2.96871e-07 -8.38108e-06)
(-6.28262e-07 2.68474e-06 -6.61385e-06)
(0.000118961 -0.000136422 8.9451e-06)
(5.17214e-05 -0.00019587 -6.11578e-05)
(0.000212726 -0.000138249 -0.000153372)
(-2.64205e-06 8.10248e-05 1.51448e-05)
(0.000323569 2.47617e-05 -6.63428e-05)
(0.000198751 0.000105626 -9.59927e-05)
(8.94366e-05 -5.1491e-05 -2.52642e-05)
(0.000331612 -0.000126823 1.9457e-05)
(5.14146e-05 5.2347e-05 -0.000222676)
(9.91387e-05 -0.000368418 -0.000152157)
(-8.6691e-05 -0.000329425 1.91703e-05)
(-1.85897e-05 -0.000352324 -2.53318e-05)
(3.68326e-06 4.198e-06 2.14142e-05)
(6.31388e-06 1.63066e-07 1.97494e-05)
(5.06507e-06 -4.49726e-06 5.89933e-06)
(-9.28853e-06 -2.23993e-06 -6.14826e-06)
(5.01929e-06 -4.99098e-06 -1.40287e-05)
(6.12226e-06 5.02485e-06 1.00954e-05)
(-7.76506e-06 -4.87382e-07 -2.58306e-06)
(3.42371e-06 -1.15165e-05 -1.20096e-06)
(1.41796e-06 3.04461e-06 2.34606e-05)
(3.78974e-06 -1.0016e-05 1.16921e-05)
(-5.36355e-07 -2.07747e-06 4.14511e-07)
(-1.43269e-06 -5.15613e-06 -1.31645e-05)
(5.0407e-06 -2.25685e-06 1.60379e-05)
(-4.55397e-06 -3.43692e-06 1.7121e-05)
(-6.46445e-06 -1.82074e-06 4.69399e-06)
(-1.37243e-06 -3.80451e-06 -5.78468e-06)
(-2.71423e-06 3.61921e-06 -1.16466e-05)
(-1.07271e-06 2.5626e-06 5.59156e-06)
(2.13491e-06 1.02422e-06 -4.08245e-06)
(-5.6461e-06 6.22458e-06 -4.007e-07)
(2.2268e-06 -1.40392e-06 1.54799e-05)
(5.11004e-07 4.79009e-06 8.97553e-06)
(5.63739e-06 3.83266e-06 7.66745e-07)
(7.45087e-06 4.21499e-06 -9.66807e-06)
(-2.1187e-06 -4.03683e-06 5.68002e-07)
(-1.09003e-06 -3.7881e-06 -2.17792e-06)
(-2.55769e-06 1.21104e-07 -1.97837e-06)
(-6.93984e-07 1.0466e-06 -2.63281e-06)
(3.80749e-06 -1.47302e-06 3.8952e-06)
(-2.15861e-06 -1.97242e-06 2.08373e-06)
(-4.18373e-06 -1.12597e-06 3.1898e-07)
(-1.32777e-06 -2.57219e-06 -7.93482e-07)
(-2.07145e-06 2.52391e-06 -2.36207e-06)
(-1.33864e-06 1.17426e-06 1.47069e-06)
(1.31277e-06 1.77537e-07 -6.49484e-07)
(-3.88216e-06 3.48794e-06 -8.85034e-09)
(1.29775e-06 -1.04905e-06 3.30567e-06)
(7.72321e-07 2.81006e-06 1.10324e-06)
(3.14686e-06 2.5771e-06 1.81954e-07)
(4.60637e-06 2.92491e-06 -1.86192e-06)
(-0.000143334 -0.000274064 0.000143956)
(5.21368e-06 2.49718e-05 -1.98128e-05)
(7.51674e-05 -0.000277305 1.01427e-05)
(-2.4615e-05 -0.000186987 2.86931e-05)
(5.70158e-05 0.000111192 9.51715e-05)
(0.000247763 -0.000173971 0.00016295)
(-7.39356e-05 1.50555e-05 6.74721e-05)
(7.97496e-05 1.20143e-06 0.000239998)
(0.0002516 -0.000130939 9.53218e-05)
(0.000276203 -1.08359e-05 7.63969e-05)
(0.000244289 0.000150162 6.64638e-05)
(0.000368759 -8.28544e-05 8.1121e-05)
(0.00024868 1.87001e-05 -0.000148583)
(4.21926e-05 -2.40233e-06 5.2656e-05)
(0.000120751 -9.43674e-07 -2.01859e-05)
(-6.11267e-05 -6.88168e-05 -1.14771e-05)
(0.000197312 -0.000130306 4.48873e-05)
(0.000121528 -0.000121264 1.55504e-05)
(0.000115944 -0.000191626 -3.64264e-05)
(0.00020485 -6.83574e-05 0.000107151)
(-4.59408e-06 -8.13715e-06 -2.14272e-05)
(4.6131e-06 -3.05445e-06 5.09808e-06)
(5.66605e-06 -6.91425e-06 8.44631e-06)
(-3.30654e-06 -5.03593e-07 -6.0159e-07)
(-6.40387e-06 1.10688e-05 -1.17271e-05)
(-8.18031e-07 -5.8198e-06 -1.50256e-05)
(-5.95302e-06 7.18898e-07 -1.27358e-05)
(-6.29288e-06 -1.11287e-06 -3.18003e-05)
(4.52943e-06 -1.35094e-05 -1.23499e-05)
(3.45759e-06 -1.15773e-05 1.82773e-05)
(-8.00205e-06 1.0386e-05 -1.5758e-06)
(8.81358e-06 5.79898e-06 -1.38098e-05)
(2.99351e-06 -4.97496e-06 1.92441e-05)
(-4.7757e-06 -2.36606e-06 -3.34652e-06)
(-5.79394e-07 -3.44802e-06 2.3798e-07)
(-9.99017e-06 -2.95193e-06 -3.03922e-06)
(5.61367e-06 -2.20891e-06 -8.3226e-06)
(9.44074e-06 6.57971e-06 -2.23395e-05)
(2.88268e-06 1.39548e-07 -1.22369e-05)
(7.44333e-06 -5.5106e-06 8.44831e-07)
(9.20707e-07 1.19469e-06 -1.48287e-05)
(4.11092e-06 9.9898e-07 3.00767e-06)
(-2.21726e-06 4.15445e-06 1.03891e-05)
(-2.02588e-06 2.49128e-06 6.40292e-07)
(4.09926e-06 -4.5868e-06 -5.71932e-06)
(-2.39918e-06 -2.78308e-06 -8.7871e-06)
(2.1092e-06 -2.46076e-06 -9.20789e-06)
(7.88357e-06 2.98477e-06 -2.11185e-05)
(2.34638e-06 9.95148e-06 -7.5136e-06)
(-1.71644e-06 6.2849e-06 1.40342e-05)
(6.21263e-06 -2.35646e-06 -1.18617e-07)
(-4.29041e-06 2.2608e-06 -1.01062e-05)
(-2.57505e-06 1.55193e-06 1.4613e-05)
(3.45146e-06 -1.70618e-06 -2.15895e-06)
(-7.68841e-07 3.23062e-06 -2.67037e-07)
(7.65331e-06 3.28417e-06 -3.87882e-06)
(-5.66055e-07 3.1138e-06 -6.46437e-06)
(-4.49826e-07 -7.90092e-07 -1.73637e-05)
(-2.38664e-06 -6.9737e-06 -1.04761e-05)
(-9.21898e-06 -5.64009e-06 5.25342e-07)
(5.00076e-07 1.09649e-07 -3.24123e-06)
(2.77863e-06 6.34093e-07 1.50451e-06)
(-1.4371e-06 2.99485e-06 3.64985e-07)
(-1.64122e-06 2.50859e-06 2.07471e-07)
(2.41102e-06 -2.53966e-06 -1.39593e-06)
(-1.96515e-06 -1.65898e-06 -2.92888e-06)
(8.2798e-07 -1.67581e-06 -3.0403e-06)
(4.14968e-06 1.03573e-06 -4.95018e-06)
(2.83809e-08 5.34318e-06 -1.2917e-06)
(-1.82522e-06 4.09382e-06 2.58415e-06)
(3.09416e-06 -1.14623e-06 -5.72043e-07)
(-3.00768e-06 1.69016e-06 -2.40717e-06)
(-1.33109e-06 1.19698e-06 2.67515e-06)
(2.48576e-06 -1.4636e-06 -4.71393e-07)
(-3.33888e-07 1.30778e-06 1.33241e-07)
(4.6429e-06 1.7745e-06 -1.51109e-06)
(-4.18455e-07 1.97021e-06 -1.96308e-06)
(-1.34542e-07 -2.02789e-07 -3.85113e-06)
(-1.53055e-06 -4.11983e-06 -1.82202e-06)
(-5.48545e-06 -3.60487e-06 7.01124e-07)
(-1.26425e-06 -1.92787e-06 1.91314e-07)
(-3.02676e-07 -1.48779e-06 -4.20803e-07)
(-1.19398e-06 2.59963e-07 -4.28996e-07)
(-4.5449e-07 7.98905e-07 -3.75897e-07)
(1.21101e-06 -1.17411e-06 1.71175e-06)
(-1.20243e-06 -6.65253e-07 1.91118e-06)
(-1.52808e-06 -7.12704e-07 6.3572e-07)
(-7.16926e-07 -1.17993e-06 -5.53576e-07)
(-7.07964e-07 1.07608e-06 -7.89689e-07)
(-5.29566e-07 4.22469e-07 7.28991e-07)
(5.13436e-07 4.68733e-07 -3.66609e-07)
(-1.86051e-06 1.26934e-06 2.33199e-08)
(7.76216e-07 2.89617e-09 1.71316e-06)
(6.32819e-07 1.39516e-06 9.65032e-07)
(1.29585e-06 9.17202e-07 4.55685e-07)
(2.0838e-06 1.21326e-06 -7.55992e-07)
(3.23314e-07 2.1635e-07 -1.49422e-06)
(6.14258e-07 -9.58769e-08 3.54113e-07)
(-7.64088e-07 8.47251e-07 7.47611e-07)
(-2.51407e-07 4.89358e-07 -2.09982e-07)
(8.27775e-07 -1.22496e-06 -6.25494e-07)
(-7.2958e-07 -1.13077e-06 -7.82005e-07)
(3.22506e-07 -6.67676e-07 -1.16172e-06)
(1.32565e-06 9.86262e-07 -1.91178e-06)
(1.93988e-07 2.28591e-06 -1.25235e-06)
(-3.9605e-07 1.88849e-06 1.0557e-06)
(1.10921e-06 -4.12503e-07 -2.31741e-07)
(-1.30137e-06 8.99204e-07 -8.53652e-07)
(-7.28142e-07 6.61311e-07 1.60781e-06)
(8.9537e-07 -2.10589e-07 -1.97708e-07)
(-2.51611e-07 1.08929e-06 4.32819e-08)
(1.7425e-06 1.00679e-06 -5.24521e-07)
(-2.7795e-07 7.79597e-07 -6.59401e-07)
(-4.44097e-08 -4.76889e-07 -1.73898e-06)
(-8.41746e-07 -2.14665e-06 -1.05916e-06)
(-2.68728e-06 -1.80724e-06 8.61589e-08)
(0.000167948 5.48477e-05 -2.69188e-05)
(-0.000111994 -6.04212e-05 0.000102658)
(0.000123672 2.35927e-05 -0.000129497)
(0.000264593 -0.000179039 0.000231969)
(-0.000175571 -0.000165314 0.000168465)
(-8.33007e-05 -2.83772e-05 1.30081e-05)
(-0.000256177 -2.49252e-05 -0.000130389)
(-0.000253335 0.000143053 -8.91312e-06)
(-0.000223983 -0.000268946 6.37511e-05)
(-0.000347975 -8.58342e-05 -0.000312539)
(-0.000324891 0.00035086 -0.000201484)
(3.21071e-08 0.000302465 0.000119489)
(0.000108006 0.000148473 0.000220855)
(0.000158566 -0.000154321 9.28411e-05)
(0.000249816 -0.000204926 -1.58002e-05)
(0.000271694 -0.000127732 1.00798e-06)
(0.000220774 -0.000231498 -0.0001072)
(0.000251112 1.94383e-05 -8.85293e-06)
(7.11604e-05 -0.00023385 -0.000162489)
(-4.1517e-05 -9.14311e-06 6.76893e-06)
(9.7169e-05 -7.13959e-05 -4.29848e-05)
(3.46204e-05 -2.15421e-05 9.08982e-06)
(7.61238e-05 0.000128925 -3.97438e-05)
(0.000231537 -0.00018612 -0.000288861)
(1.93876e-05 -0.000410647 -3.63967e-05)
(-5.71186e-05 -0.000270451 5.74339e-06)
(-5.84819e-05 -0.000220317 2.48824e-05)
(-0.000209555 -9.57713e-05 0.000110615)
(4.61142e-06 -1.12236e-06 7.60822e-06)
(-3.88861e-06 -1.73979e-06 -1.30987e-05)
(2.45948e-06 -1.82771e-06 1.2069e-05)
(3.76297e-06 4.13443e-07 -1.27857e-05)
(-1.29182e-05 7.51818e-08 -1.84364e-05)
(-8.38521e-06 1.0025e-05 4.8188e-06)
(-5.84379e-06 2.05726e-06 1.65804e-05)
(-1.38114e-05 7.06364e-06 1.83197e-05)
(-9.84967e-06 -4.04716e-06 -1.26878e-05)
(-1.20384e-05 -7.71501e-06 3.23151e-06)
(-1.82818e-05 5.49002e-06 3.4605e-05)
(-5.43522e-06 1.47744e-05 1.59269e-05)
(1.00009e-05 6.84902e-06 -2.34999e-05)
(1.29912e-05 -3.77435e-06 -6.82183e-06)
(9.9126e-07 -6.76465e-06 1.67813e-05)
(-1.12554e-05 -1.30808e-06 -4.4998e-06)
(7.59574e-06 -3.51213e-06 4.22691e-06)
(1.15889e-05 -9.03515e-08 3.18546e-06)
(-1.09099e-07 -1.21071e-05 6.44686e-06)
(-1.37061e-06 -4.75746e-06 -2.22743e-07)
(3.47669e-06 -1.13163e-05 1.33302e-05)
(-3.08189e-06 -1.09863e-05 -3.59329e-06)
(-4.06081e-06 9.23723e-06 -1.7718e-05)
(9.10754e-06 9.41457e-06 1.53318e-05)
(7.56298e-06 -4.80855e-06 7.19754e-06)
(-2.28133e-06 -7.15161e-06 -2.75749e-06)
(2.70925e-07 -6.40883e-06 1.75658e-05)
(-3.17917e-06 -4.5729e-06 1.0345e-05)
(-8.38393e-06 -1.83568e-06 6.71823e-06)
(8.11971e-07 -3.6621e-07 -7.56456e-06)
(2.08052e-06 -1.72709e-06 7.09952e-06)
(-6.0464e-06 1.66429e-06 -5.23525e-06)
(2.27722e-06 2.10209e-06 -1.39021e-05)
(5.48248e-06 -2.63859e-06 2.96134e-06)
(3.4501e-06 7.18677e-07 1.12506e-05)
(6.80739e-06 -5.3903e-06 1.29965e-05)
(2.64692e-06 -3.81063e-06 -9.81755e-06)
(5.77973e-06 6.47811e-06 -2.90396e-06)
(1.15855e-05 3.85661e-06 2.30332e-05)
(6.65182e-06 -7.03721e-06 1.14077e-05)
(-5.40294e-06 -4.16886e-06 -1.46721e-05)
(-3.80137e-06 2.54546e-06 -3.61783e-06)
(5.34487e-07 9.43962e-07 9.1086e-06)
(2.95167e-06 2.94507e-07 -2.53688e-06)
(-1.7734e-06 4.20517e-06 3.97094e-06)
(-1.67921e-06 -2.22235e-06 1.0852e-06)
(5.48103e-07 3.30925e-06 5.4515e-07)
(-9.93259e-07 6.81041e-07 -9.69988e-07)
(-2.83145e-06 3.53369e-06 6.8129e-06)
(2.11815e-08 6.94056e-06 -9.53098e-07)
(8.78173e-07 -1.20095e-06 -1.39239e-05)
(-4.46394e-06 -3.31266e-06 6.87026e-06)
(-5.54818e-06 2.01197e-06 2.62756e-06)
(-1.66162e-06 -4.55499e-06 -3.51868e-06)
(-3.12927e-06 -4.80313e-06 1.34709e-05)
(-8.24672e-07 4.68908e-07 1.12054e-05)
(-4.55312e-06 -1.32813e-06 1.7781e-06)
(3.67401e-07 -8.80279e-07 -3.24821e-06)
(9.22289e-07 -1.19545e-06 2.43275e-06)
(-4.03311e-06 9.76056e-07 -1.41646e-06)
(1.35078e-06 1.40056e-06 -1.6999e-06)
(4.02515e-06 -2.01591e-06 3.77752e-07)
(2.16261e-06 -2.136e-07 2.49025e-06)
(3.96492e-06 -3.48172e-06 3.50055e-06)
(1.22054e-06 -2.70901e-06 -1.443e-06)
(2.9149e-06 3.54257e-06 7.42115e-07)
(6.43888e-06 1.72428e-06 4.04923e-06)
(3.60345e-06 -4.80057e-06 3.53417e-06)
(-3.70487e-06 -1.76772e-06 -1.87539e-06)
(-2.25805e-06 1.77375e-06 -2.95148e-08)
(-5.93111e-07 3.26969e-07 2.91332e-06)
(1.06502e-06 5.4163e-07 -5.93233e-07)
(-1.03042e-06 2.35609e-06 6.72243e-07)
(-7.2839e-07 -1.43561e-06 7.01485e-07)
(1.18695e-06 1.75339e-06 1.70437e-06)
(2.23314e-07 -1.36807e-07 5.0661e-07)
(-1.26151e-06 1.19619e-06 2.70465e-06)
(7.149e-08 2.95598e-06 6.37902e-08)
(3.86691e-07 -1.13363e-06 -2.67083e-06)
(-2.83663e-06 -1.96736e-06 1.25328e-06)
(-3.55087e-06 1.465e-06 1.59714e-07)
(-1.16885e-06 -2.42603e-06 -5.613e-07)
(-1.8571e-06 -2.91295e-06 3.07276e-06)
(-4.76924e-07 5.20429e-08 2.59449e-06)
(-2.64704e-06 -7.38996e-07 6.50482e-07)
(3.7244e-07 -1.41339e-07 -8.57709e-07)
(5.80113e-07 -7.8812e-07 7.99414e-07)
(-1.78767e-06 -1.07193e-07 -3.24112e-07)
(5.44134e-07 2.35463e-07 -1.3923e-06)
(1.242e-06 -9.02734e-07 4.95073e-07)
(1.27198e-06 -1.78763e-07 1.34463e-06)
(1.99596e-06 -1.48222e-06 1.36113e-06)
(1.01472e-06 -1.21797e-06 -6.56469e-07)
(1.90875e-06 8.75292e-07 -2.01965e-07)
(2.55769e-06 9.47555e-07 1.94558e-06)
(1.87005e-06 -1.29922e-06 4.85812e-07)
(-1.02744e-06 -6.34634e-07 -1.64617e-06)
(-6.53077e-07 8.22339e-07 -6.26165e-07)
(-2.81407e-08 4.47989e-07 8.84628e-07)
(4.59724e-07 4.54432e-07 -6.1455e-08)
(-5.60374e-07 1.09747e-06 4.07361e-07)
(-7.50714e-07 -2.86554e-07 4.58316e-07)
(3.48231e-07 1.12005e-06 4.22446e-07)
(7.48158e-09 2.60581e-07 -3.72218e-07)
(-6.963e-07 8.6095e-07 2.11812e-07)
(-9.59309e-08 1.52443e-06 -1.08028e-07)
(-2.61167e-07 -2.34443e-08 -1.18707e-06)
(-1.12617e-06 -3.91744e-07 9.99086e-07)
(-1.43251e-06 3.53403e-07 3.16966e-07)
(-2.95873e-07 -1.42962e-06 -2.09385e-07)
(-7.15476e-07 -1.58895e-06 1.22555e-06)
(-7.7581e-08 -1.01104e-07 1.11847e-06)
(0.000161136 -4.09923e-06 -5.6124e-05)
(7.30574e-05 -9.67143e-05 4.46151e-05)
(0.000352684 8.49397e-06 2.1602e-05)
(0.00013598 -0.000200642 3.35756e-05)
(9.93243e-06 1.1803e-05 6.75585e-06)
(-3.02911e-06 7.66207e-07 -1.19498e-05)
(6.52629e-06 -2.54983e-07 -1.47548e-05)
(-7.72799e-06 -1.65228e-05 -1.06673e-05)
)
;

boundaryField
{
    top_fluid_surface
    {
        type            pressureInletOutletVelocity;
        value           nonuniform List<vector> 
64
(
(0.000118961 -0.000136422 8.9451e-06)
(0 0 -6.11578e-05)
(0 0 -0.000153372)
(-2.64205e-06 8.10248e-05 1.51448e-05)
(0 0 -6.63428e-05)
(0 0 -9.59927e-05)
(0 0 -2.52642e-05)
(0.000331612 -0.000126823 1.9457e-05)
(0 0 -0.000222676)
(0 0 -0.000152157)
(-8.6691e-05 -0.000329425 1.91703e-05)
(0 0 -2.53318e-05)
(-0.000143334 -0.000274064 0.000143956)
(0 0 -1.98128e-05)
(0 0 1.01427e-05)
(-2.4615e-05 -0.000186987 2.86931e-05)
(5.70158e-05 0.000111192 9.51715e-05)
(0.000247763 -0.000173971 0.00016295)
(-7.39356e-05 1.50555e-05 6.74721e-05)
(7.97496e-05 1.20143e-06 0.000239998)
(0.0002516 -0.000130939 9.53218e-05)
(0.000276203 -1.08359e-05 7.63969e-05)
(0.000244289 0.000150162 6.64638e-05)
(0.000368759 -8.28544e-05 8.1121e-05)
(0 0 -0.000148583)
(4.21926e-05 -2.40233e-06 5.2656e-05)
(0 0 -2.01859e-05)
(0 0 -1.14771e-05)
(0.000197312 -0.000130306 4.48873e-05)
(0.000121528 -0.000121264 1.55504e-05)
(0 0 -3.64264e-05)
(0.00020485 -6.83574e-05 0.000107151)
(0 0 -2.69188e-05)
(-0.000111994 -6.04212e-05 0.000102658)
(0 0 -0.000129497)
(0.000264593 -0.000179039 0.000231969)
(-0.000175571 -0.000165314 0.000168465)
(-8.33007e-05 -2.83772e-05 1.30081e-05)
(0 0 -0.000130389)
(0 0 -8.91312e-06)
(-0.000223983 -0.000268946 6.37511e-05)
(0 0 -0.000312539)
(0 0 -0.000201484)
(3.21071e-08 0.000302465 0.000119489)
(0.000108006 0.000148473 0.000220855)
(0.000158566 -0.000154321 9.28411e-05)
(0 0 -1.58002e-05)
(0 0 1.00798e-06)
(0 0 -0.0001072)
(0 0 -8.85293e-06)
(0 0 -0.000162489)
(-4.1517e-05 -9.14311e-06 6.76893e-06)
(0 0 -4.29848e-05)
(0 0 9.08982e-06)
(0 0 -3.97438e-05)
(0 0 -0.000288861)
(0 0 -3.63967e-05)
(-5.71186e-05 -0.000270451 5.74339e-06)
(-5.84819e-05 -0.000220317 2.48824e-05)
(-0.000209555 -9.57713e-05 0.000110615)
(0 0 -5.6124e-05)
(7.30574e-05 -9.67143e-05 4.46151e-05)
(0.000352684 8.49397e-06 2.1602e-05)
(0.00013598 -0.000200642 3.35756e-05)
)
;
    }
    bottom_fluid_surface
    {
        type            noSlip;
    }
    lateral_surface_1
    {
        type            noSlip;
    }
    lateral_surface_2
    {
        type            noSlip;
    }
    lateral_surface_3
    {
        type            noSlip;
    }
    lateral_surface_4
    {
        type            noSlip;
    }
}


// ************************************************************************* //
