/*--------------------------------*- C++ -*----------------------------------*\
| =========                 |                                                 |
| \\      /  F ield         | OpenFOAM: The Open Source CFD Toolbox           |
|  \\    /   O peration     | Version:  v1612+                                |
|   \\  /    A nd           | Web:      www.OpenFOAM.com                      |
|    \\/     M anipulation  |                                                 |
\*---------------------------------------------------------------------------*/
FoamFile
{
    version     2.0;
    format      ascii;
    class       surfaceScalarField;
    location    "9.3";
    object      phi;
}
// * * * * * * * * * * * * * * * * * * * * * * * * * * * * * * * * * * * * * //

dimensions      [0 3 -1 0 0 0 0];

internalField   nonuniform List<scalar> 
816
(
3.01551e-06
-1.15176e-05
7.77387e-06
-2.01567e-05
-1.79688e-05
3.88534e-05
6.32354e-06
1.66135e-06
-1.12111e-05
-2.69223e-06
8.93139e-06
-4.49158e-06
6.04801e-07
-3.62538e-06
3.35634e-06
-7.36438e-06
-1.05554e-05
1.04488e-06
-4.75507e-06
1.61018e-05
0.000472733
-0.000275502
-1.94751e-06
-0.000181994
0.000185614
0.000574965
-1.43797e-06
-1.05161e-05
2.6867e-05
0.000225662
4.9269e-06
-0.000185774
0.000696469
0.000180467
4.64546e-06
0.000635306
-0.000518752
0.000243906
-1.21622e-05
0.000609028
-0.000584143
-0.000302498
3.35726e-06
0.000275771
0.000227659
-0.000351015
-1.58435e-06
0.00028298
-0.000170453
-0.000122096
7.70286e-07
0.000173018
-0.000185205
-8.98443e-05
5.1211e-06
0.000375643
-7.07208e-06
-1.97971e-06
8.46405e-06
-7.18973e-05
0.000138179
-0.000170437
9.04501e-06
-9.57561e-05
9.21417e-05
2.93518e-06
-0.000214265
-0.000178583
2.40667e-05
-4.16633e-06
-3.34321e-05
-1.8042e-07
1.12505e-05
4.22163e-05
-4.42599e-05
2.63386e-05
-7.3596e-07
-3.88627e-07
-5.31768e-06
6.64897e-07
5.0082e-05
-5.33083e-06
1.63854e-05
1.38351e-05
-2.23843e-05
1.49971e-05
-2.13929e-05
2.04242e-05
-2.26663e-05
-3.68846e-06
-2.55033e-05
1.3545e-05
3.09104e-05
4.74193e-06
-3.36443e-05
1.95725e-05
4.70265e-06
2.55343e-05
-1.21921e-05
-7.27307e-06
-1.03071e-06
7.17994e-06
-5.19702e-05
3.20089e-05
4.3186e-05
2.85199e-05
-2.89755e-05
1.98711e-05
-4.42934e-06
-1.50957e-05
7.63295e-05
1.10777e-05
-3.49654e-05
-1.74421e-05
-3.80699e-06
4.72524e-06
-1.05025e-05
2.795e-07
-1.64992e-05
1.0639e-06
-2.18861e-05
-1.92706e-05
-1.19644e-05
1.93487e-07
-2.85508e-06
-2.98574e-07
-2.42259e-05
2.96831e-06
7.14484e-06
-4.73732e-06
-9.1956e-06
-8.84253e-06
-1.09374e-05
9.9856e-07
-1.3322e-05
-5.03812e-06
-1.73444e-05
-3.56486e-06
-1.58898e-05
-1.21304e-05
-1.49234e-05
-4.71043e-06
4.48745e-06
-5.73922e-06
-2.40422e-05
-1.4977e-05
-2.21368e-05
-1.58246e-05
-1.34807e-05
-9.03551e-06
1.05946e-05
3.27505e-05
-3.00161e-06
-8.96635e-06
4.43149e-06
-2.04809e-06
9.35418e-07
-6.60176e-06
4.49493e-06
-1.09819e-05
-5.81645e-06
3.05107e-06
1.16516e-06
-6.96255e-06
9.88603e-07
-2.304e-06
5.54663e-07
-2.14468e-06
6.44432e-07
-5.33981e-06
2.18347e-07
1.12614e-06
-5.10807e-06
-9.44402e-07
-1.03002e-07
-5.86083e-06
-1.2002e-05
-7.4682e-06
-3.7569e-06
-3.81515e-07
-5.65683e-07
-1.3083e-05
-8.3441e-07
2.61429e-06
-2.24574e-06
-5.53192e-07
-4.12692e-06
-4.85293e-06
-2.57062e-06
1.58226e-07
-3.21482e-06
-9.85433e-06
-4.52879e-06
-2.31317e-06
-6.81214e-06
-6.39068e-06
-7.43852e-06
3.03959e-06
-2.07449e-06
-2.48463e-06
-9.46451e-06
-1.2506e-05
-7.02574e-06
-8.94953e-06
-5.42948e-06
-3.72602e-06
5.19623e-06
-1.77249e-06
9.38634e-06
1.6289e-06
-2.54226e-06
-3.85043e-06
0.000195064
-5.90153e-06
-1.0482e-06
-0.00017142
0.000393334
-9.33657e-07
-0.000246032
0.000451161
-4.18265e-06
-5.84181e-05
0.000607213
3.87402e-06
-8.29679e-05
0.000246717
1.54541e-06
-0.00035513
-0.000188309
7.61044e-05
-8.46987e-07
-0.000210933
-0.000213518
7.62425e-06
-0.000189276
-0.000594853
1.04036e-05
-0.000130802
-0.000370491
-6.95104e-06
1.07768e-05
0.000224286
1.44877e-05
-0.000234125
-0.00026154
-0.000135299
1.78113e-06
-0.000239573
-0.000481227
2.6208e-06
-0.000260917
-0.00017797
-3.67027e-06
-9.40889e-05
-0.000202248
-2.62001e-06
-0.000109599
-3.69161e-05
4.74179e-07
-0.000305244
-0.000451483
-0.00020431
2.15714e-06
-0.000341144
-0.000368953
2.93961e-06
-0.000306133
-0.00023851
-1.73704e-06
-0.000293147
-9.59262e-05
2.55814e-06
-0.000181561
1.85894e-06
-0.000252768
-0.000212451
-1.39782e-05
1.06514e-05
-4.63675e-06
2.76372e-06
1.87574e-05
-3.12088e-05
-2.58475e-06
1.56261e-05
4.25868e-06
2.05818e-05
1.625e-05
-8.38387e-06
9.82999e-06
2.2639e-05
6.96501e-05
-4.12889e-05
-3.68799e-05
-3.38687e-06
8.92714e-05
-1.71386e-05
-2.82288e-05
8.78702e-05
-4.65141e-05
-6.004e-05
0.000112421
-5.27e-05
-3.60121e-05
-1.18292e-05
-6.81263e-06
4.49625e-05
-2.03456e-05
-2.90299e-05
-2.02032e-05
-3.66061e-06
0.000100684
-1.96488e-05
-3.67946e-05
9.69774e-05
-4.16792e-05
1.49038e-05
-5.60969e-05
-6.3482e-06
4.12136e-06
6.33118e-05
-2.29835e-05
2.9806e-05
7.0045e-05
-5.61482e-05
-3.90299e-05
-6.05113e-06
8.70685e-05
-6.05281e-06
-3.56191e-05
8.38621e-05
-3.10601e-05
-2.66857e-05
2.25449e-05
-2.21712e-05
-2.30997e-06
-1.05796e-05
-6.54855e-06
7.39076e-05
-2.68573e-05
-3.72245e-05
8.86097e-06
-6.87348e-06
-9.3383e-07
-1.25817e-06
-7.87944e-06
-1.49338e-05
1.56103e-06
-7.87301e-06
3.1831e-06
-1.09714e-05
-7.04686e-06
-4.66588e-06
-4.85658e-06
-1.44986e-05
3.21638e-05
2.51992e-05
1.97775e-05
-3.71868e-07
3.95825e-05
1.13046e-05
1.40073e-05
3.8583e-05
3.01299e-05
3.39968e-05
4.89332e-05
3.2542e-05
1.86953e-05
-5.41846e-06
3.85358e-06
-2.68511e-05
-7.30051e-06
2.04216e-05
1.20786e-05
1.10457e-06
4.36802e-05
1.17057e-05
2.13052e-05
4.251e-05
2.21485e-05
-7.86801e-06
-2.41405e-05
1.71417e-06
-1.34561e-06
2.93786e-05
1.24323e-05
-1.81556e-05
3.11814e-05
3.26351e-05
2.30385e-05
2.92625e-06
3.75388e-05
6.31525e-06
2.02456e-05
3.71134e-05
2.0381e-05
1.42112e-05
1.1342e-05
1.42321e-05
1.13054e-06
-4.28661e-06
4.75459e-06
3.36627e-05
1.44883e-05
2.00175e-05
5.61264e-06
-4.27358e-06
8.14171e-07
-1.49338e-06
-4.20454e-06
-4.85191e-06
-2.75387e-07
-4.59467e-06
3.10541e-06
-7.06523e-06
-3.14063e-06
-2.09008e-06
-4.65199e-06
-7.28783e-06
1.09376e-05
1.35513e-05
1.17608e-05
-2.89166e-07
1.45111e-05
4.99202e-06
7.52997e-06
1.24806e-05
1.60023e-05
1.75945e-05
1.61068e-05
1.78914e-05
9.38954e-06
-1.6822e-06
1.2468e-06
-1.44156e-05
2.53988e-07
1.02386e-05
6.0191e-06
1.15362e-06
1.23995e-05
5.8619e-06
1.14114e-05
1.38566e-05
1.15797e-05
-5.39623e-06
-4.8832e-06
5.95006e-07
-1.08701e-06
9.49284e-06
6.11403e-06
-9.75446e-06
9.45441e-06
1.75082e-05
1.28623e-05
1.47418e-06
1.18593e-05
1.93572e-06
1.04465e-05
1.18611e-05
1.08548e-05
6.98508e-06
4.99369e-06
8.03179e-06
-1.60275e-07
-1.06597e-06
1.39746e-06
9.43806e-06
7.94493e-06
1.19294e-05
4.22363e-07
-4.08083e-06
3.09194e-06
-5.25498e-06
2.69852e-06
-1.98173e-08
-1.28006e-06
-3.30777e-06
-5.82733e-07
4.47406e-07
-2.49809e-06
3.02798e-06
-5.331e-06
1.46421e-06
1.06237e-06
-5.89326e-06
-3.23139e-06
-3.59362e-07
7.32891e-07
-7.12632e-06
-4.3063e-07
-1.75618e-06
-2.20095e-06
-3.29508e-06
-3.09874e-07
-1.51197e-06
-4.90107e-06
-1.36255e-06
-2.30063e-06
-4.34086e-06
3.09275e-07
-2.00908e-06
-3.40577e-06
-5.95863e-06
-3.66773e-06
-1.62325e-06
2.51615e-06
-2.03281e-06
1.01179e-07
2.82151e-08
1.99978e-06
-1.31103e-06
2.152e-07
-2.86742e-06
1.14573e-06
-1.0881e-06
-1.82944e-06
-1.90217e-06
-5.00375e-07
-2.99954e-06
5.60929e-06
6.40186e-06
9.12256e-07
3.44461e-06
4.33982e-06
7.28202e-06
9.45302e-06
7.67928e-06
4.46463e-06
1.76845e-06
-5.14117e-06
5.30209e-06
4.54501e-06
9.10179e-08
2.28538e-06
5.26895e-06
6.37845e-06
-9.18624e-07
1.61703e-06
5.47115e-07
4.64443e-06
-3.99089e-06
7.87213e-06
6.12757e-06
4.35851e-07
1.41948e-06
5.14228e-06
5.51434e-06
4.99324e-06
3.08976e-06
1.48761e-06
2.52544e-06
4.54123e-06
5.39092e-06
0.000161341
-0.000281925
4.68419e-06
0.000272611
1.88733e-06
0.0005482
-9.82485e-07
0.000495822
2.88134e-06
0.000369667
2.02112e-07
-0.000217085
-1.02902e-06
0.000228183
-2.31136e-06
0.000266768
-1.52139e-06
0.000112769
7.72127e-06
0.000150216
-1.35169e-05
-0.000210154
-6.67571e-06
-7.65722e-05
1.11744e-05
-4.91507e-05
-7.07149e-06
-9.11622e-05
-1.07306e-05
-0.000121427
1.23774e-06
-0.000147807
-1.48851e-06
-0.000293563
6.18602e-06
-0.000182407
4.87502e-06
-0.000170985
3.36839e-06
-0.000221769
-4.6278e-06
2.23248e-05
-6.19253e-06
-0.0001797
-1.43417e-06
-4.42176e-05
-3.6366e-06
-9.47134e-05
-7.38649e-06
-0.00011104
-1.99008e-06
-0.000175795
-1.85533e-06
-0.000317994
1.83452e-06
-4.90907e-06
1.66002e-05
-3.1308e-05
-7.46915e-06
1.50991e-05
6.07006e-06
3.62307e-05
-2.47772e-05
5.99734e-06
5.20701e-05
-2.27771e-05
3.89287e-05
-4.70176e-05
-2.07742e-05
3.70975e-05
-8.90772e-05
1.84924e-05
-1.87327e-05
-2.38288e-05
2.64592e-05
-1.62625e-05
-6.72538e-05
6.43523e-06
-8.15284e-05
2.0017e-05
-1.29751e-05
1.90323e-05
-3.48111e-05
-2.12118e-05
2.99065e-05
-1.04887e-05
-2.9589e-05
-6.97285e-06
-2.4754e-05
2.43931e-07
-4.28117e-05
4.90357e-06
-5.93528e-06
-7.70763e-06
-6.85377e-06
-1.76179e-05
-5.04965e-05
3.39228e-05
-5.7639e-05
1.06541e-05
-1.71246e-05
-3.25885e-06
4.68105e-06
-1.24507e-06
-4.0257e-05
-1.48226e-05
-1.04884e-05
-2.25194e-05
-9.0046e-07
-2.24417e-05
-3.52564e-05
-5.8626e-05
-8.4129e-06
1.95437e-05
-4.1562e-06
-6.52184e-06
2.90541e-06
-1.84598e-05
-1.11835e-05
-1.0439e-06
2.36106e-05
1.48538e-05
1.8121e-05
2.74751e-05
-8.25219e-06
-2.22412e-05
-3.93522e-05
-1.02872e-05
-1.08961e-05
1.5464e-05
1.19777e-05
6.51811e-06
-2.82194e-05
-6.53532e-06
-3.59621e-05
-8.82852e-06
-6.85379e-06
-8.9637e-06
-1.42544e-05
7.38637e-06
1.35636e-05
3.75332e-06
-1.38946e-05
8.89371e-07
-1.02017e-05
-7.99558e-07
-1.89721e-05
-1.27262e-06
-3.74011e-06
8.06424e-06
-3.75784e-06
1.1605e-05
-2.14124e-05
-1.98944e-05
-2.61513e-05
-6.27064e-06
-7.67188e-06
1.43958e-06
3.31634e-06
-6.22559e-07
-1.78235e-05
7.5209e-06
-4.41712e-06
1.20788e-05
-7.15734e-07
1.36637e-05
-1.68155e-05
-2.53794e-05
-4.10382e-06
9.67691e-06
-1.92095e-06
-3.45316e-06
5.70807e-07
-1.00791e-05
-4.56765e-06
-5.55885e-07
7.13603e-06
9.8413e-06
3.09025e-06
1.53974e-05
-2.92243e-07
-1.18256e-05
-1.22123e-05
-6.36174e-06
-4.61057e-06
8.01309e-06
2.58101e-06
4.40009e-06
-8.60935e-06
-4.21101e-06
-9.45741e-06
-6.07514e-06
-3.75596e-06
-5.99471e-06
-4.12118e-06
5.59102e-06
1.99722e-06
2.64477e-06
-4.88905e-06
7.30071e-07
-2.4301e-06
-6.72649e-07
-5.9993e-06
-9.78947e-07
-2.83935e-06
4.31294e-06
-2.92742e-06
6.10324e-06
-5.67434e-06
-1.06679e-05
-9.43509e-06
-3.63293e-06
-1.90448e-06
1.50201e-06
1.41205e-07
-3.68892e-07
-5.07772e-06
3.14482e-06
9.0394e-08
6.36977e-06
-2.60112e-06
6.2139e-06
-4.7866e-06
-9.41367e-06
-2.78249e-06
5.38069e-06
-2.52056e-06
-6.02122e-06
-7.2486e-07
1.89124e-06
7.26049e-06
-4.96906e-06
-3.20148e-06
2.80654e-06
1.46658e-06
-3.04661e-07
-2.28005e-06
-1.12493e-06
8.46678e-07
5.14874e-07
3.74112e-07
7.51834e-07
-4.92338e-07
1.20507e-06
3.45933e-06
-5.9425e-06
-1.74996e-06
-1.91849e-07
2.56349e-07
3.42511e-06
3.20892e-06
3.69578e-06
0.000349086
0.000237091
4.42807e-06
8.27893e-06
-1.13841e-06
0.000408666
5.08243e-06
2.00569e-06
-8.41919e-07
2.09524e-05
-1.47277e-05
1.47261e-05
)
;

boundaryField
{
    top_fluid_surface
    {
        type            calculated;
        value           nonuniform List<scalar> 
64
(
-0.000199028
-0.000117877
-0.000165083
-7.98565e-05
-7.36223e-05
3.46096e-05
-2.60767e-05
-0.000215482
-0.000406624
-0.000162437
0.000161301
-5.87589e-05
-0.000231538
-0.000134832
-4.95537e-06
-0.000265555
0.000900131
0.00107501
0.0011004
0.00110836
7.88755e-05
-0.00011285
0.000852933
0.000889359
-3.47045e-05
0.000510124
0.000591407
0.000499033
0.000394554
6.62716e-05
-0.000142216
0.00036088
-0.000137261
-0.00028487
-0.000520884
-1.08601e-05
4.19448e-05
0.000220344
-0.00044182
-0.00024013
-0.000126857
-0.000218789
0.000175028
-0.000146424
-0.000254569
4.34824e-05
-0.000243565
-0.000211831
-0.000121516
-0.000209682
-0.000124599
-0.00024956
-0.000238478
-0.00024828
-0.00047355
-0.000249394
-0.000275921
-0.000115606
-7.26058e-05
-0.000596229
-0.000315316
-0.000154548
-0.000224939
-0.000332497
)
;
    }
    bottom_fluid_surface
    {
        type            calculated;
        value           uniform 0;
    }
    lateral_surface_1
    {
        type            calculated;
        value           uniform 0;
    }
    lateral_surface_2
    {
        type            calculated;
        value           uniform 0;
    }
    lateral_surface_3
    {
        type            calculated;
        value           uniform 0;
    }
    lateral_surface_4
    {
        type            calculated;
        value           uniform 0;
    }
}


// ************************************************************************* //
