/*--------------------------------*- C++ -*----------------------------------*\
| =========                 |                                                 |
| \\      /  F ield         | OpenFOAM: The Open Source CFD Toolbox           |
|  \\    /   O peration     | Version:  v1612+                                |
|   \\  /    A nd           | Web:      www.OpenFOAM.com                      |
|    \\/     M anipulation  |                                                 |
\*---------------------------------------------------------------------------*/
FoamFile
{
    version     2.0;
    format      ascii;
    class       surfaceScalarField;
    location    "2.2";
    object      phi;
}
// * * * * * * * * * * * * * * * * * * * * * * * * * * * * * * * * * * * * * //

dimensions      [0 3 -1 0 0 0 0];

internalField   nonuniform List<scalar> 
816
(
-3.19022e-06
-1.53891e-06
7.10641e-07
1.60333e-06
-2.47954e-06
4.89561e-06
-1.59841e-06
2.1085e-06
-2.40473e-06
4.6967e-07
-1.86689e-06
-1.49133e-06
6.6487e-07
1.94396e-06
1.20349e-06
-3.95659e-06
-1.3321e-07
1.95493e-06
3.86214e-06
-8.78121e-06
-5.93348e-05
0.00026086
-1.50185e-06
-8.62029e-05
4.83649e-05
5.9652e-05
-3.1063e-05
1.01056e-05
1.53955e-05
-2.4984e-05
-1.72727e-05
3.08593e-05
6.22818e-05
1.63825e-05
1.93572e-05
-5.20537e-05
9.33907e-05
-4.74853e-05
7.58851e-06
-6.70432e-05
-4.34632e-06
3.19275e-05
9.23069e-06
2.95912e-05
-7.70482e-05
0.000100199
1.35125e-05
-3.6868e-05
8.36508e-05
5.55014e-05
1.09215e-05
-1.13466e-05
-3.22819e-05
8.09603e-05
1.00625e-05
-7.93795e-06
7.25775e-05
9.16426e-05
-1.13269e-05
3.80357e-05
-0.000145488
0.000106145
-9.1859e-06
6.98876e-05
-0.000162785
5.17437e-06
-1.377e-05
8.29302e-05
3.7384e-06
9.95861e-07
-6.49361e-06
-2.34204e-06
7.6578e-06
4.11052e-06
-1.22457e-05
-1.49034e-06
-7.30574e-07
-8.02992e-06
-4.27837e-06
2.19194e-06
-2.60192e-06
-2.58013e-06
8.49667e-06
-4.16847e-06
1.11988e-05
-1.69878e-06
4.64468e-06
3.42934e-06
-2.38539e-06
-5.50529e-06
-8.15903e-07
1.02615e-05
2.23993e-06
-1.09668e-06
2.8519e-06
2.55843e-06
3.50069e-06
1.68566e-06
5.26213e-06
-3.03417e-06
7.38952e-06
7.74078e-06
-3.93022e-06
-8.93823e-07
8.4448e-06
4.02624e-06
-2.298e-06
-3.57946e-06
-2.36463e-06
6.17398e-07
-7.57057e-06
-6.09674e-06
4.31291e-06
6.1813e-06
-7.92542e-07
1.36613e-06
1.58526e-07
-1.85918e-06
-2.83924e-06
-1.35519e-06
-2.31555e-06
-5.82715e-06
-1.80884e-06
-1.30584e-06
-1.67523e-06
-6.69589e-07
-2.87449e-06
1.03772e-06
4.01501e-06
-2.38756e-07
1.07857e-06
2.58663e-06
1.87168e-06
-5.79067e-07
8.26651e-09
1.48106e-06
-6.52742e-07
1.34349e-06
1.39169e-06
1.47371e-06
2.50448e-06
3.01176e-06
1.74095e-06
-6.59987e-07
-1.16785e-06
3.20301e-07
8.07441e-08
-6.54612e-07
-7.29834e-07
3.51862e-07
-2.14874e-06
-3.88269e-06
-6.93732e-07
3.70868e-06
-2.29755e-06
8.03146e-07
-1.97552e-06
-8.88018e-07
-1.79509e-07
7.29213e-07
-2.64814e-07
-1.06327e-06
1.16992e-06
-1.99037e-06
3.71904e-07
-8.4596e-07
-2.57125e-08
7.58788e-07
4.127e-07
-3.24824e-07
1.03011e-06
1.2306e-06
3.89275e-07
-1.53414e-06
-8.618e-07
-9.7484e-07
-1.71872e-06
-1.0673e-06
-1.41828e-06
-6.73012e-07
-4.33165e-07
-2.01352e-06
-2.5705e-07
6.81976e-07
-4.83341e-07
1.14553e-06
8.17632e-07
1.34396e-06
7.67326e-07
-3.49085e-07
1.1932e-06
-6.03255e-08
2.40977e-08
4.92507e-07
1.09294e-06
4.60289e-07
1.60448e-06
1.14498e-06
7.25165e-07
-1.39103e-07
5.60753e-07
6.31234e-07
-6.34333e-07
-3.24386e-07
1.55542e-07
4.23183e-08
-1.8207e-06
-4.2199e-07
-1.24279e-06
-1.10536e-06
6.39268e-07
8.22588e-07
-0.000131855
-3.70413e-05
3.8243e-06
-0.000127785
-2.5721e-05
4.21767e-07
-0.000254718
9.79178e-07
1.24198e-06
-0.000106003
2.84138e-05
-1.62944e-05
2.50237e-05
2.76137e-05
-9.28928e-06
-7.06435e-05
-0.000117582
-3.75964e-05
-5.54524e-06
-9.98781e-05
-3.44726e-05
1.71156e-05
-0.00020591
-8.60415e-05
2.42109e-06
-0.00026324
-0.000223682
-1.23549e-05
-0.000102492
2.45334e-05
-1.78818e-05
7.54012e-05
-0.000263647
8.47754e-05
1.04859e-05
-0.000110452
0.000114101
4.0015e-07
-5.69674e-05
0.000130146
1.60108e-05
-1.91267e-05
4.61073e-05
-1.33058e-06
-0.000108134
3.272e-05
-6.32752e-06
3.85331e-05
8.15578e-05
8.44614e-05
-1.42993e-05
4.98739e-05
1.20507e-05
-1.82443e-06
-0.00012714
-8.58024e-05
8.9961e-06
-0.000112514
-0.000222874
5.53637e-06
-6.51689e-05
-4.23072e-06
-0.000253502
-8.67908e-05
9.47134e-07
-2.07809e-07
9.43411e-06
-2.26535e-06
4.88995e-06
3.88944e-06
1.03482e-06
4.20724e-06
-7.48836e-07
-3.60707e-06
-5.69493e-06
-1.17891e-06
-4.28539e-06
8.77806e-07
3.28042e-06
-1.01511e-05
-1.0231e-05
-2.55754e-06
3.38445e-06
-8.4722e-06
4.16553e-06
1.10679e-05
-4.46432e-06
2.86477e-06
1.03316e-05
-3.14069e-06
-5.02838e-06
3.39646e-06
2.9309e-06
-5.5493e-06
-1.40553e-05
7.16585e-06
-5.85081e-06
-2.73849e-06
7.21324e-06
1.31725e-06
-3.24417e-06
4.07337e-06
1.7117e-06
4.42864e-06
1.03652e-06
4.24949e-06
6.35261e-06
-5.76538e-07
-3.77348e-06
-1.8021e-08
-3.25697e-06
-2.27154e-06
5.63117e-06
-2.09254e-06
-4.43685e-06
2.01558e-06
-2.01591e-06
2.75078e-06
-7.0771e-06
-1.61335e-06
1.03137e-05
-8.0531e-06
-1.39325e-06
4.7373e-06
1.72638e-06
-4.40286e-06
-1.35516e-06
-1.44074e-08
-1.1675e-06
4.54333e-06
4.48546e-06
-7.26876e-07
-2.93031e-07
2.35976e-06
-6.99209e-07
-4.40724e-07
-2.70177e-07
-2.14302e-06
4.92985e-07
-7.26317e-07
-2.04983e-06
-9.76014e-07
1.6937e-06
2.12518e-07
2.85501e-06
-9.65858e-07
2.04364e-06
-1.53116e-06
1.68101e-06
5.87819e-06
2.29417e-06
4.8119e-06
4.44119e-06
4.61644e-06
4.78479e-06
1.35172e-06
3.5327e-06
-2.86598e-06
-6.54285e-06
-1.22529e-06
1.35898e-06
-5.15315e-07
4.0085e-06
2.27965e-07
2.32957e-06
1.29233e-06
1.39871e-06
1.66927e-06
8.85556e-07
2.55192e-06
1.46514e-06
-1.01744e-07
3.04663e-08
-1.88134e-06
-2.37949e-06
1.3349e-06
1.12905e-06
-2.58819e-06
-2.15212e-06
-1.50148e-06
-1.60716e-06
1.81514e-06
2.98635e-07
1.70592e-06
4.7757e-06
1.52985e-06
1.9818e-06
2.79286e-06
2.47372e-06
-1.80159e-06
-4.86254e-07
4.43967e-06
-6.73095e-07
2.83851e-06
1.14408e-06
1.01873e-07
8.98947e-08
5.77952e-07
2.16747e-07
-3.6867e-07
2.91582e-07
-1.14375e-06
-2.24163e-07
1.06767e-07
-1.40956e-06
-5.8509e-07
6.07886e-07
1.02728e-07
1.34783e-06
-4.05152e-07
7.38206e-07
-8.86861e-07
1.61388e-06
2.00021e-06
1.36285e-06
3.19089e-06
1.17476e-06
3.01334e-06
3.31842e-06
2.36405e-07
2.15944e-06
-2.09939e-06
-1.81287e-06
-6.28131e-07
1.33057e-06
-2.35066e-07
1.4381e-06
6.28561e-07
1.00754e-06
4.11223e-07
7.19271e-07
1.18617e-06
1.34566e-07
1.71533e-06
1.52286e-06
-5.34645e-08
1.71795e-07
-1.55722e-06
-8.19294e-07
6.55167e-07
8.44135e-07
-2.12893e-06
-4.39509e-07
-5.23871e-07
-1.00993e-06
5.03635e-07
3.46448e-07
7.43253e-07
1.19364e-06
1.4042e-06
1.52614e-06
5.55202e-07
2.09143e-06
-5.62144e-07
1.81883e-07
2.93886e-06
-1.12518e-06
2.94097e-08
-9.82743e-08
9.21956e-07
-4.88235e-08
2.42165e-07
-9.58033e-07
-6.26333e-07
4.49547e-07
6.08577e-07
-2.65871e-07
8.09462e-07
-3.52333e-07
-1.6716e-07
-5.57087e-07
-9.38179e-07
-5.93225e-07
4.63831e-08
-3.88341e-07
-8.53318e-07
5.60501e-07
-3.41886e-07
5.78422e-07
4.66815e-07
6.3333e-08
4.76063e-07
3.92714e-08
5.79736e-07
7.20191e-07
1.07764e-06
6.7066e-07
-5.37538e-07
5.15656e-07
4.58408e-07
-2.60259e-07
3.69097e-07
-8.20714e-07
2.33497e-07
-7.00191e-07
5.2867e-07
-7.86136e-07
1.57789e-06
-3.438e-07
-5.58147e-07
-2.08897e-07
-3.55749e-07
-4.98266e-07
-5.24025e-08
-5.81379e-07
-1.05717e-07
-1.55787e-08
6.83737e-07
4.64587e-08
-2.70984e-07
1.07336e-06
6.1505e-07
1.683e-06
1.00527e-06
1.54698e-06
8.13631e-07
-8.84687e-07
-1.02889e-07
6.99608e-07
1.96882e-07
3.57503e-07
7.78876e-07
5.35855e-07
8.22458e-07
7.51516e-07
9.25345e-07
3.57579e-07
-1.00614e-06
5.89583e-07
5.15011e-07
-1.06804e-06
7.59758e-08
-5.19141e-07
3.22719e-07
1.87567e-07
7.202e-07
3.76352e-07
8.95107e-07
-8.71434e-08
1.48161e-06
1.77985e-05
-3.57337e-05
6.69533e-06
-0.000166824
1.12522e-05
0.000115516
2.82801e-07
0.000115296
5.88754e-06
-4.4734e-06
7.29177e-06
-7.20093e-05
1.91042e-05
1.84331e-07
-4.76537e-07
-5.0917e-05
2.5596e-06
-0.000149582
1.97976e-05
-4.75012e-05
1.03179e-05
0.00013585
-8.82557e-06
6.10167e-05
-2.82582e-05
-0.000143695
-2.79992e-05
-7.34253e-05
-1.17674e-06
0.000126117
3.16626e-07
0.000211959
5.73889e-06
0.000111378
-5.58929e-06
0.000106768
-1.09475e-05
0.000150961
1.80978e-05
7.1847e-05
-1.75263e-06
-1.43528e-05
-2.03834e-05
-7.62875e-05
-1.48608e-05
-0.000106898
2.89098e-06
4.49644e-05
2.10705e-05
2.89762e-05
9.97014e-06
-8.6481e-05
-1.2379e-05
-0.000156299
-1.85395e-05
-3.12794e-06
1.44225e-06
1.25085e-06
1.03655e-06
5.27951e-07
5.36369e-06
1.19457e-06
-2.11261e-06
-1.94298e-06
5.06427e-06
-7.3737e-06
7.94781e-06
-2.71784e-06
3.31452e-06
2.06044e-06
-6.50058e-06
2.34249e-07
-7.3802e-06
7.59648e-07
1.10062e-05
5.99383e-06
8.68392e-07
1.02974e-05
-1.60638e-05
3.50155e-06
-1.35632e-05
-2.35099e-06
6.38898e-06
-5.58732e-06
1.66677e-06
-2.95701e-06
-9.27684e-06
8.08567e-07
4.15981e-06
-3.63055e-06
4.55812e-07
-3.38803e-06
-6.9584e-06
8.44502e-06
2.50244e-06
7.16621e-06
-2.53652e-06
-1.70596e-06
-1.10371e-05
-7.06888e-06
-3.38218e-06
-8.51482e-06
7.72061e-06
1.66877e-06
3.52444e-06
7.15251e-06
-3.5111e-06
2.20392e-06
-5.75803e-06
-2.46024e-06
-1.35773e-05
-4.32573e-06
-2.56001e-06
2.66684e-06
4.39535e-07
-4.5935e-07
2.56264e-06
-1.72226e-06
-1.47366e-06
-8.32951e-07
2.05942e-06
1.19383e-06
3.88385e-06
3.03482e-06
1.69054e-06
-1.0206e-06
-2.44097e-06
-2.5578e-06
-2.97825e-06
2.06798e-06
4.84942e-06
4.46161e-06
7.60744e-07
6.29667e-07
-7.62571e-06
-3.16939e-06
-6.23818e-06
-7.28993e-07
2.72986e-06
6.69816e-07
2.73943e-07
-2.12233e-06
-5.08436e-06
5.75813e-07
1.68004e-06
2.04601e-06
3.7723e-07
6.66458e-07
-3.02926e-06
2.20523e-06
9.85814e-07
2.36027e-06
-1.37502e-06
-3.42375e-06
-5.25806e-06
-3.50549e-06
-2.19175e-06
-4.21127e-07
3.13123e-06
1.81952e-06
1.5768e-06
2.01863e-06
-2.18243e-06
1.54823e-06
-2.81454e-06
-1.46786e-06
-6.12806e-06
-3.12897e-06
-1.67125e-06
2.29694e-06
-1.50887e-08
-1.92753e-07
1.17888e-06
-1.28843e-06
-1.5115e-07
-1.08229e-06
7.17843e-07
2.50082e-07
1.14696e-06
1.4686e-06
5.76373e-07
-3.63481e-07
-6.11418e-07
-1.07832e-06
-9.09001e-07
1.59522e-06
1.28413e-06
3.47298e-06
2.34293e-07
6.68575e-07
-1.82818e-06
-1.59073e-06
-1.82608e-06
6.91982e-08
5.11523e-07
4.20333e-07
-6.16063e-08
-1.85066e-06
-1.49086e-06
-1.53062e-07
5.97551e-07
9.3482e-07
-6.83561e-09
4.18734e-07
-8.08811e-07
1.61127e-06
-4.08775e-08
1.64108e-06
-7.56146e-07
-1.82379e-06
-1.79874e-06
-2.37874e-06
-8.08813e-07
-4.38615e-07
6.69574e-07
1.11689e-06
3.68071e-07
9.35665e-07
-5.97929e-07
1.02065e-06
-8.1122e-07
-1.07161e-07
-2.06299e-06
-9.37068e-07
-1.25287e-06
1.15356e-06
-4.17397e-07
-7.74791e-07
-5.48587e-07
2.25175e-08
5.89902e-07
-2.08369e-08
-2.45427e-07
7.56816e-07
1.58785e-06
7.47139e-07
-2.67222e-07
1.50145e-07
8.6542e-08
-7.32603e-07
2.15798e-07
7.40194e-07
6.77972e-07
9.88927e-07
8.19714e-07
-9.77798e-07
-1.27756e-06
-5.31878e-07
1.6179e-07
2.89401e-07
3.73997e-07
-2.13311e-07
-2.15576e-05
0.000142345
-2.52556e-05
-5.03699e-05
-1.6226e-05
-5.28285e-05
2.295e-06
1.9582e-05
-1.30148e-06
-5.11737e-06
-9.53392e-06
-2.38322e-06
)
;

boundaryField
{
    top_fluid_surface
    {
        type            calculated;
        value           nonuniform List<scalar> 
64
(
-0.000162074
-0.000106453
4.12748e-05
-0.000101375
0.000132557
-4.07181e-05
-0.000130876
7.39288e-05
-9.55424e-05
0.000110448
8.50244e-05
0.000295194
0.000279443
5.49155e-05
0.000116787
7.889e-05
0.000198283
0.000229698
0.00013355
0.000247906
0.000281004
-4.27373e-05
-2.94262e-05
-1.06651e-05
-2.16188e-05
0.000191735
-9.97648e-05
-1.37944e-05
0.000206702
0.00026423
0.000279448
9.49602e-05
-0.000242995
5.91665e-05
-0.000471843
-3.26652e-05
0.000131871
-2.61053e-05
-7.24816e-05
-7.47093e-05
-2.11273e-05
-0.000317235
-0.000434498
-1.10829e-08
0.000305078
-6.74418e-05
-0.000334006
-0.000194719
5.13341e-05
2.94555e-06
-0.000170979
0.000118766
0.000106335
0.000153285
4.47503e-05
-0.000301771
-0.000102553
6.32381e-05
-2.5624e-08
-0.000194876
-0.000192574
0.000140058
-2.65654e-05
-4.4144e-05
)
;
    }
    bottom_fluid_surface
    {
        type            calculated;
        value           uniform 0;
    }
    lateral_surface_1
    {
        type            calculated;
        value           uniform 0;
    }
    lateral_surface_2
    {
        type            calculated;
        value           uniform 0;
    }
    lateral_surface_3
    {
        type            calculated;
        value           uniform 0;
    }
    lateral_surface_4
    {
        type            calculated;
        value           uniform 0;
    }
}


// ************************************************************************* //
