/*--------------------------------*- C++ -*----------------------------------*\
| =========                 |                                                 |
| \\      /  F ield         | OpenFOAM: The Open Source CFD Toolbox           |
|  \\    /   O peration     | Version:  v1612+                                |
|   \\  /    A nd           | Web:      www.OpenFOAM.com                      |
|    \\/     M anipulation  |                                                 |
\*---------------------------------------------------------------------------*/
FoamFile
{
    version     2.0;
    format      ascii;
    class       volScalarField;
    location    "7.35";
    object      alpha.water;
}
// * * * * * * * * * * * * * * * * * * * * * * * * * * * * * * * * * * * * * //

dimensions      [0 0 0 0 0 0 0];

internalField   nonuniform List<scalar> 
1116
(
0.69055
0.69055
0.69055
0.69055
0.690551
0.690551
0.926362
0.926485
0.926411
0.926397
0.926438
0.926393
0.974283
0.974283
0.974283
0.974283
0.974283
0.974283
0.974283
0.974283
0.974283
0.974283
0.974283
0.974283
0.974283
0.974283
0.974283
0.974283
0.974283
0.974283
0.914158
0.914
0.914015
0.914201
0.914115
0.914063
0.848658
0.849826
0.84981
0.848686
0.847639
0.850503
0.808546
0.80947
0.809594
0.808355
0.80765
0.809957
0.790638
0.790381
0.790727
0.79037
0.790617
0.790178
0.786008
0.784619
0.785137
0.785747
0.786785
0.784091
0.785097
0.784219
0.784225
0.785119
0.78589
0.784973
0.784392
0.783391
0.78345
0.784354
0.785224
0.784122
0.759722
0.759651
0.759681
0.759722
0.759708
0.75971
0.926506
0.926555
0.92653
0.926499
0.926507
0.926497
0.852499
0.852482
0.852503
0.852474
0.852447
0.852506
0.753391
0.753239
0.753292
0.753336
0.753385
0.75325
0.522038
0.521178
0.521306
0.521782
0.521998
0.521459
0.28482
0.288439
0.288139
0.285498
0.284165
0.288579
0.136577
0.137661
0.137704
0.137143
0.137842
0.137365
0.100587
0.10091
0.100908
0.100265
0.10001
0.100407
0.120703
0.120867
0.121023
0.120351
0.119845
0.120659
0.118793
0.117075
0.117602
0.118504
0.119098
0.116475
0.115872
0.118233
0.118045
0.115902
0.113658
0.119516
0.208278
0.209215
0.210362
0.208139
0.208668
0.210914
0.762517
0.762517
0.762512
0.762507
0.762507
0.762506
0.575116
0.575478
0.575266
0.575367
0.575457
0.575048
0.319364
0.31956
0.319204
0.319666
0.320062
0.318768
0.141869
0.142239
0.142241
0.141948
0.141684
0.142391
0.0598103
0.0565301
0.056385
0.059446
0.0612857
0.0551654
0.011506
0.0148467
0.014566
0.011935
0.011662
0.0139187
0.00236838
0.00258957
0.00258615
0.00236893
0.00226066
0.00230257
0.0094729
0.00733321
0.00744982
0.00959608
0.0112766
0.00545797
0.0161747
0.0156592
0.0154761
0.0165371
0.0169638
0.0151437
0.0192001
0.0193016
0.0190077
0.0194527
0.0190853
0.0192974
0.0242165
0.0237718
0.0236616
0.0241358
0.0241099
0.0231137
0.0327852
0.034531
0.0339361
0.0324799
0.0301523
0.0338192
0.7605
0.75989
0.760111
0.760325
0.760249
0.760304
0.0992815
0.100307
0.0998973
0.0998738
0.0997963
0.099243
1.9675e-05
1.85905e-05
1.85908e-05
1.94883e-05
2.0685e-05
1.81669e-05
5.69236e-05
3.3819e-05
3.47069e-05
5.45957e-05
6.69149e-05
3.30524e-05
8.59942e-05
6.76999e-05
6.84038e-05
8.61717e-05
0.000433263
6.07325e-05
0.00124609
8.61717e-05
8.61717e-05
0.00105831
0.0017532
7.35281e-05
0.00234202
0.00241626
0.00242383
0.0023781
0.00223747
0.00209733
0.00040798
0.00104202
0.00103786
0.000556816
0.000205766
0.00147918
4.1189e-06
4.10906e-06
4.18418e-06
4.22769e-06
4.19663e-06
4.52985e-06
1.68275e-06
1.69917e-06
1.77053e-06
1.73311e-06
1.74666e-06
1.87054e-06
0.00404455
0.00387028
0.00399013
0.00409372
0.00427914
0.00400927
0.0221212
0.0209355
0.0213313
0.0223077
0.0231641
0.021097
0.0921757
0.0921838
0.0921838
0.092184
0.0921788
0.0921804
0.0921676
0.0921734
0.0921842
0.0921773
0.0921729
0.0921094
0.0880642
0.0574217
0.0681086
0.075363
0.0921578
0.0921256
0.0367213
0.0699881
0.0704061
0.0672226
0.0721033
0.0920883
0.0641079
0.0679499
0.0684348
0.0542987
0.0571956
0.0525811
0.0646758
0.0571321
0.0368678
0.010128
0.0518554
0.00752379
0.0648904
0.0625682
0.0323236
0.00987222
0.0413055
0.0520961
0.0654054
0.065473
0.0553791
0.055827
0.0417446
0.0633296
0.065892
0.0666468
0.0730873
0.0660863
0.0530287
0.0632261
0.0572225
0.0562436
0.0733616
0.0625904
0.0561755
0.0629636
0.0441183
0.0478135
0.0734128
0.0701922
0.0649693
0.0606422
0.043366
0.0499858
0.0709286
0.0705638
0.0699794
0.0592207
0.0921676
0.0802976
0.0921839
0.0921773
0.0921834
0.092181
0.0910261
0.0526678
0.0745978
0.0703836
0.0602085
0.0921703
0.0159716
0.009835
0.0067272
0.00781518
0.0160458
0.025767
0.00319765
0.00201421
0.00263392
0.0023414
0.00417968
0.00417951
0.000358506
1.64795e-07
1.28188e-07
0.000115556
0.00210807
0.00335176
1.93865e-08
5.62804e-09
3.11313e-05
0.000950259
0.00190794
0.00492701
2.50362e-09
2.28348e-09
0.000439439
0.00153154
0.00153591
0.00321324
4.35966e-09
2.02888e-08
0.000527009
3.10265e-09
9.3086e-09
0.000101039
3.53751e-09
4.77056e-09
5.10832e-08
2.91885e-08
1.13536e-07
1.18745e-07
4.59985e-09
0.000350974
5.22059e-07
5.68233e-07
3.02602e-07
2.12252e-07
0.000546744
0.00205759
0.000522665
6.59292e-06
1.30684e-05
2.77024e-06
0.0183411
0.00196685
0.000667605
0.0234717
0.0328897
0.0136923
0.0921463
0.0913369
0.0919021
0.0915635
0.088415
0.0921706
0.0910401
0.0192859
0.0442354
0.0337218
0.0263629
0.092164
0.0090368
6.11947e-06
5.52384e-06
1.53101e-06
0.00108999
0.0200426
8.52009e-07
1.63658e-07
1.27415e-07
5.04916e-08
5.72431e-07
5.17317e-06
1.92182e-08
5.6027e-09
4.04034e-09
3.45637e-09
2.38418e-08
4.06984e-07
1.3796e-09
2.28329e-09
1.15602e-09
1.45774e-09
3.46076e-09
8.34265e-06
2.28355e-09
2.26525e-09
2.28245e-09
2.0857e-09
1.36957e-09
2.19002e-10
8.9671e-09
2.70025e-07
2.16635e-09
2.33674e-09
2.28188e-09
6.30248e-09
3.53956e-09
3.4485e-09
8.60446e-09
3.09919e-09
9.25232e-09
2.93453e-08
3.53177e-09
8.80571e-09
2.04526e-07
6.271e-07
0.000109414
1.05879e-05
2.86934e-08
6.24296e-07
0.000472576
0.00140683
0.00122283
4.88443e-05
6.43948e-07
0.00627359
0.0112783
0.00304545
0.000329547
0.000101839
0.0921251
0.0921136
0.0920942
0.0378112
0.0589506
0.0921638
0.07214
0.028673
0.0324961
0.0122509
0.0149845
0.048264
0.00675299
1.18967e-05
9.40225e-06
2.83885e-06
1.68696e-06
0.000730427
2.06327e-06
2.56175e-07
1.92735e-07
4.16104e-08
4.84665e-09
-8.51586e-09
6.75744e-09
4.22816e-09
1.73986e-09
9.02773e-10
4.21578e-12
-2.48626e-11
2.85159e-11
6.11536e-09
2.49486e-11
1.06424e-09
2.75813e-08
1.34307e-07
9.25804e-09
1.95669e-09
1.15582e-09
1.39581e-08
5.78119e-08
6.74031e-11
1.12653e-08
2.88865e-07
1.34879e-07
2.10794e-09
5.25651e-10
1.85866e-10
3.53998e-09
9.74385e-07
4.49717e-06
2.91125e-08
1.5e-08
7.57804e-07
3.34338e-08
8.33364e-08
6.56925e-06
1.77664e-06
7.81385e-07
7.13542e-06
3.80253e-08
4.88149e-08
1.81316e-06
0.00384227
0.00329477
4.21485e-06
0.0128184
0.0160891
0.0161403
0.0161628
0.0124382
0.0135055
0.256785
0.249508
0.252273
0.254516
0.253484
0.254776
0.000291414
0.000270304
0.000289436
0.000276698
0.000256933
0.00028302
0.000313639
0.000267357
0.000299804
0.000286809
0.000252725
0.000318439
0.0170446
0.0166704
0.0171015
0.0168188
0.0162571
0.0173449
0.00244017
0.00190806
0.00203151
0.00223607
0.00225516
0.00212987
0.000195153
0.000193537
0.000193537
0.000193537
0.000199904
0.000205838
1.85876e-05
1.8594e-05
1.85876e-05
1.83841e-05
1.81678e-05
1.81678e-05
0.000221522
2.21211e-05
1.8594e-05
0.00010964
0.000153262
1.83912e-05
0.000401982
0.000243811
0.000197701
0.000385742
0.000477811
0.000203079
2.37709e-05
1.8594e-05
1.8594e-05
2.09998e-05
5.48721e-05
1.81678e-05
0.000498532
0.00028568
0.000175235
0.000505304
0.000491573
0.000222776
0.000768298
0.000768298
0.000762524
0.000750447
0.000742677
0.000735891
0.00106591
0.000438683
0.000494978
0.00103217
0.00139992
0.000501661
0.00106656
0.00100687
0.000997394
0.00119701
0.00125755
0.00113864
0.000635958
0.000683376
0.000665044
0.000499896
0.000459368
0.000657449
0.00164772
0.00147514
0.00153383
0.00181143
0.00181517
0.00127866
0.000303205
0.000218789
0.000373213
0.000150127
7.61514e-05
0.000338749
1.18326e-25
7.8356e-26
7.49956e-26
1.77779e-25
2.18637e-25
8.25565e-26
0.00052524
0.000562682
0.000564342
0.000374297
0.000280357
0.000510835
4.42547e-12
4.45844e-12
4.40408e-12
4.53572e-12
4.57528e-12
4.27981e-12
2.78314e-18
3.56772e-18
4.02276e-18
4.03182e-19
-1.34121e-18
3.24231e-18
4.99773e-08
2.77078e-08
2.24556e-08
5.03311e-08
4.41035e-08
3.86768e-08
3.46515e-10
3.55573e-10
3.53589e-10
3.57667e-10
3.57703e-10
3.52721e-10
-2.22049e-12
-3.34736e-16
-2.70927e-14
-3.19232e-12
-2.81547e-12
1.29359e-18
1.05847e-07
1.03111e-07
1.03646e-07
1.1e-07
1.08661e-07
1.16338e-07
2.25662e-08
2.01426e-08
1.8686e-08
2.30259e-08
2.21967e-08
2.44885e-08
8.27225e-08
8.39763e-08
8.3629e-08
8.58162e-08
8.65126e-08
8.36492e-08
1.30263e-08
1.40405e-08
1.4365e-08
1.33511e-08
1.25837e-08
1.59029e-08
7.62714e-10
8.15591e-10
8.26535e-10
7.54988e-10
7.93861e-10
8.2152e-10
2.96505e-07
2.96527e-07
2.96544e-07
2.96579e-07
2.96614e-07
2.96614e-07
-7.40546e-09
-7.20254e-09
-7.56586e-09
-7.52723e-09
-7.24994e-09
-7.60868e-09
6.51049e-12
6.59505e-12
6.68516e-12
6.63897e-12
6.61444e-12
7.00896e-12
2.25605e-08
2.26795e-08
2.26235e-08
2.273e-08
2.23343e-08
2.33204e-08
0.00590634
0.00577783
0.00587505
0.00600636
0.00619948
0.00585587
7.17021e-15
7.55711e-15
7.44295e-15
7.41608e-15
7.11018e-15
7.90976e-15
-8.48627e-18
-1.58295e-17
-2.18322e-17
-1.13205e-17
6.64405e-18
5.69243e-19
0.0467626
0.0463738
0.0462643
0.0459941
0.0462495
0.0466009
1.4197e-27
7.71443e-28
2.25425e-28
9.12804e-28
2.55263e-27
1.04609e-27
1.6563e-12
8.62323e-13
2.48018e-13
1.0101e-12
2.8523e-12
1.21767e-12
0.0480265
0.0484583
0.0490186
0.0490509
0.0489386
0.0489432
-3.29785e-16
-2.55697e-16
-2.21573e-16
-5.06115e-17
-1.26638e-15
-1.17613e-16
-9.77822e-27
-8.17353e-27
-1.15573e-26
-8.47706e-27
-1.34759e-26
-6.14516e-27
0.0509168
0.0509427
0.0509923
0.0510376
0.0510391
0.0510291
-1.14636e-15
-9.64378e-16
-1.5313e-15
-2.63158e-16
-1.01526e-14
-6.41695e-16
-1.33852e-26
-1.27354e-26
-1.37875e-26
-1.23558e-26
-2.2443e-26
-8.18734e-27
0.0506901
0.050618
0.050583
0.0506612
0.0507725
0.0507646
-8.05063e-16
-6.56433e-16
-1.12905e-15
-1.03909e-16
-7.12313e-15
-3.85121e-16
-1.19487e-26
-1.38727e-26
-1.51666e-26
-1.44123e-26
-1.5831e-26
-1.0971e-26
0.0504176
0.0503435
0.0503074
0.0503741
0.0504775
0.0504798
-4.59984e-16
-3.73521e-16
-6.6247e-16
-5.11017e-17
-4.05844e-15
-2.12339e-16
-8.47081e-27
-9.90455e-27
-1.08257e-26
-1.04978e-26
-1.15349e-26
-8.13768e-27
0.0459006
0.0458425
0.0458444
0.0458411
0.0458669
0.0458487
5.99787e-28
6.28059e-28
6.19982e-28
6.20991e-28
5.95748e-28
6.57342e-28
1.10144e-17
1.09649e-17
1.09778e-17
1.11292e-17
1.11266e-17
1.10668e-17
0.0921136
0.0920942
0.092081
0.073137
0.0585139
0.0921528
0.0752982
0.0307141
0.0821465
0.075865
0.00993857
0.0537915
0.0139668
7.98702e-231
0.0151646
0.0168365
2.56143e-19
0.00898195
0.0276472
0.02672
0.0186103
0.00904118
0.00920922
0.0107556
1.35322e-08
0.0184609
5.85254e-07
0.00154854
0.00551123
1.25954e-08
-4.934e-15
0.00287857
3.16606e-08
1.35057e-08
0.000741165
4.3474e-21
9.46329e-05
3.65356e-06
1.60432e-06
2.69031e-07
5.05e-09
3.04485e-11
4.12585e-08
4.22138e-09
3.94442e-07
-1.23415e-11
4.37599e-06
4.3534e-06
1.3193e-14
-7.98235e-13
3.28224e-15
4.19565e-19
8.51221e-17
6.72419e-07
3.53875e-08
4.26705e-09
-1.08281e-08
-1.23491e-09
-1.35898e-10
-4.09945e-13
-1.72183e-11
-5.89356e-11
3.50396e-13
-1.90938e-15
-7.99033e-12
-1.1461e-17
-4.62418e-15
-1.79125e-18
9.78917e-10
1.85032e-14
3.65498e-19
1.19872e-21
2.45162e-11
-2.8892e-10
-2.48917e-10
1.33497e-13
-3.54659e-14
5.01896e-12
-3.77285e-12
6.28049e-13
1.19423e-13
2.79424e-14
3.10651e-16
5.6524e-11
2.7273e-15
6.41949e-15
2.9772e-14
-2.57534e-16
1.90404e-15
6.55611e-12
1.57511e-11
1.12309e-09
2.02498e-12
-2.11308e-13
8.26286e-11
3.00398e-09
1.14487e-11
2.65959e-13
2.15062e-13
1.70261e-14
1.07185e-14
1.70222e-14
7.74838e-14
8.93527e-14
4.75123e-14
2.78294e-14
4.95066e-14
1.78495e-14
3.46108e-09
2.16141e-09
2.48128e-11
4.84473e-11
5.67066e-11
2.1601e-12
3.81628e-10
9.17352e-10
2.43688e-12
2.23931e-13
6.0572e-13
1.35454e-12
2.2873e-12
3.21894e-11
2.43697e-11
4.91074e-12
3.40592e-13
6.79223e-14
1.4521e-09
6.41584e-09
2.27174e-09
2.83868e-10
3.28061e-11
2.12215e-11
1.23674e-09
1.66519e-08
1.16044e-08
4.98437e-09
3.17636e-11
1.75608e-12
1.00871e-10
2.60078e-09
3.44401e-09
7.6341e-10
7.50509e-12
8.75944e-11
4.84807e-09
1.71623e-07
1.69148e-07
4.22063e-08
4.13504e-10
3.98248e-08
2.83032e-08
3.79793e-07
2.81785e-07
8.43645e-08
3.26886e-09
8.89641e-08
3.68521e-09
2.72587e-08
1.81709e-08
5.49201e-09
1.4314e-10
3.12757e-09
2.4086e-08
1.1924e-06
1.20627e-06
3.52854e-07
2.82754e-08
8.37263e-07
6.06861e-06
5.21992e-06
2.05629e-06
8.13634e-07
4.9194e-08
1.17152e-06
1.50405e-08
1.26946e-08
-6.91127e-14
-1.3279e-14
-4.53591e-16
-1.05299e-14
3.96691e-08
1.6568e-07
5.70987e-11
2.61527e-09
1.01331e-09
6.6141e-09
7.21308e-06
3.53992e-07
7.37329e-11
-7.97815e-13
-5.43279e-13
-1.92253e-12
-2.93612e-15
-7.96041e-14
-2.11061e-13
-1.14417e-16
-9.62546e-18
-3.17312e-15
0.0181515
0.0160478
0.0133735
0.0122429
0.0132632
0.0159396
1.519e-14
7.54695e-15
2.19662e-15
5.40021e-16
6.31636e-16
2.01858e-16
-3.43745e-16
-1.13537e-16
1.57606e-20
-1.36891e-20
4.85013e-19
6.72378e-21
)
;

boundaryField
{
    seabed_topleft_surface
    {
        type            zeroGradient;
    }
    seabed_topright_surface
    {
        type            zeroGradient;
    }
    breakwater_top_surface
    {
        type            zeroGradient;
    }
    breakwater_left_surface
    {
        type            zeroGradient;
    }
    breakwater_right_surface
    {
        type            zeroGradient;
    }
    water_front_surface
    {
        type            zeroGradient;
    }
    water_back_surface
    {
        type            zeroGradient;
    }
    water_left_surface
    {
        type            zeroGradient;
    }
    water_right_surface
    {
        type            zeroGradient;
    }
    water_top_surface
    {
        type            inletOutlet;
        inletValue      uniform 0;
        value           nonuniform List<scalar> 
180
(
0.000313639
0.000267357
0.000299804
0.000286809
0.000252725
0.000318439
0.000195153
0.000193537
0.000193537
0.000193537
0.000199904
0.000205838
0.000401982
0.000243811
0.000197701
0.000385742
0.000477811
0.000203079
0.000768298
0.000768298
0.000762524
0.000750447
0.000742677
0.000735891
0
0.000683376
0.000665044
0
0
0.000657449
0
0
0
0
0
0
0
0
0
0
0
0
0
0
0
0
0
0
0
0
0
0
0
0
0
0
0
0
0
0
0
0
0
0
0
0
0
0
0
0
0
0
0
0
0
0
0
0
0
0
0
0
0
0
0
0
0
0
0
0
0
0
0
0
0
0
0
0
0
0
0
0
0
0
0
0
0
0
0.0139668
0
0.0151646
0.0168365
0
0.00898195
0
0.00287857
3.16606e-08
1.35057e-08
0.000741165
0
1.3193e-14
0
0
0
8.51221e-17
6.72419e-07
0
0
0
0
0
0
2.7273e-15
6.41949e-15
2.9772e-14
-2.57534e-16
1.90404e-15
6.55611e-12
0
8.93527e-14
4.75123e-14
0
0
0
2.2873e-12
3.21894e-11
2.43697e-11
4.91074e-12
3.40592e-13
6.79223e-14
1.00871e-10
2.60078e-09
3.44401e-09
7.6341e-10
7.50509e-12
8.75944e-11
3.68521e-09
2.72587e-08
1.81709e-08
5.49201e-09
1.4314e-10
3.12757e-09
0
0
0
0
0
0
0
0
0
0
0
0
0
0
0
0
0
0
)
;
    }
}


// ************************************************************************* //
