/*--------------------------------*- C++ -*----------------------------------*\
| =========                 |                                                 |
| \\      /  F ield         | OpenFOAM: The Open Source CFD Toolbox           |
|  \\    /   O peration     | Version:  v1612+                                |
|   \\  /    A nd           | Web:      www.OpenFOAM.com                      |
|    \\/     M anipulation  |                                                 |
\*---------------------------------------------------------------------------*/
FoamFile
{
    version     2.0;
    format      ascii;
    class       surfaceScalarField;
    location    "7.35";
    object      phi;
}
// * * * * * * * * * * * * * * * * * * * * * * * * * * * * * * * * * * * * * //

dimensions      [0 3 -1 0 0 0 0];

internalField   nonuniform List<scalar> 
2916
(
-6.85133e-05
0.190014
-0.189946
1.74168e-05
0.189727
-0.189813
-1.45625e-05
0.189883
-0.189851
-1.01124e-05
0.189939
-0.189943
0.000100424
0.189846
-0.189956
0.189969
-0.189868
-7.16492e-05
0.342306
-0.15222
3.53094e-05
0.342043
-0.152423
-1.19533e-05
0.342211
-0.15228
6.13379e-06
0.342206
-0.152286
0.000132722
0.342141
-0.152422
0.342229
-0.152127
-5.63141e-05
0.22901
0.113352
-1.25011e-05
0.228657
0.113342
-2.2855e-05
0.228909
0.113312
1.56253e-05
0.228807
0.113361
1.91328e-05
0.228769
0.113368
0.228939
0.113309
-0.00036832
-0.095632
0.325011
-1.49347e-06
-0.0969721
0.325262
0.000212397
-0.0964345
0.32513
7.12624e-05
-0.0962038
0.325152
-0.000245649
-0.09616
0.325246
-0.0963009
0.324994
-0.00140359
-0.405479
0.311251
-7.54376e-06
-0.40969
0.311321
0.00104564
-0.408514
0.311027
0.000176581
-0.406917
0.311582
-0.00167095
-0.405936
0.311623
-0.40887
0.310898
-0.00157999
-0.603359
0.19946
-0.000145919
-0.609669
0.198546
0.000823146
-0.608394
0.19891
-4.53482e-05
-0.605011
0.198962
-0.00215528
-0.603538
0.199712
-0.608971
0.197946
0.00159237
-0.69961
0.094658
-0.000410907
-0.704025
0.0963592
-0.00241644
-0.702943
0.0965552
-0.000567408
-0.700736
0.0938768
0.00392531
-0.69933
0.0912998
-0.703701
0.098656
0.00417958
-0.654389
-0.0494004
-0.000448076
-0.652886
-0.0465117
-0.00392163
-0.652829
-0.0466405
-0.000233655
-0.65468
-0.0497439
0.00860836
-0.656759
-0.0514136
-0.651173
-0.04392
0.00137179
-0.516338
-0.139422
-0.000308387
-0.513779
-0.137427
-0.00155302
-0.513815
-0.13777
-0.000193106
-0.516448
-0.139592
0.00184889
-0.519567
-0.139234
-0.511554
-0.13777
-0.00266706
-0.37426
-0.139411
0.000294376
-0.377585
-0.139156
0.00312775
-0.377449
-0.139199
-0.000351151
-0.373467
-0.139503
-0.008863
-0.372751
-0.138304
-0.378952
-0.141465
-0.00603516
-0.237879
-0.130346
0.00121763
-0.243172
-0.141666
0.00761853
-0.243419
-0.140431
0.00205124
-0.237546
-0.130353
-0.0127113
-0.234769
-0.12322
-0.246023
-0.14564
0.00387794
-0.241757
-0.000689712
-0.238604
-0.00429416
-0.239815
3.7333e-06
-0.241844
0.00969229
-0.244458
-0.236331
0.000225301
0.345082
-0.535253
-4.9301e-05
0.344698
-0.534236
-0.000223104
0.344911
-0.534589
-7.28555e-05
0.344901
-0.534994
0.000171699
0.344779
-0.53498
0.345106
-0.534802
-1.83969e-05
0.564136
-0.371255
3.46573e-05
0.563577
-0.371354
-0.000272914
0.563793
-0.370854
2.69982e-05
0.563866
-0.37155
0.000951613
0.563775
-0.372342
0.563863
-0.369933
-0.000287337
0.605637
0.0721387
-2.41327e-05
0.605214
0.0714412
-0.000206084
0.605369
0.0719189
-2.4311e-05
0.60538
0.0716651
0.000860395
0.605274
0.0709846
0.605402
0.0726305
-0.000345491
0.539292
0.391701
-6.94948e-05
0.538978
0.391223
-0.000125182
0.539279
0.391275
-6.05131e-05
0.538835
0.391633
0.00025448
0.538097
0.392109
0.539462
0.391188
-0.00134581
0.674824
0.177064
-0.000599854
0.674633
0.17492
0.00207798
0.670938
0.176689
-7.97331e-06
0.677276
0.175226
-0.00321103
0.676023
0.1769
0.668781
0.178369
0.0172786
0.952374
-0.0953677
-0.000906625
0.961422
-0.0700586
-0.0220469
0.952963
-0.0619741
-0.00827405
0.959676
-0.09721
0.014593
0.95724
-0.104372
0.961762
-0.0804433
0.0189131
1.1682
-0.140083
-0.00100858
1.19378
-0.116075
-0.0248144
1.18525
-0.111927
-0.00626866
1.17631
-0.141304
0.0260877
1.15653
-0.140342
1.20216
-0.115656
-0.00475371
1.03976
0.0837941
-0.00327573
1.06695
0.0788432
-0.00421709
1.0636
0.0759495
-0.00416403
1.04417
0.0823476
-0.00530625
1.01615
0.0901047
1.08941
0.0635262
-0.00822943
0.631817
0.276752
-0.000912252
0.642552
0.279651
0.000384833
0.644599
0.279935
-0.00253763
0.631744
0.275753
-0.0136505
0.61271
0.275319
0.662423
0.275566
-0.0209444
0.26105
0.2523
0.00197359
0.241973
0.238505
0.0138194
0.24824
0.245315
-0.000971453
0.260811
0.246221
-0.0461525
0.265045
0.254542
0.244587
0.230218
-0.0285544
0.199955
-0.0406966
0.0105309
0.141423
-0.080201
0.0389321
0.149706
-0.0702984
0.0154382
0.200352
-0.0464003
-0.0557385
0.240403
-0.027401
0.124018
-0.0808093
0.00265764
-0.0444595
0.00907184
-0.103595
0.0152382
-0.0962752
0.0138055
-0.040059
0.00796368
0.00178697
-0.104349
0.00169204
0.691115
-1.22806
-0.000288545
0.69194
-1.2242
-0.000430626
0.691097
-1.22554
-0.000421998
0.691736
-1.22674
-0.00130206
0.692685
-1.22678
0.690435
-1.22654
-7.96772e-05
1.69958
-1.37964
-0.000108422
1.70006
-1.37944
0.0007017
1.69904
-1.37961
0.000730012
1.69997
-1.37981
-0.00138559
1.70236
-1.3799
1.69678
-1.37766
-0.00213084
2.27425
-0.500393
-0.000369741
2.27538
-0.505643
0.00356954
2.27561
-0.508593
0.00105428
2.27446
-0.500312
-0.00724353
2.27454
-0.492897
2.2747
-0.512532
0.00149843
2.95163
-0.287187
-0.000128543
2.95358
-0.285353
-0.00120404
2.95449
-0.28653
0.000195305
2.95107
-0.286376
-0.00271481
2.97233
-0.302773
2.92559
-0.262422
-0.0932786
3.53786
-0.315883
-0.00429753
3.66282
-0.6233
0.102512
3.63523
-0.610859
0.0157448
3.57591
-0.36285
-0.154456
3.51987
-0.200437
3.7361
-0.786594
0.137515
2.02206
1.28292
-0.0294289
2.51106
1.24865
-0.140068
2.40937
1.27453
-0.0229741
2.11146
1.25015
0.290727
1.83921
1.26259
2.76381
1.18257
0.0864567
0.419409
1.37611
0.000370973
1.00034
1.48073
-0.0673876
0.918467
1.44673
0.116441
0.450019
1.33631
0.436329
0.012988
1.36599
1.51332
1.57117
-0.326211
-0.785033
1.61445
-0.0224798
-0.710544
1.486
0.206915
-0.697888
1.46291
-0.00376874
-0.807305
1.55036
-0.512442
-0.967012
1.57878
-0.395791
1.46019
-0.0296261
-1.63875
1.16009
-0.000199528
-1.65937
1.19905
0.0156553
-1.65163
1.21782
-0.0261294
-1.64449
1.15472
-0.143235
-1.70101
1.12642
-1.57355
1.31009
-0.00314737
-1.64567
0.262375
0.00329803
-1.6736
0.246286
0.00111079
-1.66882
0.264691
0.00492323
-1.6498
0.247723
-0.0241048
-1.66546
0.248028
-1.64343
0.275992
-0.000490448
-0.606725
-1.07916
0.0128813
-0.673248
-1.09392
0.0123749
-0.657018
-1.08159
0.0174107
-0.612849
-1.08839
-0.000750422
-0.57751
-1.0972
-0.661414
-1.06358
0.0186385
-0.669823
0.00180262
-0.760008
-0.0116567
-0.739834
-0.0035933
-0.660972
0.0158013
-0.595117
-0.749962
-0.00023072
0.485865
-1.71369
0.000291265
0.491689
-1.71641
0.00191731
0.488019
-1.71519
0.000518592
0.488861
-1.7142
-0.00293688
0.491391
-1.71472
0.484541
-1.71402
-0.00142561
1.60365
-2.49601
0.000246815
1.63267
-2.5221
0.0021986
1.63458
-2.52812
-0.00302198
1.61491
-2.50064
-0.00901039
1.59783
-2.48036
1.62995
-2.53208
0.0576389
1.18347
-0.13785
-0.007878
1.39908
-0.206534
-0.0362876
1.4028
-0.248404
-0.0377442
1.25126
-0.135204
0.0230988
1.03926
0.00483632
1.44141
-0.300891
0.392322
-0.875797
1.37976
0.0385915
0.0337893
1.43366
-0.315361
0.0788384
1.39137
-0.0181321
-0.731022
1.39868
0.487194
-1.12609
1.35724
0.321244
1.34493
-0.081538
-2.68134
1.5712
0.0138875
-2.15043
1.4655
0.162758
-2.12387
1.44298
0.142395
-2.61601
1.5425
0.368136
-2.97751
1.42524
-1.31693
1.21971
-0.203919
-2.88977
1.69526
-0.0841542
-3.09874
2.07719
0.141053
-3.12089
2.04634
-4.48803e-05
-2.92562
1.70086
-0.176773
-3.07845
1.54026
-2.49224
2.18111
0.0315139
-2.48605
0.940876
-0.0344658
-2.52575
0.973709
-0.101398
-2.52615
0.918927
-0.111361
-2.47349
0.894143
-0.188684
-2.56646
0.93132
-2.28728
1.17753
-0.074306
-1.96404
1.16674
-0.0157594
-2.04286
0.944559
0.0494067
-2.04343
0.915024
-0.0191495
-1.96075
1.10617
-0.209256
-1.9848
1.18722
-1.99592
0.959573
-0.0017589
-2.05047
1.24828
-0.0199056
-2.08355
1.2579
-0.0312928
-2.09055
1.27633
-0.0365173
-2.06228
1.26148
-0.0649704
-2.08053
1.25061
-2.07769
1.32689
0.00934475
-2.02644
0.229004
-0.0243871
-2.06249
0.258953
-0.0436559
-2.06503
0.258434
-0.0235675
-2.05671
0.222066
0.0141884
-2.06577
0.195518
-2.07509
0.28758
0.0319805
-1.17278
-1.9648
-0.00809314
-1.19181
-1.92453
-0.0355594
-1.19136
-1.92779
-0.0174458
-1.19924
-1.96398
0.03178
-1.20885
-2.00335
-1.19724
-1.90965
0.046637
-1.88924
-0.00588724
-1.89929
-0.0430372
-1.89405
-0.0192633
-1.88398
0.0518032
-1.87504
-1.8954
-0.301186
0.0638692
0.237316
-0.285933
-0.434959
0.419707
-0.190746
-0.391131
0.295944
-0.13534
-0.337921
0.282516
0.386904
-0.901108
0.378863
0.0885541
0.29835
0.0345735
-0.544563
0.573859
-0.262466
-1.20655
1.06863
0.0920825
-1.40003
0.654346
-0.131773
-1.08126
0.967198
-0.290428
-1.55438
0.811926
-0.603771
0.401897
-0.114698
-1.52978
1.09991
-0.169152
-2.36737
1.21527
-0.0598585
-2.40908
0.899757
-0.206254
-2.05616
1.1213
-0.561885
-2.04604
0.847287
-1.65794
0.492287
-0.182353
-2.39402
1.04659
0.0232611
-2.91496
0.341982
0.166232
-2.75916
0.207114
0.198104
-2.51657
0.428536
-0.1555
-2.35559
0.663157
-2.14444
0.330999
0.182043
-2.53547
-0.0405933
0.292841
-2.98918
-0.0365835
0.352208
-2.77847
-0.0400634
0.271325
-2.48607
0.0503797
0.166747
-2.5063
0.255291
-2.35392
0.376225
0.362722
-2.40225
-0.495936
0.608653
-2.86841
-0.3667
0.578676
-2.81354
0.0650516
0.148514
-2.70104
0.645131
0.1432
-2.60992
0.10893
-3.01049
0.799775
0.312466
-2.33772
-0.377004
0.602589
-2.67225
-0.486278
0.513201
-2.85572
0.131562
-0.0336438
-2.96537
0.811173
-0.0888215
-2.62371
0.0689704
-3.0016
-0.0977173
0.0455884
-2.17509
-0.20821
0.210336
-2.39524
-0.441759
0.0909139
-2.73073
-0.00556431
0.00588788
-2.6747
-0.205644
-0.0706409
-2.4776
-0.0695801
-2.58619
-0.486052
-0.101462
-1.76018
-0.313453
-0.180987
-2.00051
-0.315203
-0.221432
-2.24735
-0.442932
-0.0149197
-2.09529
-0.785915
0.100429
-2.04508
-0.547871
-2.01174
-0.474022
-0.0121208
-1.31208
-0.435973
-0.370627
-1.69422
0.0522092
-0.567217
-1.72646
-0.324298
-0.248069
-1.5264
-0.888037
0.16942
-1.48256
-0.980009
-1.44398
-0.398341
0.115514
-0.68698
-0.740618
-0.369453
-1.14227
-0.0669822
-0.963476
-1.09113
-0.0413109
-0.385767
-0.690262
-1.41385
0.280909
-0.520674
-1.62856
-0.774106
-0.38896
0.0264434
-0.713423
-0.398451
-0.717375
-0.707485
-0.782095
-0.335252
-1.0625
0.185163
-1.04109
-0.588943
-0.333613
0.230598
0.340331
-0.0808252
-0.756385
0.923304
-0.236941
-0.149216
0.601276
-0.0954078
-0.857096
0.998078
0.422845
-1.2079
1.06851
0.421031
0.300163
0.820504
-0.810567
0.794519
0.0738237
-1.58591
2.64483
-0.116097
-1.13292
1.82797
-0.512346
-1.59404
2.10039
-0.752166
-1.97153
1.81537
-0.265757
0.33652
0.665147
-1.94173
1.56593
-0.0226009
-2.43553
2.75264
-0.806445
-2.26898
2.81966
-1.25786
-2.56025
2.53893
-1.17689
-2.71162
1.50641
-1.58485
0.634492
0.00471011
-1.26802
0.368179
-0.735832
-0.945913
-0.407091
-1.47039
-0.984738
-0.342564
-1.37643
-1.73239
-0.493288
-0.830789
-2.51872
-0.07539
-2.28255
0.19791
-0.769147
0.82687
-1.36634
-1.95361
1.58256
-1.3806
-2.80222
1.04505
-1.22124
-2.25692
-0.963427
-1.26388
-1.14223
-2.24437
-1.13375
-2.61658
-0.431975
-1.1245
3.03283
-1.57739
-2.32572
3.60231
-1.18524
-2.37555
1.75525
-0.595314
-1.29479
-1.13004
-0.26901
-0.941994
-1.8586
-0.629641
-2.84281
0.0840053
-0.620458
4.5354
-1.25912
-1.3438
4.97499
-1.13561
-0.601023
1.74887
-0.604841
-0.584843
-0.0906052
-0.244445
-0.262794
-1.1987
-0.912974
-2.45545
-0.747868
0.225634
4.38497
-0.283414
0.0537097
5.09607
-0.390919
-0.355558
2.16394
-0.0113669
-0.88798
1.30117
-1.06499
-0.284509
-0.284848
-1.5869
-1.81968
-1.40633
0.981174
2.41699
0.67336
2.24773
2.67093
0.843393
1.34818
1.60205
1.01851
0.714286
0.748942
0.400202
0.861792
-0.599284
-0.380943
-1.03564
-0.396266
0.964184
-0.56866
1.58549
1.99261
-0.812254
2.50696
0.866242
-0.174144
2.57827
0.510778
-0.944994
1.16136
1.03507
-1.7141
-0.389479
-0.985104
0.586192
0.369786
-1.33415
-0.344911
-0.582353
-1.61022
1.68312
-0.831172
-1.18639
1.21975
0.130909
-1.34586
-1.97507
0.605856
-1.22925
-2.58836
-0.887481
0.119271
0.175577
-2.22316
-0.11744
-2.03457
0.00493469
-2.09086
-0.237469
-2.16595
-0.199112
-2.3087
-1.67554
-0.243203
0.75715
-0.173616
0.141205
0.176586
0.362311
0.0190835
0.518297
0.2051
0.031535
-0.129523
1.11515
0.162816
-0.132777
1.07001
0.70218
-0.239201
0.582426
0.600231
0.369012
0.216692
0.914621
2.27253
0.270324
0.720306
1.57233
-0.0731829
0.269978
2.04439
-0.741225
0.773907
1.57673
0.950385
-0.652911
0.766767
0.40877
0.99062
0.102975
0.815201
3.51586
-0.78181
0.696329
3.72842
-1.18171
0.393858
2.81495
-1.17185
1.14328
1.12718
1.2258
-0.81277
0.100853
0.838425
-0.16233
-0.325102
1.16368
-0.329614
-0.789525
1.09355
-0.275363
-1.05677
0.94583
-0.778017
-0.522058
1.32408
-0.790903
1.20552
-0.303869
-0.417562
1.13286
-1.24321
-0.317901
1.16813
-1.48471
-0.252659
1.1085
-1.30144
-0.245911
0.838444
-1.16324
-0.161773
1.03214
-0.925947
1.04351
-0.431736
-0.287374
0.887006
-1.04417
-0.880542
1.36531
-0.789249
-0.967795
1.30799
-0.707551
-0.634649
0.908133
-0.671845
-0.442716
0.759893
-0.549324
0.612789
0.0720098
-0.792909
0.875706
-0.454912
-1.8413
1.73166
-0.453575
-2.10196
1.57748
-0.613662
-1.54837
0.71933
-0.609239
-0.805332
-0.159714
-0.736399
-0.601534
-0.338876
-1.10953
1.2743
0.427525
-1.63469
1.47964
0.386261
-0.891381
1.13846
-0.315658
-0.643918
0.108965
-0.702092
-0.462336
-0.733817
-1.19438
-1.58805
-0.88215
0.0608625
0.665214
1.22158
0.44444
0.411306
1.52815
0.944592
0.381629
1.27519
1.1011
-0.314768
0.667422
0.492498
-0.487035
-0.0191195
-1.13999
-0.351832
0.0818492
0.639209
1.52964
0.0922758
0.256405
2.65143
0.22985
0.096344
2.72598
0.739738
-0.296878
0.633583
1.20682
-0.906987
-0.436608
0.546568
0.106455
-0.689411
0.350022
0.633686
-0.717143
-0.229985
2.19724
-0.0210303
-0.599121
1.2191
0.62705
-0.611929
-2.3081
0.888266
-1.06338
-2.69318
1.07272
0.481383
0.523166
-2.3963
0.828511
-2.5699
0.831989
-2.69346
0.168529
-2.11442
-1.34439
-1.85916
-1.9472
-0.0275866
0.705971
-0.852
0.0873006
0.581779
-0.334355
0.0302936
0.618621
-0.356514
-0.065868
0.724358
0.486953
-0.0526992
0.374461
0.682377
0.704285
-0.996185
0.102221
1.18595
-0.213184
0.134771
1.37087
1.45088
0.33187
1.18574
0.808104
0.274795
1.12534
1.70048
-0.068287
0.825018
1.46926
1.27578
-1.29269
0.0395424
1.47685
0.660175
-0.194476
1.77984
3.34091
-0.35189
1.62237
3.44921
0.20965
1.13761
2.24115
0.528925
0.704044
0.928874
1.24145
-0.249521
0.100746
1.121
0.0927727
0.0450713
1.23311
0.272787
-0.0302612
1.11027
0.312075
-0.0983436
0.795946
-0.368275
-0.104875
0.699072
-0.779401
1.20998
-0.377265
0.176736
0.26108
-0.560025
0.147147
0.415666
-0.637673
-0.0846154
0.510623
-0.470032
-0.2815
0.26127
-0.43168
-0.328859
0.099896
-0.279412
0.455038
-0.00565574
0.158054
-0.440124
-0.501019
-0.130444
-0.28443
0.199346
-0.463552
-0.0396525
0.175832
-0.376121
-0.0933013
-0.404705
-0.178265
-0.186061
-0.461221
-0.0409921
0.389776
-0.186145
-0.851158
0.142266
-0.518192
-1.20945
0.803489
-0.610773
-1.28865
0.727919
-0.55022
-0.982375
0.219284
-0.163979
-0.626444
-0.682255
-0.765501
0.221654
-0.446427
-0.661692
0.684487
-0.0645565
-2.08346
0.878407
0.451977
-2.54205
0.421204
0.376182
-1.95371
0.345041
0.0088819
-1.04929
-0.404235
-1.28591
-0.352855
0.0948567
-0.64603
1.11107
0.210125
-1.59815
0.927577
0.286239
-1.73427
0.391299
0.695105
-1.77078
0.0756267
0.419087
-0.940283
0.147887
-1.15725
-0.0614046
0.0687078
0.39305
0.421858
-0.283501
0.533312
0.872175
-0.638246
0.779175
0.567282
0.519972
-1.66138
-0.634044
1.02665
-1.50226
-0.381316
0.503553
-0.527702
0.144721
0.492905
0.389113
1.074
0.72793
1.07334
1.27776
1.01645
0.778074
0.482354
-1.19921
-1.97486
-0.372988
-1.46227
-1.87783
0.9743
-0.362351
0.0518843
-1.95528
0.457749
-2.24784
1.13853
-2.3578
0.161197
-2.3363
-1.09491
-2.06532
-2.06781
-0.0132168
-1.84186
0.141383
0.0040868
-1.86375
0.130036
0.000115919
-1.85931
0.14809
0.00527246
-1.8512
0.131846
0.0272293
-1.84865
0.111977
-1.84941
0.162621
-0.0970502
-0.843343
-0.901469
0.0338563
-0.999773
-0.994886
-0.0157735
-0.953522
-0.856161
0.00403443
-0.902556
-0.968458
0.159585
-0.887767
-1.11644
-0.957556
-0.732268
-0.114629
-2.1589
0.0305891
-2.39291
-0.0666793
-2.16347
0.0113274
-2.34623
0.367126
-2.62187
-1.87238
0.00992373
-1.5587
-0.805847
0.00520218
-1.68007
-0.707272
-0.0147188
-1.70358
-0.656523
-0.0191696
-1.57913
-0.785218
0.0208973
-1.49306
-0.915384
-1.72137
-0.627196
0.0910355
0.740215
-3.29142
0.0254362
0.632923
-3.24228
-0.0411319
0.572136
-3.06531
-0.0106619
0.774262
-3.35232
0.0671546
0.901633
-3.58895
0.542335
-2.92881
0.103477
-4.10393
0.0554561
-4.19333
0.0654258
-4.00916
0.0528378
-4.22705
0.00848989
-4.50321
-3.70471
0.124263
1.64724
-2.7152
-0.0110225
1.67122
-2.44974
-0.144933
1.57049
-2.34151
-0.109731
1.7042
-2.65983
0.225856
1.77278
-3.01892
1.49361
-2.19584
0.158276
2.9515
-4.75396
0.00170445
3.19462
-4.60911
-0.0601646
3.06557
-4.49852
-0.0106593
3.06922
-4.76685
0.136953
3.00713
-4.97091
3.013
-4.31126
0.011749
-4.33013
0.0242822
-4.37553
0.208815
-4.31661
0.0990546
-4.36138
-0.254592
-4.47589
-4.11285
0.251187
2.46102
-4.04765
0.0655876
2.85248
-3.68296
-0.16951
2.8356
-3.55063
0.0336624
2.53539
-3.99971
0.436039
2.31949
-4.38355
2.78392
-3.19879
0.0130508
2.58127
-4.88726
-0.0560886
3.20324
-4.89073
-0.085249
3.26083
-4.89459
-0.000800232
2.60131
-4.91722
0.190465
2.18334
-5.02603
3.35217
-4.68904
-0.140427
-3.93135
-0.0919781
-4.09077
0.0863697
-4.11552
0.0229102
-3.88402
-0.213499
-3.76439
-4.05677
0.118398
1.64941
-4.24426
0.0375584
2.10366
-4.24028
0.0134338
2.10241
-4.18594
0.137871
1.65196
-4.23361
0.304618
1.27609
-4.40115
2.18768
-3.86214
0.0122475
0.597436
-3.84754
-0.0630805
1.21595
-3.92768
-0.147686
1.2632
-3.97078
-0.0705328
0.419363
-3.76178
0.140868
-0.25877
-3.70257
1.52313
-3.88362
0.0361374
-2.50361
-0.144143
-2.72642
-0.29108
-2.73403
-0.0559438
-2.4178
0.0664291
-2.24498
-2.81682
-0.119658
0.256792
-2.68614
-0.0165191
0.538969
-2.8052
0.0894348
0.552114
-2.79767
-0.00340953
0.220769
-2.66067
-0.136623
-0.0203236
-2.70735
0.853425
-2.67108
-0.054154
-1.67703
-1.85957
-0.0214979
-1.56085
-1.86052
-0.0119008
-1.53713
-1.89113
-0.0664534
-1.68153
-1.80493
-0.17402
-1.82793
-1.7874
-1.30633
-1.89788
0.0350461
-1.04025
-0.0359594
-1.06219
-0.101939
-1.05075
-0.0548207
-1.02356
0.0175795
-0.990465
-1.09032
-0.0347376
-0.297216
-1.4133
-0.0180941
-0.417175
-1.43096
-0.0197593
-0.459362
-1.41771
-0.0905799
-0.315101
-1.38061
-0.192132
-0.282223
-1.39225
-0.251491
-1.43419
0.0167076
-1.13345
-1.04004
-0.0167325
-1.2421
-1.00215
-0.118476
-1.25445
-0.994304
-0.0858341
-1.12782
-1.02486
-0.0157984
-1.10301
-1.03665
-1.19751
-0.967662
0.0399959
-0.71924
-0.0100388
-0.706895
-0.0729002
-0.701932
-0.0253187
-0.713854
0.054995
-0.718008
-0.683333
0.0304729
0.414923
-0.691963
-0.0199307
0.206177
-0.642169
-0.0648079
0.183459
-0.641269
-0.0320143
0.378981
-0.686218
0.0281554
0.434045
-0.699249
0.213892
-0.660352
0.058086
-0.200743
-0.482459
-0.000362948
-0.253681
-0.483845
-0.0789926
-0.249451
-0.482763
-0.0293862
-0.209902
-0.485578
0.0493993
-0.195842
-0.485544
-0.252475
-0.451895
0.00781593
-0.454156
-0.00460888
-0.458657
-0.0122272
-0.45799
-0.00432994
-0.452526
0.00474824
-0.449092
-0.455578
-0.0396692
1.14253
-0.546544
-0.0240206
1.14233
-0.542248
0.0143554
1.14862
-0.551934
-0.0116067
1.16295
-0.561722
-0.0597215
1.16426
-0.564787
1.1503
-0.543481
-0.013164
0.356325
0.316913
-0.0132492
0.346607
0.311961
-0.00749199
0.34845
0.31165
-0.0127842
0.367192
0.31547
-0.0264304
0.371393
0.320968
0.352765
0.319208
0.00227066
-0.0953612
-0.00541182
-0.0980917
-0.0132297
-0.0976142
-0.00508163
-0.0954371
0.00797015
-0.0941779
-0.100109
-0.00674287
0.376134
-0.68693
-0.0112181
0.410454
-0.689276
-0.00651592
0.404618
-0.702822
-0.0170882
0.377026
-0.706111
-0.0269578
0.351288
-0.710689
0.431056
-0.713916
-0.0136817
-0.130556
0.837286
0.00605739
-0.125338
0.828012
0.0188372
-0.126234
0.829722
0.0019206
-0.128299
0.83771
-0.0349986
-0.14017
0.849344
-0.110448
0.825712
-0.00121982
0.28288
-0.00265009
0.28335
-0.00245222
0.283428
-0.00233529
0.283624
-0.0055381
0.282897
0.284979
-0.00197547
-1.17486
-1.47489
0.000121783
-1.15447
-1.46143
0.00310576
-1.15786
-1.47574
-0.000132467
-1.17031
-1.49654
-0.00762864
-1.18411
-1.52243
-1.14942
-1.48178
-0.00985068
-0.954479
0.626754
0.00529441
-0.957425
0.615818
0.0134362
-0.955809
0.619528
0.00632017
-0.954644
0.629159
-0.013734
-0.956082
0.641365
-0.95246
0.615022
0.00109905
0.494554
-0.00223838
0.494625
-0.0031905
0.495488
-0.00238536
0.495483
-0.000961828
0.495752
0.497395
0.0141659
-1.88848
-1.48982
-0.00677276
-1.83599
-1.50379
-0.018328
-1.85966
-1.49857
-0.00769475
-1.89225
-1.49891
0.0254724
-1.93488
-1.49575
-1.84724
-1.50446
-0.0122757
-1.2426
-0.00684616
0.0105553
-1.23195
-0.0110501
0.0234591
-1.24086
-0.0121774
0.0126455
-1.24922
-0.00306061
-0.0167805
-1.26391
-0.000182543
-1.23368
-0.0153201
-0.00826143
0.117202
0.00380542
0.12215
0.0102646
0.120856
0.00437135
0.120156
-0.0138493
0.117251
0.124398
-0.00574828
-0.773153
-0.595246
1.37415
0.00152458
-0.71958
-0.607258
1.31957
0.0173793
-0.728833
-0.620617
1.3336
0.0132211
-0.791885
-0.628585
1.42463
-0.00357809
-0.870759
-0.630536
1.51809
-0.805222
-0.611942
1.41359
-0.041007
-0.619981
-0.321253
0.209088
-0.0299663
-0.591872
-0.3093
0.170554
-0.0157527
-0.598447
-0.289078
0.144478
-0.0238269
-0.63887
-0.267504
0.122564
-0.0154259
-0.700185
-0.218283
0.0393082
-0.636449
-0.245697
0.0614993
0.0106286
-0.294724
-0.0600283
0.0405809
-0.309658
-0.038682
0.0743107
-0.308312
-0.0520593
0.0653666
-0.307167
-0.0544254
0.0113597
-0.290618
-0.0844842
-0.3222
-0.040802
-0.00502822
-0.407945
-0.182273
-0.0153936
-0.416067
-0.180826
-0.021192
-0.43949
-0.175329
-0.0140267
-0.468029
-0.167722
0.00795939
-0.486822
-0.1657
-0.432748
-0.171234
-0.00188143
-0.515966
-0.211349
-0.0128856
-0.522948
-0.191413
-0.0282551
-0.53511
-0.178087
-0.0374003
-0.548856
-0.177531
-0.0116625
-0.558912
-0.171929
-0.519934
-0.170173
0.0135297
-0.183136
0.0188985
-0.185926
0.0166618
-0.190931
0.00607105
-0.203196
-0.00159794
-0.210163
-0.205522
-0.00539363
-0.171218
-0.00566143
-0.00527945
-0.175434
-0.00550577
-0.000836911
-0.175615
-0.00415696
0.00046398
-0.168088
-0.000934951
-0.000524291
-0.167483
0.00277114
-0.169483
-0.00227514
-0.0197345
-0.302158
-0.0606728
-0.0219548
-0.304673
-0.0599534
-0.0145007
-0.302516
-0.0586389
-0.00864053
-0.297289
-0.054188
-0.00366836
-0.296343
-0.0480388
-0.295964
-0.0473593
0.00617773
0.00723487
0.00989105
0.00390086
0.0115329
0.000237147
0.00975525
-0.00191183
0.00341962
-0.0024077
-0.00205832
-0.00184197
-0.188655
0.184836
-0.00367825
-0.189822
0.186152
-0.00519173
-0.189842
0.187199
-0.00341233
-0.190631
0.187916
-3.13957e-05
-0.188699
0.18809
-0.189154
0.186847
-0.00189454
-0.341007
0.0935737
-0.00471462
-0.343099
0.0961453
-0.00819938
-0.342576
0.0975816
-0.00756091
-0.342923
0.0974676
-0.0013592
-0.34138
0.0984421
-0.339765
0.101894
0.00395065
0.215981
0.00586484
0.215094
0.00519376
0.214001
0.00230611
0.213713
0.000450942
0.213892
0.21299
-0.00170047
-0.438101
0.624637
-0.00374925
-0.441065
0.629266
-0.00530236
-0.440694
0.629446
-0.00327224
-0.446068
0.631955
-7.53924e-05
-0.44737
0.632263
-0.445526
0.632298
-0.00176839
-0.489925
0.147167
-0.00104393
-0.492669
0.147027
-0.000490324
-0.491912
0.148248
-0.00038761
-0.495468
0.146766
-0.000196393
-0.496865
0.147749
-0.493865
0.150038
0.00226915
0.302897
0.00446295
0.300374
0.00578536
0.300069
0.00337919
0.299209
-0.000356551
0.300309
0.297506
0.000865454
-0.866051
-0.000890014
-0.872771
-0.000915127
-0.869097
-0.000902765
-0.866966
-0.000515268
-0.863873
-0.87268
0.00241548
-0.728143
-0.0019706
-0.732406
-0.00582556
-0.72917
-0.00159873
-0.727485
0.00804529
-0.725949
-0.729917
0.00247842
0.00280858
0.0038197
0.00257689
-0.000164723
-0.0647597
-1.00313
0.215894
-0.121798
-0.55767
0.280352
-0.219989
-0.495443
0.23712
-0.0991634
0.0772469
0.288881
0.0195545
0.344967
0.218692
-1.03228
0.0556457
-0.920883
1.28271
-1.36496
0.612833
-2.4455
0.354114
0.0416609
1.23199
-1.15626
-0.686318
1.23971
-0.434479
0.578579
-1.03516
0.115228
1.55688
-2.01058
-1.20513
-2.21076
0.72036
0.0713763
-0.00793065
-2.24854
-0.882357
-1.75384
1.26275
-0.291325
-2.37146
0.0552529
-1.23348
1.18094
0.0215279
0.925438
0.839522
0.194452
0.252371
0.619929
0.115654
1.52878
0.539386
-0.109807
1.51036
0.403047
-1.14161
-0.205238
0.19021
-1.17633
-1.61232
-0.225673
1.90836
-0.212924
0.0881311
0.346693
-1.56439
0.317521
1.66232
-0.797413
-0.288396
1.92627
0.305242
-1.16939
-2.2712
0.479548
-2.28233
-0.545224
-1.23094
-0.132848
-2.24861
0.152072
-1.77977
-0.390835
-0.900338
-2.00343
-0.86647
1.81764
0.889947
-0.169673
2.46241
1.02123
0.831147
2.27408
0.794234
1.83177
1.49127
0.288639
1.90389
1.42215
-0.162348
1.56534
-0.116208
-1.30635
1.64547
-0.133804
0.164408
0.952273
-0.173546
0.882738
0.437993
-0.44663
1.57161
0.581126
-0.576137
1.82695
1.77771
-0.305658
1.52524
-0.404149
-0.75894
-0.839893
0.222415
-1.10817
0.0428398
-0.834519
0.212775
-1.07965
0.692424
-0.93205
-0.771405
0.116923
0.417164
0.448631
0.706654
0.207196
0.497087
1.30822
0.0421353
0.462605
1.09668
-0.148933
0.280841
0.382297
-0.250478
0.0231093
-0.191811
0.0806347
0.376854
-0.166815
0.0733217
0.505766
-0.308056
0.212795
0.257165
-0.327364
0.171471
-0.0831432
-0.483755
0.0989919
-0.0402661
-0.611199
0.0121865
-0.542359
-0.0938686
0.194972
-0.538298
0.0578245
-0.483146
0.124461
-0.520786
-0.0501497
-0.548401
-0.100063
-0.557187
-0.602671
-0.0671911
0.143748
-0.18795
0.0426165
0.0902908
-0.340683
0.209106
0.0544363
-0.228353
0.108271
0.132066
-0.18207
-0.0760461
0.131139
-0.203124
0.226842
-0.227909
-0.0644493
0.548691
-0.267172
0.0987605
0.543284
-0.40341
0.217863
0.538542
-0.431739
0.234494
0.538221
-0.323796
0.106739
0.513397
-0.242318
0.509947
-0.270236
-0.0383748
-0.372815
-0.00574553
-0.414431
0.0281399
-0.435054
0.0498706
-0.436695
0.0458949
-0.401194
-0.400429
-0.153017
-0.0717788
-0.464173
0.13736
0.424041
-0.855755
0.367985
0.452804
-0.735951
0.186881
-0.0331584
-0.372513
-0.23075
-0.181131
-0.0655819
0.151717
-0.2206
-0.221386
0.17111
-0.288676
0.136809
0.323334
-0.6609
0.517834
0.358373
-0.718337
0.381507
0.170671
-0.391298
0.0211343
0.0982951
-0.161372
0.123751
-0.221136
-0.0383384
-0.175552
0.00384841
-0.233477
0.0828335
-0.27324
0.0485819
-0.211906
0.0170099
-0.192072
-0.189045
0.00365443
0.38905
-0.71461
0.07973
1.47223
-1.60057
0.235015
1.61257
-1.77589
0.438248
0.80367
-1.16013
0.0811087
-0.0264427
-0.364254
0.451646
-0.369484
-0.282216
0.544467
-0.161878
0.182938
1.03113
-0.684964
0.707449
1.23573
-0.86601
0.828522
0.737177
-0.445878
0.204614
0.480213
-0.0441189
0.448272
-0.0131486
-0.117003
-0.187188
0.000855033
-0.22704
0.171312
-0.273881
0.17182
-0.213351
0.0702496
-0.206113
-0.213718
0.113386
0.844077
-0.987585
0.507202
1.37379
-2.48977
0.711586
1.24157
-2.80063
0.751269
1.02205
-1.87683
0.0920469
0.352535
-0.461801
0.165479
-0.79577
0.233013
0.34348
0.105704
0.530754
0.744295
-0.353211
0.508071
0.905898
-0.507654
0.592088
0.610556
-0.118397
0.352903
0.259286
0.288315
0.173624
0.331609
-0.0328411
-0.11107
0.0483707
-0.0605888
0.0691948
-0.0779097
0.132302
-0.0743487
0.0931171
-0.120743
-0.117045
0.698503
1.19283
-1.76785
1.1554
1.03456
-3.05365
1.08229
0.692863
-3.02908
0.688794
0.644062
-2.05177
-0.139534
0.775009
-0.260594
0.713835
-1.71054
0.613352
0.478982
0.206201
0.698402
0.512172
0.0841308
0.207403
0.41569
0.26052
-0.0747792
0.338157
0.469691
-0.045511
0.30688
0.727177
0.334372
0.66556
0.0176979
0.045402
0.0934122
0.0918116
0.125882
0.0891809
0.123452
0.0833673
0.0574043
0.0443392
0.06186
0.69533
0.553674
-2.595
0.961172
0.391984
-2.83931
0.895583
0.119698
-2.51591
0.00325391
0.0677258
-1.86121
-0.090719
0.447376
-0.995313
0.0833924
-2.41236
0.321865
0.0591927
0.378816
0.225453
0.0274423
0.545085
-0.0897813
-0.0855403
0.780992
-0.286765
-0.183401
0.917801
0.052211
-0.167505
1.00308
-0.1589
0.960063
0.0218945
0.474243
0.0904555
0.477239
0.13306
0.442123
0.0913679
0.428675
0.0387859
0.399778
0.433103
0.193705
0.0892984
-2.48889
0.63943
-0.0190589
-2.19264
1.00911
-0.166006
-1.94151
-0.146986
-0.757353
-1.92262
-0.258441
-0.641379
-2.12032
-0.606513
-2.42664
0.0380006
-0.318325
0.748436
-0.0251055
-0.321021
0.910153
-0.00792298
-0.405402
1.00321
-0.0888518
-0.776076
1.01745
0.0419915
-0.784994
1.01585
-0.660881
1.05642
0.0695451
0.951181
0.218612
0.929116
0.317026
0.884759
0.174761
0.814466
0.0271884
0.771441
0.811332
0.024549
-3.09457
-0.0330057
-3.06336
-0.131111
-2.86761
-0.0821203
-2.88328
-0.0146304
-2.73504
-3.09549
-0.122893
-2.01416
-0.221303
-1.88424
-0.196994
-1.74423
-0.132744
-1.80751
0.0673716
-1.87999
-1.9102
-0.0502647
-0.0418238
0.0229727
0.05684
0.0945983
)
;

boundaryField
{
    seabed_topleft_surface
    {
        type            calculated;
        value           uniform 0;
    }
    seabed_topright_surface
    {
        type            calculated;
        value           uniform 0;
    }
    breakwater_top_surface
    {
        type            calculated;
        value           uniform 0;
    }
    breakwater_left_surface
    {
        type            calculated;
        value           uniform 0;
    }
    breakwater_right_surface
    {
        type            calculated;
        value           uniform 0;
    }
    water_front_surface
    {
        type            calculated;
        value           uniform 0;
    }
    water_back_surface
    {
        type            calculated;
        value           uniform 0;
    }
    water_left_surface
    {
        type            calculated;
        value           uniform 0;
    }
    water_right_surface
    {
        type            calculated;
        value           uniform 0;
    }
    water_top_surface
    {
        type            calculated;
        value           nonuniform List<scalar> 
180
(
1.43019
1.24792
1.30722
1.36567
1.37831
1.28195
2.58177
2.48136
2.40785
2.66767
2.82732
2.38315
3.16595
3.36429
3.1885
3.31332
3.33346
3.16655