/*--------------------------------*- C++ -*----------------------------------*\
| =========                 |                                                 |
| \\      /  F ield         | OpenFOAM: The Open Source CFD Toolbox           |
|  \\    /   O peration     | Version:  v1612+                                |
|   \\  /    A nd           | Web:      www.OpenFOAM.com                      |
|    \\/     M anipulation  |                                                 |
\*---------------------------------------------------------------------------*/
FoamFile
{
    version     2.0;
    format      ascii;
    class       volVectorField;
    location    "7.35";
    object      U;
}
// * * * * * * * * * * * * * * * * * * * * * * * * * * * * * * * * * * * * * //

dimensions      [0 1 -1 0 0 0 0];

internalField   nonuniform List<vector> 
1116
(
(0.241885 -0.000138428 -0.323124)
(0.241417 -2.53565e-05 -0.322796)
(0.241646 6.37537e-05 -0.322935)
(0.241757 -8.44851e-05 -0.323069)
(0.241612 6.61934e-05 -0.323032)
(0.241798 0.000103051 -0.323022)
(0.521771 -0.000111261 -0.265238)
(0.521108 -3.75591e-06 -0.265422)
(0.521475 5.31144e-05 -0.265272)
(0.521584 -6.9637e-05 -0.265281)
(0.521375 8.93872e-05 -0.265482)
(0.521593 0.000117071 -0.265091)
(0.758277 -5.36183e-05 0.195105)
(0.757927 -2.04743e-05 0.195176)
(0.758218 -2.11214e-05 0.195176)
(0.758089 -1.0684e-05 0.195113)
(0.75802 3.40384e-05 0.194921)
(0.758195 2.3759e-06 0.19531)
(0.187703 -0.000396506 0.364721)
(0.18668 -0.000222146 0.364662)
(0.187382 0.000207448 0.364657)
(0.187091 0.00021451 0.364778)
(0.18702 -0.000115086 0.364672)
(0.18751 -0.000282831 0.364694)
(-0.564633 -0.00157859 0.232007)
(-0.569249 -0.000986706 0.232068)
(-0.567727 0.000954803 0.23176)
(-0.566383 0.00124254 0.23245)
(-0.566053 -0.000995587 0.232221)
(-0.567461 -0.00195731 0.231371)
(-1.07728 -0.00116248 0.0120929)
(-1.08881 -0.00131043 0.0104408)
(-1.08619 0.000850757 0.0107334)
(-1.08071 0.000998999 0.0115473)
(-1.07846 -0.00128715 0.0113649)
(-1.08699 -0.00189969 0.0081422)
(-1.41379 0.00352622 -0.315029)
(-1.4285 0.000584442 -0.318165)
(-1.42518 -0.00151564 -0.316627)
(-1.41774 -0.00420382 -0.316948)
(-1.4122 0.00267055 -0.314396)
(-1.42827 0.00681799 -0.319356)
(-1.46144 0.00569815 -0.594655)
(-1.46582 0.00243566 -0.598929)
(-1.46415 -0.0030373 -0.596892)
(-1.46316 -0.00595719 -0.596838)
(-1.46215 0.00574527 -0.592561)
(-1.4656 0.0102978 -0.599995)
(-1.29801 0.000855267 -0.741675)
(-1.28931 0.00124914 -0.742454)
(-1.29008 -0.00161585 -0.741367)
(-1.29804 -0.00184772 -0.742953)
(-1.30587 0.00180065 -0.7416)
(-1.28316 0.000718942 -0.741673)
(-1.05345 -0.00513158 -0.700407)
(-1.05091 -0.00117311 -0.696136)
(-1.05133 0.00165177 -0.696151)
(-1.05228 0.00573598 -0.700972)
(-1.05918 -0.00627948 -0.706401)
(-1.04491 -0.0133283 -0.68904)
(-0.696426 -0.00611889 -0.529144)
(-0.704137 -0.00390073 -0.520477)
(-0.70457 0.00560981 -0.52117)
(-0.69479 0.0106486 -0.529065)
(-0.691964 -0.00815204 -0.536952)
(-0.710848 -0.0125373 -0.512737)
(-0.360811 0.00603908 -0.298562)
(-0.368146 0.00201263 -0.277406)
(-0.368889 -0.00314341 -0.280528)
(-0.361002 -0.0061626 -0.297343)
(-0.357811 0.0060824 -0.315524)
(-0.369268 0.0153403 -0.269368)
(0.430518 0.000151444 -0.448177)
(0.429901 0.000145474 -0.448189)
(0.430259 -0.000184431 -0.448081)
(0.430235 -0.000227952 -0.448311)
(0.42997 0.000100234 -0.44846)
(0.430594 0.000160446 -0.447964)
(0.885584 -6.90462e-05 -0.215432)
(0.884767 5.9545e-05 -0.216082)
(0.885136 -3.80153e-05 -0.215729)
(0.885181 -0.000419777 -0.215664)
(0.885085 0.000558097 -0.215824)
(0.88533 0.000823041 -0.215392)
(1.25423 -0.000265856 0.342768)
(1.25291 -0.000143286 0.342593)
(1.2534 4.74036e-05 0.342451)
(1.25361 -0.000413149 0.342792)
(1.25338 0.000458462 0.343166)
(1.25351 0.000780893 0.342239)
(1.16318 -0.00047117 0.85148)
(1.16262 -0.000219992 0.85233)
(1.16267 7.8132e-05 0.851871)
(1.16284 -0.000304455 0.851948)
(1.16259 0.000209585 0.852694)
(1.16292 0.000318682 0.851301)
(1.06613 -0.00106563 0.855619)
(1.06576 -0.00158352 0.854942)
(1.06723 0.00088501 0.85447)
(1.06411 0.00226527 0.855982)
(1.06083 -0.00223594 0.856711)
(1.06585 -0.00305714 0.854025)
(1.73082 0.0212675 0.627401)
(1.7285 0.0147499 0.62861)
(1.71218 -0.0170819 0.629344)
(1.74383 -0.0274617 0.626594)
(1.74817 0.0109994 0.628696)
(1.71503 0.0227622 0.630306)
(2.24635 0.017787 0.583245)
(2.28896 0.0165583 0.592405)
(2.26961 -0.0191794 0.591548)
(2.26367 -0.0249895 0.583189)
(2.24285 0.0130561 0.572405)
(2.28776 0.0336046 0.601985)
(2.58185 -0.00597145 0.334587)
(2.64538 -0.00134021 0.353405)
(2.63357 -0.00500148 0.350757)
(2.59415 -0.00369567 0.335567)
(2.53504 -0.0058341 0.323466)
(2.68873 -0.0011377 0.368756)
(1.87051 -0.0131273 0.219187)
(1.91942 -0.00138943 0.229917)
(1.91545 -0.00145106 0.22671)
(1.87675 0.00314723 0.220207)
(1.82039 -0.00944804 0.216781)
(1.96818 -0.0170614 0.228448)
(0.660196 -0.0287758 0.237814)
(0.656853 -0.00621089 0.235697)
(0.667866 0.00788131 0.235086)
(0.656434 0.0247101 0.238204)
(0.637212 -0.0281526 0.247788)
(0.686605 -0.0530865 0.219179)
(0.452808 -0.0382149 0.12091)
(0.368024 -0.0102103 0.0691305)
(0.383295 0.0262402 0.0743198)
(0.455597 0.056798 0.120569)
(0.502694 -0.0323965 0.156103)
(0.337477 -0.0662114 0.0450881)
(0.314906 0.0031488 -0.528702)
(0.148789 0.00494895 -0.537884)
(0.168267 0.0097735 -0.540278)
(0.310061 0.0194802 -0.530858)
(0.432999 0.00303857 -0.52231)
(0.102177 0.0170417 -0.538877)
(-0.00374132 0.00226754 -1.66947)
(-0.00135426 0.000749017 -1.66642)
(-0.00224514 -0.00139286 -1.66741)
(-0.00249811 0.000732595 -1.6687)
(-0.00235143 -0.0012425 -1.66858)
(-0.00278382 -0.00184352 -1.66811)
(2.41382 0.000449307 -1.32445)
(2.41511 -0.000238305 -1.3238)
(2.41262 -0.000103273 -1.32221)
(2.41511 0.00132929 -1.32527)
(2.41837 -0.000418176 -1.3287)
(2.41032 -0.00152546 -1.31906)
(4.15741 -0.000770887 -0.176262)
(4.15869 -0.00209939 -0.177958)
(4.15779 0.00128185 -0.176281)
(4.15778 0.0048847 -0.177696)
(4.16303 -0.00397174 -0.180614)
(4.15244 -0.0063705 -0.173748)
(4.91492 0.00171524 0.50118)
(4.90692 0.00159927 0.499491)
(4.90705 -0.00201206 0.500086)
(4.91378 0.000228333 0.500789)
(4.91438 -0.000610099 0.500199)
(4.90644 -0.00211573 0.501207)
(6.51004 -0.0675938 -0.0873194)
(6.5916 -0.0711483 -0.0809547)
(6.59265 0.0604095 -0.073297)
(6.51966 0.103731 -0.0913248)
(6.57666 -0.0896334 -0.0936273)
(6.50229 -0.134691 -0.0583224)
(6.87094 0.106149 -0.780687)
(7.13095 0.0691421 -0.747395)
(7.02389 -0.104564 -0.723405)
(7.00247 -0.133207 -0.789798)
(6.97064 0.136093 -0.800792)
(7.3822 0.21425 -0.781076)
(2.05106 0.0579143 -0.672047)
(3.93218 0.156839 -0.642768)
(3.60631 -0.159238 -0.633101)
(2.27434 0.0054603 -0.679896)
(1.06129 0.217385 -0.659567)
(4.78025 0.552855 -0.650741)
(-0.618278 -0.301258 0.199255)
(-0.327505 -0.210828 0.182574)
(-0.301454 0.147584 0.165223)
(-0.713592 0.279867 0.189936)
(-1.1105 -0.316752 0.219123)
(0.782674 -0.467236 0.10207)
(-2.74944 -0.0361658 0.939025)
(-2.77303 -0.00682687 0.945073)
(-2.74132 0.00375419 0.953504)
(-2.75578 0.0313176 0.93145)
(-2.95772 -0.0946145 0.931085)
(-2.52282 -0.137201 0.9462)
(-3.54579 -0.0117415 0.549975)
(-3.58044 0.00827944 0.498296)
(-3.57589 -0.00530739 0.524474)
(-3.54833 0.0095176 0.527913)
(-3.61811 -0.00523521 0.549343)
(-3.4905 -0.0308449 0.488747)
(-2.44925 -0.00222267 -0.374016)
(-2.55224 0.00501844 -0.504778)
(-2.52397 0.0120041 -0.465039)
(-2.4779 0.0157277 -0.401881)
(-2.45476 0.00603216 -0.345188)
(-2.523 -0.00203601 -0.482203)
(-0.282513 0.0239438 0.297989)
(-0.549902 0.0126299 0.0482096)
(-0.492813 -0.00919651 0.0840727)
(-0.282098 -0.0132667 0.319119)
(-0.100877 0.00499321 0.50201)
(-0.527013 0.024986 0.047297)
(-1.71164 0.000847887 -2.80434)
(-1.69799 -0.000531637 -2.78736)
(-1.70385 0.000410631 -2.79416)
(-1.70611 0.00387481 -2.79796)
(-1.70459 -0.0023947 -2.79715)
(-1.70881 -0.00478023 -2.79914)
(2.92222 -0.000697474 -4.34378)
(2.93049 -0.00153715 -4.34205)
(2.92351 0.00239235 -4.34548)
(2.92792 0.000534761 -4.34234)
(2.93439 -0.00764043 -4.33836)
(2.91543 -0.00571291 -4.34207)
(2.85001 0.0475946 -2.48185)
(2.9479 0.0241963 -2.52558)
(2.96242 -0.0236422 -2.5435)
(2.88196 -0.0484262 -2.48779)
(2.81697 -0.0133208 -2.43152)
(2.96799 0.0505763 -2.56807)
(2.44726 0.283647 -0.996093)
(3.18142 0.295532 -1.00703)
(3.1748 -0.208455 -1.00929)
(2.69523 -0.273682 -1.00155)
(1.90131 0.276413 -1.03752)
(3.30452 0.408796 -0.962036)
(-5.6923 -0.0917423 -0.176409)
(-3.08549 -0.0339242 -1.09111)
(-2.83223 0.0693063 -1.069)
(-5.37503 0.173994 -0.306932)
(-6.20494 0.139316 0.00594774)
(-1.86778 0.455125 -1.68829)
(-5.13082 -0.13917 4.86882)
(-6.00901 -0.1716 5.10901)
(-6.11105 0.0413978 5.11534)
(-5.2581 0.150261 4.78445)
(-5.61889 -0.152049 4.75142)
(-4.00074 -0.177808 4.95448)
(-4.82752 0.0174302 4.25978)
(-4.63749 0.0274077 4.56071)
(-4.67411 -0.0997807 4.44285)
(-4.84081 -0.0497179 4.16369)
(-5.11787 -0.185591 4.2293)
(-3.99726 -0.172762 4.87189)
(-3.49005 -0.0463335 4.41768)
(-3.80328 -0.0633376 3.99141)
(-3.79654 0.0257142 3.94472)
(-3.4985 0.0690954 4.24724)
(-3.55395 -0.127118 4.39328)
(-3.61294 -0.198093 3.97171)
(-3.69265 0.00511512 2.72651)
(-3.7371 -0.00695096 2.80524)
(-3.74276 -0.0319055 2.86015)
(-3.68551 -0.0232581 2.72275)
(-3.73772 -0.0567844 2.65215)
(-3.62866 -0.0427995 3.10513)
(-4.3623 0.023427 0.121978)
(-4.4454 -0.00393363 0.125831)
(-4.44828 -0.0376333 0.153659)
(-4.41502 -0.0481039 0.0974634)
(-4.43736 -0.00163268 0.0693902)
(-4.45513 0.0362856 0.220829)
(-3.59673 0.0392313 -4.06129)
(-3.61845 0.0184716 -4.02992)
(-3.62552 -0.0305507 -4.00843)
(-3.67099 -0.0413072 -4.06795)
(-3.72249 0.0117819 -4.12037)
(-3.63085 0.0457016 -3.93959)
(-3.43682 0.0431474 -3.14513)
(-3.53865 0.0278326 -3.25396)
(-3.50579 -0.03457 -3.21247)
(-3.47045 -0.0476938 -3.13191)
(-3.43047 0.0223747 -3.05368)
(-3.51278 0.0538247 -3.21671)
(-0.330307 -0.447755 -0.050896)
(0.432672 -0.208379 -0.369422)
(-0.229986 -0.278683 -0.0685958)
(0.351628 -0.153323 -0.350032)
(1.3503 -0.0774145 -0.234774)
(-0.0477241 0.764391 0.136473)
(0.0317162 0.306581 0.244578)
(1.24926 -0.258232 -0.275795)
(1.69087 -0.172546 -0.764887)
(1.05532 0.305718 0.0447452)
(2.39678 -0.551315 -0.049885)
(-0.270136 -0.00464754 0.100761)
(2.34753 -0.171567 -0.186183)
(3.92381 -0.085533 -1.23026)
(4.35365 -0.22016 -2.05076)
(3.49054 0.0970736 -0.776162)
(3.92352 -0.539406 -0.369386)
(2.71317 -0.468289 -0.874884)
(4.22664 -0.399366 -0.894455)
(5.87744 0.107693 -2.4295)
(5.68676 -0.0675012 -3.04484)
(5.12659 0.38073 -2.16221)
(4.56601 -0.0471765 -0.58045)
(4.24754 -0.179197 -1.35387)
(5.26444 -0.0694046 -1.53322)
(6.18467 0.411986 -2.53061)
(5.84416 0.219186 -3.21158)
(5.22634 0.409489 -2.19662)
(4.92523 0.14677 -0.832175)
(4.58137 0.207999 -0.933028)
(5.0009 0.0501474 -1.49688)
(6.14534 0.609771 -2.46385)
(5.86539 0.611861 -3.1067)
(5.2134 0.389136 -1.58161)
(5.1898 0.0270999 -0.859012)
(5.43839 0.183021 -0.573952)
(4.90281 0.0113738 -1.3603)
(5.92482 0.553437 -2.4387)
(6.15141 0.598621 -3.03319)
(6.03963 0.199723 -1.59448)
(5.40674 -0.208641 -0.76568)
(6.33302 0.0336626 -1.54464)
(4.83629 -0.154741 -1.24518)
(5.43918 0.258399 -2.31323)
(6.19499 0.0891285 -3.07774)
(6.05214 0.133854 -2.28299)
(5.37223 -0.149551 -0.900287)
(5.95616 0.0739968 -1.89757)
(4.26559 -0.181745 -1.09631)
(4.79352 0.0167184 -2.06876)
(5.57606 -0.37436 -2.96614)
(5.2609 -0.106587 -2.18004)
(4.84 0.0562874 -1.18828)
(5.00771 0.208554 -1.87882)
(3.27718 -0.069482 -0.87859)
(4.0616 0.0545237 -1.62925)
(4.53609 -0.719561 -2.56722)
(4.07434 -0.513516 -2.01668)
(3.95247 0.049156 -1.61909)
(3.79497 0.318061 -1.5282)
(2.12572 -0.00682605 -0.501608)
(3.16337 0.203855 -1.11663)
(3.26938 -0.933301 -1.97538)
(2.62917 -0.833666 -1.90995)
(2.52018 0.0462706 -1.98121)
(2.37307 0.42886 -0.860991)
(0.508173 -0.0179142 0.308961)
(1.68454 0.0278829 -0.689764)
(1.5845 -0.687809 -0.944413)
(0.774339 -0.667453 -0.967806)
(0.149414 0.02406 -0.7446)
(0.736149 0.281006 -0.0111934)
(-1.07114 -0.802631 0.854732)
(0.92553 0.191032 1.83701)
(-1.00692 -0.372481 1.0989)
(1.08397 -0.00327293 1.36332)
(2.13027 -0.235114 1.58067)
(-0.276171 1.03916 0.870191)
(0.221923 0.7277 1.70481)
(2.31094 0.629791 4.02061)
(1.64909 -0.407944 2.99676)
(2.61086 0.113309 3.35446)
(3.01015 -1.18907 2.90243)
(-1.26111 -0.0950613 1.21722)
(3.3598 0.131635 3.69493)
(4.54003 0.817381 4.71565)
(3.61504 -0.797171 4.34922)
(4.37248 -0.939874 3.9525)
(5.17149 -1.33941 3.0005)
(2.44352 -0.758542 2.2925)
(4.03974 -0.325033 3.58767)
(4.37161 0.215516 2.88692)
(4.05669 -1.42728 3.2231)
(4.8203 -1.43689 2.91528)
(5.13153 -1.04882 2.34445)
(4.02008 -0.52142 2.07312)
(-0.0751527 -0.466751 1.13518)
(-1.82219 -1.16197 2.09813)
(-1.30554 -2.65414 2.70384)
(1.16383 -2.78666 1.97613)
(4.12704 -1.4968 1.447)
(4.08992 -0.427828 2.00666)
(-3.76253 -0.550368 -0.809705)
(-5.25016 -1.82599 0.807492)
(-3.8672 -2.73431 3.04687)
(1.84753 -1.46158 3.09995)
(4.0976 -1.44137 1.25672)
(5.38839 -0.077803 2.93968)
(-7.31948 -0.155623 -0.628323)
(-8.29078 -1.34663 0.21224)
(-3.12087 -1.04132 3.09101)
(2.35597 -0.286432 3.54834)
(3.85603 -0.832212 0.80317)
(6.04744 0.370818 1.05532)
(-9.67754 0.381311 0.0849102)
(-10.6632 0.0460613 0.102927)
(-3.98722 -0.100452 2.88839)
(-2.56916 -0.365724 1.09455)
(1.42042 -1.3062 0.184311)
(4.24596 0.844538 -0.601312)
(-8.89941 0.526522 0.140475)
(-10.8757 1.62977 0.60664)
(-6.20284 1.97764 1.34242)
(-3.32349 1.1124 -0.488284)
(-0.502638 0.404749 -1.28708)
(2.38473 1.30838 -0.275223)
(-0.598708 0.245089 -0.192724)
(-0.400473 1.82116 1.87531)
(-0.994258 1.58421 1.78989)
(0.758743 0.437412 -0.737987)
(3.90356 0.382682 -2.14941)
(2.10904 1.46843 0.331195)
(3.27338 -0.0377701 -3.03764)
(2.7708 0.69519 0.708191)
(0.7702 -1.93889 1.99165)
(3.77319 0.554631 -4.18324)
(4.08185 -0.223724 -5.01034)
(1.68446 0.945541 -1.17415)
(3.7849 0.185669 -3.47365)
(4.68764 -0.0206035 -2.85093)
(4.71416 -0.0181944 -2.75556)
(3.57973 -0.0204937 -3.38318)
(2.94106 -0.388309 -3.30791)
(3.0079 -0.0985986 -2.62708)
(-1.59432 -0.706702 0.432204)
(0.448856 0.345795 1.71006)
(-1.65219 -0.171051 1.11338)
(0.814009 0.242192 2.58017)
(1.97264 -0.225325 2.52217)
(-0.793498 0.61714 0.357039)
(-1.12585 0.0817962 1.53686)
(-0.978139 0.791275 5.67512)
(-0.167811 -0.21614 4.23275)
(-0.207763 0.761735 4.93265)
(-1.28254 -1.01287 3.65459)
(-1.69607 -0.0121118 0.264827)
(-1.0713 0.25253 2.99265)
(-2.26894 0.940501 6.97694)
(-2.06993 -0.612297 7.73696)
(-0.794465 -1.14861 6.68311)
(-2.51656 -1.41778 3.05976)
(-1.8972 -0.320009 0.674905)
(-1.03458 -0.0109734 -1.2379)
(-2.35133 0.174189 -3.31735)
(-2.19562 -0.713237 -3.55544)
(-1.7779 -0.941054 -3.69765)
(-2.5739 -0.815426 -2.23296)
(-3.04629 -0.323432 -0.895013)
(-2.05337 -0.293848 -5.13294)
(-1.7989 -0.363816 -6.01077)
(-1.59484 -0.239939 -5.98046)
(-1.37762 -0.245004 -5.31777)
(-2.08877 -0.228339 -4.79094)
(-1.97021 -0.120862 -3.09664)
(-1.5146 -0.0367484 -4.4557)
(-1.66455 -0.531208 -4.71007)
(-1.76486 -0.959857 -4.36956)
(-1.13037 -0.818292 -3.35163)
(-1.33753 -0.561941 -3.14182)
(-1.88067 -0.177604 -2.28942)
(-0.736767 -0.46087 -3.18667)
(-2.31623 -1.23388 -3.8187)
(-2.00277 -2.02464 -4.29569)
(-1.36153 -1.80855 -3.76078)
(-0.698841 -1.29603 -3.16284)
(0.376113 -0.181442 -3.03804)
(-1.80816 -0.953309 -0.693969)
(-3.42278 -1.38505 -1.05978)
(-2.77533 -1.43482 -2.57484)
(0.157982 -0.478566 -4.0741)
(2.69495 -0.608339 -4.46662)
(3.41803 -0.193186 -3.5428)
(-4.14908 -0.306604 2.02359)
(-3.41761 0.38652 2.96462)
(-2.28748 0.512671 2.83611)
(-0.480629 1.21316 2.08513)
(0.466612 0.775258 0.250573)
(2.86218 0.333195 -0.81392)
(0.500974 -0.183426 4.89492)
(-0.0588899 0.381913 6.91932)
(-1.34815 -0.119643 6.89794)
(0.391594 0.52563 4.31785)
(1.46407 0.818078 0.366375)
(1.9902 1.24964 1.4617)
(-5.08885 -0.905253 1.39966)
(-3.94262 -0.369218 5.02511)
(-1.02972 -1.28441 1.41566)
(0.374005 1.35416 -3.31327)
(2.48733 -0.0995722 -4.73904)
(-5.50388 1.46152 1.73995)
(5.20874 0.322282 -5.34191)
(5.28157 0.407045 -4.81465)
(4.95667 0.886631 -4.88847)
(4.38931 1.15068 -4.5814)
(4.67839 -1.06611 -4.5231)
(2.76437 -1.22281 -3.96061)
(-0.636856 -0.272719 -1.03949)
(0.230902 0.249671 -0.212976)
(-0.493743 -0.137999 -0.238194)
(0.566379 0.215366 1.35045)
(2.08678 -0.383007 1.6793)
(-0.281729 0.323294 -1.23008)
(-1.82514 -0.292338 0.0871505)
(-2.17557 0.432899 3.51823)
(-1.61715 -0.135708 2.11229)
(-2.86992 0.846169 3.33954)
(-3.22996 -0.486206 2.99993)
(-2.0752 0.423378 -2.4942)
(-2.77153 -0.307795 1.27797)
(-3.93961 0.354781 7.14198)
(-3.60416 -0.587418 7.45431)
(-2.47497 -0.132918 5.09716)
(-0.835184 0.404961 1.8239)
(-2.4391 0.651219 -3.08919)
(-3.58387 -0.109921 0.241506)
(-4.0457 0.243468 1.42117)
(-3.73253 -0.10946 1.9276)
(-2.75957 0.0260142 -0.0139708)
(-2.11582 -0.14645 -1.3786)
(-3.04212 -0.0399649 -0.487238)
(-1.1684 0.0706702 -0.358681)
(-1.27441 0.23156 -0.505947)
(-1.13458 0.0474629 0.174982)
(-0.567638 -0.191972 0.112715)
(-0.469562 -0.356065 0.560506)
(-1.66507 -0.219275 1.02748)
(0.12405 -0.0320539 -0.117754)
(-0.491602 0.260232 1.0922)
(-1.08752 -0.448398 1.01969)
(-0.544974 -0.369093 0.118828)
(-0.0570936 -0.3976 0.42301)
(-0.599714 0.0920646 2.2942)
(1.80225 -0.336912 0.96268)
(1.54569 -0.129796 1.55427)
(1.04708 -0.663559 1.24724)
(0.951517 -0.460898 0.617779)
(0.997561 -0.445008 -0.532836)
(0.448027 0.0600073 1.09234)
(1.684 -0.788893 1.73842)
(3.15558 -0.142351 1.93203)
(4.21575 0.0331168 0.873827)
(3.17655 0.714417 0.689205)
(1.93139 0.15851 -0.986245)
(2.61157 -0.165079 -0.591745)
(-0.375538 -0.261036 2.62027)
(3.5056 0.421763 2.55503)
(4.63459 -0.0914121 1.39689)
(3.86034 0.565006 -0.0533982)
(2.04521 0.815456 -0.433466)
(2.19373 0.115794 -0.904711)
(2.7383 0.00296629 1.6149)
(2.49063 0.162193 3.70115)
(2.11536 -0.864988 3.09952)
(3.77274 0.0190916 -1.76508)
(2.35975 0.772686 -1.87759)
(3.37742 0.883891 -1.07699)
(-5.69919 -0.362465 1.84248)
(-7.04868 0.623576 4.67986)
(-7.54981 1.04313 4.19859)
(3.53153 1.47398 -4.52372)
(4.21325 -0.536005 -4.58037)
(-6.09672 -0.0338274 0.566105)
(4.71558 -0.014407 -3.37803)
(4.68673 0.134658 -4.02117)
(4.43092 0.834725 -4.47299)
(3.9066 0.967437 -3.90933)
(4.42938 -0.760338 -3.59984)
(3.89388 -0.842684 -3.29568)
(-2.38276 -0.0263986 -3.1809)
(-2.40906 -0.00511481 -3.21413)
(-2.39952 0.0159452 -3.19966)
(-2.39674 -0.0151075 -3.19167)
(-2.39975 0.0217811 -3.19613)
(-2.39138 0.0325108 -3.188)
(-1.07837 -0.128564 -4.21739)
(-1.34491 -0.0237508 -4.35988)
(-1.2205 0.0706294 -4.32514)
(-1.19083 -0.10118 -4.27606)
(-1.28491 0.111117 -4.25693)
(-1.10115 0.194251 -4.2957)
(-2.1241 -0.147267 2.2762)
(-2.7059 -0.0212433 1.94788)
(-2.28067 0.0500219 2.05467)
(-2.48863 -0.152912 2.15961)
(-2.93978 0.199282 2.18228)
(-1.84939 0.339891 2.01006)
(2.52113 0.00396227 -4.14593)
(2.51636 0.014257 -4.2391)
(2.56148 0.000155615 -4.25875)
(2.50761 -0.0357544 -4.16161)
(2.45195 0.00317813 -4.08493)
(2.59656 0.0414024 -4.27763)
(-2.51376 0.0641086 -1.27994)
(-2.64692 0.0858008 -1.60193)
(-2.22091 -0.0229172 -1.68121)
(-2.70105 -0.0605694 -1.33622)
(-3.20843 0.0333676 -1.12242)
(-1.87746 0.107465 -1.73687)
(-6.82086 0.0782046 4.5264)
(-7.22137 0.0991355 4.35428)
(-6.70348 0.0166253 4.21581)
(-7.23487 0.099771 4.69111)
(-7.91704 -0.00895514 4.98605)
(-5.97447 0.0175237 4.16766)
(-4.91074 0.119266 2.29897)
(-4.57086 0.0770106 2.16359)
(-4.44964 -0.0934823 2.04344)
(-4.81827 -0.188768 2.33725)
(-5.21669 0.051814 2.66299)
(-4.37707 0.269847 1.90092)
(-10.0161 0.104752 4.93874)
(-9.66881 0.112405 5.14263)
(-9.37177 -0.0854305 4.88464)
(-10.0526 -0.0511661 5.09212)
(-10.4946 0.0357648 5.00702)
(-9.14669 0.238626 4.7226)
(-9.17236 0.0112025 5.77348)
(-9.11172 0.0066131 6.19937)
(-8.88342 0.0675565 5.89366)
(-9.28254 0.263622 6.05711)
(-9.73445 -0.136405 6.07318)
(-8.37848 -0.214619 5.85172)
(-6.54621 0.189284 4.71886)
(-5.74261 0.264326 4.96981)
(-5.41106 -0.148434 4.82611)
(-6.42675 -0.166824 4.80351)
(-7.4819 0.242557 4.69259)
(-4.86767 0.50848 4.6705)
(-9.9024 -0.00754485 5.34367)
(-9.70472 0.0256829 6.54049)
(-9.59875 -0.112019 6.63841)
(-9.95597 -0.0566581 5.56667)
(-10.3277 0.0590812 4.85543)
(-9.0901 0.280566 6.59708)
(-8.85339 -0.119832 4.26503)
(-9.0461 -0.138429 5.27604)
(-9.06581 -0.0148899 5.30388)
(-8.86197 0.147783 4.03376)
(-8.85989 -0.138169 3.16227)
(-8.74304 -0.152601 5.68058)
(-9.35445 0.0284621 3.96011)
(-8.97639 0.115488 4.62588)
(-8.76379 -0.0312905 4.53914)
(-9.32389 0.0764137 4.01792)
(-9.80643 0.166877 3.51662)
(-8.02729 0.282167 4.5584)
(-9.36266 -0.019117 2.73752)
(-9.5769 0.00646332 3.90624)
(-9.64961 -0.117323 4.0212)
(-9.33037 -0.0976977 2.78231)
(-9.33247 0.0269046 1.90225)
(-9.3267 0.109529 4.37734)
(-7.18556 0.0232594 -1.34536)
(-7.73248 -0.0247944 0.0979294)
(-7.79448 -0.226241 0.104207)
(-6.92349 -0.164243 -2.07411)
(-6.41716 0.0341908 -3.21992)
(-7.86526 0.0437273 0.692711)
(-7.00768 -0.139556 2.08375)
(-7.2566 -0.0994529 2.85866)
(-7.25747 0.0710741 2.78355)
(-6.98233 0.12331 2.16238)
(-7.15038 -0.122911 1.66738)
(-6.66784 -0.198454 3.33837)
(-5.3539 -0.0641591 -1.09549)
(-5.43463 -0.041989 -0.730985)
(-5.5673 0.000449661 -0.60673)
(-5.1087 -0.0162497 -1.24951)
(-4.92903 -0.122733 -1.73047)
(-5.55447 -0.178483 -0.0153044)
(-2.23991 0.0299239 -5.7835)
(-2.45154 0.00942271 -5.72912)
(-2.42643 -0.0721734 -5.73391)
(-2.16996 -0.0791779 -5.68141)
(-2.00263 -0.00846364 -5.74797)
(-2.66657 0.0175463 -5.46715)
(-3.99537 -0.0341468 0.223859)
(-4.26798 -0.0281136 0.0699497)
(-4.22495 -0.00801058 -0.0440926)
(-3.89519 -0.024968 0.126816)
(-3.90104 -0.148049 0.212529)
(-4.26413 -0.198983 0.601982)
(-2.4478 0.00665728 -1.71802)
(-2.36842 0.0278226 -2.04148)
(-2.3268 -0.0678516 -2.09486)
(-2.44481 -0.121417 -1.71023)
(-2.51205 -0.0391852 -1.67078)
(-2.36151 -0.00165685 -1.86218)
(-1.79819 0.033366 -2.74683)
(-1.73495 0.0279549 -2.84468)
(-1.71143 -0.0480506 -2.8319)
(-1.78911 -0.0697537 -2.72911)
(-1.82341 0.0290021 -2.67397)
(-1.64477 0.0549054 -2.84929)
(-1.55279 0.0301634 1.05231)
(-1.36651 0.0257849 0.52109)
(-1.35206 -0.0590115 0.437833)
(-1.52081 -0.0581609 0.945709)
(-1.56174 0.00809226 1.1067)
(-1.45745 0.0312053 0.576821)
(-1.65702 0.040264 0.141019)
(-1.63458 0.0465646 -0.00149145)
(-1.62639 -0.0476368 0.014826)
(-1.64596 -0.0744908 0.127931)
(-1.64546 0.0250912 0.159852)
(-1.52621 0.0478252 -0.0398236)
(-1.3133 0.00821559 -0.87218)
(-1.32252 0.00328985 -0.90215)
(-1.32194 -0.0103547 -0.895596)
(-1.29903 -0.0103806 -0.882803)
(-1.28615 0.002087 -0.872828)
(-1.30625 0.00633171 -0.876403)
(-1.46063 -0.017166 2.62521)
(-1.43281 -0.0420986 2.63508)
(-1.44539 0.00166601 2.65289)
(-1.47305 0.0177501 2.67241)
(-1.49159 -0.0483456 2.67324)
(-1.38088 -0.033941 2.6792)
(-0.253281 -0.0104662 1.39422)
(-0.258613 -0.0168441 1.36804)
(-0.261949 -0.00632308 1.37208)
(-0.259918 -0.00540205 1.42479)
(-0.262447 -0.0231569 1.43693)
(-0.229647 -0.0173936 1.36383)
(-0.653993 0.00329711 -0.0207839)
(-0.664467 0.000566252 -0.0237802)
(-0.662364 -0.0109779 -0.0198633)
(-0.657579 -0.0119229 -0.00871583)
(-0.653694 0.00414193 -0.0061326)
(-0.66711 0.00783485 -0.00192298)
(-0.805457 0.00398876 0.990828)
(-0.829673 -0.0144865 1.11329)
(-0.857562 -0.00639405 1.08724)
(-0.851965 -0.00628153 0.984889)
(-0.836789 -0.0303442 0.905878)
(-0.894414 -0.0106744 1.14794)
(1.36994 -0.0151846 0.631319)
(1.3534 -0.0067705 0.644536)
(1.35382 0.015313 0.646825)
(1.36927 0.0234479 0.640437)
(1.3928 -0.0214145 0.616035)
(1.34683 -0.036552 0.687095)
(0.290823 1.23905e-05 -0.970029)
(0.29096 -0.001696 -0.966045)
(0.291021 -0.00350081 -0.970245)
(0.293558 -0.00137837 -0.9703)
(0.293721 -0.00385483 -0.982711)
(0.291596 -0.00434938 -0.958874)
(-2.41053 -0.00201179 -2.8817)
(-2.38674 -0.00107566 -2.75522)
(-2.42148 0.00161715 -2.79373)
(-2.45057 0.00265962 -2.87215)
(-2.4948 -0.0032612 -2.96605)
(-2.4329 -0.00739712 -2.78081)
(1.72101 -0.0107869 -1.14061)
(1.70284 -0.00351664 -1.15702)
(1.70997 0.0109342 -1.14394)
(1.72503 0.0152707 -1.13803)
(1.748 -0.00584086 -1.13398)
(1.70256 -0.0165902 -1.12734)
(0.836646 0.00177641 -2.17845)
(0.833687 -0.000238225 -2.1747)
(0.836913 -0.0032817 -2.17794)
(0.838445 -0.00292509 -2.17892)
(0.839565 -0.00158188 -2.18496)
(0.840395 4.99954e-05 -2.17643)
(-3.47085 0.0113045 -2.82737)
(-3.50189 0.00690472 -2.75022)
(-3.48635 -0.0154795 -2.7774)
(-3.49187 -0.0192036 -2.82335)
(-3.49404 0.0117163 -2.87421)
(-3.50184 0.0208508 -2.77711)
(1.10046 -0.018513 -4.02436)
(1.07093 -0.00377298 -3.95176)
(1.07856 0.0213664 -3.9859)
(1.10376 0.0254124 -4.02973)
(1.13061 -0.00493491 -4.09263)
(1.06785 -0.0231924 -3.95133)
(1.00273 -0.00929397 -1.49962)
(1.00814 -0.00378193 -1.5271)
(1.00626 0.00930796 -1.52916)
(1.00365 0.0119764 -1.52043)
(1.00096 -0.0063755 -1.51862)
(1.01076 -0.014511 -1.53288)
(2.12747 -0.00825195 0.12255)
(2.17813 -0.00749976 0.211273)
(2.23259 0.0125078 0.253501)
(2.25583 0.0329833 0.264821)
(2.24604 0.00714759 0.272316)
(2.18409 -0.0154622 0.215581)
(1.52645 -0.048773 -3.95229)
(1.54226 -0.069396 -3.76135)
(1.4924 -0.0229156 -3.83359)
(1.37623 -0.0213615 -4.15631)
(1.14457 -0.0386508 -4.58396)
(1.29001 -0.0153405 -4.17593)
(0.587419 0.00809886 -0.717411)
(0.654997 0.0309912 -0.710071)
(0.616635 0.0896834 -0.701818)
(0.550859 0.121478 -0.686123)
(0.415229 0.0513892 -0.689132)
(0.567319 -0.0061073 -0.662553)
(0.449416 -0.00163328 -0.136765)
(0.44673 -0.012761 -0.149318)
(0.443715 -0.0291783 -0.160161)
(0.45057 -0.0389371 -0.182173)
(0.469051 0.000282398 -0.188248)
(0.454417 0.0212819 -0.174828)
(0.100498 -9.99405e-05 -1.88326)
(0.0271762 -0.00666781 -1.90527)
(-0.0178725 -0.0279632 -2.00846)
(0.00283338 -0.0584722 -2.13631)
(0.0119744 -0.0407332 -2.23748)
(-0.00474004 -0.00240669 -1.9571)
(0.541575 0.012016 -1.85204)
(0.533583 0.0263256 -1.88457)
(0.54118 0.0288672 -1.87736)
(0.587921 0.0176328 -1.85096)
(0.639896 2.68443e-05 -1.81743)
(0.62365 -0.00326603 -1.83748)
(0.243718 -0.00455378 0.191043)
(0.244446 -0.011103 0.189407)
(0.240225 -0.0044692 0.187653)
(0.222906 0.00223048 0.191693)
(0.208473 -0.00100261 0.188826)
(0.226757 -0.000574294 0.183442)
(0.566664 -0.0188014 -0.927124)
(0.568658 -0.0375986 -0.946902)
(0.567734 -0.0261063 -0.944294)
(0.545588 -0.0178512 -0.907792)
(0.517734 -0.0105938 -0.901087)
(0.523772 0.00179554 -0.905503)
(0.163204 0.00575716 -1.41584)
(0.173176 0.0129294 -1.41404)
(0.183827 0.0164225 -1.40474)
(0.192924 0.0169439 -1.40839)
(0.191909 0.00975742 -1.41052)
(0.187802 0.00182952 -1.40481)
(-0.215001 -0.00171346 0.201981)
(-0.216519 -0.00439374 0.201176)
(-0.218748 -0.00727565 0.200302)
(-0.216983 -0.00752168 0.202437)
(-0.215467 -0.00173994 0.204998)
(-0.214387 0.0015623 0.196363)
(-0.262134 -0.00171038 -1.0279)
(-0.267223 -0.00452323 -1.03389)
(-0.273091 -0.00896479 -1.03324)
(-0.272205 -0.0146358 -1.03809)
(-0.273802 -0.00689162 -1.02926)
(-0.281049 0.00201976 -1.02303)
(-0.187615 0.00343395 -1.58023)
(-0.185211 0.00811574 -1.58769)
(-0.18253 0.00895447 -1.58555)
(-0.180425 0.00573595 -1.58511)
(-0.177832 0.00149533 -1.58536)
(-0.175572 -6.24585e-05 -1.58083)
(-0.573497 -0.00170865 -0.0509077)
(-0.577963 -0.00403978 -0.0525879)
(-0.579864 -0.00751232 -0.0528004)
(-0.584271 -0.00765236 -0.0516116)
(-0.585742 -0.00154407 -0.0483622)
(-0.582768 0.00122204 -0.0560581)
(-0.080197 -0.00193705 -2.04172)
(-0.0883203 -0.00257303 -2.05661)
(-0.0879485 -0.000412772 -2.05464)
(-0.085701 -0.000749339 -2.08318)
(-0.0844902 -0.00080899 -2.09161)
(-0.0959707 0.000267579 -2.07398)
(-0.714409 0.00189948 -1.64393)
(-0.714317 0.00530508 -1.647)
(-0.712065 0.0083973 -1.64423)
(-0.710283 0.00794093 -1.64162)
(-0.710034 0.00120932 -1.64439)
(-0.710187 -0.00178577 -1.64193)
(-2.087 0.00171086 0.57729)
(-2.10143 0.000131176 0.57295)
(-2.10073 -0.00228784 0.572011)
(-2.10653 -0.000616633 0.577511)
(-2.1062 -0.00124519 0.584199)
(-2.10826 -0.001126 0.565292)
(-0.665507 0.0037876 -4.76866)
(-0.655787 0.00159256 -4.7995)
(-0.662575 -0.00673459 -4.77989)
(-0.660215 -0.00923236 -4.77544)
(-0.667516 0.00649959 -4.76765)
(-0.66285 0.0111836 -4.79049)
(-0.317896 0.00193505 -0.790966)
(-0.307471 0.00410597 -0.789947)
(-0.309286 0.00528859 -0.787002)
(-0.30907 0.00684697 -0.77962)
(-0.31485 0.00137685 -0.775807)
(-0.301804 -0.00245025 -0.783505)
(1.05016 -0.265938 -2.04422)
(1.06059 0.130674 -1.01131)
(1.06342 -0.384976 -1.00741)
(2.41903 0.0603849 0.58272)
(3.27083 -0.313274 1.03587)
(0.856247 0.377448 -2.27157)
(1.80117 -1.38873 -1.64115)
(1.20765 0.0992241 -0.740927)
(1.55007 0.691638 -0.87155)
(2.98111 -0.584564 -0.241422)
(3.9782 -0.318048 0.503689)
(2.48906 1.04607 -1.54068)
(2.43528 -1.4893 8.03111)
(0.371746 -0.0246406 -8.26608)
(2.05066 0.782739 7.09974)
(3.16082 -0.814261 6.48957)
(1.41164 0.0160529 -5.15181)
(3.0968 1.34822 8.98848)
(-1.73626 -0.263545 -0.748283)
(-1.9555 0.319914 2.13909)
(-1.77278 -0.254888 1.11301)
(-3.18948 0.621775 2.71204)
(-3.83709 -0.42389 2.45042)
(-0.893494 0.237446 -1.95265)
(3.96429 0.123779 -2.77481)
(-2.34822 0.171238 1.50519)
(2.45769 -0.583142 0.416876)
(-1.44513 0.794399 3.16721)
(-4.27003 -0.364451 2.94384)
(5.87314 -0.0259818 -1.67256)
(5.92178 0.486719 -2.82633)
(-0.706587 0.17606 7.30743)
(6.21253 -0.918596 -0.00976184)
(3.10099 0.644606 2.65047)
(-0.480132 -0.502021 5.41452)
(5.59084 -0.042521 -3.51693)
(-2.62196 -0.897608 1.66539)
(-1.92529 -0.393727 5.29183)
(-1.15771 0.0418604 5.31121)
(0.48226 1.34492 3.05763)
(1.79845 1.99979 1.53504)
(1.48863 1.21588 1.84148)
(1.65991 -1.22274 4.1562)
(2.78705 -0.617342 3.53816)
(3.917 0.710189 2.83983)
(4.27205 1.11024 2.34961)
(2.60688 1.75595 3.69667)
(2.44491 1.31326 3.76371)
(3.1781 -0.944436 1.78721)
(4.9568 -0.156176 -0.263668)
(3.21682 0.389875 -1.43346)
(4.4471 -0.256752 -0.49874)
(3.68201 0.570074 2.48429)
(2.87386 0.762469 1.82105)
(-1.69928 -0.0490572 0.346902)
(-2.05813 0.349196 -0.0230776)
(-1.94463 0.991748 -0.372097)
(-1.64223 1.28122 -0.833219)
(-1.2322 0.6168 -0.938618)
(-1.13544 0.0433828 -0.592343)
(-0.990805 0.210137 0.757626)
(-1.76974 0.480281 0.512481)
(-1.69515 0.449949 0.369085)
(-1.50582 -0.0274069 -0.0164254)
(-1.05002 -0.115552 -0.312778)
(-0.559353 0.0564467 -0.358125)
(0.572252 0.193968 -1.21868)
(0.128176 0.0929659 -1.45953)
(0.392145 0.0730146 -1.3111)
(0.293453 0.0801257 -1.54806)