/*--------------------------------*- C++ -*----------------------------------*\
| =========                 |                                                 |
| \\      /  F ield         | OpenFOAM: The Open Source CFD Toolbox           |
|  \\    /   O peration     | Version:  v1612+                                |
|   \\  /    A nd           | Web:      www.OpenFOAM.com                      |
|    \\/     M anipulation  |                                                 |
\*---------------------------------------------------------------------------*/
FoamFile
{
    version     2.0;
    format      ascii;
    class       volScalarField;
    location    "7.15";
    object      p;
}
// * * * * * * * * * * * * * * * * * * * * * * * * * * * * * * * * * * * * * //

dimensions      [1 -1 -2 0 0 0 0];

internalField   nonuniform List<scalar> 
320
(
14724.8
14724.8
14724.8
14724.8
4.98871
4.98871
4.98805
4.98825
4.9893
4.98745
4.98746
4.98728
4.98705
4.98667
4.98717
4.98771
4914.89
4914.9
4914.9
4914.9
4914.9
4914.89
4914.91
4914.91
4914.9
4914.89
4914.86
4914.88
14724.8
14724.8
14724.8
14724.8
14724.8
14724.8
14724.8
14724.8
14724.8
14724.8
14724.8
14724.8
24534.8
24534.8
24534.8
24534.8
24534.8
24534.8
24534.8
24534.8
24534.8
24534.8
24534.8
24534.8
24534.8
24534.8
24534.8
24534.8
4.98743
4.98909
4.98902
4.98909
4.99053
4.98978
4.98884
4.98791
4.98786
4.98918
4.9867
4.9879
4.98662
4.98685
4.98659
4.98679
4.98605
4.9877
4.98631
4.98712
4914.9
4914.9
4914.87
4914.85
4914.87
4914.87
4914.88
4914.87
4914.85
4914.86
4914.86
4914.86
4914.89
4914.88
4914.87
4914.86
4914.86
4914.86
4914.87
4914.87
14724.8
14724.8
14724.8
14724.8
14724.8
14724.8
14724.8
14724.8
14724.8
14724.8
14724.8
14724.8
14724.8
14724.8
14724.8
14724.8
14724.8
14724.8
14724.8
14724.8
24534.8
24534.8
24534.8
24534.8
24534.8
24534.8
24534.8
24534.8
24534.8
24534.8
24534.8
24534.8
24534.8
24534.8
24534.8
24534.8
24534.8
24534.8
24534.8
24534.8
34344.8
34344.8
34344.8
34344.8
34344.8
34344.8
34344.8
34344.8
34344.8
34344.8
34344.8
34344.8
34344.8
34344.8
34344.8
34344.8
34344.8
34344.8
34344.8
34344.8
34344.8
34344.8
34344.8
34344.8
34344.8
34344.8
34344.8
34344.8
34344.8
34344.8
34344.8
34344.8
34344.8
34344.8
34344.8
34344.8
4.98708
4.98778
4.98843
4.98954
4.99126
4.99144
4.99088
4.99006
4.99079
4.98813
4.98749
4.98965
4.99438
4.98662
4.99053
4.98657
4.98774
4.98713
4.98643
4.98683
4.98703
4.98684
4.98724
4.98635
4.98599
4.98729
4.98663
4.98579
4914.89
4914.9
4914.87
4914.85
4914.87
4914.87
4914.89
4914.9
4914.88
4914.88
4914.87
4914.85
4914.89
4914.85
4914.91
4914.86
4914.88
4914.91
4914.88
4914.89
4914.89
4914.83
4914.87
4914.84
4914.9
4914.92
4914.89
4914.89
14724.8
14724.8
14724.8
14724.8
14724.8
14724.8
14724.8
14724.8
14724.8
14724.8
14724.8
14724.8
14724.8
14724.8
14724.8
14724.8
14724.8
14724.8
14724.8
14724.8
14724.8
14724.8
14724.8
14724.8
14724.8
14724.8
14724.8
14724.8
24534.8
24534.8
24534.8
24534.8
24534.8
24534.8
24534.8
24534.8
24534.8
24534.8
24534.8
24534.8
24534.8
24534.8
24534.8
24534.8
24534.8
24534.8
24534.8
24534.8
24534.8
24534.8
24534.8
24534.8
24534.8
24534.8
24534.8
24534.8
34344.8
34344.8
34344.8
34344.8
34344.8
34344.8
34344.8
34344.8
34344.8
34344.8
34344.8
34344.8
34344.8
34344.8
34344.8
34344.8
34344.8
34344.8
34344.8
34344.8
34344.8
34344.8
34344.8
34344.8
34344.8
34344.8
34344.8
34344.8
4.98762
4.99015
4.98837
4.9855
4914.89
4914.92
4914.91
4914.89
)
;

boundaryField
{
    top_fluid_surface
    {
        type            calculated;
        value           nonuniform List<scalar> 
64
(
-7.5917e-09
-3.32305e-09
-2.91838e-09
-1.38792e-09
-7.73454e-13
-3.88774e-09
-3.17418e-08
-2.71335e-08
-1.33089e-08
-5.08323e-10
0
-4.0969e-10
-3.78439e-10
-2.00887e-08
0
0
0
0
0
0
0
0
0
0
-3.00334e-09
0
0
0
0
0
-2.65674e-10
0
-1.94242e-09
-3.71974e-09
0
0
0
0
-1.94964e-08
-2.14798e-09
0
-8.87961e-09
-5.1044e-09
0
-7.1818e-10
0
-1.15546e-10
-7.09975e-10
-7.77201e-09
-9.92787e-09
-6.43073e-10
-1.39405e-08
-1.46462e-08
0
-3.23797e-09
0
-2.6736e-09
-3.08706e-08
-8.49663e-09
-6.08759e-08
-1.48802e-08
-2.52561e-12
-4.2924e-09
-2.34199e-09
)
;
    }
    bottom_fluid_surface
    {
        type            calculated;
        value           nonuniform List<scalar> 
64
(
39249.8
39249.8
39249.8
39249.8
39249.8
39249.8
39249.8
39249.8
39249.8
39249.8
39249.8
39249.8
39249.8
39249.8
39249.8
39249.8
39249.8
39249.8
39249.8
39249.8
39249.8
39249.8
39249.8
39249.8
39249.8
39249.8
39249.8
39249.8
39249.8
39249.8
39249.8
39249.8
39249.8
39249.8
39249.8
39249.8
39249.8
39249.8
39249.8
39249.8
39249.8
39249.8
39249.8
39249.8
39249.8
39249.8
39249.8
39249.8
39249.8
39249.8
39249.8
39249.8
39249.8
39249.8
39249.8
39249.8
39249.8
39249.8
39249.8
39249.8
39249.8
39249.8
39249.8
39249.8
)
;
    }
    lateral_surface_1
    {
        type            calculated;
        value           nonuniform List<scalar> 
40
(
4.98708
4.98778
4.98843
4.98954
4.99126
4.99144
4.99088
4.98579
4914.89
4914.9
4914.87
4914.85
4914.87
4914.87
4914.89
4914.89
14724.8
14724.8
14724.8
14724.8
14724.8
14724.8
14724.8
14724.8
24534.8
24534.8
24534.8
24534.8
24534.8
24534.8
24534.8
24534.8
34344.8
34344.8
34344.8
34344.8
34344.8
34344.8
34344.8
34344.8
)
;
    }
    lateral_surface_2
    {
        type            calculated;
        value           nonuniform List<scalar> 
40
(
4.98662
4.99053
4.98657
4.98774
4.98713
4.98643
4.98683
4.98703
4914.85
4914.91
4914.86
4914.88
4914.91
4914.88
4914.89
4914.89
14724.8
14724.8
14724.8
14724.8
14724.8
14724.8
14724.8
14724.8
24534.8
24534.8
24534.8
24534.8
24534.8
24534.8
24534.8
24534.8
34344.8
34344.8
34344.8
34344.8
34344.8
34344.8
34344.8
34344.8
)
;
    }
    lateral_surface_3
    {
        type            calculated;
        value           nonuniform List<scalar> 
40
(
4.99088
4.99006
4.99079
4.98813
4.98749
4.98965
4.99438
4.98662
4914.89
4914.9
4914.88
4914.88
4914.87
4914.85
4914.89
4914.85
14724.8
14724.8
14724.8
14724.8
14724.8
14724.8
14724.8
14724.8
24534.8
24534.8
24534.8
24534.8
24534.8
24534.8
24534.8
24534.8
34344.8
34344.8
34344.8
34344.8
34344.8
34344.8
34344.8
34344.8
)
;
    }
    lateral_surface_4
    {
        type            calculated;
        value           nonuniform List<scalar> 
40
(
4.98703
4.98684
4.98724
4.98635
4.98599
4.98729
4.98663
4.98579
4914.89
4914.83
4914.87
4914.84
4914.9
4914.92
4914.89
4914.89
14724.8
14724.8
14724.8
14724.8
14724.8
14724.8
14724.8
14724.8
24534.8
24534.8
24534.8
24534.8
24534.8
24534.8
24534.8
24534.8
34344.8
34344.8
34344.8
34344.8
34344.8
34344.8
34344.8
34344.8
)
;
    }
}


// ************************************************************************* //
