/*--------------------------------*- C++ -*----------------------------------*\
| =========                 |                                                 |
| \\      /  F ield         | OpenFOAM: The Open Source CFD Toolbox           |
|  \\    /   O peration     | Version:  v1612+                                |
|   \\  /    A nd           | Web:      www.OpenFOAM.com                      |
|    \\/     M anipulation  |                                                 |
\*---------------------------------------------------------------------------*/
FoamFile
{
    version     2.0;
    format      ascii;
    class       volScalarField;
    location    "6.35";
    object      alpha.water;
}
// * * * * * * * * * * * * * * * * * * * * * * * * * * * * * * * * * * * * * //

dimensions      [0 0 0 0 0 0 0];

internalField   nonuniform List<scalar> 
1116
(
0.596019
0.596019
0.596019
0.59602
0.59602
0.596021
0.902844
0.902881
0.902855
0.902849
0.902859
0.902849
0.974462
0.974462
0.974462
0.974462
0.974462
0.974462
0.974462
0.974462
0.974462
0.974462
0.974462
0.974462
0.968954
0.968966
0.968959
0.968969
0.968977
0.968948
0.948097
0.948122
0.94811
0.948128
0.94815
0.948084
0.927806
0.927848
0.927834
0.927849
0.92788
0.927794
0.913672
0.913729
0.913717
0.913712
0.913744
0.913662
0.907752
0.90781
0.907807
0.907776
0.907815
0.907733
0.906562
0.906616
0.906616
0.906586
0.906629
0.906536
0.904672
0.904628
0.904684
0.904678
0.904783
0.904472
0.901303
0.901568
0.901512
0.901337
0.901158
0.901711
0.759199
0.759137
0.759157
0.759166
0.759148
0.759172
0.908216
0.908217
0.908217
0.908217
0.908217
0.908217
0.868723
0.868695
0.8687
0.868725
0.868729
0.868699
0.505735
0.505493
0.50557
0.50567
0.505613
0.505654
0.3343
0.33425
0.334271
0.334282
0.334238
0.334334
0.258432
0.258608
0.258572
0.25846
0.258426
0.2586
0.210036
0.210187
0.210181
0.210046
0.210019
0.210185
0.173613
0.173515
0.173543
0.173584
0.173782
0.173416
0.205019
0.205106
0.204998
0.205073
0.204735
0.205305
0.285522
0.286579
0.286105
0.28582
0.284406
0.287329
0.310698
0.30533
0.307035
0.309701
0.314527
0.302416
0.216016
0.212969
0.213622
0.215548
0.218493
0.212565
0.760115
0.760247
0.760213
0.7602
0.76022
0.760183
0.293343
0.293213
0.293267
0.293268
0.293241
0.293301
0.0457499
0.0456556
0.0456908
0.0457138
0.0456845
0.0457269
2.24599e-08
2.17011e-08
2.25998e-08
2.31724e-08
2.33995e-08
2.31527e-08
4.33376e-08
4.40228e-08
4.34843e-08
4.47465e-08
4.64648e-08
4.20923e-08
4.77725e-07
4.34506e-07
4.37811e-07
4.74059e-07
5.05508e-07
4.10229e-07
1.3465e-06
1.30022e-06
1.30437e-06
1.33974e-06
1.36863e-06
1.27412e-06
1.78749e-06
1.78534e-06
1.78561e-06
1.78296e-06
1.77927e-06
1.7781e-06
0.0018043
0.00179233
0.00177177
0.00181613
0.00189893
0.00172733
0.0171841
0.0176266
0.0174106
0.0173097
0.0170448
0.0177581
0.0369699
0.0364163
0.0364064
0.0369224
0.0367441
0.0362665
0.0261423
0.0261264
0.0261263
0.0261359
0.0261647
0.0261266
0.665034
0.665496
0.665319
0.665244
0.665366
0.665189
2.74344e-08
2.76881e-08
2.78983e-08
2.80467e-08
2.82376e-08
2.82446e-08
2.43037e-08
2.45574e-08
2.49019e-08
2.50461e-08
2.52264e-08
2.51594e-08
2.38105e-08
2.40781e-08
2.44199e-08
2.4554e-08
2.47336e-08
2.46782e-08
2.43032e-08
2.45509e-08
2.49016e-08
2.50457e-08
2.5226e-08
2.51591e-08
4.36028e-08
4.43961e-08
4.38634e-08
4.50896e-08
4.6784e-08
4.24896e-08
4.74305e-07
4.3072e-07
4.34285e-07
4.70517e-07
5.01949e-07
4.067e-07
1.32466e-06
1.27817e-06
1.28263e-06
1.31776e-06
1.34695e-06
1.25122e-06
0.0100008
0.00974795
0.00968874
0.0100291
0.0102073
0.00949368
0.0224816
0.0224248
0.022535
0.0224098
0.0225421
0.0224382
0.0226505
0.0225189
0.0227105
0.0224735
0.022721
0.0225426
0.0264862
0.026487
0.02649
0.0264922
0.0264922
0.0264922
0.0914977
0.0917409
0.0918477
0.0918668
0.0918667
0.0918667
0.0796049
0.0758605
0.0741534
0.0918588
0.0918667
0.0918643
0.0353826
0.071838
0.0328212
0.0649593
0.0918586
0.0533356
0.0816278
0.0819439
0.082607
0.0831904
0.0903609
0.0905835
0.0813897
0.069835
0.079648
0.0768383
0.0825914
0.0928109
0.0743947
0.0354085
0.0432909
0.0469668
0.0766801
0.0920434
0.0718633
0.066269
0.0682025
0.0669676
0.0785173
0.0900033
0.0846093
0.0873277
0.0880345
0.088666
0.089149
0.089878
0.086474
0.0872348
0.0877426
0.0882534
0.088673
0.0885637
0.0859074
0.0866991
0.0875093
0.0877124
0.0882202
0.0558865
0.0849016
0.0854113
0.0868819
0.087184
0.0875598
0.0483577
0.0417846
0.0422499
0.0538203
0.0483191
0.086983
0.0404606
0.0848215
0.0903123
0.0917409
0.0732173
0.0696066
0.0918643
0.0161872
0.00570415
0.0186868
0.00902613
0.0101901
0.0450392
0.00519824
0.00437637
0.00264412
0.0063373
0.00659633
0.00386703
0.00224968
0.00130291
0.00156318
0.00143445
0.00220258
0.00368642
3.88537e-10
1.00426e-08
1.94017e-09
3.42235e-11
0.000257137
0.000594079
1.00426e-08
0.000548287
0.000219334
2.44281e-05
6.50813e-11
2.70142e-09
2.54336e-08
2.50101e-08
0.000427563
2.01062e-07
1.96119e-09
2.99704e-08
6.2825e-08
1.98538e-07
6.20075e-07
3.64028e-07
6.70406e-09
4.63442e-07
0.00066445
3.43219e-06
3.52778e-05
0.000102681
0.00382232
2.96527e-08
0.0158263
0.00405054
0.00447302
0.014487
0.0162827
0.0128267
0.034727
0.0307639
0.0401049
0.0563836
0.0457125
0.0641134
0.0555663
0.0791872
0.0880289
0.0880289
0.0755964
0.0767885
0.084297
0.0898794
0.0909275
0.0806312
0.0684265
0.0912137
4.51885e-05
1.86411e-05
0.000183608
2.16847e-05
2.40786e-07
0.0127408
7.31315e-10
3.0234e-08
-4.62679e-08
4.02426e-09
1.00771e-08
1.10791e-08
3.29081e-10
9.2256e-10
1.94025e-09
3.42237e-11
2.91014e-11
1.73809e-11
1.06057e-10
1.9894e-09
1.94653e-11
1.98399e-11
1.00394e-12
8.23197e-13
1.6623e-08
-4.79646e-11
1.08892e-11
3.42236e-11
2.38346e-11
3.15339e-11
2.78992e-08
8.74524e-09
1.63948e-08
3.41406e-07
6.44461e-11
6.4112e-09
2.09275e-08
8.16978e-09
2.30453e-08
4.70386e-09
1.97612e-09
4.71212e-09
2.18458e-08
4.69946e-08
1.24267e-07
5.70954e-10
1.19752e-10
2.61004e-11
2.64813e-08
4.23185e-08
1.36927e-07
4.34288e-07
3.7557e-09
1.98278e-08
0.00463866
0.00259483
6.01214e-06
5.27463e-06
0.00559379
6.55943e-06
0.0769231
0.0775919
0.0790677
0.0754436
0.00930705
0.0767686
0.0839138
0.0564325
0.0677279
0.0791897
0.056893
0.0905455
1.36542e-06
5.50048e-08
1.47378e-06
2.50247e-07
2.52444e-07
0.00261105
3.50726e-10
3.86538e-08
2.43538e-08
2.25055e-07
2.37379e-07
1.36723e-07
3.73516e-11
4.54147e-08
4.05638e-08
2.80331e-07
5.51269e-07
7.09747e-07
5.26145e-13
6.06899e-13
1.12077e-10
7.52982e-13
2.02161e-13
4.11606e-13
4.48092e-09
1.20738e-12
4.67444e-09
1.81189e-09
5.04314e-11
9.0238e-13
2.25842e-08
4.6118e-11
5.13024e-10
2.13633e-08
2.78664e-09
7.26841e-12
9.70728e-11
1.10316e-10
3.87851e-10
-2.81612e-11
1.03961e-08
3.02583e-11
2.17825e-08
5.56164e-11
-3.19811e-10
-1.86623e-11
-3.3194e-13
-1.17584e-12
1.56895e-08
1.5324e-08
3.19637e-08
2.31349e-09
-7.75222e-11
4.55447e-11
1.53387e-08
3.23067e-08
1.35537e-07
0.000946934
0.00992186
0.000478451
0.0291856
0.0138263
1.07606e-05
0.0118055
0.0396385
0.0304172
0.437223
0.436867
0.436951
0.437013
0.436966
0.43707
0.0402133
0.03984
0.039952
0.0400108
0.039939
0.040068
0.000367367
0.000352722
0.000358009
0.000360208
0.000356312
0.000361764
0.00794866
0.00797292
0.00796729
0.00796061
0.00796609
0.00796113
0.00524021
0.00520038
0.0052164
0.00522154
0.00521131
0.00522671
0.000324414
0.000309836
0.00031506
0.000317284
0.000313451
0.00031881
3.04356e-08
3.21631e-08
3.1573e-08
3.17745e-08
3.24558e-08
3.11398e-08
5.2861e-08
5.84275e-08
5.50415e-08
5.50241e-08
5.88904e-08
5.07329e-08
2.2398e-06
2.05139e-06
2.12007e-06
2.15056e-06
2.10261e-06
2.16711e-06
2.43037e-08
2.45512e-08
2.49019e-08
2.50461e-08
2.52264e-08
2.51594e-08
2.31197e-08
1.61283e-08
1.72261e-08
1.7613e-08
2.15961e-08
1.5324e-08
1.07546e-17
-3.69302e-11
-2.66322e-11
-2.50878e-11
1.12358e-17
-2.63341e-11
2.96642e-08
3.1381e-08
3.07555e-08
3.10276e-08
3.1788e-08
3.00411e-08
2.73973e-08
3.53698e-08
3.09209e-08
2.95253e-08
3.12806e-08
2.96094e-08
7.78435e-09
1.04782e-08
9.10913e-09
8.81186e-09
8.93185e-09
8.7273e-09
2.69067e-07
2.84343e-07
2.69471e-07
2.82241e-07
3.02266e-07
2.46398e-07
1.8729e-06
4.01514e-06
2.99971e-06
2.84381e-06
2.84134e-06
1.87369e-06
4.42944e-05
5.93404e-05
5.16674e-05
5.09199e-05
5.22932e-05
4.75438e-05
4.68989e-05
3.94487e-05
3.79515e-05
4.75285e-05
6.08774e-05
2.56081e-05
0.000768698
0.000770265
0.000759089
0.000781067
0.000803158
0.00073545
0.000607748
0.000672778
0.000643848
0.000637123
0.000638154
0.000638668
0.00171504
0.00165838
0.00166175
0.00170323
0.00174095
0.00159264
0.00171411
0.00165772
0.00166072
0.00170302
0.00174129
0.00164585
0.000575633
0.000594065
0.000590369
0.000580561
0.00057604
0.000611578
0.0024211
0.00235643
0.00238489
0.00238725
0.00236601
0.00241176
8.17392e-05
8.93521e-05
9.25148e-05
7.73072e-05
6.31076e-05
9.47271e-05
1.79089e-05
3.37514e-06
7.16346e-06
1.32553e-05
1.46385e-05
6.66362e-06
1.53389e-06
1.16766e-06
1.13956e-06
1.58725e-06
1.70664e-06
1.11041e-06
1.65954e-06
7.76759e-07
6.74652e-07
1.83797e-06
2.14907e-06
6.1701e-07
3.93122e-05
3.71488e-05
3.74942e-05
3.87105e-05
3.86044e-05
3.75904e-05
9.55558e-13
9.30249e-13
9.39226e-13
9.5674e-13
8.56723e-13
9.09738e-13
4.68721e-13
4.52417e-13
4.58045e-13
4.67489e-13
4.67918e-13
4.43129e-13
-4.12894e-22
-2.81176e-21
-2.83931e-21
1.22383e-18
-1.39604e-21
-3.60623e-21
0.0176027
0.017357
0.0174609
0.0174336
0.0176057
0.0173084
-6.10593e-21
-3.28845e-20
-3.28579e-20
-1.05291e-20
-1.65268e-20
-4.16234e-20
9.84069e-10
9.73647e-10
9.76446e-10
9.89222e-10
1.00773e-09
9.5274e-10
0.0751208
0.0757033
0.0769366
0.0771981
0.0778233
0.0759697
6.62391e-28
2.94845e-28
1.78724e-28
3.8976e-28
6.98741e-28
1.15111e-28
6.40504e-13
1.43033e-13
8.22705e-25
6.10469e-23
1.24033e-17
-2.02068e-26
0.0848992
0.0847858
0.084706
0.0847031
0.0846508
0.0847564
-7.96864e-16
-6.44598e-16
-1.8203e-18
-1.07034e-18
-2.4033e-16
-1.49594e-16
-5.7807e-26
-4.00083e-26
-8.58759e-26
-4.64296e-26
-5.80324e-26
-3.83903e-26
0.0853924
0.0853002
0.0852611
0.0851755
0.0851147
0.0852492
-3.28505e-15
-2.6585e-15
-4.56295e-15
-2.37988e-17
-2.87865e-14
-1.37477e-15
-7.27811e-26
-6.86633e-26
-7.38807e-26
-6.51511e-26
-1.19937e-25
-4.30891e-26
0.0858521
0.0858652
0.0858687
0.0858306
0.0858652
0.0859211
-2.14744e-15
-1.7463e-15
-3.1367e-15
-1.2806e-16
-1.93604e-14
-8.89684e-16
-7.71853e-26
-9.00315e-26
-9.84615e-26
-9.34093e-26
-1.02798e-25
-7.08786e-26
0.0855698
0.0855842
0.0855887
0.0855334
0.0855599
0.0856408
-1.16638e-15
-9.50166e-16
-1.77567e-15
-2.59954e-16
-1.06365e-14
-4.68339e-16
-4.49947e-26
-5.34736e-26
-5.83458e-26
-5.86431e-26
-6.47135e-26
-4.7009e-26
0.0794507
0.079375
0.0793916
0.0792477
0.0792478
0.0794063
-5.18631e-16
-4.22331e-16
-8.26408e-16
-2.40586e-16
-4.76949e-15
-2.01812e-16
-2.80501e-26
-3.39165e-26
-3.6781e-26
-3.95541e-26
-4.44246e-26
-3.34411e-26
0.0634016
0.0115394
0.020465
0.033205
0.0172434
0.0600863
0.0144987
0.00616968
0.00646457
2.37259e-07
1.32824e-05
0.0268017
0.000748286
0.00619598
0.0039968
2.95605e-08
1.86129e-05
0.00667557
0.000416063
3.65951e-08
4.87088e-07
2.21003e-07
6.11432e-07
0.0030213
0.000267027
3.54357e-07
1.13274e-07
3.39962e-08
2.34725e-05
0.00196769
1.17716e-05
1.15028e-07
2.95597e-08
5.1739e-09
3.64623e-05
0.000102912
3.13968e-10
5.66506e-10
1.32173e-06
4.52756e-07
9.63281e-07
3.14836e-07
-1.84919e-17
4.18468e-06
1.10512e-05
1.10423e-05
3.1037e-06
3.77916e-07
2.15762e-06
5.95691e-06
3.46406e-06
-1.54411e-13
-1.35901e-13
6.28305e-06
4.36893e-09
3.76791e-08
2.11882e-09
1.49699e-07
4.94207e-07
1.52273e-06
3.14113e-19
2.70365e-10
3.96671e-11
3.95979e-17
4.31295e-17
6.21639e-07
1.4165e-27
1.45022e-07
8.63148e-08
2.52646e-08
2.26453e-08
2.67147e-22
-1.1175e-13
5.14153e-17
8.44716e-13
3.94162e-17
4.19399e-17
1.64883e-17
4.45955e-17
3.08722e-17
2.16812e-17
3.91854e-17
1.01282e-17
8.12064e-18
1.17566e-16
2.01762e-24
3.03414e-24
8.2467e-23
5.05663e-23
4.25679e-19
1.05144e-10
1.69084e-10
1.65709e-10
1.47014e-10
3.94963e-11
1.02869e-10
4.47722e-17
1.04545e-16
1.2114e-16
3.95024e-17
7.32226e-15
1.71572e-17
2.60827e-14
2.43088e-14
2.05888e-14
2.69029e-14
2.42673e-14
8.74251e-15
6.3001e-10
6.73258e-11
2.14813e-12
1.93024e-10
4.69337e-11
9.38542e-15
5.33743e-16
5.07684e-13
5.75717e-15
2.38662e-16
3.21202e-14
1.01233e-15
2.45704e-13
2.44921e-13
2.09961e-13
2.74148e-13
2.60164e-13
9.41201e-14
1.22464e-13
5.01388e-13
2.88322e-12
-1.22703e-12
1.26015e-15
-4.22426e-13
1.15468e-15
3.83171e-15
9.77374e-15
3.40437e-14
1.23648e-16
3.92893e-17
1.54851e-14
2.51582e-14
1.86496e-14
2.70597e-14
2.40656e-14
1.77193e-14
1.14374e-15
-4.91545e-11
-1.1105e-10
-3.7014e-13
-3.12925e-15
-4.05506e-14
4.72301e-16
1.05124e-17
1.37307e-15
6.08723e-16
4.04228e-17
5.97267e-18
4.3943e-254
1.55686e-250
3.82686e-247
1.01362e-240
0
0
1.09798e-12
7.25212e-12
-2.86898e-08
-7.03475e-10
-2.97362e-10
-6.32527e-10
2.54597e-10
4.33548e-12
9.05714e-13
9.82753e-14
-5.24956e-13
-1.80363e-13
3.50583e-10
3.34053e-10
3.02641e-10
3.02975e-10
2.80488e-10
2.789e-10
-3.49374e-11
-2.76184e-08
-9.52448e-08
-2.39401e-09
-3.61596e-08
-2.08576e-09
4.35251e-12
3.49093e-12
3.30627e-12
3.26397e-12
1.56353e-12
2.01834e-12
8.50324e-11
1.05694e-10
1.45346e-10
7.11046e-11
2.75602e-10
2.3681e-10
0.0072467
0.0093671
0.0138383
0.0118097
0.0185786
0.00826088
1.54957e-14
7.97786e-15
5.67094e-15
1.20005e-14
2.07301e-14
3.37802e-15
2.59306e-10
2.04654e-10
1.91477e-10
6.28126e-10
9.49747e-10
2.72109e-10
)
;

boundaryField
{
    seabed_topleft_surface
    {
        type            zeroGradient;
    }
    seabed_topright_surface
    {
        type            zeroGradient;
    }
    breakwater_top_surface
    {
        type            zeroGradient;
    }
    breakwater_left_surface
    {
        type            zeroGradient;
    }
    breakwater_right_surface
    {
        type            zeroGradient;
    }
    water_front_surface
    {
        type            zeroGradient;
    }
    water_back_surface
    {
        type            zeroGradient;
    }
    water_left_surface
    {
        type            zeroGradient;
    }
    water_right_surface
    {
        type            zeroGradient;
    }
    water_top_surface
    {
        type            inletOutlet;
        inletValue      uniform 0;
        value           nonuniform List<scalar> 
180
(
0.000367367
0.000352722
0.000358009
0.000360208
0.000356312
0.000361764
0.000324414
0.000309836
0.00031506
0.000317284
0.000313451
0.00031881
0
0
0
0
0
0
0
0
0
0
0
0
7.78435e-09
1.04782e-08
9.10913e-09
8.81186e-09
8.93185e-09
8.7273e-09
4.42944e-05
5.93404e-05
5.16674e-05
5.09199e-05
5.22932e-05
4.75438e-05
0.000607748
0.000672778
0.000643848
0.000637123
0.000638154
0.000638668
0.000575633
0.000594065
0.000590369
0.000580561
0.00057604
0.000611578
0
0
0
0
0
0
0
0
0
0
0
0
0
0
0
0
0
0
0
0
0
0
0
0
0
0
0
0
0
0
0
0
0
0
0
0
0
0
0
0
0
0
0
0
0
0
0
0
0
0
0
0
0
0
0
0
0
0
0
0
0.000748286
0.00619598
0.0039968
2.95605e-08
1.86129e-05
0.00667557
1.17716e-05
1.15028e-07
2.95597e-08
5.1739e-09
3.64623e-05
0.000102912
0
0
0
0
0
0
0
0
0
0
0
0
0
0
0
0
0
0
0
0
0
0
0
0
0
0
0
0
0
0
0
0
0
0
0
0
0
0
0
0
0
0
0
0
0
0
0
0
0
0
0
0
0
0
0
0
0
0
0
0
)
;
    }
}


// ************************************************************************* //
