/*--------------------------------*- C++ -*----------------------------------*\
| =========                 |                                                 |
| \\      /  F ield         | OpenFOAM: The Open Source CFD Toolbox           |
|  \\    /   O peration     | Version:  v1612+                                |
|   \\  /    A nd           | Web:      www.OpenFOAM.com                      |
|    \\/     M anipulation  |                                                 |
\*---------------------------------------------------------------------------*/
FoamFile
{
    version     2.0;
    format      ascii;
    class       volVectorField;
    location    "6.35";
    object      U;
}
// * * * * * * * * * * * * * * * * * * * * * * * * * * * * * * * * * * * * * //

dimensions      [0 1 -1 0 0 0 0];

internalField   nonuniform List<vector> 
1116
(
(-0.635179 -0.000226966 0.224892)
(-0.635512 -0.000105381 0.224865)
(-0.635354 0.000141568 0.224885)
(-0.635275 -4.38439e-05 0.224873)
(-0.635376 4.65364e-05 0.224854)
(-0.63526 0.000111186 0.224886)
(-1.4001 -9.02309e-05 0.370219)
(-1.40054 -1.68137e-05 0.370149)
(-1.40029 4.84573e-05 0.370186)
(-1.4002 -2.85919e-05 0.370202)
(-1.40034 1.89032e-05 0.37017)
(-1.40021 2.98818e-05 0.370216)
(-1.69634 -6.85431e-06 0.350559)
(-1.69668 2.70875e-05 0.350482)
(-1.69645 -1.20968e-05 0.350533)
(-1.69642 -1.80715e-05 0.350547)
(-1.69653 6.75896e-06 0.35048)
(-1.69645 -7.2509e-06 0.350576)
(-2.0097 4.72453e-05 0.263558)
(-2.01 5.39287e-05 0.263555)
(-2.00977 -3.37626e-05 0.263576)
(-2.00984 1.2136e-05 0.26362)
(-2.0099 -1.39061e-05 0.263564)
(-2.00977 -5.76579e-05 0.263584)
(-2.19616 -2.29849e-06 0.125201)
(-2.19646 -4.82059e-06 0.125275)
(-2.19625 6.11625e-05 0.125227)
(-2.19637 0.000106147 0.125363)
(-2.19639 -9.29361e-05 0.125343)
(-2.19619 -0.000156035 0.125177)
(-2.21054 -0.000233291 0.0287726)
(-2.21148 -0.000227987 0.0286425)
(-2.21107 0.000321322 0.0286037)
(-2.21095 0.000278251 0.0290268)
(-2.21094 -0.00023703 0.0291593)
(-2.21094 -0.00025911 0.0284191)
(-2.13565 -0.00024862 -0.100295)
(-2.1379 -0.000400693 -0.10066)
(-2.13703 0.00046486 -0.100601)
(-2.1365 0.000397332 -0.0999912)
(-2.13659 -0.000395935 -0.0995351)
(-2.13679 -0.000244972 -0.101121)
(-2.00802 0.000327303 -0.311077)
(-2.01135 -0.000222029 -0.311517)
(-2.01037 0.000242586 -0.31124)
(-2.00904 0.000219906 -0.31088)
(-2.00906 -0.000247135 -0.309909)
(-2.01024 0.000136308 -0.312451)
(-1.74409 0.00140043 -0.592409)
(-1.74646 0.000440229 -0.592942)
(-1.7465 -0.000386679 -0.592247)
(-1.74444 -0.00069753 -0.592759)
(-1.74474 0.000794712 -0.591008)
(-1.74598 0.00125081 -0.594253)
(-1.42365 0.0011879 -0.786417)
(-1.41634 0.000451278 -0.785464)
(-1.4179 -0.000374986 -0.78462)
(-1.42343 -0.00105414 -0.787482)
(-1.42958 0.000880392 -0.787175)
(-1.41101 0.000726422 -0.785076)
(-0.755695 0.000406968 -0.766314)
(-0.744506 0.000991098 -0.760531)
(-0.747032 -0.00114274 -0.760962)
(-0.754026 -0.0025076 -0.766529)
(-0.762668 0.00254445 -0.771689)
(-0.738816 0.00201769 -0.755305)
(-0.179593 0.000229988 -0.172897)
(-0.172873 0.000973539 -0.167274)
(-0.174201 -0.00104346 -0.168261)
(-0.178757 -0.0019502 -0.172008)
(-0.185547 0.00162683 -0.177127)
(-0.171506 0.00176424 -0.164668)
(-1.35874 -0.00020513 1.79524)
(-1.35926 -8.83542e-05 1.79432)
(-1.35896 9.63086e-05 1.79473)
(-1.35898 -5.39121e-05 1.79484)
(-1.35911 6.37047e-05 1.79456)
(-1.35885 0.000103904 1.79501)
(-2.11619 3.41887e-05 0.748073)
(-2.11653 2.45901e-05 0.747771)
(-2.11632 -3.88247e-05 0.747929)
(-2.11638 1.40609e-05 0.747968)
(-2.11645 1.19094e-05 0.747877)
(-2.11626 -1.87215e-05 0.748023)
(-2.09683 -9.473e-05 0.260417)
(-2.09726 -6.93487e-05 0.260395)
(-2.09706 6.43961e-05 0.260421)
(-2.09708 1.04908e-06 0.26045)
(-2.09719 4.9514e-05 0.260464)
(-2.09691 9.05208e-05 0.260383)
(-1.47336 -0.000671936 0.19916)
(-1.47369 -0.00043566 0.199587)
(-1.47355 0.0004565 0.19943)
(-1.47365 4.18384e-05 0.199402)
(-1.47384 0.000124577 0.199589)
(-1.47332 0.000292261 0.199159)
(-0.782381 -9.5271e-05 0.0206294)
(-0.783993 -4.52612e-05 0.0210017)
(-0.783462 -5.10005e-05 0.0207682)
(-0.783091 -0.000387054 0.0209882)
(-0.783512 0.000424761 0.0212249)
(-0.782952 0.000731461 0.0204287)
(0.182892 0.000828646 -0.15583)
(0.180323 0.000501351 -0.155954)
(0.181157 -0.000803652 -0.156218)
(0.18178 -0.000928836 -0.155383)
(0.181045 0.000671741 -0.155225)
(0.182128 0.00125945 -0.156459)
(1.23579 0.00121249 -0.248536)
(1.23532 0.00053917 -0.248975)
(1.23519 -0.000983114 -0.249175)
(1.23516 -0.000845367 -0.248114)
(1.23322 0.000527082 -0.248095)
(1.23719 0.00134201 -0.249187)
(1.85092 0.00172818 -0.201642)
(1.85484 0.000509868 -0.201537)
(1.85249 -0.00154636 -0.201946)
(1.85269 -0.00243598 -0.201096)
(1.85093 0.00173148 -0.202004)
(1.85472 0.00407171 -0.201297)
(1.81753 -0.000521342 -0.145371)
(1.8355 0.00084399 -0.145043)
(1.83445 -0.000991919 -0.144893)
(1.81648 -0.00374915 -0.145081)
(1.80244 0.0043128 -0.14646)
(1.84312 0.00749339 -0.143684)
(0.568936 -0.015731 -0.155513)
(0.571506 -0.00612995 -0.165777)
(0.577353 0.00926035 -0.162826)
(0.562697 0.0202659 -0.156507)
(0.565825 -0.0200235 -0.147063)
(0.577212 -0.0365853 -0.171905)
(0.869326 -0.0168388 -0.508209)
(0.771021 -0.00423064 -0.498637)
(0.789284 0.00766103 -0.500266)
(0.863298 0.0197427 -0.5073)
(0.942794 -0.0123175 -0.514292)
(0.698063 -0.0278878 -0.49054)
(-0.724559 0.0101626 -0.54173)
(-0.809136 0.00530992 -0.524711)
(-0.796177 -0.00892314 -0.52648)
(-0.731374 -0.0150668 -0.540288)
(-0.672318 0.013172 -0.556726)
(-0.818519 0.0310805 -0.516957)
(-1.73269 0.000326046 2.75688)
(-1.73371 0.000218956 2.7563)
(-1.73318 -0.000153057 2.75654)
(-1.73322 1.58592e-05 2.75664)
(-1.73343 -2.87624e-05 2.75638)
(-1.73297 -8.28852e-05 2.75677)
(-0.574768 9.32112e-05 0.990444)
(-0.574573 4.01677e-05 0.990374)
(-0.57463 -4.61736e-05 0.990405)
(-0.574738 -4.15064e-05 0.990364)
(-0.574731 8.07271e-05 0.990453)
(-0.574595 0.000123468 0.99042)
(2.1963 -0.00114465 0.0397874)
(2.19875 -0.000719814 0.0401836)
(2.19811 0.00104953 0.0400397)
(2.19672 0.000215667 0.039834)
(2.19658 -0.000215987 0.0399552)
(2.19772 0.000125897 0.040103)
(5.91464 -0.0230015 -0.999759)
(5.87166 -0.0122915 -1.01301)
(5.88619 0.0144243 -1.00818)
(5.90585 0.00832483 -1.00331)
(5.90656 -0.00418132 -1.00578)
(5.88595 -0.00744809 -1.00533)
(9.47467 0.00495051 -2.17213)
(9.36166 0.00804806 -2.1698)
(9.39776 -0.00931649 -2.17002)
(9.44809 -0.00714795 -2.1732)
(9.45487 0.00487917 -2.17575)
(9.39472 0.00636226 -2.16749)
(12.5255 0.0431961 -2.01245)
(12.5478 0.0271926 -1.99614)
(12.5286 -0.032051 -2.001)
(12.5448 -0.0184602 -2.01046)
(12.5366 0.00919671 -2.01435)
(12.5327 0.0198895 -2.00039)
(12.1864 0.0429232 -0.810036)
(12.254 0.0211848 -0.807371)
(12.2123 -0.02571 -0.806285)
(12.2279 -0.0116722 -0.811128)
(12.2213 0.00700339 -0.811954)
(12.218 0.0221038 -0.806642)
(4.45683 0.0219388 0.511321)
(4.70232 0.0117871 0.495908)
(4.60807 -0.0238316 0.495001)
(4.54239 -0.0451826 0.510506)
(4.44253 0.0390248 0.523198)
(4.68725 0.0745893 0.486645)
(-3.81592 -0.0410641 1.51397)
(-3.60557 -0.00450029 1.52057)
(-3.61603 0.00409575 1.53197)
(-3.83004 -0.0105939 1.50728)
(-4.00384 0.0144262 1.46834)
(-3.48971 0.0290465 1.56221)
(-2.34249 -0.082782 0.262626)
(-2.39555 -0.0265482 0.261638)
(-2.37236 0.0398412 0.260883)
(-2.35496 0.0978136 0.266534)
(-2.42634 -0.0846788 0.264157)
(-2.34368 -0.144949 0.263725)
(-0.0243643 -0.0125204 0.173903)
(-0.379342 0.0038855 0.189204)
(-0.296595 0.00441585 0.197128)
(-0.0890016 0.0314241 0.155978)
(0.164754 -0.00903945 0.148921)
(-0.561222 -0.0154561 0.202244)
(-0.438164 0.0618726 0.522261)
(-0.626446 0.0259438 0.422219)
(-0.593276 -0.0363864 0.447831)
(-0.470471 -0.0645611 0.506095)
(-0.340648 0.0496568 0.573836)
(-0.615101 0.118278 0.384463)
(-2.85593 -4.50694e-05 3.8924)
(-2.85642 -1.58908e-05 3.89445)
(-2.85616 -3.52172e-05 3.89374)
(-2.85621 -5.83012e-05 3.89345)
(-2.85631 0.000106487 3.89383)
(-2.85614 0.000108846 3.89313)
(0.842288 -0.00318279 -2.28248)
(0.843813 0.000354619 -2.28443)
(0.844397 0.00335899 -2.28383)
(0.842524 -0.00044983 -2.28344)
(0.841832 0.00259357 -2.2839)
(0.84531 0.00134429 -2.28248)
(-7.68744 -0.03974 -5.80133)
(-7.69875 -0.0186173 -5.78562)
(-7.69373 0.026879 -5.78999)
(-7.68896 0.0160053 -5.7983)
(-7.69683 -0.00769448 -5.80441)
(-7.68385 -0.0176787 -5.7862)
(-1.08187 -0.0535851 -4.56372)
(-1.33274 -0.0230462 -4.64233)
(-1.24726 0.0284636 -4.6135)
(-1.13733 0.0197316 -4.58566)
(-1.1246 -0.0114786 -4.60249)
(-1.25076 -0.0254834 -4.59393)
(-3.00196 0.039094 -6.91991)
(-3.43153 0.0332115 -6.83149)
(-3.27887 -0.0408955 -6.86128)
(-3.12387 -0.0230708 -6.90382)
(-3.08246 0.0131574 -6.92159)
(-3.29733 0.0210741 -6.85134)
(-3.66175 0.124936 -2.58987)
(-3.78097 0.0700679 -2.39552)
(-3.72023 -0.0777805 -2.46829)
(-3.7261 -0.0421251 -2.53093)
(-3.72429 0.0242061 -2.54624)
(-3.72018 0.0617963 -2.47533)
(-1.23935 0.0540971 6.82927)
(-0.992769 0.0299307 6.85149)
(-1.06185 -0.0295951 6.83271)
(-1.16413 -0.0310845 6.85175)
(-1.24227 0.0323793 6.86042)
(-0.996635 0.0677042 6.82525)
(-5.894 -0.0144378 8.49013)
(-5.75286 -0.00858256 8.54126)
(-5.75689 0.00650719 8.55384)
(-5.89418 -0.0130611 8.48314)
(-6.02796 0.0218135 8.41652)
(-5.61694 0.0429706 8.63448)
(-7.82435 -0.00773781 1.84764)
(-7.83809 -0.00794804 1.88651)
(-7.8207 0.00681052 1.90863)
(-7.84831 0.00767531 1.83074)
(-7.89794 -0.0064193 1.77485)
(-7.76627 -0.00437415 1.97647)
(-6.08472 0.00974998 -2.04681)
(-6.11414 0.000273282 -2.06199)
(-6.10049 -0.00334283 -2.04065)
(-6.10321 -0.0107913 -2.06741)
(-6.1125 0.00720801 -2.09329)
(-6.085 0.0215197 -2.00713)
(-4.0699 0.0164309 -3.26286)
(-4.0794 0.00196489 -3.30442)
(-4.06474 -0.00426184 -3.28354)
(-4.09271 -0.0109064 -3.28945)
(-4.10443 0.00579912 -3.26438)
(-4.04709 0.0208399 -3.30138)
(-1.99134 0.0170152 -1.69056)
(-2.04103 0.00649028 -1.72644)
(-2.02407 -0.00855165 -1.71429)
(-2.00793 -0.0115935 -1.70257)
(-1.98326 0.0102731 -1.67744)
(-2.05321 0.0220514 -1.73431)
(0.148303 -0.640372 0.563571)
(1.04119 -0.187447 0.247352)
(0.227736 -0.503709 0.523762)
(1.67315 -0.899725 0.155562)
(3.06537 0.223048 -0.252004)
(0.201122 1.18702 0.689808)
(2.2113 -0.556211 -0.346283)
(4.9664 0.0175473 -1.44727)
(2.11985 -0.160519 -0.481857)
(4.57512 -0.424581 -1.1394)
(6.03356 -0.0388875 -1.49969)
(1.18531 0.326811 -0.00722058)
(5.4573 -0.215846 -1.19194)
(8.02303 0.13806 -2.74396)
(6.35013 -0.0928138 -2.00399)
(6.93522 -0.0290512 -2.13603)
(7.67652 -0.158458 -1.92276)
(4.45308 -0.171447 -1.23437)
(7.26366 0.143181 -2.25102)
(8.49456 0.156364 -3.15609)
(8.14179 -0.0812331 -3.35908)
(7.7198 0.299795 -2.69537)
(7.92734 -0.188205 -1.83769)
(6.55866 -0.288817 -2.36522)
(7.34893 0.123451 -2.38246)
(8.19367 0.238561 -3.18132)
(7.85552 -0.197082 -3.68403)
(7.61196 0.117883 -2.72671)
(7.75336 -0.156971 -1.59709)
(7.22855 -0.148895 -2.79079)
(7.27588 0.044419 -2.13417)
(8.09488 0.413818 -3.1094)
(7.6924 -0.21427 -3.65331)
(7.48903 -0.0867027 -2.54415)
(7.40748 -0.212905 -1.26681)
(7.3746 -0.064427 -2.79798)
(7.175 -0.194975 -1.88201)
(8.07844 0.326103 -3.1619)
(7.85357 -0.165028 -3.72054)
(7.53519 0.0333565 -2.53674)
(6.9966 -0.0701522 -0.971648)
(7.1846 0.0163643 -2.64953)
(6.69941 -0.309126 -1.71975)
(7.45359 0.387334 -3.07975)
(7.44296 -0.0927546 -3.72521)
(7.07627 0.153674 -2.55281)
(6.435 0.122422 -0.753924)
(6.70665 0.0708929 -2.42958)
(5.70683 -0.221105 -1.73819)
(6.41804 0.534563 -2.88875)
(6.65249 -0.0556194 -3.59058)
(6.21113 0.157873 -2.51145)
(5.49766 0.0226174 -0.565544)
(5.91234 -0.0467904 -2.21676)
(4.18232 -0.184254 -1.8679)
(4.84431 0.358552 -2.67252)
(5.40443 -0.11169 -3.51707)
(4.76511 0.403748 -2.48079)
(3.84221 -0.0849579 -0.503826)
(4.41051 -0.319276 -2.07207)
(1.96375 -0.222783 -1.31908)
(2.61363 -0.210601 -2.05062)
(3.32745 -0.0909867 -3.58922)
(2.48956 0.866206 -2.1706)
(1.36187 0.197836 -0.325232)
(2.31674 -0.436103 -1.84932)
(-1.82283 -0.187092 1.19747)
(-1.90551 -0.48395 0.757162)
(-0.294037 0.0251856 -0.972992)
(-1.31562 0.646829 0.364332)
(-1.74569 0.303266 0.583205)
(-2.35368 -0.0879559 2.01682)
(1.12308 -0.462886 3.19641)
(2.13896 -0.0526542 3.49829)
(1.19453 -0.592721 3.3808)
(2.77922 -0.85868 3.27275)
(4.57536 -0.0414298 3.2241)
(0.597122 1.17882 3.2983)
(3.07526 -0.4468 5.37279)
(5.60203 0.0442867 5.36693)
(2.99527 -0.428663 5.87189)
(5.58113 -0.546441 4.6143)
(7.35267 -0.694309 3.72961)
(2.26109 -0.0796813 4.12233)
(7.04456 0.110006 5.27588)
(8.30459 0.0417209 4.44455)
(7.41407 -0.583711 6.70083)
(8.09276 -0.447822 4.02911)
(9.22359 -0.833335 3.09151)
(5.97524 -0.455113 4.38513)
(5.02946 0.0533136 2.28991)
(4.40091 -0.0102738 2.93175)
(4.88315 -0.498774 3.11034)
(4.81884 -0.49351 2.77858)
(6.60922 -0.469373 2.32941)
(5.54887 -0.213231 2.84708)
(-1.31066 -0.51564 0.909576)
(-1.00399 -0.476511 2.69601)
(-0.822295 -0.316386 2.35169)
(-0.497228 -0.0142877 1.6019)
(1.91416 0.460447 1.15939)
(1.35557 0.480412 2.38821)
(-3.37431 -0.674739 0.31668)
(1.41446 0.09998 3.31702)
(0.801232 -0.769427 3.75994)
(0.849552 0.275178 2.49082)
(0.370403 0.178706 -0.0445731)
(-2.57462 0.708383 1.92475)
(-3.28385 0.478501 0.541969)
(-1.45432 0.593102 2.35407)
(0.330675 -0.564617 3.54488)
(-0.507765 -0.989774 1.7695)
(0.197719 -0.799423 -0.252775)
(1.29084 0.535332 1.54384)
(2.65737 0.0694349 0.215169)
(3.42635 0.416541 0.874693)
(3.70367 -1.09456 2.59732)
(2.93878 -1.43377 0.762842)
(3.93315 -0.49505 -0.734027)
(5.13159 1.0809 1.69475)
(4.04311 -0.0288802 -1.16495)
(5.7795 0.436667 0.315164)
(6.52581 -1.20055 2.82448)
(5.33598 -1.52608 0.293533)
(6.18805 -0.39251 -1.65613)
(5.73708 0.719897 0.153874)
(5.33601 0.0782479 -3.41752)
(6.13488 0.772139 -2.45587)
(6.06379 -0.830202 -0.45946)
(5.86936 -1.26556 -2.6342)
(5.99208 -0.501571 -3.00651)
(5.17241 0.572592 -3.85531)
(4.26875 0.0200736 -3.48221)
(4.78394 0.645145 -4.26381)
(4.33109 -0.116391 -5.59899)
(3.64012 -0.0992165 -3.52003)
(3.75667 -0.618625 -3.07231)
(3.74146 -0.132103 -4.91404)
(0.905365 0.0657337 -0.318674)
(1.70334 0.51165 -1.50816)
(2.52833 0.0794903 -3.52909)
(1.55331 0.731588 -1.58143)
(-1.05778 -0.379595 0.946482)
(1.39256 -0.66083 -1.6021)
(2.22362 -0.211893 5.02693)
(2.94793 0.0304488 6.24738)
(1.95764 -0.312397 5.997)
(3.46952 -0.299413 5.3695)
(5.37628 -0.171005 5.90549)
(0.923952 0.916483 5.30227)
(0.652438 -0.192506 8.9108)
(1.41848 0.00254644 9.21003)
(1.02154 -0.354099 9.57831)
(1.26926 0.243043 7.94893)
(1.97847 -0.571664 6.15538)
(0.821759 -0.0810308 5.36205)
(2.28099 0.00392254 3.22581)
(1.14068 -0.0846581 -0.127463)
(3.01344 -0.176578 5.20602)
(1.60792 0.457706 -0.937388)
(1.37336 0.319662 -3.09164)
(4.10746 -0.233586 3.08956)
(-1.59446 -0.181233 -7.48915)
(-1.46636 0.0302662 -7.30843)
(-1.38183 0.0284868 -7.34516)
(-1.15463 -0.161939 -7.07244)
(-1.35577 0.380547 -6.33799)
(-1.05477 0.329586 -6.45395)
(2.00863 -0.130504 -5.98668)
(2.0292 -0.0397496 -5.76226)
(1.84133 0.245688 -6.12288)
(1.99647 0.212329 -5.79429)
(1.45893 0.0392456 -6.05329)
(1.63481 -0.08027 -6.25054)
(0.348491 -0.457783 -2.07396)
(-0.413388 -0.413241 -1.11768)
(0.318551 -0.267203 -2.50104)
(0.215919 -0.0967811 -2.81246)
(0.0234886 -0.52262 -2.90741)
(-0.409518 -0.424433 -0.735221)
(-1.0584 -0.157706 1.78333)
(-1.05764 0.112899 3.13998)
(-1.99163 -0.0272278 3.23763)
(-0.593645 1.03759 -0.236627)
(0.220478 -0.374992 -0.629683)
(1.5033 0.0224956 3.57434)
(1.39325 -0.347175 2.93927)
(1.64403 -0.403935 3.89343)
(2.03044 -0.454892 4.71391)
(-0.680583 1.23094 1.85443)
(-2.01747 -0.221196 -0.442725)
(3.01897 0.636282 2.42728)
(-1.75949 -0.389892 0.898392)
(2.11317 -0.571798 3.26272)
(3.7057 -0.783891 3.26315)
(-0.851375 0.156394 0.417585)
(-2.01813 0.244247 -2.70788)
(0.191693 0.495141 -0.534126)
(1.47682 0.137822 -3.28997)
(2.24678 0.193651 -1.9122)
(2.65976 -0.436668 -0.983506)
(2.0099 -0.907733 -4.47791)
(1.87234 -0.0468685 -6.16815)
(1.7589 0.653378 -3.28806)
(2.77259 0.177131 -5.60819)
(2.06931 0.283576 -6.07589)
(1.3742 -0.297266 -6.0525)
(1.89706 -0.919171 -5.51641)
(3.58791 -0.0236453 -5.82653)
(2.56684 0.757219 -6.29297)
(3.02336 0.0782021 -3.91569)
(3.50039 0.144334 -4.57641)
(3.7548 -0.0938287 -4.99926)
(2.50526 -0.704111 -3.20697)
(-0.807963 -0.396083 2.30855)
(2.91751 0.666507 -4.31338)
(2.4892 -0.238507 6.31785)
(2.85039 -0.0131825 7.49375)
(1.70439 -0.106714 7.20469)
(3.66049 0.137048 6.73599)
(5.7747 -0.0385059 7.5573)
(1.22931 0.73129 6.58061)
(-0.927091 -0.228773 9.25061)
(-0.624876 -0.154881 9.04723)
(0.0137844 0.216969 9.09667)
(-1.40256 1.34532 8.36188)
(-2.10109 0.759561 6.76541)
(-1.13554 0.33826 5.71643)
(1.02062 0.360008 0.244359)
(2.05603 0.234013 -1.51437)
(1.52933 0.182774 -0.661763)
(2.36418 0.977092 -1.63647)
(2.96352 -0.146236 -1.06273)
(1.49383 -0.343535 1.17082)
(-1.4523 0.104569 -1.38758)
(-1.50168 0.0180178 -1.10144)
(-1.50503 -0.134238 -1.19327)
(-0.996091 -0.0642279 -1.65479)
(-1.07437 -0.099814 -1.89449)
(-1.01616 -0.0776733 -1.14866)
(2.32652 -0.0188988 -0.322365)
(2.40238 0.0950477 -0.283096)
(2.3245 0.172245 -0.280222)
(2.35306 0.0611989 -0.213757)
(2.33016 0.0851918 -0.398606)
(2.29562 0.0244043 -0.253414)
(1.79285 -0.0861165 -0.31606)
(1.77334 0.19544 0.421361)
(1.68141 0.157866 0.0952481)
(1.63689 0.046416 -0.235692)
(1.69189 -0.228319 -0.226739)
(1.64291 -0.309326 0.645963)
(0.959878 -0.212314 1.25298)
(0.59791 0.0928326 2.73127)
(0.192695 0.52737 2.38971)
(0.991071 0.921762 0.506863)
(1.14503 -0.544359 0.36464)
(0.9444 -0.516576 2.67322)
(-0.570058 -0.169879 1.9795)
(-0.245569 -0.0843634 3.23954)
(-0.193084 0.254601 4.19969)
(-1.16081 1.29332 1.01693)
(-0.988176 0.188551 -0.707157)
(0.256553 -0.131042 1.87099)
(-2.70691 -0.175801 -0.13841)
(-2.34698 -0.0940294 1.09002)
(-1.58869 0.26765 1.41391)
(-2.00482 1.06065 -0.00854161)
(-1.72228 0.786313 -0.551806)
(-1.60853 0.225978 -0.17024)
(-1.58581 0.0673099 -1.43392)
(-1.19174 -0.0759399 -1.61307)
(-0.159803 -0.412356 -1.70781)
(-0.972264 -0.448388 -1.84364)
(-0.277771 -0.327825 -2.6388)
(-1.26565 -0.0278335 -0.98523)
(-3.95504 0.213702 -3.1998)
(-5.60525 0.295166 -3.14673)
(-6.73754 -0.231102 -2.15249)
(-0.64764 -0.367721 -4.92374)
(3.74418 0.00498803 -5.39358)
(-0.895591 0.291064 -4.01706)
(4.36646 0.0105653 -4.26015)
(4.44012 -0.14707 -3.9273)
(4.76789 0.570151 -3.26389)
(4.12709 -0.277932 -4.07464)
(2.63109 0.00263501 -2.88585)
(3.70651 0.646186 -3.93458)
(-3.82268 -0.000499526 4.74486)
(-3.82225 -0.000335498 4.74425)
(-3.82217 7.42242e-05 4.74399)
(-3.82249 -6.49408e-05 4.74463)
(-3.82228 0.000127898 4.74441)
(-3.82264 0.000141959 4.74438)
(-4.15333 0.00207149 3.73672)
(-4.15329 0.0015496 3.73433)
(-4.15277 -0.00107398 3.73472)
(-4.15339 -2.53748e-05 3.73549)
(-4.15316 -0.000440576 3.73493)
(-4.15337 -0.000860848 3.73559)
(-3.53109 -0.00486846 3.81782)
(-3.52815 -0.00391794 3.81485)
(-3.52854 0.00126433 3.81698)
(-3.5296 -0.000587615 3.81643)
(-3.52892 0.000649676 3.81482)
(-3.52987 0.00164692 3.81638)
(3.61934 -0.00207353 6.28977)
(3.62058 -0.000936868 6.29539)
(3.62014 0.00115862 6.29316)
(3.61996 -0.000336232 6.2924)
(3.62008 0.0010068 6.29397)
(3.62021 0.00116427 6.29191)
(4.36069 -0.00745291 5.67615)
(4.35766 -0.00489122 5.649)
(4.35824 0.00273369 5.65842)
(4.35917 -0.00114921 5.66325)
(4.35848 0.000830201 5.6564)
(4.35956 0.00228278 5.66563)
(2.24064 -0.0106076 1.97199)
(2.21764 -0.00722222 1.88196)
(2.22583 0.00253623 1.91727)
(2.23061 -0.0025776 1.92855)
(2.2248 0.00127506 1.90042)
(2.23222 0.00314345 1.93776)
(-7.01871 -0.0248134 -3.49127)
(-7.00524 -0.0110329 -3.5103)
(-7.00868 0.0147298 -3.50263)
(-7.01268 0.00878875 -3.4991)
(-7.00954 -0.00454422 -3.50705)
(-7.00888 -0.0127878 -3.49443)
(0.545806 -0.00553525 -2.23641)
(0.530713 -0.00241921 -2.25544)
(0.538516 0.00148074 -2.24859)
(0.542319 0.000411866 -2.24509)
(0.548908 -0.000197015 -2.24889)
(0.538655 -0.00220378 -2.24439)
(0.198026 -0.00122179 -0.635009)
(0.191979 -0.000299317 -0.644616)
(0.195557 -7.07029e-05 -0.640908)
(0.196179 -0.000160524 -0.639732)
(0.19772 8.20961e-05 -0.645439)
(0.194765 -0.000733656 -0.637685)
(-1.10986 -0.0561395 -4.42009)
(-1.28561 -0.0238091 -4.40842)
(-1.21361 0.0299108 -4.41406)
(-1.15885 0.0163919 -4.41828)
(-1.13771 -0.00832898 -4.43665)
(-1.22509 -0.0236333 -4.39505)
(-0.662944 -0.054774 -3.86226)
(-0.743193 -0.0268039 -3.82845)
(-0.70233 0.0326341 -3.84625)
(-0.693835 0.0140305 -3.85065)
(-0.686389 -0.00621375 -3.86419)
(-0.704354 -0.0161898 -3.83579)
(-0.184618 -0.0141539 -1.58719)
(-0.202244 -0.00734567 -1.55068)
(-0.193642 0.00781084 -1.56951)
(-0.193498 0.00346584 -1.57229)
(-0.192141 -0.00106165 -1.57985)
(-0.192727 -0.00387228 -1.56712)
(-3.52498 -0.00298259 -3.99508)
(-4.0433 0.0112307 -3.78607)
(-3.83186 -0.00981999 -3.87743)
(-3.69267 -0.0096147 -3.92016)
(-3.64757 0.0115055 -3.9339)
(-3.84162 0.0130938 -3.87757)
(-3.5387 -0.0663295 -1.91981)
(-4.06448 -0.0259868 -1.69387)
(-3.83499 0.026715 -1.79601)
(-3.72417 0.0025498 -1.83314)
(-3.70885 0.00636197 -1.83667)
(-3.82324 0.00237377 -1.80379)
(-1.45972 -0.0704286 1.29158)
(-1.60059 -0.0354769 1.5078)
(-1.53806 0.0349741 1.40628)
(-1.51583 0.00648212 1.38045)
(-1.51064 0.000270585 1.3686)
(-1.53465 -0.00515853 1.40296)
(-6.8284 0.0810841 0.0334458)
(-7.11069 0.0497379 0.428002)
(-6.95994 -0.0442338 0.253496)
(-6.97098 -0.0248126 0.196194)
(-6.98318 0.0259455 0.18462)
(-6.92154 0.0520894 0.228434)
(-7.67556 0.0624761 2.2718)
(-8.23693 0.0422409 2.66188)
(-7.97634 -0.0411599 2.49423)
(-7.93145 -0.0227062 2.44563)
(-7.9629 0.0240912 2.47977)
(-7.90889 0.0416891 2.4411)
(-3.19545 -0.0146756 5.46154)
(-3.84874 -0.000939346 5.94643)
(-3.56486 -0.00665399 5.73531)
(-3.46141 -0.0145899 5.67514)
(-3.48761 0.0110785 5.71009)
(-3.51217 0.0210907 5.68096)
(-8.24304 0.0330501 8.66354)
(-8.13835 0.0206348 8.83887)
(-8.13088 -0.0152553 8.77881)
(-8.24629 -0.0125517 8.72756)
(-8.3399 0.0169451 8.68443)
(-8.0291 0.0346399 8.80725)
(-9.63995 0.0508792 8.48594)
(-9.72891 0.0301891 8.58982)
(-9.64387 -0.0219015 8.56342)
(-9.73066 0.00678825 8.52125)
(-9.82932 -0.00331517 8.51668)
(-9.5337 -0.00553886 8.5836)
(-6.19075 0.103121 8.7191)
(-6.58919 0.0561189 8.98457)
(-6.39632 -0.0541671 8.8848)
(-6.4119 -0.010016 8.84111)
(-6.48665 -0.000770238 8.86302)
(-6.31332 0.0129205 8.87626)
(-9.34511 -0.0293895 8.85012)
(-9.37327 -0.0187134 8.93345)
(-9.34029 0.0173895 8.963)
(-9.38028 0.0172537 8.82836)
(-9.47338 -0.0173601 8.69674)
(-9.22437 -0.0244353 9.10347)
(-8.74811 -0.024558 7.30225)
(-8.74852 -0.0188812 7.23622)
(-8.73886 0.0138068 7.31728)
(-8.75993 0.0405821 7.22645)
(-8.85846 -0.0431505 7.1508)
(-8.62844 -0.0716814 7.42454)
(-5.31793 0.0659106 4.44375)
(-5.33874 0.0313314 4.33387)
(-5.31311 -0.0296122 4.40914)
(-5.3535 0.0142021 4.35216)
(-5.41283 -0.0139547 4.28406)
(-5.29366 -0.0143833 4.52006)
(-8.66305 -0.014715 2.06311)
(-8.69562 -0.0154022 2.1038)
(-8.6944 0.0118632 2.13482)
(-8.66531 0.0237012 2.03442)
(-8.69867 -0.0331905 1.90738)
(-8.65205 -0.0455935 2.27491)
(-4.68987 -0.02686 -1.87452)
(-4.60621 -0.024711 -2.04128)
(-4.64503 0.00818919 -1.96127)
(-4.64987 0.0278315 -1.96637)
(-4.65769 -0.0373016 -2.09269)
(-4.64308 -0.0545302 -1.8348)
(-1.6039 0.00687178 -5.1449)
(-1.50808 -0.00695043 -5.37656)
(-1.53072 0.00337159 -5.31799)
(-1.57416 0.0252887 -5.25428)
(-1.57774 -0.0227238 -5.29151)
(-1.54587 -0.0255732 -5.27682)
(-4.93666 -0.011957 -3.68742)
(-4.88548 -0.00954763 -3.64522)
(-4.90518 0.00842511 -3.6624)
(-4.9083 0.010275 -3.6795)
(-4.90897 -0.0140656 -3.76755)
(-4.90464 -0.016348 -3.58606)
(-2.26032 -0.0229897 -4.76553)
(-2.21443 -0.0148724 -4.83165)
(-2.21923 0.0141856 -4.82713)
(-2.24853 0.0189658 -4.77208)
(-2.25364 -0.0182901 -4.82251)
(-2.21224 -0.0304982 -4.77233)
(-0.739706 -0.00459576 -6.08944)
(-0.726515 -0.00233576 -6.13878)
(-0.727696 0.00186722 -6.13681)
(-0.739878 0.00528844 -6.08991)
(-0.741751 -0.00430392 -6.11194)
(-0.728451 -0.00981765 -6.11574)
(-5.36725 4.92351e-05 -3.68519)
(-5.38073 -0.000130123 -3.61589)
(-5.37732 0.00108268 -3.63467)
(-5.36711 -0.00188376 -3.68102)
(-5.3671 0.00300572 -3.72747)
(-5.37913 0.00783154 -3.59555)
(-1.66182 -0.0128666 -3.898)
(-1.66775 -0.00731738 -3.87948)
(-1.66987 0.00862844 -3.8807)
(-1.65736 0.0103863 -3.89798)
(-1.65515 -0.00949219 -3.91731)
(-1.67058 -0.0171103 -3.85924)
(-0.25275 -0.00274417 -4.75138)
(-0.249898 -0.00221019 -4.74691)
(-0.251671 0.00218253 -4.74868)
(-0.251036 0.0034449 -4.74954)
(-0.253244 -0.00386689 -4.76077)
(-0.250669 -0.00570502 -4.73791)
(-4.27075 0.00663016 -2.25742)
(-4.28037 0.0027229 -2.24186)
(-4.27346 -0.00373469 -2.24773)
(-4.28172 -0.00568485 -2.2593)
(-4.28321 0.00551395 -2.2715)
(-4.27458 0.0117053 -2.23789)
(-1.20805 -0.0043857 -5.58961)
(-1.20346 -0.000813728 -5.57867)
(-1.20584 0.00187406 -5.58729)
(-1.20388 0.00274564 -5.58246)
(-1.2043 -0.00248414 -5.59775)
(-1.20662 -0.0068982 -5.57003)
(-0.052492 -0.00105125 -3.27447)
(-0.0487933 4.01871e-05 -3.27637)
(-0.0496803 5.38907e-06 -3.27578)
(-0.0517213 0.000399894 -3.27392)
(-0.0536546 -0.00129623 -3.2772)
(-0.0482137 -0.00282761 -3.27314)
(2.14973 -0.00786013 0.360088)
(2.1473 -0.0229605 0.361555)
(2.13054 -0.0407952 0.352735)
(2.06057 -0.0352607 0.480674)
(1.95686 0.00152209 0.496723)
(2.10912 0.0164011 0.479171)
(0.208587 -0.0178106 -5.34997)
(0.246595 -0.040894 -5.34818)
(0.318348 -0.0693676 -5.34623)
(0.418005 -0.093091 -5.28025)
(0.55413 -0.0185847 -4.94105)
(0.416757 0.0287433 -5.1943)
(0.54066 0.00245759 -1.26369)
(0.564993 -0.00273364 -1.25359)
(0.597481 -0.0300296 -1.26539)
(0.615001 -0.0588561 -1.36752)
(0.675174 -0.0238524 -1.44349)
(0.595 0.0120111 -1.3621)
(0.588548 -0.00101076 -0.193853)
(0.585166 0.000218599 -0.198251)
(0.570702 0.00699794 -0.196483)
(0.558986 0.00927147 -0.198935)
(0.542496 -0.000881351 -0.166156)
(0.563928 -0.00547433 -0.194654)
(-0.203928 0.0160366 -2.05373)
(-0.220568 0.0385387 -2.06649)
(-0.22761 0.0536689 -2.04425)
(-0.275962 0.0477915 -1.89833)
(-0.305408 0.0212323 -1.78916)
(-0.259689 0.00765537 -1.9979)
(0.827801 -0.000320816 -1.9574)
(0.82768 -0.00481109 -1.96516)
(0.824531 -0.0240651 -1.97259)
(0.81149 -0.0303504 -1.99127)
(0.787699 -0.00528581 -2.0043)
(0.792373 0.00523944 -1.99316)
(0.219845 -0.00112088 0.20743)
(0.218177 -0.00229198 0.206742)
(0.218622 0.00526902 0.206)
(0.220961 0.00619578 0.207788)
(0.222243 -0.00261907 0.206483)
(0.220066 -0.00198819 0.200613)
(-0.253994 -0.00170188 -1.07101)
(-0.245909 -0.00290293 -1.08172)
(-0.228243 -0.0083561 -1.07448)
(-0.21911 -0.0116226 -1.02421)
(-0.207569 0.00368029 -1.0047)
(-0.198776 0.0093746 -1.04464)
(0.266908 -0.00139165 -1.81084)
(0.268386 -0.00729541 -1.8083)
(0.267015 -0.0163671 -1.80389)
(0.254944 -0.019485 -1.79194)
(0.247957 -0.00660472 -1.79263)
(0.254591 0.00220077 -1.78227)
(-0.243305 -0.000604826 0.243401)
(-0.24263 -0.000442107 0.242901)
(-0.24279 -0.00150642 0.242432)
(-0.239646 -0.00205408 0.244484)
(-0.239371 0.000875482 0.247607)
(-0.239476 0.00154794 0.238796)
(-0.813577 0.000398196 -1.12099)
(-0.815955 0.0023858 -1.11833)
(-0.816157 0.00228073 -1.11672)
(-0.817282 0.000504271 -1.13189)
(-0.818173 0.0064096 -1.141)
(-0.821088 0.00668082 -1.11247)
(-0.207841 -0.00113679 -2.04177)
(-0.208624 -0.00354685 -2.04334)
(-0.211882 -0.00529444 -2.04322)
(-0.218096 -0.00589754 -2.04212)
(-0.222574 -0.00399873 -2.04552)
(-0.221479 -0.00110797 -2.03607)
(-0.604802 -0.00146733 0.134812)
(-0.604151 -0.00155924 0.133263)
(-0.602885 -0.00112538 0.13311)
(-0.607284 -0.00125996 0.135724)
(-0.6082 2.90912e-06 0.139376)
(-0.602818 0.000484952 0.130208)
(-1.29093 0.000902339 -1.97924)
(-1.29328 0.00300481 -1.98425)
(-1.29296 0.00499072 -1.98277)
(-1.29012 0.00351989 -2.00025)
(-1.28895 0.00432398 -2.00976)
(-1.29605 0.00403852 -1.98165)
(-0.887911 -9.71771e-05 -2.40863)
(-0.889671 -0.000949466 -2.40936)
(-0.891014 -0.0011347 -2.40907)
(-0.890916 -0.00105874 -2.40994)
(-0.891012 -0.0025249 -2.41323)
(-0.895734 -0.00185346 -2.40424)
(-1.90177 -0.00162659 0.932608)
(-1.90215 -0.0023407 0.931216)
(-1.90014 0.00111647 0.930437)
(-1.90802 0.00237567 0.934217)
(-1.91021 -0.0024675 0.938271)
(-1.90083 -0.00286348 0.927286)
(-1.85978 0.00140992 -5.53663)
(-1.85663 0.00170911 -5.5606)
(-1.85848 0.000589674 -5.55745)
(-1.85407 -0.000614757 -5.54928)
(-1.8545 0.00240093 -5.54575)
(-1.85799 0.00351333 -5.56053)
(-0.850261 0.00181417 -2.45489)
(-0.849313 0.00127147 -2.45123)
(-0.850634 -0.00114669 -2.45093)
(-0.849676 -0.00115295 -2.45286)
(-0.850286 -0.000379135 -2.45613)
(-0.851357 6.44791e-05 -2.44748)
(2.02405 -0.329813 6.75168)
(2.06958 0.00318991 7.65058)
(1.09384 0.00285039 6.92859)
(3.16244 0.557196 6.90618)
(5.41898 -0.245945 7.8662)
(1.21742 0.46494 6.56133)
(2.13485 -0.747301 5.91938)
(1.44766 -0.519122 5.65942)
(1.59439 -0.336819 5.01253)
(3.33858 -0.056465 6.47576)
(5.19037 0.388284 8.63056)
(1.98578 0.648598 5.1421)
(4.4833 -0.426642 14.9573)
(2.78759 -0.643995 13.446)
(3.66018 -1.16875 13.1211)
(4.73614 -1.26865 8.49997)
(5.0962 1.74783 9.47827)
(3.41602 1.11442 13.6407)
(-1.8143 -0.385945 9.23488)
(-0.847974 -0.0340864 7.26852)
(-0.470762 0.483476 6.90402)
(-2.22254 1.60696 6.75702)
(-2.51993 1.11437 5.84821)
(-1.74348 0.636315 7.81844)
(0.358865 -0.110351 9.87431)
(1.65394 0.712888 8.69911)
(1.83772 0.752313 7.30488)
(0.760326 1.73594 7.09591)
(0.0295944 0.185077 7.36703)
(-1.43699 0.362404 9.79796)
(4.34355 0.0298148 5.10738)
(5.78765 0.566517 4.99074)
(4.80564 0.303975 3.68557)
(2.40573 1.06728 4.99982)
(1.67155 -0.553842 7.09587)
(0.791859 0.0367752 7.30304)
(2.38786 0.322189 -0.912282)
(3.42167 0.529543 -2.09236)
(3.1183 0.213955 -1.58137)
(3.21669 -0.0477822 -1.89574)
(3.31501 -0.79865 -1.84264)
(1.48804 -0.387737 -0.0760697)
(2.36497 0.196355 -0.504549)
(2.64932 0.149497 -0.975653)
(2.3825 -0.450185 -0.295106)
(2.63079 -0.228095 1.54942)
(2.98399 -0.652679 0.0289059)
(2.11461 -0.144836 -0.141527)
(0.932275 -0.00095703 -2.35422)
(0.721389 -0.458247 -2.59157)
(0.782994 -0.906924 -2.66963)
(1.21964 -0.603043 -2.18244)
(1.24737 -0.262062 -2.46623)
(1.86073 0.122587 -1.11177)
(-0.336396 0.0710611 -3.5849)
(-0.367955 0.0457016 -3.6192)
(-0.217387 -0.0184231 -3.54395)
(0.0183437 0.0349023 -3.89681)
(-0.254576 -0.159095 -3.96355)
(-0.45643 -0.211895 -3.25095)
(0.0364496 0.043351 -2.76641)
(0.145621 0.0376887 -2.80178)
(0.203053 0.0734651 -2.78298)