/*--------------------------------*- C++ -*----------------------------------*\
| =========                 |                                                 |
| \\      /  F ield         | OpenFOAM: The Open Source CFD Toolbox           |
|  \\    /   O peration     | Version:  v1612+                                |
|   \\  /    A nd           | Web:      www.OpenFOAM.com                      |
|    \\/     M anipulation  |                                                 |
\*---------------------------------------------------------------------------*/
FoamFile
{
    version     2.0;
    format      ascii;
    class       surfaceScalarField;
    location    "8.85";
    object      alphaPhi;
}
// * * * * * * * * * * * * * * * * * * * * * * * * * * * * * * * * * * * * * //

dimensions      [0 3 -1 0 0 0 0];

internalField   nonuniform List<scalar> 
816
(
-1.6496e-06
-1.0982e-05
5.77735e-06
-1.60022e-05
-1.81789e-05
4.10345e-05
6.31625e-06
2.41259e-06
-1.29566e-05
-4.57344e-07
3.0298e-06
-8.57794e-06
1.08995e-07
4.6545e-07
2.36822e-06
-5.35097e-06
-1.1851e-05
3.38322e-06
-2.02902e-06
8.23578e-06
1.07709e-08
-6.27245e-09
1.31221e-06
-1.41588e-09
3.5914e-09
1.21892e-08
-2.08647e-06
4.38369e-09
-2.66606e-09
-1.26941e-11
8.96503e-08
8.46436e-11
1.47102e-08
1.31086e-09
1.13044e-06
1.08486e-08
-9.66419e-09
5.33415e-09
1.51192e-06
1.06876e-08
-1.10488e-08
-5.63278e-09
2.43605e-06
6.55576e-09
5.58807e-09
-4.10002e-09
1.21538e-06
6.1028e-09
-4.03527e-09
2.31842e-09
3.84807e-07
3.74522e-09
-3.05001e-09
-3.02148e-09
-7.60409e-06
8.82374e-09
3.98172e-09
-1.02168e-09
-3.11497e-06
2.46073e-09
1.72712e-10
-4.62386e-09
-6.8675e-06
5.20884e-10
-8.02346e-10
7.13697e-07
-4.33053e-09
-2.84329e-09
2.22612e-05
-1.63318e-06
-3.07241e-05
-2.61369e-07
1.57563e-05
3.56889e-05
-4.129e-05
2.34602e-05
2.33658e-06
-1.12924e-06
-4.19468e-06
3.6335e-07
4.12282e-05
-7.30626e-06
2.12115e-05
5.14429e-06
-1.56282e-05
1.41074e-05
-1.50643e-05
1.48564e-05
-1.36187e-05
-2.34819e-07
-2.37252e-05
1.145e-05
3.04095e-05
9.80353e-06
-3.03429e-05
1.72931e-05
8.13358e-06
2.87232e-05
-9.58387e-06
-1.04617e-05
3.02831e-06
8.73344e-06
-5.44202e-05
2.326e-05
4.12758e-05
2.66568e-05
-3.35199e-05
1.60158e-05
-3.78213e-06
-1.81331e-05
6.27754e-05
6.67344e-06
-3.36338e-05
-1.82793e-05
-3.7788e-06
4.67428e-06
-1.17485e-05
1.84218e-06
-1.58271e-05
7.84444e-07
-2.24989e-05
-1.76501e-05
-1.04975e-05
-2.92294e-07
-2.21512e-06
-3.93013e-07
-2.37765e-05
3.28357e-06
9.76877e-06
-5.07643e-06
-6.41462e-06
-6.61895e-06
-1.05923e-05
2.5971e-06
-1.20125e-05
-5.94801e-06
-1.47684e-05
-6.24467e-07
-1.48507e-05
-8.89186e-06
-1.0242e-05
-3.91471e-06
4.05917e-06
-5.571e-06
-2.48949e-05
-1.46062e-05
-1.95937e-05
-1.57032e-05
-1.59311e-05
-7.00087e-06
6.78411e-06
2.67101e-05
-2.43141e-06
-9.97936e-06
1.84317e-06
-1.53289e-06
-1.83987e-06
-5.80107e-06
3.61673e-06
-8.17349e-06
-5.9842e-06
3.43698e-06
1.17939e-06
-8.50672e-06
1.58907e-06
-4.68727e-06
5.96579e-07
3.29014e-07
3.18897e-07
-6.56409e-06
1.45161e-06
1.83752e-06
-6.55144e-06
6.47948e-07
-6.1725e-07
-5.71093e-06
-1.27427e-05
-7.04127e-06
-3.26103e-06
-3.2119e-07
-7.54978e-07
-1.33988e-05
-4.615e-07
3.22823e-06
-2.75814e-06
4.899e-07
-2.83381e-06
-5.32349e-06
-1.80243e-06
1.85705e-06
-4.14982e-06
-8.60016e-06
-3.95059e-06
-4.1986e-07
-5.24113e-06
-5.88954e-06
-4.96066e-06
3.16342e-06
-1.95179e-06
-2.35443e-06
-8.96832e-06
-1.1046e-05
-7.4973e-06
-8.91503e-06
-4.18464e-06
-4.87357e-06
3.35165e-06
-1.34566e-06
7.60412e-06
9.37615e-08
-1.85767e-06
-4.24456e-06
6.34137e-09
-9.48205e-10
4.7061e-07
-3.45355e-09
1.14201e-08
-1.71202e-06
-2.89566e-09
8.60599e-09
-3.58021e-06
9.32455e-10
1.07378e-08
2.1685e-06
-9.06212e-10
1.5035e-09
-2.77623e-06
-5.56612e-09
-9.44255e-10
-1.38116e-09
6.6014e-11
1.48554e-10
-4.26983e-09
9.98216e-07
-2.2502e-09
-8.21292e-09
3.19344e-06
-3.76446e-09
-3.7267e-09
-2.67584e-06
1.56156e-09
2.9619e-09
-8.89259e-06
-4.7553e-09
-2.33774e-09
-3.49003e-09
2.22329e-11
-3.73659e-09
-7.35058e-09
8.5227e-07
-4.33585e-09
3.10836e-10
1.3372e-06
-1.58102e-10
-4.85573e-10
-1.44329e-06
-1.10801e-09
-2.34772e-10
-4.82122e-06
-7.52478e-09
-8.01033e-09
-4.48341e-09
-6.58e-06
-6.40358e-09
-8.82806e-09
-7.80035e-06
-3.86471e-09
-8.84731e-09
-1.00918e-06
-2.85884e-09
-2.35573e-09
9.81666e-07
-2.55509e-09
8.21271e-11
-5.00381e-09
-4.87067e-09
-1.45511e-05
8.74597e-06
1.78982e-07
4.50059e-06
1.47855e-05
-3.15675e-05
8.13835e-10
1.15028e-05
2.27049e-06
2.07423e-05
1.15544e-05
-5.76849e-06
6.88262e-06
2.04255e-05
6.44706e-05
-4.10296e-05
-3.34282e-05
-3.02474e-06
8.4134e-05
-1.49431e-05
-2.44315e-05
8.12059e-05
-5.016e-05
-5.28128e-05
0.000104974
-5.47628e-05
-2.92578e-05
-1.06979e-05
-7.96698e-06
3.7966e-05
-1.89795e-05
-3.47013e-05
-2.09811e-05
-3.77243e-06
8.914e-05
-1.55766e-05
-3.37086e-05
8.69706e-05
-3.62492e-05
1.61152e-05
-5.05634e-05
-4.36047e-06
5.77613e-06
5.54668e-05
-2.39063e-05
3.03718e-05
5.84659e-05
-5.31437e-05
-3.45769e-05
-4.49096e-06
7.24721e-05
-4.68587e-06
-3.55579e-05
7.03463e-05
-3.40086e-05
-2.70446e-05
1.69335e-05
-1.96777e-05
-2.96537e-06
-9.16206e-06
-6.79406e-06
6.80107e-05
-2.28698e-05
-3.54378e-05
8.37699e-06
-5.43372e-06
1.03761e-06
-1.96719e-06
-8.68335e-06
-1.49998e-05
1.31899e-06
-9.42038e-06
2.59833e-06
-1.01283e-05
-6.484e-06
-2.49568e-06
-6.60049e-06
-1.40437e-05
3.00519e-05
2.21073e-05
1.98737e-05
-6.52881e-07
3.7146e-05
9.82778e-06
1.29377e-05
3.58927e-05
2.66339e-05
3.21645e-05
4.60848e-05
2.90867e-05
1.79396e-05
-4.50102e-06
2.12053e-06
-2.18898e-05
-6.48702e-06
1.4894e-05
1.24482e-05
2.81398e-06
3.9054e-05
1.06098e-05
2.13267e-05
3.78296e-05
2.17514e-05
-4.4448e-06
-2.25657e-05
1.83473e-06
-2.81199e-07
2.54528e-05
1.12322e-05
-1.5986e-05
2.6114e-05
2.84513e-05
1.95964e-05
2.25024e-06
3.13955e-05
3.24367e-06
1.65853e-05
3.15448e-05
1.74453e-05
1.06127e-05
8.029e-06
1.24347e-05
3.06419e-08
-4.6434e-06
4.53129e-06
3.05314e-05
1.31596e-05
1.89479e-05
4.5989e-06
-2.93179e-06
1.22256e-06
-1.76057e-06
-5.39841e-06
-4.9566e-06
-6.14234e-07
-5.94664e-06
2.91986e-06
-6.83579e-06
-3.22799e-06
-1.29345e-06
-4.71968e-06
-6.865e-06
1.02987e-05
1.21402e-05
1.12428e-05
-3.10328e-07
1.37337e-05
3.47871e-06
6.99116e-06
1.17868e-05
1.40491e-05
1.64867e-05
1.52942e-05
1.59583e-05
8.91597e-06
-1.21922e-06
1.6182e-07
-1.12282e-05
4.83026e-07
7.3694e-06
5.83638e-06
2.92765e-06
1.11167e-05
5.18937e-06
1.20014e-05
1.22925e-05
1.12072e-05
-3.3391e-06
-4.80155e-06
7.38017e-07
-4.77885e-07
7.98826e-06
5.62844e-06
-8.75463e-06
7.6658e-06
1.54709e-05
1.12197e-05
1.13566e-06
9.85283e-06
5.79666e-07
8.93958e-06
9.90897e-06
9.64452e-06
5.40209e-06
3.60023e-06
6.59709e-06
-1.06391e-06
-1.2664e-06
1.22425e-06
8.3686e-06
6.90829e-06
1.13246e-05
-1.57349e-06
-3.42648e-06
2.40587e-06
-3.39862e-06
2.95057e-06
-2.60901e-07
-2.69034e-06
-5.05985e-06
-3.15448e-07
2.25128e-06
-3.79288e-06
3.53151e-06
-6.54596e-06
2.62256e-06
5.8637e-07
-6.85096e-06
-3.267e-06
-1.8543e-07
4.64261e-07
-7.60564e-06
5.66925e-08
-2.4362e-06
-1.50146e-06
-4.02386e-06
1.248e-06
-2.56382e-06
-4.12671e-06
2.71161e-07
-1.39452e-06
-2.52698e-06
5.08518e-07
-2.14187e-06
-3.04556e-06
-4.84491e-06
-4.08726e-06
-7.01868e-07
1.37173e-06
-1.2541e-06
-8.98666e-07
6.49364e-07
1.07665e-06
-2.6863e-07
-4.46692e-07
-3.97107e-06
7.31839e-07
-2.27961e-06
-1.99615e-06
-2.34572e-06
-7.55806e-07
-2.74352e-06
4.90903e-06
5.76484e-06
9.48149e-07
2.4031e-06
4.12428e-06
6.17223e-06
8.9368e-06
6.45581e-06
4.27837e-06
8.49352e-07
-3.22185e-06
3.64114e-06
4.33201e-06
1.69446e-06
2.1044e-06
6.33749e-06
6.24288e-06
5.13082e-07
1.52207e-06
1.15688e-06
4.32104e-06
-3.72991e-06
7.01368e-06
5.54582e-06
1.78443e-07
1.0302e-06
4.21612e-06
5.16181e-06
3.83435e-06
2.70913e-06
7.59643e-07
2.45173e-06
3.81294e-06
5.18185e-06
5.18479e-09
-7.60506e-09
-5.81929e-06
1.00151e-08
-2.44896e-07
1.42811e-08
-5.22924e-06
8.06924e-09
1.18347e-06
6.93986e-09
4.89015e-06
-1.91882e-09
1.07094e-06
4.75415e-09
-7.39137e-06
1.16215e-09
-3.44976e-06
-3.39786e-09
-5.12819e-06
-2.3441e-09
2.64319e-06
-8.12514e-10
6.91294e-07
7.04832e-10
1.30671e-06
5.28367e-10
2.56665e-06
-1.75246e-09
1.50476e-10
-4.98198e-09
-4.71501e-06
-4.2232e-09
-1.01925e-06
-2.37242e-09
-2.65432e-06
-3.31928e-10
9.21241e-07
-2.73325e-09
3.20474e-07
-3.88857e-09
-1.05499e-06
1.34356e-09
6.91372e-07
-3.60467e-09
-3.8672e-06
-6.83591e-10
-2.28861e-06
-3.03481e-09
4.99825e-07
-7.06157e-09
-5.02465e-06
-6.68335e-09
4.56735e-07
-7.35984e-09
3.03327e-07
2.07288e-06
1.63926e-05
-3.5564e-05
-9.6028e-06
1.39052e-05
7.15434e-06
3.14085e-05
-2.42437e-05
-1.45015e-06
4.66973e-05
-2.42898e-05
4.46651e-05
-4.11493e-05
-1.6037e-05
3.31831e-05
-8.29928e-05
1.73292e-05
-2.20149e-05
-3.09469e-05
2.59232e-05
-1.34413e-05
-5.48072e-05
1.1229e-05
-7.40231e-05
1.76022e-05
-1.03225e-05
1.57656e-05
-2.36867e-05
-1.10955e-05
3.34788e-05
-7.84528e-06
-3.08168e-05
-3.51223e-06
-2.09668e-05
-1.90788e-07
-4.30151e-05
5.09128e-06
-6.42823e-06
-9.20119e-06
-9.00553e-06
-1.76649e-05
-4.63791e-05
3.76441e-05
-5.22159e-05
1.13199e-05
-1.34278e-05
-6.0489e-06
9.22093e-06
-1.19139e-06
-3.66931e-05
-1.73362e-05
-1.06526e-05
-2.17362e-05
-6.28047e-07
-2.23141e-05
-3.34276e-05
-4.9378e-05
-8.44484e-06
1.65713e-05
-4.59679e-06
-6.28506e-06
2.9679e-06
-1.86876e-05
-1.04374e-05
-4.23523e-06
2.20978e-05
1.40876e-05
1.97356e-05
2.67261e-05
-6.56989e-06
-2.04029e-05
-3.58567e-05
-1.07228e-05
-1.17824e-05
1.12983e-05
1.37197e-05
6.53971e-06
-2.34259e-05
-5.36509e-06
-3.30515e-05
-8.61735e-06
-4.93099e-06
-8.26126e-06
-9.13024e-06
1.0424e-05
1.4806e-05
4.90087e-06
-1.28595e-05
2.88341e-06
-8.36661e-06
8.94368e-07
-1.92707e-05
5.52749e-07
-4.24893e-06
7.44955e-06
-4.67673e-06
9.65537e-06
-2.01501e-05
-1.83006e-05
-2.42795e-05
-5.88431e-06
-6.20833e-06
1.79902e-06
4.81754e-06
-6.64088e-07
-1.67959e-05
4.85798e-06
-3.75981e-06
9.4367e-06
-6.87769e-07
1.10049e-05
-1.60444e-05
-2.17542e-05
-4.40696e-06
8.63589e-06
-1.95529e-06
-4.09879e-06
7.15492e-07
-1.0599e-05
-4.44609e-06
-2.24213e-06
6.93465e-06
8.8901e-06
3.89663e-06
1.41937e-05
2.46854e-07
-1.0822e-05
-1.08771e-05
-6.76715e-06
-4.58044e-06
7.01205e-06
3.44781e-06
4.77137e-06
-7.10451e-06
-3.95801e-06
-8.35869e-06
-5.92531e-06
-2.80286e-06
-5.36805e-06
-2.34363e-06
6.66538e-06
2.81126e-06
3.91181e-06
-4.21851e-06
2.72236e-06
-2.01501e-06
8.3969e-07
-6.20232e-06
2.25064e-07
-2.91028e-06
4.38697e-06
-3.20636e-06
5.35176e-06
-5.61561e-06
-1.01676e-05
-8.82531e-06
-3.54395e-06
-1.70365e-06
1.45761e-06
4.1691e-07
-6.23676e-07
-5.05244e-06
2.26164e-06
-4.74263e-08
5.25467e-06
-2.49549e-06
4.94843e-06
-4.47701e-06
-8.08709e-06
-3.12237e-06
5.01035e-06
-3.11017e-06
-6.85711e-06
-1.92561e-06
1.23143e-06
6.42987e-06
-4.45674e-06
-3.30043e-06
2.541e-06
1.61855e-06
-2.65705e-07
-2.20206e-06
-9.55301e-07
1.82256e-06
1.95148e-06
2.04316e-06
2.081e-06
6.63479e-07
1.74253e-06
3.19986e-06
-5.58308e-06
-1.7864e-06
-3.48146e-07
-2.37554e-07
2.43218e-06
2.35052e-06
2.93075e-06
4.36496e-09
4.32219e-09
-5.34353e-06
-1.79802e-09
7.59832e-07
5.30088e-09
-5.96081e-06
6.13401e-07
-5.87156e-06
2.18927e-05
-1.31044e-05
7.88387e-06
)
;

boundaryField
{
    top_fluid_surface
    {
        type            calculated;
        value           nonuniform List<scalar> 
64
(
0
0
0
0
0
0
0
0
0
0
3.89449e-09
0
0
0
4.81145e-09
0
1.25937e-08
1.40291e-08
1.32305e-08
1.36988e-08
6.99416e-10
0
1.33024e-08
1.13669e-08
0
9.08977e-09
1.22763e-08
1.23636e-08
9.7004e-09
2.25616e-09
0
5.52309e-09
0
0
0
5.45727e-09
2.43173e-10
1.74111e-09
0
2.64467e-09
4.76676e-09
0
0
0
0
2.02902e-09
1.2213e-09
0
0
0
1.05313e-09
0
0
0
0
0
1.0759e-09
0
0
0
0
0
0
0
)
;
    }
    bottom_fluid_surface
    {
        type            calculated;
        value           uniform 0;
    }
    lateral_surface_1
    {
        type            calculated;
        value           uniform 0;
    }
    lateral_surface_2
    {
        type            calculated;
        value           uniform 0;
    }
    lateral_surface_3
    {
        type            calculated;
        value           uniform 0;
    }
    lateral_surface_4
    {
        type            calculated;
        value           uniform 0;
    }
}


// ************************************************************************* //
