/*--------------------------------*- C++ -*----------------------------------*\
| =========                 |                                                 |
| \\      /  F ield         | OpenFOAM: The Open Source CFD Toolbox           |
|  \\    /   O peration     | Version:  v1612+                                |
|   \\  /    A nd           | Web:      www.OpenFOAM.com                      |
|    \\/     M anipulation  |                                                 |
\*---------------------------------------------------------------------------*/
FoamFile
{
    version     2.0;
    format      ascii;
    class       volScalarField;
    location    "8.85";
    object      p_rgh;
}
// * * * * * * * * * * * * * * * * * * * * * * * * * * * * * * * * * * * * * //

dimensions      [1 -1 -2 0 0 0 0];

internalField   nonuniform List<scalar> 
320
(
-9800.2
-9800.2
-9800.2
-9800.2
-0.00658263
-0.00348466
-0.00318823
-0.00427679
-0.00541731
-0.00156773
-0.00495096
-0.00785331
-0.00747506
-0.0046208
0.0021456
-0.00418051
-9799.74
-9799.75
-9799.77
-9799.75
-9799.75
-9799.78
-9799.76
-9799.74
-9799.74
-9799.78
-9799.92
-9799.78
-9800.2
-9800.21
-9800.21
-9800.21
-9800.21
-9800.21
-9800.21
-9800.2
-9800.2
-9800.19
-9800.18
-9800.2
-9800.2
-9800.2
-9800.2
-9800.2
-9800.2
-9800.21
-9800.21
-9800.2
-9800.2
-9800.21
-9800.2
-9800.2
-9800.2
-9800.19
-9800.19
-9800.2
-0.00731431
-0.00391358
0.00569881
-0.00116913
0.0164362
0.0197604
0.018797
0.0179136
-0.00060084
-0.000820201
0.0183414
0.0141979
-0.00311647
0.0107684
0.0158477
0.0151153
0.0102578
0.00227507
-0.00712761
0.00561595
-9799.73
-9799.76
-9799.88
-9799.76
-9799.97
-9799.99
-9800
-9800.01
-9799.82
-9799.82
-9800
-9799.99
-9799.77
-9799.95
-9799.98
-9799.98
-9799.95
-9799.89
-9799.76
-9799.92
-9800.2
-9800.2
-9800.21
-9800.22
-9800.2
-9800.2
-9800.2
-9800.19
-9800.21
-9800.21
-9800.2
-9800.18
-9800.19
-9800.19
-9800.18
-9800.18
-9800.18
-9800.19
-9800.19
-9800.19
-9800.2
-9800.2
-9800.21
-9800.21
-9800.21
-9800.2
-9800.2
-9800.2
-9800.21
-9800.21
-9800.2
-9800.19
-9800.2
-9800.19
-9800.19
-9800.19
-9800.19
-9800.19
-9800.2
-9800.19
-9800.2
-9800.2
-9800.2
-9800.2
-9800.2
-9800.2
-9800.21
-9800.2
-9800.2
-9800.2
-9800.2
-9800.2
-9800.2
-9800.2
-9800.19
-9800.2
-9800.2
-9800.2
-9800.2
-9800.21
-9800.21
-9800.2
-9800.2
-9800.2
-9800.21
-9800.21
-9800.2
-9800.2
-9800.2
-9800.19
-9800.19
-9800.2
-9800.19
-9800.2
-9800.2
-9800.19
-0.00359097
-0.00950061
-0.00803498
0.00389779
-0.000925353
0.00153936
-0.00587903
0.00422826
0.00519147
-0.00175187
-0.00499465
-0.000972696
-0.00331071
0.00240708
0.00270201
-0.00485039
-0.00614668
-0.0023135
0.00174014
-0.00628418
-0.00451659
-0.00391619
-0.0108581
-0.000575696
0.00116946
-0.00343807
-0.00470385
-0.0140113
-9799.76
-9799.73
-9799.71
-9799.87
-9799.83
-9799.87
-9799.69
-9799.86
-9799.83
-9799.76
-9799.77
-9799.79
-9799.72
-9799.86
-9799.8
-9799.74
-9799.76
-9799.79
-9799.86
-9799.74
-9799.74
-9799.74
-9799.7
-9799.76
-9799.8
-9799.76
-9799.76
-9799.67
-9800.2
-9800.21
-9800.21
-9800.21
-9800.22
-9800.21
-9800.23
-9800.21
-9800.22
-9800.21
-9800.21
-9800.21
-9800.22
-9800.22
-9800.23
-9800.21
-9800.2
-9800.2
-9800.2
-9800.2
-9800.2
-9800.2
-9800.2
-9800.2
-9800.21
-9800.2
-9800.2
-9800.2
-9800.2
-9800.22
-9800.2
-9800.21
-9800.21
-9800.21
-9800.22
-9800.21
-9800.21
-9800.21
-9800.21
-9800.21
-9800.21
-9800.21
-9800.21
-9800.21
-9800.2
-9800.2
-9800.2
-9800.2
-9800.2
-9800.2
-9800.2
-9800.2
-9800.2
-9800.2
-9800.2
-9800.19
-9800.2
-9800.22
-9800.21
-9800.21
-9800.21
-9800.21
-9800.22
-9800.21
-9800.21
-9800.21
-9800.2
-9800.21
-9800.21
-9800.21
-9800.21
-9800.2
-9800.2
-9800.2
-9800.2
-9800.19
-9800.19
-9800.2
-9800.2
-9800.2
-9800.2
-9800.2
-9800.2
-9800.18
-0.00600105
-0.00721764
-0.00512802
-0.0124531
-9799.75
-9799.73
-9799.76
-9799.7
)
;

boundaryField
{
    top_fluid_surface
    {
        type            totalPressure;
        rho             rho;
        psi             none;
        gamma           1;
        p0              uniform 0;
        value           nonuniform List<scalar> 
64
(
-1.66319e-08
-5.79498e-09
-2.41126e-09
-2.8383e-09
-1.00053e-08
-3.4767e-09
-1.13636e-08
-1.5118e-08
-1.86058e-08
-7.55707e-09
0
-6.42278e-09
-1.07605e-08
-6.59521e-09
0
-1.1349e-09
0
0
0
0
0
-1.73881e-08
0
0
-8.85434e-09
0
0
0
0
0
-1.31891e-08
0
-2.54242e-09
-1.58079e-08
-1.58706e-08
0
-6.43416e-11
0
-1.99584e-08
0
0
-9.26136e-09
-1.92135e-08
-1.19115e-09
-7.04992e-09
0
0
-7.14854e-09
-1.40592e-08
-2.11255e-09
0
-1.54871e-08
-1.36155e-08
-3.26014e-09
-1.93292e-08
-1.78129e-09
0
-2.98717e-09
-9.63693e-09
-6.71847e-08
-1.26453e-08
-1.10966e-08
-3.10631e-09
-3.25739e-08
)
;
    }
    bottom_fluid_surface
    {
        type            fixedFluxPressure;
        gradient        uniform 0;
        value           nonuniform List<scalar> 
64
(
-9800.2
-9800.2
-9800.2
-9800.2
-9800.2
-9800.2
-9800.21
-9800.2
-9800.2
-9800.2
-9800.2
-9800.2
-9800.2
-9800.2
-9800.19
-9800.2
-9800.2
-9800.2
-9800.2
-9800.21
-9800.21
-9800.2
-9800.2
-9800.2
-9800.21
-9800.21
-9800.2
-9800.2
-9800.2
-9800.19
-9800.19
-9800.2
-9800.19
-9800.2
-9800.2
-9800.19
-9800.2
-9800.22
-9800.21
-9800.21
-9800.21
-9800.21
-9800.22
-9800.21
-9800.21
-9800.21
-9800.2
-9800.21
-9800.21
-9800.21
-9800.21
-9800.2
-9800.2
-9800.2
-9800.2
-9800.19
-9800.19
-9800.2
-9800.2
-9800.2
-9800.2
-9800.2
-9800.2
-9800.18
)
;
    }
    lateral_surface_1
    {
        type            fixedFluxPressure;
        gradient        uniform 0;
        value           nonuniform List<scalar> 
40
(
-0.00359097
-0.00950061
-0.00803498
0.00389779
-0.000925353
0.00153936
-0.00587903
-0.0140113
-9799.76
-9799.73
-9799.71
-9799.87
-9799.83
-9799.87
-9799.69
-9799.67
-9800.2
-9800.21
-9800.21
-9800.21
-9800.22
-9800.21
-9800.23
-9800.2
-9800.2
-9800.22
-9800.2
-9800.21
-9800.21
-9800.21
-9800.22
-9800.19
-9800.2
-9800.22
-9800.21
-9800.21
-9800.21
-9800.21
-9800.22
-9800.18
)
;
    }
    lateral_surface_2
    {
        type            fixedFluxPressure;
        gradient        uniform 0;
        value           nonuniform List<scalar> 
40
(
0.00240708
0.00270201
-0.00485039
-0.00614668
-0.0023135
0.00174014
-0.00628418
-0.00451659
-9799.86
-9799.8
-9799.74
-9799.76
-9799.79
-9799.86
-9799.74
-9799.74
-9800.22
-9800.23
-9800.21
-9800.2
-9800.2
-9800.2
-9800.2
-9800.2
-9800.21
-9800.21
-9800.21
-9800.2
-9800.2
-9800.2
-9800.2
-9800.2
-9800.21
-9800.21
-9800.2
-9800.2
-9800.2
-9800.2
-9800.19
-9800.19
)
;
    }
    lateral_surface_3
    {
        type            fixedFluxPressure;
        gradient        uniform 0;
        value           nonuniform List<scalar> 
40
(
-0.00587903
0.00422826
0.00519147
-0.00175187
-0.00499465
-0.000972696
-0.00331071
0.00240708
-9799.69
-9799.86
-9799.83
-9799.76
-9799.77
-9799.79
-9799.72
-9799.86
-9800.23
-9800.21
-9800.22
-9800.21
-9800.21
-9800.21
-9800.22
-9800.22
-9800.22
-9800.21
-9800.21
-9800.21
-9800.21
-9800.21
-9800.21
-9800.21
-9800.22
-9800.21
-9800.21
-9800.21
-9800.2
-9800.21
-9800.21
-9800.21
)
;
    }
    lateral_surface_4
    {
        type            fixedFluxPressure;
        gradient        uniform 0;
        value           nonuniform List<scalar> 
40
(
-0.00451659
-0.00391619
-0.0108581
-0.000575696
0.00116946
-0.00343807
-0.00470385
-0.0140113
-9799.74
-9799.74
-9799.7
-9799.76
-9799.8
-9799.76
-9799.76
-9799.67
-9800.2
-9800.2
-9800.2
-9800.2
-9800.21
-9800.2
-9800.2
-9800.2
-9800.2
-9800.2
-9800.2
-9800.2
-9800.2
-9800.2
-9800.2
-9800.19
-9800.19
-9800.2
-9800.2
-9800.2
-9800.2
-9800.2
-9800.2
-9800.18
)
;
    }
}


// ************************************************************************* //
