/*--------------------------------*- C++ -*----------------------------------*\
| =========                 |                                                 |
| \\      /  F ield         | OpenFOAM: The Open Source CFD Toolbox           |
|  \\    /   O peration     | Version:  v1612+                                |
|   \\  /    A nd           | Web:      www.OpenFOAM.com                      |
|    \\/     M anipulation  |                                                 |
\*---------------------------------------------------------------------------*/
FoamFile
{
    version     2.0;
    format      ascii;
    class       volScalarField;
    location    "1.6";
    object      p;
}
// * * * * * * * * * * * * * * * * * * * * * * * * * * * * * * * * * * * * * //

dimensions      [1 -1 -2 0 0 0 0];

internalField   nonuniform List<scalar> 
1116
(
32369.3
32369.3
32369.3
32369.3
32369.3
32369.2
31238.7
31238.7
31238.7
31238.7
31238.7
31238.7
27849.9
27849.9
27849.9
27849.9
27849.9
27849.9
23614.8
23614.8
23614.8
23614.8
23614.8
23614.8
18842.2
18842.2
18842.2
18842.2
18842.2
18842.2
14277.7
14277.7
14277.8
14277.8
14277.8
14277.8
9702.06
9702.05
9702.06
9702.08
9702.09
9702.1
5495.03
5494.94
5494.94
5494.97
5494.98
5495.01
4204.37
4204.31
4204.32
4204.34
4204.34
4204.36
3781.29
3781.21
3781.23
3781.26
3781.28
3781.26
7102.16
7102.19
7102.23
7102.25
7102.21
7102.16
7979.81
7979.91
7979.96
7979.98
7979.97
7979.92
22523.4
22523.4
22523.5
22523.5
22523.5
22523.5
20528.4
20528.4
20528.4
20528.4
20528.4
20528.4
16367
16367
16367
16367
16367
16367
11311.4
11311.4
11311.4
11311.4
11311.4
11311.5
5438.23
5438.23
5438.27
5438.29
5438.31
5438.36
2811.3
2811.26
2811.28
2811.29
2811.3
2811.32
1152.91
1152.85
1152.86
1152.88
1152.88
1152.89
63.5761
63.5755
63.5808
63.5829
63.5822
63.5834
-102.516
-102.508
-102.503
-102.502
-102.501
-102.505
18.5407
18.5387
18.5353
18.5351
18.5398
18.5401
104.359
104.363
104.365
104.388
104.421
104.385
2591.82
2591.93
2591.96
2591.98
2591.99
2591.84
13191.8
13191.8
13191.8
13191.8
13191.8
13191.8
9781.58
9781.6
9781.64
9781.65
9781.65
9781.65
5037.57
5037.62
5037.65
5037.67
5037.67
5037.72
1773.98
1774.02
1774.04
1774.05
1774.06
1774.1
96.2951
96.3034
96.3108
96.3144
96.3184
96.3286
-45.6469
-45.6456
-45.6451
-45.6437
-45.6416
-45.6402
-40.8734
-40.8738
-40.8739
-40.8733
-40.8721
-40.8712
-35.1353
-35.1341
-35.1325
-35.1324
-35.1331
-35.1337
-72.7132
-72.7107
-72.7095
-72.7097
-72.7103
-72.7123
-96.7908
-96.7868
-96.7857
-96.7868
-96.7885
-96.7859
-102.385
-102.385
-102.384
-102.378
-102.37
-102.374
56.8424
56.8411
56.8463
56.8601
56.8834
56.8245
5442.95
5442.96
5442.96
5442.97
5442.97
5442.99
2336.5
2336.51
2336.52
2336.53
2336.53
2336.55
219.665
219.671
219.677
219.682
219.683
219.69
-14.7413
-14.7399
-14.7398
-14.7389
-14.7382
-14.7389
-11.7354
-11.7355
-11.7358
-11.7354
-11.7347
-11.7343
-27.4859
-27.4861
-27.4863
-27.4858
-27.4849
-27.4841
-43.4116
-43.412
-43.4117
-43.4107
-43.4097
-43.4092
-57.6102
-57.6101
-57.6096
-57.609
-57.6088
-57.6086
-96.1353
-96.1346
-96.135
-96.1358
-96.1359
-96.1365
-124.748
-124.745
-124.745
-124.748
-124.751
-124.756
-161.892
-161.896
-161.898
-161.901
-161.904
-161.91
-94.6744
-94.6799
-94.6799
-94.6816
-94.6837
-94.6934
-4.98949
-4.98944
-4.98942
-4.98941
-4.98942
-4.98942
-4.9933
-4.99326
-4.99325
-4.99325
-4.99326
-4.99328
-5.00127
-5.00123
-5.00122
-5.00123
-5.00125
-5.00127
-5.01365
-5.01362
-5.01361
-5.01362
-5.01365
-5.01368
-5.03081
-5.03079
-5.03079
-5.03081
-5.03084
-5.03087
-5.05306
-5.05306
-5.05307
-5.05309
-5.05312
-5.05314
-5.08044
-5.08046
-5.08048
-5.08049
-5.08051
-5.08052
-5.11314
-5.11318
-5.1132
-5.1132
-5.1132
-5.1132
-5.1512
-5.15124
-5.15125
-5.15125
-5.15123
-5.15121
-5.19312
-5.19316
-5.19317
-5.19316
-5.19313
-5.19311
-5.23483
-5.23487
-5.23487
-5.23485
-5.23482
-5.23479
-5.26859
-5.26861
-5.26859
-5.26856
-5.26852
-5.26848
-14.7957
-14.7956
-14.7956
-14.7956
-14.7956
-14.7957
-14.7995
-14.7994
-14.7994
-14.7994
-14.7995
-14.7995
-14.8074
-14.8074
-14.8074
-14.8074
-14.8074
-14.8075
-14.8198
-14.8198
-14.8198
-14.8198
-14.8199
-14.8199
-14.8374
-14.8374
-14.8374
-14.8374
-14.8374
-14.8375
-14.8608
-14.8608
-14.8608
-14.8609
-14.8609
-14.8609
-14.8914
-14.8914
-14.8914
-14.8914
-14.8914
-14.8915
-14.9299
-14.93
-14.93
-14.93
-14.93
-14.93
-14.976
-14.976
-14.976
-14.976
-14.976
-14.976
-15.0276
-15.0276
-15.0276
-15.0276
-15.0276
-15.0275
-15.0837
-15.0837
-15.0837
-15.0837
-15.0836
-15.0836
-15.1363
-15.1363
-15.1363
-15.1362
-15.1362
-15.1361
-24.5988
-24.5988
-24.5988
-24.5988
-24.5988
-24.5988
-24.6024
-24.6023
-24.6024
-24.6024
-24.6024
-24.6024
-24.6099
-24.6099
-24.6099
-24.6099
-24.6099
-24.61
-24.6218
-24.6218
-24.6218
-24.6218
-24.6219
-24.6219
-24.6387
-24.6387
-24.6388
-24.6388
-24.6388
-24.6389
-24.6614
-24.6614
-24.6614
-24.6614
-24.6615
-24.6615
-24.6899
-24.6899
-24.6899
-24.6899
-24.69
-24.69
-24.7248
-24.7248
-24.7248
-24.7249
-24.7249
-24.7249
-24.7698
-24.7699
-24.7699
-24.7699
-24.7699
-24.7698
-24.829
-24.829
-24.829
-24.829
-24.829
-24.8289
-24.8951
-24.8951
-24.8951
-24.895
-24.895
-24.895
-24.9671
-24.9671
-24.967
-24.967
-24.9669
-24.9668
-34.3991
-34.3991
-34.3991
-34.3991
-34.3991
-34.3991
-34.4022
-34.4022
-34.4022
-34.4023
-34.4023
-34.4023
-34.409
-34.4089
-34.409
-34.409
-34.409
-34.409
-34.4197
-34.4197
-34.4197
-34.4198
-34.4198
-34.4198
-34.4355
-34.4355
-34.4355
-34.4355
-34.4356
-34.4356
-34.4578
-34.4578
-34.4578
-34.4579
-34.4579
-34.4579
-34.4897
-34.4897
-34.4897
-34.4897
-34.4897
-34.4897
-34.5343
-34.5343
-34.5344
-34.5344
-34.5344
-34.5344
-34.5937
-34.5937
-34.5937
-34.5937
-34.5937
-34.5937
-34.6696
-34.6696
-34.6696
-34.6695
-34.6695
-34.6695
-34.7721
-34.772
-34.772
-34.772
-34.7719
-34.7719
-34.9294
-34.9294
-34.9293
-34.9293
-34.9292
-34.9292
111.525
111.532
111.531
111.528
111.525
111.525
515.96
515.939
515.923
515.945
515.944
515.865
-69.8497
-69.8536
-69.8575
-69.8572
-69.8613
-69.8743
65.309
65.3119
65.3108
65.3098
65.3087
65.3063
91.7051
91.7044
91.7039
91.7043
91.7025
91.6975
-44.9296
-44.9306
-44.9312
-44.9314
-44.9322
-44.9337
19.7147
19.7146
19.7149
19.7152
19.7148
19.7137
3.44866
3.44878
3.44884
3.44888
3.44831
3.44716
-51.4591
-51.4591
-51.4595
-51.4601
-51.4606
-51.461
-6.55769
-6.55744
-6.5572
-6.55694
-6.5569
-6.55724
-23.765
-23.7645
-23.7642
-23.7642
-23.7642
-23.7645
-54.4068
-54.4069
-54.407
-54.4072
-54.4073
-54.4074
-27.86
-27.8601
-27.8602
-27.8599
-27.8595
-27.8594
-42.0906
-42.0906
-42.0906
-42.0904
-42.09
-42.0898
-62.2905
-62.2907
-62.2908
-62.2908
-62.2908
-62.2907
-41.818
-41.8182
-41.818
-41.8173
-41.8163
-41.8155
-51.2003
-51.2005
-51.2005
-51.2
-51.1993
-51.1988
-64.9295
-64.9295
-64.9294
-64.9294
-64.9294
-64.9295
-52.1093
-52.1092
-52.1089
-52.108
-52.1069
-52.1062
-58.7821
-58.782
-58.7818
-58.7814
-58.7808
-58.7806
-66.7043
-66.7041
-66.7041
-66.7042
-66.7045
-66.705
-64.6863
-64.6859
-64.6856
-64.6854
-64.6854
-64.6854
-65.4113
-65.4111
-65.4111
-65.4111
-65.4113
-65.4115
-67.4106
-67.4104
-67.4104
-67.4106
-67.4108
-67.4112
-88.802
-88.8018
-88.8022
-88.8034
-88.8046
-88.8057
-74.4055
-74.4056
-74.4063
-74.4072
-74.4081
-74.4087
-67.2387
-67.2386
-67.2387
-67.2387
-67.2387
-67.2389
-115.092
-115.091
-115.091
-115.092
-115.093
-115.096
-82.205
-82.2062
-82.2081
-82.2099
-82.2123
-82.2137
-65.7241
-65.7242
-65.7247
-65.7251
-65.7253
-65.7253
-137.824
-137.826
-137.827
-137.829
-137.837
-137.841
-85.9801
-85.9813
-85.9827
-85.9832
-85.9881
-85.9882
-62.6478
-62.6484
-62.6496
-62.6503
-62.6512
-62.6509
-63.1351
-63.1376
-63.1375
-63.1374
-63.1378
-63.1357
-41.8341
-41.8324
-41.8337
-41.8345
-41.8346
-41.8328
-52.3897
-52.3901
-52.3916
-52.3927
-52.3945
-52.3952
-46.2219
-46.2219
-46.222
-46.2222
-46.2223
-46.2224
-54.3402
-54.3402
-54.3402
-54.3402
-54.3403
-54.3404
-63.5045
-63.5045
-63.5044
-63.5044
-63.5045
-63.5045
-47.3409
-47.341
-47.3412
-47.3416
-47.3421
-47.3424
-54.348
-54.348
-54.3481
-54.3481
-54.3483
-54.3484
-63.1153
-63.1153
-63.1153
-63.1152
-63.1153
-63.1154
-46.7645
-46.7646
-46.7648
-46.765
-46.7653
-46.7655
-54.1812
-54.1811
-54.1812
-54.1814
-54.1816
-54.1819
-62.3123
-62.3122
-62.3122
-62.3122
-62.3123
-62.3124
-56.1752
-56.1752
-56.1752
-56.1751
-56.1749
-56.1748
-54.9884
-54.9884
-54.9887
-54.989
-54.9894
-54.9898
-60.6952
-60.695
-60.695
-60.6951
-60.6952
-60.6956
-54.0368
-54.0371
-54.0377
-54.0384
-54.0388
-54.0392
-55.6766
-55.6768
-55.6775
-55.6782
-55.679
-55.6799
-58.4241
-58.4238
-58.424
-58.4242
-58.4246
-58.4253
-80.1464
-80.1478
-80.1478
-80.1478
-80.1479
-80.1478
-53.4975
-53.4962
-53.4971
-53.498
-53.4989
-53.5008
-55.8641
-55.8638
-55.8645
-55.8651
-55.866
-55.8671
-44.1814
-44.1814
-44.1814
-44.1814
-44.1814
-44.1815
-53.9778
-53.9778
-53.9778
-53.9778
-53.9778
-53.9778
-63.7729
-63.7729
-63.7729
-63.7729
-63.7729
-63.7729
-44.1839
-44.1839
-44.1839
-44.1839
-44.184
-44.184
-53.9794
-53.9794
-53.9794
-53.9794
-53.9794
-53.9794
-63.7734
-63.7734
-63.7734
-63.7734
-63.7735
-63.7735
-44.1892
-44.1892
-44.1892
-44.1892
-44.1893
-44.1893
-53.9827
-53.9827
-53.9828
-53.9828
-53.9828
-53.9828
-63.7746
-63.7746
-63.7746
-63.7746
-63.7746
-63.7746
-44.1977
-44.1977
-44.1977
-44.1978
-44.1978
-44.1978
-53.9882
-53.9882
-53.9882
-53.9882
-53.9883
-53.9883
-63.7765
-63.7765
-63.7765
-63.7765
-63.7766
-63.7766
-44.2103
-44.2103
-44.2103
-44.2103
-44.2103
-44.2104
-53.9963
-53.9963
-53.9963
-53.9963
-53.9964
-53.9964
-63.7794
-63.7794
-63.7794
-63.7794
-63.7794
-63.7794
-44.2279
-44.228
-44.228
-44.228
-44.228
-44.228
-54.0079
-54.0079
-54.0079
-54.0079
-54.0079
-54.008
-63.7833
-63.7833
-63.7833
-63.7833
-63.7833
-63.7833
-44.2527
-44.2527
-44.2527
-44.2527
-44.2527
-44.2527
-54.0247
-54.0247
-54.0247
-54.0247
-54.0247
-54.0247
-63.7886
-63.7886
-63.7886
-63.7886
-63.7886
-63.7886
-44.2887
-44.2887
-44.2887
-44.2887
-44.2887
-44.2887
-54.0496
-54.0496
-54.0496
-54.0496
-54.0496
-54.0496
-63.7951
-63.7951
-63.7951
-63.7951
-63.7951
-63.7951
-44.3481
-44.3481
-44.3481
-44.3481
-44.3481
-44.3481
-54.0875
-54.0875
-54.0875
-54.0874
-54.0874
-54.0874
-63.8008
-63.8008
-63.8008
-63.8008
-63.8008
-63.8008
-44.4623
-44.4622
-44.4622
-44.4622
-44.4622
-44.4622
-54.1433
-54.1433
-54.1433
-54.1433
-54.1433
-54.1433
-63.8012
-63.8012
-63.8012
-63.8012
-63.8012
-63.8012
-44.6868
-44.6868
-44.6868
-44.6868
-44.6868
-44.6868
-54.2062
-54.2062
-54.2062
-54.2062
-54.2062
-54.2062
-63.7816
-63.7816
-63.7816
-63.7816
-63.7816
-63.7816
-45.2818
-45.2818
-45.2818
-45.2819
-45.2819
-45.2819
-54.2583
-54.2583
-54.2583
-54.2584
-54.2584
-54.2584
-63.7164
-63.7164
-63.7165
-63.7165
-63.7165
-63.7165
)
;

boundaryField
{
    seabed_topleft_surface
    {
        type            calculated;
        value           nonuniform List<scalar> 
72
(
37291.1
37291.1
37291.1
37291.1
37291.1
37291.1
36160.6
36160.6
36160.6
36160.6
36160.6
36160.6
32771.7
32771.8
32771.8
32771.8
32771.8
32771.7
28536.5
28536.5
28536.5
28536.5
28536.5
28536.5
23763
23763
23763
23763
23763
23763
19176.3
19176.3
19176.4
19176.4
19176.4
19176.4
14372.7
14372.7
14372.7
14372.7
14372.7
14372.7
9805.42
9805.25
9805.25
9805.29
9805.31
9805.35
8274.52
8274.39
8274.39
8274.42
8274.43
8274.47
7706.17
7706.04
7706.07
7706.12
7706.12
7706.11
8721.2
8721.44
8721.49
8721.53
8721.46
8721.29
8167.17
8167.27
8167.33
8167.35
8167.33
8167.29
)
;
    }
    seabed_topright_surface
    {
        type            calculated;
        value           nonuniform List<scalar> 
72
(
-0.0676328
-0.0675796
-0.0675597
-0.0675563
-0.0675603
-0.0675649
-0.0714484
-0.0714053
-0.0713928
-0.071396
-0.0714091
-0.0714286
-0.0794189
-0.079377
-0.0793663
-0.079373
-0.0793911
-0.0794144
-0.0917992
-0.0917638
-0.0917564
-0.0917686
-0.0917922
-0.0918196
-0.108957
-0.108938
-0.108939
-0.108957
-0.108985
-0.109014
-0.131203
-0.131207
-0.131218
-0.131238
-0.131264
-0.131288
-0.158581
-0.158606
-0.158623
-0.158637
-0.158652
-0.158665
-0.191286
-0.191327
-0.191341
-0.191345
-0.191345
-0.19134
-0.22934
-0.229389
-0.229398
-0.229391
-0.229377
-0.229358
-0.271264
-0.271306
-0.271312
-0.2713
-0.271278
-0.27125
-0.312974
-0.313014
-0.313014
-0.312996
-0.312969
-0.312934
-0.346737
-0.34675
-0.346734
-0.346704
-0.346664
-0.346624
)
;
    }
    breakwater_top_surface
    {
        type            calculated;
        value           nonuniform List<scalar> 
36
(
-41.3169
-41.3169
-41.317
-41.3172
-41.3173
-41.3174
-42.4359
-42.436
-42.4362
-42.4366
-42.4371
-42.4374
-41.8595
-41.8596
-41.8598
-41.86
-41.8603
-41.8605
-51.2702
-51.2702
-51.2702
-51.2701
-51.2699
-51.2698
-49.1316
-49.1319
-49.1326
-49.1332
-49.1336
-49.1341
-75.0517
-75.0531
-75.053
-75.0531
-75.0532
-75.0531
)
;
    }
    breakwater_left_surface
    {
        type            calculated;
        value           nonuniform List<scalar> 
24
(
7980.45
7980.55
7980.61
7980.63
7980.61
7980.57
2592.54
2592.65
2592.69
2592.71
2592.71
2592.56
57.0677
57.0664
57.0716
57.0854
57.1087
57.0498
-94.6575
-94.663
-94.6631
-94.6647
-94.6668
-94.6765
)
;
    }
    breakwater_right_surface
    {
        type            calculated;
        value           nonuniform List<scalar> 
24
(
-5.25174
-5.25175
-5.25173
-5.2517
-5.25166
-5.25162
-15.1198
-15.1198
-15.1198
-15.1197
-15.1197
-15.1196
-24.9509
-24.9509
-24.9508
-24.9508
-24.9507
-24.9507
-34.9135
-34.9135
-34.9135
-34.9134
-34.9134
-34.9133
)
;
    }
    water_front_surface
    {
        type            calculated;
        value           nonuniform List<scalar> 
186
(
32369.3
31238.7
27849.9
23614.8
18842.2
14277.7
9702.06
5495.03
4204.37
3781.29
7102.16
7979.81
22523.4
20528.4
16367
11311.4
5438.23
2811.3
1152.91
63.5761
-102.516
18.5407
104.359
2591.82
13191.8
9781.58
5037.57
1773.98
96.2951
-45.6469
-40.8734
-35.1353
-72.7132
-96.7908
-102.385
56.8424
5442.95
2336.5
219.665
-14.7413
-11.7354
-27.4859
-43.4116
-57.6102
-96.1353
-124.748
-161.892
-94.6744
-4.98949
-4.9933
-5.00127
-5.01365
-5.03081
-5.05306
-5.08044
-5.11314
-5.1512
-5.19312
-5.23483
-5.26859
-14.7957
-14.7995
-14.8074
-14.8198
-14.8374
-14.8608
-14.8914
-14.9299
-14.976
-15.0276
-15.0837
-15.1363
-24.5988
-24.6024
-24.6099
-24.6218
-24.6387
-24.6614
-24.6899
-24.7248
-24.7698
-24.829
-24.8951
-24.9671
-34.3991
-34.4022
-34.409
-34.4197
-34.4355
-34.4578
-34.4897
-34.5343
-34.5937
-34.6696
-34.7721
-34.9294
111.525
515.96
-69.8497
65.309
91.7051
-44.9296
19.7147
3.44866
-51.4591
-6.55769
-23.765
-54.4068
-27.86
-42.0906
-62.2905
-41.818
-51.2003
-64.9295
-52.1093
-58.7821
-66.7043
-64.6863
-65.4113
-67.4106
-88.802
-74.4055
-67.2387
-115.092
-82.205
-65.7241
-137.824
-85.9801
-62.6478
-63.1351
-41.8341
-52.3897
-46.2219
-54.3402
-63.5045
-47.3409
-54.348
-63.1153
-46.7645
-54.1812
-62.3123
-56.1752
-54.9884
-60.6952
-54.0368
-55.6766
-58.4241
-80.1464
-53.4975
-55.8641
-44.1814
-53.9778
-63.7729
-44.1839
-53.9794
-63.7734
-44.1892
-53.9827
-63.7746
-44.1977
-53.9882
-63.7765
-44.2103
-53.9963
-63.7794
-44.2279
-54.0079
-63.7833
-44.2527
-54.0247
-63.7886
-44.2887
-54.0496
-63.7951
-44.3481
-54.0875
-63.8008
-44.4623
-54.1433
-63.8012
-44.6868
-54.2062
-63.7816
-45.2818
-54.2583
-63.7164
)
;
    }
    water_back_surface
    {
        type            calculated;
        value           nonuniform List<scalar> 
186
(
32369.2
31238.7
27849.9
23614.8
18842.2
14277.8
9702.1
5495.01
4204.36
3781.26
7102.16
7979.92
22523.5
20528.4
16367
11311.5
5438.36
2811.32
1152.89
63.5834
-102.505
18.5401
104.385
2591.84
13191.8
9781.65
5037.72
1774.1
96.3286
-45.6402
-40.8712
-35.1337
-72.7123
-96.7859
-102.374
56.8245
5442.99
2336.55
219.69
-14.7389
-11.7343
-27.4841
-43.4092
-57.6086
-96.1365
-124.756
-161.91
-94.6934
-4.98942
-4.99328
-5.00127
-5.01368
-5.03087
-5.05314
-5.08052
-5.1132
-5.15121
-5.19311
-5.23479
-5.26848
-14.7957
-14.7995
-14.8075
-14.8199
-14.8375
-14.8609
-14.8915
-14.93
-14.976
-15.0275
-15.0836
-15.1361
-24.5988
-24.6024
-24.61
-24.6219
-24.6389
-24.6615
-24.69
-24.7249
-24.7698
-24.8289
-24.895
-24.9668
-34.3991
-34.4023
-34.409
-34.4198
-34.4356
-34.4579
-34.4897
-34.5344
-34.5937
-34.6695
-34.7719
-34.9292
111.525
515.865
-69.8743
65.3063
91.6975
-44.9337
19.7137
3.44716
-51.461
-6.55724
-23.7645
-54.4074
-27.8594
-42.0898
-62.2907
-41.8155
-51.1988
-64.9295
-52.1062
-58.7806
-66.705
-64.6854
-65.4115
-67.4112
-88.8057
-74.4087
-67.2389
-115.096
-82.2137
-65.7253
-137.841
-85.9882
-62.6509
-63.1357
-41.8328
-52.3952
-46.2224
-54.3404
-63.5045
-47.3424
-54.3484
-63.1154
-46.7655
-54.1819
-62.3124
-56.1748
-54.9898
-60.6956
-54.0392
-55.6799
-58.4253
-80.1478
-53.5008
-55.8671
-44.1815
-53.9778
-63.7729
-44.184
-53.9794
-63.7735
-44.1893
-53.9828
-63.7746
-44.1978
-53.9883
-63.7766
-44.2104
-53.9964
-63.7794
-44.228
-54.008
-63.7833
-44.2527
-54.0247
-63.7886
-44.2887
-54.0496
-63.7951
-44.3481
-54.0874
-63.8008
-44.4622
-54.1433
-63.8012
-44.6868
-54.2062
-63.7816
-45.2819
-54.2584
-63.7165
)
;
    }
    water_left_surface
    {
        type            calculated;
        value           nonuniform List<scalar> 
42
(
32386.1
32386.1
32386.1
32386.1
32386.1
32386.1
22539.9
22540
22540
22540
22540
22540
13208
13208
13208
13208
13208
13208
5458.81
5458.82
5458.82
5458.83
5458.83
5458.85
111.525
111.532
111.531
111.528
111.525
111.525
515.96
515.939
515.923
515.945
515.944
515.865
-69.8497
-69.8536
-69.8575
-69.8572
-69.8613
-69.8743
)
;
    }
    water_right_surface
    {
        type            calculated;
        value           nonuniform List<scalar> 
42
(
-4.97263
-4.97258
-4.97256
-4.97256
-4.97256
-4.97256
-14.7792
-14.7791
-14.7791
-14.7791
-14.7791
-14.7792
-24.5826
-24.5826
-24.5826
-24.5826
-24.5826
-24.5826
-34.3832
-34.3832
-34.3832
-34.3832
-34.3832
-34.3832
-44.1814
-44.1814
-44.1814
-44.1814
-44.1814
-44.1815
-53.9778
-53.9778
-53.9778
-53.9778
-53.9778
-53.9778
-63.7729
-63.7729
-63.7729
-63.7729
-63.7729
-63.7729
)
;
    }
    water_top_surface
    {
        type            calculated;
        value           nonuniform List<scalar> 
180
(
-68.67
-68.67
-68.67
-68.67
-68.67
-68.67
-109.782
-109.783
-109.782
-109.782
-109.782
-109.78
-81.8539
-81.8541
-81.8549
-81.8561
-81.8568
-81.8566
-73.8498
-73.8503
-73.8506
-73.851
-73.8511
-73.8509
-74.5153
-74.5158
-74.5159
-74.516
-74.5162
-74.516
-72.8201
-72.8198
-72.8198
-72.82
-72.8206
-72.8212
-72.2788
-72.2783
-72.2786
-72.2792
-72.28
-72.2809
-70.5898
-70.5895
-70.5896
-70.5898
-70.59
-70.5903
-69.1346
-69.1344
-69.1343
-69.1342
-69.1339
-69.134
-68.67
-68.67
-68.67
-68.67
-68.67
-68.67
-68.6757
-68.6757
-68.6757
-68.6757
-68.6757
-68.6757
-68.6808
-68.6808
-68.6808
-68.6808
-68.6808
-68.6808
-68.67
-68.67
-68.67
-68.67
-68.67
-68.67
-68.67
-68.67
-68.67
-68.67
-68.67
-68.67
-68.67
-68.67
-68.67
-68.67
-68.67
-68.67
-68.67
-68.67
-68.67
-68.67
-68.67
-68.67
-68.6727
-68.6727
-68.6727
-68.6727
-68.6727
-68.6727
-68.676
-68.676
-68.676
-68.676
-68.676
-68.676
-68.67
-68.67
-68.67
-68.67
-68.67
-68.67
-68.67
-68.67
-68.67
-68.67
-68.67
-68.67
-68.67
-68.67
-68.67
-68.67
-68.67
-68.67
-68.67
-68.67
-68.67
-68.67
-68.67
-68.67
-68.67
-68.67
-68.67
-68.67
-68.67
-68.67
-68.67
-68.67
-68.67
-68.67
-68.67
-68.67
-68.67
-68.67
-68.67
-68.67
-68.67
-68.67
-68.67
-68.67
-68.67
-68.67
-68.67
-68.67
-68.67
-68.67
-68.67
-68.67
-68.67
-68.67
-68.67
-68.67
-68.67
-68.67
-68.67
-68.67
-68.67
-68.67
-68.67
-68.67
-68.67
-68.67
-68.67
-68.67
-68.67
-68.67
-68.67
-68.67
)
;
    }
}


// ************************************************************************* //
