/*--------------------------------*- C++ -*----------------------------------*\
| =========                 |                                                 |
| \\      /  F ield         | OpenFOAM: The Open Source CFD Toolbox           |
|  \\    /   O peration     | Version:  v1612+                                |
|   \\  /    A nd           | Web:      www.OpenFOAM.com                      |
|    \\/     M anipulation  |                                                 |
\*---------------------------------------------------------------------------*/
FoamFile
{
    version     2.0;
    format      ascii;
    class       volVectorField;
    location    "1.6";
    object      U;
}
// * * * * * * * * * * * * * * * * * * * * * * * * * * * * * * * * * * * * * //

dimensions      [0 1 -1 0 0 0 0];

internalField   nonuniform List<vector> 
1116
(
(0.460288 -3.38273e-07 -0.447631)
(0.460289 -4.08224e-07 -0.447633)
(0.460289 -1.5124e-07 -0.447633)
(0.460289 1.50925e-07 -0.447633)
(0.46029 6.68445e-07 -0.447633)
(0.460288 5.66991e-07 -0.447631)
(1.36422 -2.34135e-07 -0.590436)
(1.36423 -3.16792e-07 -0.59044)
(1.36423 8.30804e-07 -0.590439)
(1.36423 8.7229e-08 -0.590438)
(1.36423 1.14966e-06 -0.590438)
(1.36422 7.62118e-07 -0.590433)
(2.45658 -3.19923e-07 -0.581081)
(2.45659 1.50735e-06 -0.581085)
(2.45658 1.2012e-06 -0.581082)
(2.45658 -1.32562e-06 -0.581081)
(2.45658 -4.66155e-07 -0.581082)
(2.45657 8.41965e-07 -0.581076)
(3.52358 -4.10643e-06 -0.579991)
(3.5236 -7.04412e-07 -0.579996)
(3.52359 -1.29205e-06 -0.579991)
(3.52359 -5.76063e-06 -0.57999)
(3.52359 -5.52661e-06 -0.579994)
(3.52357 -7.5703e-07 -0.579994)
(4.5265 -1.3459e-05 -0.497016)
(4.52651 -1.27128e-05 -0.49703)
(4.5265 -9.41679e-06 -0.497025)
(4.5265 -1.24486e-05 -0.497026)
(4.5265 -1.13627e-05 -0.497034)
(4.52647 -2.60569e-06 -0.497041)
(5.61183 -2.35122e-05 -0.506061)
(5.61184 -2.48818e-05 -0.506111)
(5.61184 -1.36798e-05 -0.506108)
(5.61183 -1.54619e-05 -0.506108)
(5.61184 -1.12778e-05 -0.506116)
(5.61181 -1.59405e-06 -0.506123)
(6.76969 -2.72448e-05 -0.459674)
(6.76972 -2.97254e-05 -0.459745)
(6.76972 -1.47862e-05 -0.459747)
(6.76972 -1.42852e-05 -0.459744)
(6.76972 -7.361e-06 -0.459746)
(6.7697 -1.97528e-07 -0.459747)
(7.62745 -1.74438e-05 -0.61374)
(7.62753 -2.08354e-05 -0.613804)
(7.62753 -1.2622e-05 -0.613804)
(7.62754 -8.89625e-06 -0.613799)
(7.62754 -2.80797e-06 -0.613799)
(7.62752 -1.18819e-06 -0.613794)
(8.31779 -4.97729e-07 -0.986988)
(8.31788 -5.90444e-06 -0.987026)
(8.31788 -1.14464e-05 -0.987021)
(8.31789 -7.36838e-06 -0.987016)
(8.3179 -7.85344e-06 -0.987023)
(8.31787 -7.63176e-06 -0.987008)
(9.29063 -1.57233e-05 -1.37832)
(9.29075 -2.19076e-05 -1.37835)
(9.29074 -1.75559e-05 -1.37834)
(9.29074 -1.83245e-05 -1.37833)
(9.29077 -1.10857e-05 -1.37835)
(9.29073 -2.31795e-07 -1.3783)
(9.20822 -4.40729e-05 -1.09383)
(9.20847 -4.782e-05 -1.09392)
(9.20846 -2.42334e-05 -1.0939)
(9.20848 -2.81896e-05 -1.09391)
(9.20853 2.46383e-06 -1.09393)
(9.20842 2.39417e-05 -1.09385)
(6.99855 -0.000233623 1.67713)
(6.99899 -0.000330684 1.6769)
(6.999 -0.000152841 1.67689)
(6.99902 -1.65476e-05 1.67689)
(6.99903 0.000158024 1.67684)
(6.9989 0.000136602 1.67688)
(0.549947 6.57471e-08 -1.32597)
(0.549949 1.21953e-06 -1.32597)
(0.549946 8.77268e-07 -1.32597)
(0.549944 -2.53357e-07 -1.32597)
(0.549944 1.43159e-07 -1.32597)
(0.549941 4.33941e-07 -1.32596)
(1.48699 -1.50189e-06 -1.63394)
(1.487 5.45686e-06 -1.63395)
(1.487 -4.11952e-07 -1.63394)
(1.48699 6.88282e-08 -1.63394)
(1.48699 -2.6439e-06 -1.63394)
(1.48698 4.56055e-06 -1.63393)
(2.38787 -1.7443e-06 -1.50811)
(2.3879 5.53004e-06 -1.50812)
(2.38789 -2.07111e-06 -1.50811)
(2.38789 -2.59515e-06 -1.50811)
(2.38788 -5.96713e-06 -1.50811)
(2.38787 4.05732e-06 -1.5081)
(3.41824 -3.52851e-06 -1.66344)
(3.41828 -2.48299e-06 -1.66346)
(3.41828 -6.71345e-07 -1.66344)
(3.41827 -2.12716e-06 -1.66344)
(3.41826 -1.59928e-06 -1.66345)
(3.41823 1.80187e-06 -1.66344)
(4.50425 -6.76167e-06 -1.75816)
(4.50431 -1.97073e-05 -1.75822)
(4.5043 -5.77245e-06 -1.7582)
(4.50429 -6.32648e-06 -1.7582)
(4.50429 -5.75807e-06 -1.75822)
(4.50425 -9.59353e-06 -1.75822)
(5.54304 9.65923e-06 -2.08019)
(5.54315 -9.48429e-06 -2.08031)
(5.54314 1.12052e-05 -2.0803)
(5.54313 3.06233e-06 -2.08029)
(5.54313 8.34297e-06 -2.0803)
(5.54309 -1.13633e-05 -2.0803)
(6.9425 4.40746e-05 -1.88245)
(6.94268 1.29678e-05 -1.88261)
(6.94265 1.0678e-05 -1.88263)
(6.94264 -2.62296e-06 -1.88262)
(6.94265 7.68871e-06 -1.88263)
(6.94258 -2.15291e-05 -1.88262)
(8.88431 8.02511e-05 -1.31013)
(8.88458 3.67535e-05 -1.31024)
(8.8845 -3.69712e-06 -1.31027)
(8.88449 -2.18549e-05 -1.31028)
(8.88451 -1.04969e-05 -1.31028)
(8.8844 -3.94068e-05 -1.31027)
(11.0338 8.70314e-05 -2.03353)
(11.0343 2.1979e-05 -2.03353)
(11.0341 1.03729e-06 -2.03357)
(11.034 5.5723e-05 -2.03358)
(11.0342 7.2167e-05 -2.03359)
(11.034 -2.29995e-05 -2.0336)
(14.8927 0.000282019 0.311741)
(14.8932 0.000308699 0.311817)
(14.8931 0.000146166 0.311777)
(14.893 3.79538e-06 0.311676)
(14.8932 -7.76763e-05 0.311534)
(14.8933 -0.00017422 0.311505)
(14.1658 9.07712e-05 3.49737)
(14.1663 0.000118481 3.49704)
(14.1662 -8.4457e-05 3.49703)
(14.1663 -0.00031019 3.49699)
(14.167 -0.00039824 3.49692)
(14.1662 -0.00022552 3.49713)
(11.7086 -0.000237596 9.44386)
(11.71 -0.000351582 9.44315)
(11.71 -0.000174817 9.44309)
(11.7101 -9.99649e-05 9.44311)
(11.7105 0.000258211 9.44326)
(11.7096 0.0003467 9.44403)
(0.523481 3.16085e-06 -2.47772)
(0.523488 4.67124e-06 -2.47773)
(0.523486 2.3564e-06 -2.47773)
(0.523486 4.78887e-07 -2.47772)
(0.523486 2.10615e-07 -2.47772)
(0.523487 7.17659e-07 -2.47771)
(1.3793 -6.53047e-06 -2.43682)
(1.37932 9.60593e-06 -2.43685)
(1.37932 -4.9866e-06 -2.43684)
(1.37932 3.10394e-06 -2.43684)
(1.37931 -1.30909e-05 -2.43684)
(1.37932 5.72517e-06 -2.43682)
(2.30512 -4.47863e-06 -2.4799)
(2.30516 -1.69826e-05 -2.47992)
(2.30516 -8.21685e-06 -2.4799)
(2.30515 -8.10727e-06 -2.4799)
(2.30515 -1.26625e-05 -2.47991)
(2.30512 -1.31327e-05 -2.47988)
(3.40452 4.91023e-06 -3.11052)
(3.40456 -2.56064e-05 -3.11057)
(3.40456 1.28278e-05 -3.11054)
(3.40456 2.07984e-06 -3.11054)
(3.40456 5.6323e-06 -3.11054)
(3.40454 -2.49162e-05 -3.11051)
(5.33991 4.00481e-05 -2.65804)
(5.33992 1.42242e-05 -2.65818)
(5.33989 6.83168e-05 -2.65819)
(5.33991 3.39898e-05 -2.65817)
(5.33992 3.20489e-05 -2.65817)
(5.33986 -3.28733e-05 -2.65821)
(6.23055 7.53853e-05 -3.0233)
(6.23062 4.28886e-05 -3.02345)
(6.23063 0.000105285 -3.02344)
(6.23067 6.05223e-05 -3.02339)
(6.23069 5.95851e-05 -3.02337)
(6.23056 -3.50444e-05 -3.02337)
(7.63724 6.38918e-05 -3.73383)
(7.63728 5.24454e-05 -3.73378)
(7.63726 0.000125461 -3.73379)
(7.63733 3.75074e-05 -3.73376)
(7.63737 1.45984e-05 -3.73374)
(7.63717 -7.71718e-05 -3.73377)
(8.27125 7.10213e-05 -2.71921)
(8.27138 4.08027e-06 -2.71893)
(8.27133 -4.31091e-05 -2.71895)
(8.2714 -4.39386e-05 -2.71902)
(8.27158 -4.85831e-05 -2.71909)
(8.27125 -0.000115548 -2.71916)
(6.22945 0.000169144 -5.38483)
(6.22994 0.000197195 -5.38476)
(6.2297 0.000122013 -5.38482)
(6.22976 0.000312547 -5.38492)
(6.23032 0.000281851 -5.38509)
(6.23 2.48534e-05 -5.38505)
(8.84657 -4.32901e-05 -0.25079)
(8.84683 2.27598e-05 -0.250209)
(8.84666 0.000254731 -0.249857)
(8.84677 0.000684676 -0.24993)
(8.84739 0.000626305 -0.250641)
(8.84806 0.000157457 -0.250543)
(4.16813 2.51523e-05 8.48931)
(4.16766 -6.89338e-05 8.4894)
(4.16678 -0.000467697 8.48981)
(4.16714 -0.000852692 8.48953)
(4.17048 -0.000795274 8.48817)
(4.16868 -0.00026185 8.48821)
(11.3385 4.79022e-07 19.6544)
(11.3393 -0.000101548 19.6536)
(11.3392 -0.000261263 19.6537)
(11.3393 -0.000513821 19.6537)
(11.3396 -0.000178572 19.6538)
(11.3381 0.000249301 19.6554)
(0.0631587 1.09967e-06 -3.15545)
(0.0631695 2.54023e-06 -3.15547)
(0.063177 3.96161e-06 -3.15546)
(0.063178 1.09945e-06 -3.15546)
(0.0631744 -8.94192e-07 -3.15546)
(0.0631838 -4.00338e-07 -3.15546)
(0.510983 2.09275e-05 -3.19604)
(0.510982 -2.75987e-05 -3.19608)
(0.510987 1.12506e-05 -3.19607)
(0.510986 -1.0136e-05 -3.19606)
(0.510981 9.7772e-06 -3.19607)
(0.51101 -4.20372e-05 -3.19604)
(3.07708 7.10899e-06 -3.67806)
(3.07706 -7.1693e-05 -3.67814)
(3.07704 2.60161e-05 -3.67815)
(3.07703 -1.40887e-05 -3.67813)
(3.07705 2.89939e-05 -3.67813)
(3.07698 -6.12488e-05 -3.67817)
(3.05307 2.40611e-05 -4.32675)
(3.05301 -4.71711e-05 -4.32685)
(3.05302 5.43828e-05 -4.32682)
(3.05303 -5.48027e-07 -4.32678)
(3.05309 4.77346e-05 -4.32675)
(3.05313 -5.36769e-05 -4.3268)
(3.36766 0.000121975 -2.58115)
(3.36763 0.000164524 -2.58129)
(3.36768 0.000209064 -2.58138)
(3.36777 0.000108193 -2.58132)
(3.36784 0.000106922 -2.5813)
(3.36783 -3.85859e-06 -2.58148)
(1.40601 7.14123e-05 -3.57324)
(1.40638 7.13493e-05 -3.57332)
(1.40663 8.33897e-05 -3.57323)
(1.40674 5.02561e-05 -3.57314)
(1.40678 5.10858e-05 -3.57311)
(1.40671 -5.21629e-06 -3.57306)
(-0.208934 -7.41996e-05 -2.65401)
(-0.20882 -8.94566e-05 -2.6539)
(-0.20878 -7.19889e-05 -2.65379)
(-0.208678 9.81094e-06 -2.65372)
(-0.208428 3.5372e-05 -2.65385)
(-0.208228 -4.67263e-06 -2.65411)
(0.361649 -2.0306e-05 -3.14833)
(0.361484 1.09348e-05 -3.14806)
(0.361542 1.24291e-06 -3.14812)
(0.361631 9.1762e-05 -3.14822)
(0.361933 6.40129e-06 -3.14846)
(0.362051 -8.91545e-05 -3.1488)
(0.382074 0.000114741 -2.88737)
(0.381817 0.000150202 -2.88716)
(0.381679 8.89783e-05 -2.88727)
(0.381797 0.000275311 -2.88735)
(0.38229 8.5993e-05 -2.88754)
(0.382136 -0.00011559 -2.88769)
(2.14758 9.87411e-05 1.55094)
(2.14775 0.000112588 1.55126)
(2.14768 0.000141779 1.55158)
(2.14794 0.000564918 1.55167)
(2.14846 0.000413705 1.55096)
(2.14854 3.3939e-05 1.5522)
(1.16515 0.000136803 10.8872)
(1.16503 0.000215169 10.8874)
(1.16474 8.43393e-05 10.8879)
(1.16489 0.000100172 10.8874)
(1.1658 0.000231972 10.8848)
(1.16589 0.000227861 10.8878)
(7.77996 0.000171484 21.7063)
(7.78058 0.000148722 21.7062)
(7.78023 -0.000158139 21.7059)
(7.78016 -0.00049812 21.7059)
(7.78051 -0.00017362 21.7062)
(7.77856 0.000279225 21.7072)
(0.000914523 -4.15653e-07 0.000928354)
(0.000914544 -4.64547e-07 0.00092847)
(0.000914515 -8.55972e-08 0.000928494)
(0.000914492 1.72796e-08 0.000928522)
(0.000914465 1.07758e-07 0.000928545)
(0.000914357 5.47267e-08 0.000928528)
(0.00277569 -3.24692e-07 0.000961415)
(0.00277584 -2.89968e-07 0.000961509)
(0.00277578 3.52254e-08 0.000961523)
(0.00277575 1.34511e-07 0.00096154)
(0.00277571 2.6652e-07 0.000961554)
(0.00277546 1.67282e-07 0.000961523)
(0.00473138 -2.91164e-07 0.00102347)
(0.00473171 -1.76016e-07 0.00102357)
(0.00473162 1.42087e-07 0.00102357)
(0.0047316 2.0296e-07 0.00102359)
(0.00473157 3.34044e-07 0.00102362)
(0.00473121 1.94883e-07 0.0010236)
(0.00683535 -2.58877e-07 0.00110685)
(0.00683579 -2.03118e-08 0.00110698)
(0.00683565 2.82258e-07 0.00110699)
(0.00683562 2.77496e-07 0.00110704)
(0.00683558 4.07677e-07 0.00110707)
(0.00683506 2.13486e-07 0.00110707)
(0.0091242 -1.57238e-07 0.00120171)
(0.00912469 2.32357e-07 0.00120198)
(0.00912452 4.89821e-07 0.00120203)
(0.00912445 3.61021e-07 0.00120211)
(0.00912445 4.47819e-07 0.00120217)
(0.00912378 2.29565e-07 0.00120217)
(0.0116125 4.45295e-08 0.00130409)
(0.011613 5.77824e-07 0.00130463)
(0.0116129 6.78772e-07 0.00130476)
(0.0116129 3.50707e-07 0.00130486)
(0.011613 3.41194e-07 0.00130489)
(0.0116123 1.8116e-07 0.00130483)
(0.0142583 3.27359e-07 0.0014675)
(0.0142589 8.69989e-07 0.00146844)
(0.014259 6.05218e-07 0.00146867)
(0.0142591 5.03374e-08 0.00146874)
(0.0142595 -8.91317e-08 0.00146866)
(0.0142589 -2.94234e-08 0.0014684)
(0.0168274 6.66177e-07 0.00182666)
(0.0168281 1.09489e-06 0.00182808)
(0.0168283 3.18737e-07 0.00182837)
(0.0168287 -4.81304e-07 0.00182831)
(0.0168294 -7.83208e-07 0.00182798)
(0.0168291 -3.6248e-07 0.00182737)
(0.0187488 9.95389e-07 0.00240985)
(0.0187498 1.20976e-06 0.00241168)
(0.0187503 -1.76276e-07 0.00241199)
(0.018751 -1.14489e-06 0.00241177)
(0.0187521 -1.60202e-06 0.00241118)
(0.0187522 -8.02147e-07 0.00241023)
(0.0185603 7.03142e-07 0.00272234)
(0.0185617 4.12797e-07 0.0027244)
(0.0185625 -1.09333e-06 0.00272463)
(0.0185635 -1.91638e-06 0.00272413)
(0.0185649 -2.3095e-06 0.00272313)
(0.0185657 -1.14918e-06 0.00272167)
(0.0164917 -1.26459e-07 0.00151365)
(0.0164933 -1.08743e-06 0.00151295)
(0.0164941 -2.21797e-06 0.00151239)
(0.016495 -2.72359e-06 0.0015115)
(0.0164965 -2.88113e-06 0.00151021)
(0.0164981 -1.43802e-06 0.0015084)
(0.00809727 -9.62824e-07 -0.0015408)
(0.00809834 -1.76638e-06 -0.00154296)
(0.00809868 -1.62068e-06 -0.00154357)
(0.00809902 -1.24368e-06 -0.00154405)
(0.00809966 -7.56941e-07 -0.00154455)
(0.00810051 -1.59581e-07 -0.0015451)
(0.000903375 -2.95581e-07 0.00272116)
(0.000903405 -3.05498e-07 0.00272143)
(0.000903379 2.83298e-08 0.00272147)
(0.00090336 1.26846e-07 0.00272151)
(0.000903339 2.66739e-07 0.00272155)
(0.000903239 1.4781e-07 0.0027214)
(0.00274699 -2.15075e-07 0.00282355)
(0.00274715 -1.43318e-07 0.00282379)
(0.0027471 1.41111e-07 0.00282381)
(0.00274708 2.28579e-07 0.00282383)
(0.00274705 4.04341e-07 0.00282385)
(0.00274682 2.46231e-07 0.00282368)
(0.00469868 -1.82123e-07 0.00301761)
(0.00469901 -5.01699e-08 0.00301787)
(0.00469896 2.17712e-07 0.00301788)
(0.00469895 2.74124e-07 0.00301791)
(0.00469894 4.46281e-07 0.00301794)
(0.0046986 2.58772e-07 0.00301779)
(0.00681681 -1.46121e-07 0.00327642)
(0.00681723 5.26415e-08 0.00327678)
(0.00681715 2.93615e-07 0.0032768)
(0.00681713 2.98142e-07 0.00327689)
(0.00681713 4.68838e-07 0.00327695)
(0.00681662 2.65709e-07 0.00327683)
(0.00912649 -7.38042e-08 0.00354164)
(0.00912696 1.84709e-07 0.0035423)
(0.00912685 3.61624e-07 0.00354242)
(0.00912683 2.81995e-07 0.00354258)
(0.00912687 4.31639e-07 0.00354267)
(0.00912623 2.51219e-07 0.00354255)
(0.0115582 1.89916e-08 0.0036902)
(0.0115586 3.02629e-07 0.00369143)
(0.0115585 3.52876e-07 0.00369171)
(0.0115585 1.20782e-07 0.0036919)
(0.0115587 2.25383e-07 0.00369193)
(0.0115581 1.68164e-07 0.00369161)
(0.0138928 1.64711e-07 0.00344991)
(0.0138932 3.81143e-07 0.00345198)
(0.0138932 1.97246e-07 0.00345243)
(0.0138934 -1.79138e-07 0.00345253)
(0.0138939 -1.704e-07 0.00345228)
(0.0138935 -2.44412e-08 0.00345148)
(0.0158938 3.58922e-07 0.00220929)
(0.0158939 4.61359e-07 0.00221241)
(0.0158939 -5.35725e-08 0.00221303)
(0.0158944 -5.95572e-07 0.00221288)
(0.0158953 -7.33115e-07 0.00221215)
(0.0158954 -3.1837e-07 0.00221067)
(0.0175707 4.90861e-07 -0.000863737)
(0.01757 4.65773e-07 -0.000859561)
(0.0175699 -3.73202e-07 -0.000858687)
(0.0175708 -1.02644e-06 -0.000859065)
(0.0175724 -1.33095e-06 -0.000860309)
(0.0175734 -6.8515e-07 -0.000862344)
(0.0189046 7.20738e-07 -0.00670366)
(0.0189031 4.41078e-07 -0.00669974)
(0.0189031 -1.09632e-06 -0.00669909)
(0.0189043 -2.10203e-06 -0.00669982)
(0.0189067 -2.71575e-06 -0.00670156)
(0.0189088 -1.47285e-06 -0.00670398)
(0.0190436 -4.4783e-07 -0.0144113)
(0.0190426 -1.5148e-06 -0.0144133)
(0.0190428 -2.32483e-06 -0.0144143)
(0.019044 -2.81298e-06 -0.0144159)
(0.0190468 -3.15098e-06 -0.0144185)
(0.0190505 -1.70546e-06 -0.0144221)
(0.0135367 -1.57772e-06 -0.0261772)
(0.013537 -2.45996e-06 -0.0261826)
(0.0135371 -1.4706e-06 -0.0261839)
(0.0135376 -4.95418e-07 -0.0261847)
(0.013539 2.38752e-07 -0.0261858)
(0.013541 2.89038e-07 -0.0261864)
(0.000855603 -2.37458e-07 0.00442814)
(0.00085563 -2.11935e-07 0.00442852)
(0.000855607 9.73018e-08 0.00442854)
(0.000855589 1.8326e-07 0.00442856)
(0.000855566 3.08418e-07 0.00442857)
(0.000855468 1.69119e-07 0.00442824)
(0.00261234 -1.64101e-07 0.00461438)
(0.00261249 -7.00076e-08 0.00461473)
(0.00261245 1.8977e-07 0.00461473)
(0.00261243 2.7036e-07 0.00461474)
(0.0026124 4.2975e-07 0.00461473)
(0.00261216 2.56326e-07 0.00461439)
(0.00450931 -1.2775e-07 0.00497511)
(0.0045096 4.91268e-09 0.00497551)
(0.00450956 2.36863e-07 0.0049755)
(0.00450956 2.90619e-07 0.00497553)
(0.00450955 4.42323e-07 0.00497554)
(0.00450921 2.57173e-07 0.0049752)
(0.00664903 -8.18906e-08 0.00547875)
(0.00664942 8.38613e-08 0.00547928)
(0.00664936 2.6414e-07 0.00547932)
(0.00664936 2.65098e-07 0.00547939)
(0.00664938 4.1186e-07 0.00547944)
(0.00664891 2.46388e-07 0.0054791)
(0.0091543 -3.27534e-08 0.00604917)
(0.00915476 1.4915e-07 0.00605001)
(0.00915471 2.45993e-07 0.00605015)
(0.00915473 1.62606e-07 0.00605029)
(0.00915483 3.02761e-07 0.00605036)
(0.00915426 2.05722e-07 0.00604996)
(0.0122264 2.92696e-08 0.00654741)
(0.0122269 1.7098e-07 0.00654886)
(0.0122269 1.3648e-07 0.00654912)
(0.012227 -4.49036e-08 0.00654926)
(0.0122272 6.2735e-08 0.00654923)
(0.0122267 1.0664e-07 0.00654854)
(0.0162631 1.30822e-07 0.00678202)
(0.0162634 1.86598e-07 0.00678435)
(0.0162635 -3.72925e-08 0.00678472)
(0.0162637 -2.84207e-07 0.00678468)
(0.0162642 -2.55439e-07 0.00678429)
(0.0162638 -4.95318e-08 0.006783)
(0.0215461 2.96142e-07 0.00655628)
(0.0215461 3.45806e-07 0.00655986)
(0.021546 -9.85708e-08 0.00656045)
(0.0215465 -4.50886e-07 0.00656015)
(0.0215473 -5.8207e-07 0.00655926)
(0.021547 -2.44278e-07 0.00655726)
(0.0276827 4.96292e-07 0.00558994)
(0.0276818 6.14578e-07 0.00559525)
(0.0276814 -6.62865e-08 0.00559632)
(0.0276819 -5.91785e-07 0.0055959)
(0.0276831 -9.52923e-07 0.00559448)
(0.0276829 -5.10995e-07 0.00559172)
(0.031517 -1.00327e-07 0.00336285)
(0.0315147 -2.30618e-07 0.00336849)
(0.0315139 -4.23893e-07 0.00336947)
(0.0315146 -6.55183e-07 0.00336867)
(0.0315165 -8.84152e-07 0.00336641)
(0.0315175 -4.66277e-07 0.00336233)
(0.0333359 -9.92354e-07 -0.00355596)
(0.033335 -1.60518e-06 -0.00355815)
(0.0333346 -1.167e-06 -0.00355936)
(0.0333355 -8.49715e-07 -0.00356119)
(0.0333382 -8.18534e-07 -0.00356461)
(0.0333415 -3.84439e-07 -0.00357066)
(0.017988 -2.64247e-06 -0.0118795)
(0.0179892 -2.88705e-06 -0.0118861)
(0.0179893 -3.02405e-07 -0.0118875)
(0.0179897 1.85817e-06 -0.0118886)
(0.0179911 2.99403e-06 -0.0118904)
(0.0179932 2.02489e-06 -0.0118927)
(0.000764134 -1.81923e-07 0.00597976)
(0.00076416 -1.39197e-07 0.00598025)
(0.000764141 1.26529e-07 0.00598026)
(0.000764125 1.98809e-07 0.00598027)
(0.000764105 3.04782e-07 0.00598026)
(0.000764017 1.66128e-07 0.00597981)
(0.00234631 -1.19074e-07 0.00627237)
(0.00234644 -2.07427e-08 0.00627285)
(0.00234641 2.01197e-07 0.00627284)
(0.00234639 2.68901e-07 0.00627284)
(0.00234637 4.05194e-07 0.00627282)
(0.00234616 2.41023e-07 0.00627234)
(0.00409703 -8.85073e-08 0.00685143)
(0.00409731 2.91933e-08 0.00685197)
(0.00409729 2.18417e-07 0.00685196)
(0.00409729 2.6215e-07 0.00685197)
(0.00409729 3.91223e-07 0.00685197)
(0.00409699 2.32241e-07 0.00685147)
(0.00614978 -7.7553e-08 0.00769558)
(0.00615021 4.5431e-08 0.00769624)
(0.00615021 1.93994e-07 0.00769627)
(0.00615023 1.8985e-07 0.00769632)
(0.00615027 3.24288e-07 0.00769635)
(0.00614985 2.08617e-07 0.00769581)
(0.00864391 -8.53757e-08 0.00873615)
(0.00864451 -6.44418e-09 0.00873712)
(0.00864458 9.38893e-08 0.00873722)
(0.00864466 5.04506e-08 0.00873732)
(0.00864477 1.91688e-07 0.00873737)
(0.00864427 1.5885e-07 0.00873672)
(0.0116343 -8.82558e-08 0.00978677)
(0.0116352 -1.29822e-07 0.00978823)
(0.0116354 -1.12405e-07 0.00978841)
(0.0116356 -1.43383e-07 0.00978849)
(0.0116359 6.06016e-09 0.00978846)
(0.0116353 7.48493e-08 0.0097875)
(0.0149646 -1.40486e-07 0.0104006)
(0.0149659 -3.42601e-07 0.0104027)
(0.0149662 -3.48657e-07 0.010403)
(0.0149667 -3.14138e-07 0.0104029)
(0.0149672 -1.6546e-07 0.0104026)
(0.0149666 -2.23773e-08 0.0104011)
(0.0184076 -2.96243e-07 0.00966138)
(0.0184091 -6.45605e-07 0.00966461)
(0.0184096 -5.59848e-07 0.00966507)
(0.0184102 -4.32761e-07 0.00966485)
(0.018411 -2.85536e-07 0.00966418)
(0.0184104 -1.26968e-07 0.00966225)
(0.0219519 -5.38792e-07 0.00546962)
(0.021953 -9.63869e-07 0.00547431)
(0.0219532 -6.90937e-07 0.00547527)
(0.021954 -5.32362e-07 0.00547506)
(0.0219553 -3.73562e-07 0.00547402)
(0.0219552 -1.97468e-07 0.00547159)
(0.02736 -5.54557e-07 -0.00642958)
(0.0273609 -9.38042e-07 -0.00642488)
(0.027361 -6.76495e-07 -0.00642385)
(0.0273618 -6.93541e-07 -0.00642432)
(0.0273637 -7.416e-07 -0.0064262)
(0.0273648 -4.66088e-07 -0.0064296)
(0.029917 -8.00571e-07 -0.0375911)
(0.0299221 -9.97508e-07 -0.0375959)
(0.0299238 2.89818e-07 -0.0375971)
(0.029925 1.05108e-06 -0.0375983)
(0.0299272 1.28633e-06 -0.0376011)
(0.0299305 4.76628e-07 -0.0376048)
(0.0337669 -8.84165e-07 -0.0808856)
(0.0337773 -4.39581e-07 -0.0809114)
(0.0337798 1.73717e-06 -0.0809164)
(0.0337802 3.40831e-06 -0.0809162)
(0.0337805 4.30533e-06 -0.0809143)
(0.0337799 2.18204e-06 -0.0809069)
(-1.46987 4.28551e-07 -3.00491)
(-1.46987 -3.04019e-06 -3.00493)
(-1.46986 2.67761e-06 -3.00493)
(-1.46986 2.51425e-07 -3.00492)
(-1.46987 4.43912e-06 -3.00492)
(-1.46985 1.59234e-06 -3.00494)
(-3.83541 2.19556e-05 -0.586379)
(-3.83546 2.36969e-05 -0.586374)
(-3.83542 1.10703e-05 -0.586375)
(-3.83543 1.06765e-05 -0.586381)
(-3.83544 4.22675e-05 -0.58638)
(-3.83541 3.39371e-05 -0.586364)
(-6.29027 8.9366e-05 6.37671)
(-6.29038 0.000138356 6.37743)
(-6.29034 6.39141e-05 6.37769)
(-6.29035 5.28593e-05 6.37715)
(-6.29039 0.000234839 6.37701)
(-6.29039 0.000181027 6.37877)
(-1.28946 0.000189845 -5.39373)
(-1.28951 -0.000163567 -5.39376)
(-1.28952 0.000110028 -5.39375)
(-1.2895 -4.93897e-05 -5.39372)
(-1.28949 0.000225063 -5.39367)
(-1.28955 -0.00017425 -5.39371)
(-5.47047 2.73844e-05 -4.5214)
(-5.47088 1.41149e-05 -4.52147)
(-5.47101 8.74015e-05 -4.52149)
(-5.47079 3.62969e-05 -4.52145)
(-5.47075 0.000184504 -4.52136)
(-5.47151 8.13995e-05 -4.52124)
(-6.45094 3.00497e-06 -9.06652)
(-6.45099 4.26977e-06 -9.06662)
(-6.45103 -2.08996e-05 -9.06661)
(-6.45103 -1.90799e-05 -9.06661)
(-6.45104 -2.28495e-05 -9.0667)
(-6.45116 3.10225e-06 -9.06667)
(1.80764 1.4376e-05 -4.17851)
(1.80754 -1.89792e-05 -4.1787)
(1.8075 0.000131419 -4.17875)
(1.80752 3.96651e-05 -4.17869)
(1.80762 0.000174019 -4.17864)
(1.80762 3.6568e-05 -4.17882)
(-1.50088 1.33266e-06 -2.80975)
(-1.50119 5.56673e-05 -2.80982)
(-1.50122 4.14901e-05 -2.80982)
(-1.50121 5.91221e-05 -2.80985)
(-1.50117 7.62509e-05 -2.80993)
(-1.50107 8.30884e-05 -2.8099)
(-1.44265 9.8771e-06 -5.13576)
(-1.44267 9.99894e-06 -5.13583)
(-1.44268 2.18091e-05 -5.13578)
(-1.44267 2.83853e-05 -5.13577)
(-1.44265 3.05944e-05 -5.1358)
(-1.44265 7.29341e-06 -5.13571)
(-2.90493 7.219e-05 -2.65467)
(-2.90512 0.000119833 -2.65495)
(-2.90501 0.000102313 -2.6549)
(-2.90496 7.02254e-05 -2.65486)
(-2.90486 6.81287e-05 -2.65484)
(-2.90452 4.24592e-05 -2.65487)
(-4.52529 7.60376e-05 -1.9302)
(-4.52567 8.42743e-05 -1.93021)
(-4.52565 2.01872e-05 -1.93016)
(-4.52568 1.39617e-05 -1.93014)
(-4.52569 1.4037e-05 -1.93015)
(-4.52549 2.1566e-05 -1.93013)
(-1.9232 -1.58454e-05 -3.21982)
(-1.92325 -1.97342e-05 -3.21986)
(-1.9233 -1.30547e-05 -3.21981)
(-1.92333 -9.59776e-06 -3.21979)
(-1.92333 6.52074e-06 -3.21979)
(-1.92335 1.26837e-05 -3.21969)
(-1.72418 1.55471e-05 -1.44393)
(-1.72411 -1.19945e-05 -1.44401)
(-1.72397 -1.95148e-05 -1.44395)
(-1.72389 -1.55016e-05 -1.44388)
(-1.72383 -1.04706e-05 -1.4439)
(-1.72358 -1.78196e-05 -1.44394)
(-2.01997 1.1536e-05 -2.36847)
(-2.02024 -5.47354e-06 -2.36843)
(-2.02028 -3.18231e-05 -2.36839)
(-2.02033 -1.51814e-05 -2.36833)
(-2.02037 9.0249e-06 -2.36828)
(-2.0202 1.60531e-05 -2.36825)
(-0.709303 -1.3784e-05 -3.42061)
(-0.709356 -1.71634e-05 -3.42066)
(-0.709384 -1.53878e-05 -3.42063)
(-0.709406 -2.14359e-05 -3.42061)
(-0.709423 -1.91922e-06 -3.42061)
(-0.709414 9.68871e-06 -3.42053)
(-2.66495 -6.47818e-05 -1.5767)
(-2.66534 -4.96895e-05 -1.57661)
(-2.66532 -9.91011e-06 -1.57649)
(-2.66528 2.01849e-05 -1.57637)
(-2.66524 4.66769e-05 -1.57638)
(-2.665 2.33673e-05 -1.57657)
(-1.73923 -2.78583e-05 -2.70645)
(-1.73943 -3.94035e-05 -2.70645)
(-1.73948 -3.33758e-05 -2.7064)
(-1.73952 -1.01635e-05 -2.70634)
(-1.73954 3.12193e-05 -2.70629)
(-1.73937 3.52922e-05 -2.70625)
(-0.541977 -5.00556e-06 -2.88229)
(-0.542028 -1.00989e-05 -2.88233)
(-0.542044 -9.7396e-06 -2.88231)
(-0.542062 -8.97575e-06 -2.8823)
(-0.542074 1.0545e-06 -2.88231)
(-0.542039 4.96897e-06 -2.88228)
(-1.54244 -1.21188e-05 -2.89896)
(-1.54294 4.27514e-05 -2.89887)
(-1.5428 0.000103743 -2.89881)
(-1.54269 0.000112381 -2.89877)
(-1.54257 0.000120507 -2.8988)
(-1.54218 4.87246e-05 -2.89896)
(-1.30425 -2.20986e-05 -2.74542)
(-1.30446 -2.61647e-05 -2.74535)
(-1.30447 1.13367e-05 -2.74531)
(-1.30445 2.70083e-05 -2.74531)
(-1.30444 6.33195e-05 -2.74534)
(-1.30423 4.66277e-05 -2.74541)
(-0.616866 -1.67354e-05 -2.68678)
(-0.616934 -2.44855e-05 -2.68676)
(-0.616942 -5.74147e-06 -2.68675)
(-0.616938 6.72031e-06 -2.68676)
(-0.616929 2.19992e-05 -2.68679)
(-0.616859 1.58057e-05 -2.6868)
(-2.20413 3.10308e-05 -3.50408)
(-2.20472 9.25617e-05 -3.50386)
(-2.20449 0.00012221 -3.50389)
(-2.20435 0.000145008 -3.50393)
(-2.20419 9.13951e-05 -3.50396)
(-2.20381 1.15381e-05 -3.5043)
(-1.89495 -2.45794e-05 -2.40374)
(-1.89532 -1.1695e-05 -2.40352)
(-1.8953 3.46415e-05 -2.40352)
(-1.89527 2.20735e-05 -2.40356)
(-1.89528 6.1121e-05 -2.40363)
(-1.89489 5.92652e-05 -2.40384)
(-0.771393 -2.79297e-05 -1.95735)
(-0.771523 -4.00074e-05 -1.95721)
(-0.771544 -1.22661e-05 -1.95719)
(-0.771551 -3.18829e-06 -1.95721)
(-0.771562 2.8126e-05 -1.95723)
(-0.771444 2.98604e-05 -1.95734)
(-3.08172 0.000120028 -3.36469)
(-3.08217 0.00016531 -3.36434)
(-3.08195 8.29241e-05 -3.36444)
(-3.0818 0.000171839 -3.3644)
(-3.08151 2.91216e-05 -3.36432)
(-3.08134 -9.33871e-05 -3.36468)
(-3.26566 1.44922e-05 -2.19105)
(-3.26606 1.32957e-05 -2.19073)
(-3.26599 -1.5226e-05 -2.19077)
(-3.26599 -4.48474e-05 -2.19076)
(-3.26608 -3.43814e-05 -2.19065)
(-3.26564 -4.29126e-06 -2.19113)
(-1.35635 -3.16287e-05 -0.960237)
(-1.35656 -5.36387e-05 -0.959994)
(-1.35659 -4.32317e-05 -0.959977)
(-1.35662 -6.8596e-05 -0.95998)
(-1.35669 -5.38179e-06 -0.959964)
(-1.35647 4.05254e-05 -0.960197)
(-3.43448 0.000170897 0.59752)
(-3.43447 0.000224204 0.598052)
(-3.43436 0.000110072 0.598069)
(-3.43411 0.000370215 0.598246)
(-3.43361 8.69707e-07 0.598041)
(-3.43366 -0.000275934 0.59893)
(-4.82308 8.14943e-05 0.136068)
(-4.82326 8.60443e-05 0.136655)
(-4.82325 -4.16979e-05 0.136707)
(-4.82331 2.48455e-05 0.136991)
(-4.8234 -0.000214289 0.137492)
(-4.82318 -0.000276198 0.137065)
(-2.22178 -2.99913e-05 0.945443)
(-2.22203 -9.26239e-05 0.945802)
(-2.22206 -0.000143938 0.945871)
(-2.22216 -0.000189068 0.94598)
(-2.22238 -0.000150951 0.946199)
(-2.2221 -4.63064e-05 0.945789)
(-2.40153 0.00026455 8.77004)
(-2.40128 0.000425047 8.77067)
(-2.40127 0.000329094 8.7709)
(-2.40117 0.000601887 8.77085)
(-2.40107 -8.34163e-05 8.76968)
(-2.40108 -0.000447013 8.7734)
(-4.28618 0.000127364 5.87889)
(-4.28605 0.000205163 5.88007)
(-4.28605 7.82339e-05 5.88025)
(-4.28604 0.000293617 5.88069)
(-4.28607 -0.000380514 5.88127)
(-4.28606 -0.000643174 5.88222)
(-2.45564 -4.18559e-05 3.90105)
(-2.45581 -0.000110394 3.9018)
(-2.45585 -0.000184863 3.90197)
(-2.45593 -0.000183939 3.90232)
(-2.45612 -0.000341884 3.90295)
(-2.45598 -0.000274087 3.90245)
(3.52001 0.000368398 19.0887)
(3.52087 0.000754527 19.0902)
(3.52047 0.000772378 19.0895)
(3.52033 0.000768236 19.0892)
(3.52046 0.000614334 19.089)
(3.51854 0.000314458 19.0901)
(0.745735 0.000153578 13.7464)
(0.746445 0.000371493 13.749)
(0.746329 0.000363925 13.749)
(0.746289 0.000410148 13.7492)
(0.746388 -5.27693e-06 13.75)
(0.745715 -0.000219778 13.7514)
(0.318909 -9.2291e-05 8.2757)
(0.319054 -0.000135704 8.27728)
(0.319053 -0.000145941 8.27748)
(0.319063 -0.000165276 8.27782)
(0.319095 -0.000389275 8.27871)
(0.319024 -0.000313504 8.27837)
(0.234133 1.37938e-06 -0.0315579)
(0.234163 6.47154e-06 -0.0315552)
(0.234161 1.10006e-05 -0.0315573)
(0.234153 1.47578e-05 -0.0315595)
(0.234144 1.22064e-05 -0.0315613)
(0.23411 6.20631e-06 -0.0315669)
(0.455136 -1.57377e-06 0.125216)
(0.455174 -6.48283e-07 0.12523)
(0.455176 4.00293e-06 0.125227)
(0.455172 7.49289e-06 0.125224)
(0.455167 8.42775e-06 0.125221)
(0.455131 4.96591e-06 0.125202)
(0.249008 -1.32615e-06 0.494464)
(0.249025 -1.94373e-06 0.494496)
(0.249027 3.46088e-07 0.494497)
(0.249026 2.23144e-06 0.494494)
(0.249024 3.69409e-06 0.494491)
(0.249008 2.34275e-06 0.494458)
(0.268427 4.18588e-06 -0.124958)
(0.268466 1.29086e-05 -0.124962)
(0.268466 2.14663e-05 -0.124967)
(0.268462 2.80973e-05 -0.124972)
(0.268458 2.38857e-05 -0.124975)
(0.268419 1.11115e-05 -0.124978)
(0.689625 -3.70767e-06 0.0931909)
(0.689688 -3.31644e-06 0.0932004)
(0.689692 5.52199e-06 0.0931936)
(0.689684 1.19014e-05 0.0931861)
(0.689673 1.45351e-05 0.0931793)
(0.689611 8.93835e-06 0.0931579)
(0.410504 -2.41808e-06 0.734755)
(0.410535 -4.34822e-06 0.734805)
(0.41054 -6.19354e-07 0.734807)
(0.410538 2.99791e-06 0.734802)
(0.410535 6.26499e-06 0.734795)
(0.410505 4.40314e-06 0.734745)
(-0.0214069 9.06515e-06 -0.326372)
(-0.0213742 1.5211e-05 -0.326398)
(-0.0214067 1.61871e-05 -0.326402)
(-0.021452 2.02321e-05 -0.326401)
(-0.0214993 1.21321e-05 -0.326398)
(-0.0215861 3.97766e-06 -0.326378)
(1.04158 -7.41723e-06 -0.0652311)
(1.04168 -1.00342e-05 -0.065256)
(1.04168 2.93857e-06 -0.0652705)
(1.04166 1.21157e-05 -0.0652828)
(1.04164 2.07064e-05 -0.0652947)
(1.04152 1.60696e-05 -0.0652991)
(0.696897 -7.78915e-06 1.09307)
(0.69696 -1.41587e-05 1.09315)
(0.696969 -6.83804e-06 1.09315)
(0.69697 -6.28363e-07 1.09314)
(0.696966 9.74492e-06 1.09313)
(0.696901 9.48644e-06 1.09305)
(0.355624 4.45778e-05 -0.840753)
(0.355653 9.75058e-05 -0.840805)
(0.355621 0.000124447 -0.840827)
(0.355583 0.000141867 -0.840848)
(0.355543 0.000124836 -0.840867)
(0.355477 5.39131e-05 -0.840856)
(1.6956 -4.28163e-06 -0.388742)
(1.69583 -3.26912e-06 -0.388752)
(1.69584 5.517e-06 -0.388793)
(1.69583 1.20146e-05 -0.388827)
(1.69581 2.58186e-05 -0.388854)
(1.69559 2.48121e-05 -0.388941)
(1.1964 -2.54447e-05 1.60984)
(1.19655 -4.4533e-05 1.60994)
(1.19657 -3.03328e-05 1.60994)
(1.19658 -2.3527e-05 1.60992)
(1.19659 1.08339e-05 1.6099)
(1.19645 2.26684e-05 1.60976)
(-1.71929 6.9025e-05 -0.0276941)
(-1.71942 0.000159238 -0.027565)
(-1.71957 0.000161928 -0.0276293)
(-1.71972 0.000167234 -0.0276587)
(-1.71992 0.000123207 -0.0276666)
(-1.72026 5.23874e-05 -0.0278631)
(2.88256 -2.62413e-05 1.07112)
(2.88289 1.02585e-05 1.07165)
(2.8829 5.86207e-05 1.0716)
(2.88289 5.57585e-05 1.07161)
(2.88287 5.84382e-05 1.07174)
(2.88253 3.77807e-05 1.07121)
(2.04779 -6.76197e-05 2.50462)
(2.04809 -0.000106636 2.5049)
(2.04814 -7.57557e-05 2.50491)
(2.04818 -7.71481e-05 2.50491)