/*--------------------------------*- C++ -*----------------------------------*\
| =========                 |                                                 |
| \\      /  F ield         | OpenFOAM: The Open Source CFD Toolbox           |
|  \\    /   O peration     | Version:  v1612+                                |
|   \\  /    A nd           | Web:      www.OpenFOAM.com                      |
|    \\/     M anipulation  |                                                 |
\*---------------------------------------------------------------------------*/
FoamFile
{
    version     2.0;
    format      ascii;
    class       volScalarField;
    location    "6.3";
    object      p;
}
// * * * * * * * * * * * * * * * * * * * * * * * * * * * * * * * * * * * * * //

dimensions      [1 -1 -2 0 0 0 0];

internalField   nonuniform List<scalar> 
1116
(
19519.7
19519.9
19519.8
19519.8
19519.8
19519.7
17538.5
17538.4
17538.4
17538.4
17538.4
17538.5
14482.7
14482.5
14482.6
14482.6
14482.6
14482.6
11449.8
11449.6
11449.7
11449.8
11449.8
11449.8
9228.02
9227.79
9227.86
9228.03
9228
9227.94
7918.74
7918.77
7918.63
7918.87
7918.69
7918.8
7101.36
7101.88
7101.66
7101.57
7100.96
7102.05
6642.9
6643.54
6643.49
6643.24
6643.23
6643.18
6793.23
6792.67
6792.42
6793.73
6795.58
6790.33
7410.89
7414.37
7413.06
7412.14
7409.18
7418.42
8267.88
8263.47
8265.04
8268.9
8278.15
8266.43
7571.6
7565.28
7568.19
7569.07
7577.28
7558.87
13158.7
13159.2
13159
13159
13159.1
13158.8
8396.19
8396.06
8396.08
8396.17
8396.18
8396.13
4608.58
4607.68
4607.92
4608.31
4608.18
4608.24
2622.42
2622.9
2622.67
2622.52
2622.54
2622.62
1766.29
1765.57
1765.79
1766.17
1766.33
1765.77
1293.22
1292.99
1293.19
1293.02
1293.12
1293.16
1043.99
1044.36
1044.39
1043.89
1043.99
1044.18
924.876
925.403
925.414
924.692
924.703
925.542
1141.53
1142.17
1140.96
1142.06
1142.12
1140.54
1733.71
1737.4
1734.12
1737.37
1731.68
1741.69
2381.79
2382.82
2378.25
2389.06
2392.08
2400.57
1631.7
1630.67
1631.64
1628.68
1626.5
1612.19
4301.55
4301.34
4301.4
4301.41
4301.4
4301.46
1359.28
1358.23
1358.65
1358.82
1358.64
1358.86
159.213
159.598
159.446
159.261
159.261
159.396
-17.8893
-17.5977
-17.7073
-17.807
-17.7892
-17.8366
-49.2449
-49.717
-49.5474
-49.425
-49.3412
-49.5884
-79.8324
-80.1582
-79.9926
-80.0699
-80.017
-80.0892
-22.8663
-22.7822
-22.7456
-22.9784
-22.8826
-23.0028
150.445
150.669
150.551
150.566
150.689
150.354
335.262
335.036
334.81
335.592
335.904
334.304
339.448
341.021
339.845
341.162
339.501
341.491
602.969
603.795
602.71
603.498
600.781
604.292
498.235
497.164
498.186
495.89
497.387
495.599
-49.3745
-49.6411
-49.5998
-49.4376
-49.3347
-49.75
-87.136
-87.2381
-87.2084
-87.1791
-87.179
-87.2087
-37.0056
-36.9695
-37.0058
-37.0038
-37.0123
-37.0223
-42.5634
-42.4136
-42.4888
-42.5329
-42.5611
-42.5161
-51.0893
-51.366
-51.2673
-51.2381
-51.2028
-51.3378
-102.764
-103.138
-102.986
-103.217
-103.168
-103.231
-90.3577
-90.6671
-90.5424
-90.6718
-90.5503
-90.7762
19.3712
19.7247
19.5523
19.3843
19.3566
19.3969
89.0158
89.7646
89.5861
89.0745
88.3859
89.9776
123.352
123.079
123.34
123.288
123.416
123.096
107.589
108.268
108.715
107.006
107.049
108.557
-126.263
-127.76
-126.658
-127.323
-126.389
-128.598
2832.1
3068.81
2909.04
3095.42
3182.45
2971.59
1891.04
2060.7
1963.29
2037.31
2037.65
1932.48
1098.46
1194.31
1047.17
1216.99
1265.61
1237.77
724.081
681.469
686.524
709.779
777.67
870.662
464.795
458.163
492.793
480.85
510.366
564.805
382.844
294.57
297.81
301.835
396.264
447.734
357.161
290.13
348.228
308.019
388.267
438.956
398.29
409.711
420.326
419.041
438.93
416.999
516.757
485.109
457.394
530.851
602.957
461.69
1028.47
972.525
893.18
1028.94
1089.36
1120.84
1248.59
1276.06
1426.59
1305.23
1350.27
1355.3
1319.71
1326.92
1354.66
1356.39
1361.81
1351.43
1339.54
1402.61
1337.27
1424.86
1434.84
1444.13
260.911
265.33
259.169
266.882
258.584
285.336
34.0217
15.2588
38.5968
31.9993
51.8871
64.3285
-40.0576
-42.5546
-42.441
-39.3875
-29.5388
-19.8255
-33.5879
-30.2655
-33.38
-35.844
-38.3665
-39.8226
-25.5147
-24.5693
-22.0607
-24.3172
-26.5623
-27.077
-19.3587
-24.52
-17.8261
-16.6978
-15.7056
-13.5554
-11.6677
-13.1243
-15.2278
-15.1459
-11.2554
-11.508
4.73053
2.95276
1.18572
1.5755
10.4942
11.1085
94.1767
74.0669
52.527
71.9926
96.2873
74.7757
289.401
301.166
270.143
330.293
296.932
358.764
642.731
637.185
572.416
635.641
402.328
717.782
220.41
239.882
235.942
260.221
247.106
349.873
17.6256
13.2672
16.7689
5.60909
-3.92363
3.74099
-10.8095
-10.1445
-10.1825
-11.7753
-10.1047
-11.2071
-18.1532
-16.2191
-18.2217
-16.7201
-16.6406
-17.9415
-9.20891
-8.61135
-8.77263
-9.74961
-10.95
-11.103
-23.8902
-22.2089
-19.7377
-19.8358
-22.0768
-21.0972
-21.8097
-20.3809
-19.9977
-19.655
-22.7092
-20.1065
-23.74
-21.4659
-22.8429
-26.5878
-28.2212
-25.7154
-28.391
-27.9316
-27.884
-28.7343
-26.9047
-25.5714
-22.9387
-23.6061
-24.6559
-25.7508
-22.7581
-25.8809
13.2608
14.7192
5.5986
20.258
-5.27307
33.1988
117.335
74.4265
25.8199
90.0723
49.8322
106.394
18.6638
29.3216
30.4051
34.6798
32.0203
64.9527
-21.3321
-18.4762
-19.3767
-24.6255
-27.5864
-30.6003
-11.8119
-11.8916
-8.59314
-12.0008
-14.2407
-14.5383
-35.0709
-35.0542
-35.1218
-35.1404
-35.1693
-36.0156
-31.1086
-31.1156
-31.3057
-31.863
-32.3144
-32.681
-36.429
-36.6135
-36.8454
-35.383
-35.0982
-35.3525
-30.1887
-29.9292
-29.9112
-30.792
-30.753
-30.4352
-31.7041
-31.5272
-32.4151
-33.2898
-32.9651
-33.082
-34.5668
-34.7298
-35.3427
-34.8193
-33.7791
-33.7831
-40.7357
-41.7284
-40.8411
-37.5632
-34.6331
-34.8568
-35.4995
-36.2631
-37.7101
-32.0343
-26.2806
-20.9253
-75.5773
-105.399
-112.698
-159.339
-117.716
-181.858
1001.68
1005.68
1004.59
1003.73
1004.66
1003.25
-1.6649
-2.53225
-2.2623
-2.15066
-2.30804
-1.98638
-57.9063
-57.8179
-57.8364
-57.8475
-57.829
-57.8656
-157.054
-157.092
-157.09
-157.081
-157.09
-157.095
-60.1166
-59.9324
-59.9951
-60.0109
-59.9866
-60.0212
-58.3689
-58.2665
-58.2913
-58.3011
-58.2865
-58.3208
-59.0144
-58.9569
-58.9993
-58.9955
-59.0096
-59.0064
-51.8291
-51.7832
-51.8113
-51.8067
-51.8184
-51.8014
-57.8992
-57.9016
-57.9053
-57.8971
-57.905
-57.8958
-59.6909
-59.5639
-59.6591
-59.6484
-59.6982
-59.657
-50.6994
-50.3943
-50.5419
-50.5559
-50.5954
-50.524
-60.3226
-60.209
-60.2606
-60.261
-60.2778
-60.2481
-56.0784
-56.3035
-56.3101
-56.2723
-56.2921
-56.4046
-46.1424
-45.9271
-45.9911
-45.8587
-45.8345
-45.8772
-56.217
-55.8901
-56.0343
-56.0054
-55.9996
-56.0085
-82.1858
-82.4672
-82.8799
-83.455
-83.5236
-83.4977
-50.7321
-50.9246
-50.2074
-49.6533
-49.4092
-49.7013
-52.2116
-52.1945
-52.1118
-51.9459
-51.8411
-51.9648
-77.3988
-77.909
-77.7732
-77.8647
-77.8084
-78.0474
-62.0099
-62.7692
-62.3654
-62.1967
-61.9582
-62.4688
-71.3877
-72.0226
-71.6976
-71.653
-71.4933
-71.6355
-51.5267
-51.4132
-51.5368
-51.5136
-51.6202
-51.4952
-85.4995
-85.9406
-85.7881
-85.6631
-85.86
-85.6471
-105.618
-106.338
-106.109
-105.964
-105.873
-106.299
-45.2888
-44.9711
-45.0237
-45.1987
-45.0665
-44.8524
-76.7711
-76.6941
-76.7736
-76.6617
-76.765
-76.5652
-95.3194
-95.274
-95.2913
-95.2849
-95.4683
-95.1606
-40.2546
-40.234
-40.2382
-40.2279
-40.2374
-40.1546
-65.7156
-65.6243
-65.6991
-65.6227
-65.6514
-65.632
-82.5596
-82.4787
-82.5314
-82.4771
-82.5356
-82.4583
-28.4573
-28.4547
-28.4227
-28.5201
-28.4335
-28.5165
-52.9893
-52.9832
-52.9928
-52.9875
-52.9865
-52.9959
-73.425
-73.3996
-73.4096
-73.416
-73.4309
-73.3916
25.6204
24.699
25.1435
25.0468
25.7948
24.4322
-51.43
-51.4234
-51.4383
-51.4151
-51.4302
-51.4348
-75.9439
-75.932
-75.9447
-75.9288
-75.9443
-75.926
313.116
315.134
320.741
323.981
329.392
318.652
-48.841
-48.7098
-48.5773
-48.5102
-48.3835
-48.5317
-72.0134
-72.0649
-72.084
-72.0985
-72.0211
-72.0242
377.594
377.475
377.241
376.607
376.502
376.543
-50.6031
-50.6427
-50.7047
-50.7665
-50.8187
-50.7768
-69.7835
-69.8037
-69.8075
-69.7732
-69.7537
-69.7825
382.764
382.578
382.548
381.59
381.329
382.116
-50.5409
-50.5004
-50.4612
-50.4099
-50.3693
-50.3756
-68.9197
-68.9198
-68.9094
-68.8852
-68.8616
-68.8877
385.694
385.785
385.797
385.558
385.71
385.993
-50.8274
-50.8281
-50.8336
-50.8409
-50.8465
-50.8498
-68.9023
-68.9028
-68.9015
-68.8991
-68.8972
-68.9003
377.428
377.449
377.478
377.236
377.375
377.692
-50.526
-50.5268
-50.5298
-50.5316
-50.535
-50.5373
-70.2162
-70.219
-70.2198
-70.2242
-70.226
-70.2233
318.547
318.209
318.306
317.667
317.677
318.36
-49.4689
-49.4585
-49.4599
-49.4516
-49.4529
-49.4563
-74.1374
-74.145
-74.1449
-74.1425
-74.1414
-74.1472
-4.11314
-16.0005
-2.842
7.06834
-10.5854
35.7173
-152.246
-115.79
-89.1258
-78.4626
-73.3548
-107.346
-155.067
-144.546
-113.303
-88.0685
-86.2669
-124.822
-30.5617
-31.422
-31.251
-32.4882
-34.0482
-31.892
-45.988
-49.7855
-50.4406
-51.8928
-55.0674
-45.8651
-71.8401
-70.7654
-70.5683
-70.0857
-73.9049
-73.4605
-28.4006
-28.4935
-27.959
-28.1481
-27.801
-28.5451
-44.3229
-45.3348
-46.5537
-47.1563
-46.6594
-45.2209
-67.4101
-68.5113
-68.0243
-65.8081
-65.6013
-62.465
-38.6348
-38.8621
-38.9711
-39.0446
-39.093
-38.6962
-53.1343
-53.3893
-53.48
-53.6471
-53.8511
-53.2767
-66.0584
-66.1114
-66.2914
-66.7337
-66.8817
-66.968
-36.5155
-36.4855
-36.5651
-36.6625
-36.7642
-36.7447
-51.5519
-51.597
-51.6883
-51.6535
-51.6888
-51.5795
-63.099
-63.1031
-63.0941
-63.0041
-62.9821
-62.8824
-39.4458
-39.1747
-39.1877
-39.2189
-39.2402
-38.9322
-52.8907
-52.8408
-52.8978
-52.9181
-52.954
-52.8686
-62.9246
-62.9152
-62.9362
-62.9802
-62.9939
-62.9747
-37.6351
-37.4797
-37.2488
-37.3224
-37.3854
-37.1985
-51.7632
-51.4129
-51.6761
-51.8374
-51.8872
-51.7807
-61.9209
-61.9032
-61.9154
-61.9428
-61.9566
-61.9253
-37.2417
-37.2591
-37.1457
-37.6798
-38.5231
-38.346
-52.2037
-51.8906
-51.8537
-52.4429
-52.6904
-52.6657
-61.902
-61.9321
-61.9451
-62.0379
-62.1156
-62.1283
-38.2743
-37.9957
-37.7608
-38.6452
-39.1
-39.2901
-52.9455
-52.9499
-53.0289
-53.1237
-53.2051
-53.2284
-62.3941
-62.3923
-62.3567
-62.4477
-62.4771
-62.4919
-35.3953
-35.2424
-35.001
-35.108
-35.4777
-35.7027
-53.867
-53.9258
-54.0531
-53.8568
-54.0078
-53.7605
-62.5771
-62.5808
-62.4968
-62.5358
-62.5454
-62.531
-35.0387
-35.4763
-35.7709
-37.4014
-38.2604
-38.8033
-52.9136
-52.9807
-53.1226
-53.3425
-54.2217
-53.4021
-64.7817
-64.7901
-64.7101
-64.7457
-64.6211
-64.7784
-28.5234
-23.1747
-10.2574
-16.9047
10.0005
-24.2944
-50.9426
-51.1147
-51.6261
-51.3891
-51.557
-51.2411
-69.4159
-69.6512
-70.1079
-70.3712
-71.028
-70.2606
)
;

boundaryField
{
    seabed_topleft_surface
    {
        type            calculated;
        value           nonuniform List<scalar> 
72
(
22379.1
22379.2
22379.1
22379.1
22379.2
22379.1
21945.3
21945.4
21945.2
21945.2
21945.3
21945.3
19279.1
19278.9
19278.9
19279
19279
19279
16246.2
16246
16246
16246.1
16246.1
16246.1
13999.8
13999.6
13999.6
13999.8
13999.8
13999.7
12601.8
12602
12601.8
12602.1
12602
12601.8
11690.8
11691.5
11691.3
11691.2
11690.7
11691.5
11165.1
11166.1
11166
11165.6
11165.8
11165.4
11286.4
11286.2
11285.9
11287
11289.1
11283.4
11898.3
11902.1
11900.7
11899.7
11896.9
11905.7
12746.4
12742
12743.7
12747.5
12757.2
12744.4
12030
12024.6
12027.3
12027.6
12035.2
12019.1
)
;
    }
    seabed_topright_surface
    {
        type            calculated;
        value           nonuniform List<scalar> 
72
(
3286.59
3524.65
3365.51
3552.06
3639.09
3420.89
2285.95
2429.01
2335.39
2490.28
2494.29
2389.07
1239.33
1522.16
1150.49
1517.23
1722.2
1486.44
1111.22
1093.65
1092.4
1108.12
1222.02
1289.38
871.949
849.181
910.475
902.152
940.038
1027.1
779.369
513.914
559.078
575.242
799.44
909.717
727.374
580.368
629.895
610.029
787.753
891.14
820.87
845.82
859.724
861.607
883.687
868.72
951.178
923.315
897.138
972.273
1046.86
912.018
1459.89
1408.5
1331.77
1468.26
1530.82
1435.55
1675.32
1705.66
1862.56
1742.39
1789.32
1578.17
1529.7
1541.13
1618.26
1590.35
1798.61
1552.69
)
;
    }
    breakwater_top_surface
    {
        type            calculated;
        value           nonuniform List<scalar> 
36
(
697.194
701.177
712.497
718.829
728.74
707.82
809.518
809.061
808.54
807.293
806.797
807.685
817.038
816.593
816.438
814.497
813.822
815.597
823.671
823.844
823.877
823.436
823.76
824.332
814.008
814.119
814.175
813.646
813.921
814.648
722.339
721.731
721.957
720.504
720.495
722.104
)
;
    }
    breakwater_left_surface
    {
        type            calculated;
        value           nonuniform List<scalar> 
24
(
7586.87
7580.55
7583.46
7584.34
7592.55
7574.14
1635.38
1634.31
1635.28
1632.35
1630.22
1615.83
498.673
497.603
498.624
496.328
497.826
496.037
-125.81
-127.307
-126.205
-126.87
-125.936
-128.145
)
;
    }
    breakwater_right_surface
    {
        type            calculated;
        value           nonuniform List<scalar> 
24
(
1320.43
1327.65
1355.56
1357.2
1363.3
1352.12
643.583
638.335
573.91
637.134
403.449
719.08
118.697
75.8091
27.2232
91.4171
49.9964
107.666
-75.005
-105.019
-112.587
-159.051
-117.014
-181.233
)
;
    }
    water_front_surface
    {
        type            calculated;
        value           nonuniform List<scalar> 
186
(
19519.7
17538.5
14482.7
11449.8
9228.02
7918.74
7101.36
6642.9
6793.23
7410.89
8267.88
7571.6
13158.7
8396.19
4608.58
2622.42
1766.29
1293.22
1043.99
924.876
1141.53
1733.71
2381.79
1631.7
4301.55
1359.28
159.213
-17.8893
-49.2449
-79.8324
-22.8663
150.445
335.262
339.448
602.969
498.235
-49.3745
-87.136
-37.0056
-42.5634
-51.0893
-102.764
-90.3577
19.3712
89.0158
123.352
107.589
-126.263
2832.1
1891.04
1098.46
724.081
464.795
382.844
357.161
398.29
516.757
1028.47
1248.59
1319.71
1339.54
260.911
34.0217
-40.0576
-33.5879
-25.5147
-19.3587
-11.6677
4.73053
94.1767
289.401
642.731
220.41
17.6256
-10.8095
-18.1532
-9.20891
-23.8902
-21.8097
-23.74
-28.391
-22.9387
13.2608
117.335
18.6638
-21.3321
-11.8119
-35.0709
-31.1086
-36.429
-30.1887
-31.7041
-34.5668
-40.7357
-35.4995
-75.5773
1001.68
-1.6649
-57.9063
-157.054
-60.1166
-58.3689
-59.0144
-51.8291
-57.8992
-59.6909
-50.6994
-60.3226
-56.0784
-46.1424
-56.217
-82.1858
-50.7321
-52.2116
-77.3988
-62.0099
-71.3877
-51.5267
-85.4995
-105.618
-45.2888
-76.7711
-95.3194
-40.2546
-65.7156
-82.5596
-28.4573
-52.9893
-73.425
25.6204
-51.43
-75.9439
313.116
-48.841
-72.0134
377.594
-50.6031
-69.7835
382.764
-50.5409
-68.9197
385.694
-50.8274
-68.9023
377.428
-50.526
-70.2162
318.547
-49.4689
-74.1374
-4.11314
-152.246
-155.067
-30.5617
-45.988
-71.8401
-28.4006
-44.3229
-67.4101
-38.6348
-53.1343
-66.0584
-36.5155
-51.5519
-63.099
-39.4458
-52.8907
-62.9246
-37.6351
-51.7632
-61.9209
-37.2417
-52.2037
-61.902
-38.2743
-52.9455
-62.3941
-35.3953
-53.867
-62.5771
-35.0387
-52.9136
-64.7817
-28.5234
-50.9426
-69.4159
)
;
    }
    water_back_surface
    {
        type            calculated;
        value           nonuniform List<scalar> 
186
(
19519.7
17538.5
14482.6
11449.8
9227.94
7918.8
7102.05
6643.18
6790.33
7418.42
8266.43
7558.87
13158.8
8396.13
4608.24
2622.62
1765.77
1293.16
1044.18
925.542
1140.54
1741.69
2400.57
1612.19
4301.46
1358.86
159.396
-17.8366
-49.5884
-80.0892
-23.0028
150.354
334.304
341.491
604.292
495.599
-49.75
-87.2087
-37.0223
-42.5161
-51.3378
-103.231
-90.7762
19.3969
89.9776
123.096
108.557
-128.598
2971.59
1932.48
1237.77
870.662
564.805
447.734
438.956
416.999
461.69
1120.84
1355.3
1351.43
1444.13
285.336
64.3285
-19.8255
-39.8226
-27.077
-13.5554
-11.508
11.1085
74.7757
358.764
717.782
349.873
3.74099
-11.2071
-17.9415
-11.103
-21.0972
-20.1065
-25.7154
-25.5714
-25.8809
33.1988
106.394
64.9527
-30.6003
-14.5383
-36.0156
-32.681
-35.3525
-30.4352
-33.082
-33.7831
-34.8568
-20.9253
-181.858
1003.25
-1.98638
-57.8656
-157.095
-60.0212
-58.3208
-59.0064
-51.8014
-57.8958
-59.657
-50.524
-60.2481
-56.4046
-45.8772
-56.0085
-83.4977
-49.7013
-51.9648
-78.0474
-62.4688
-71.6355
-51.4952
-85.6471
-106.299
-44.8524
-76.5652
-95.1606
-40.1546
-65.632
-82.4583
-28.5165
-52.9959
-73.3916
24.4322
-51.4348
-75.926
318.652
-48.5317
-72.0242
376.543
-50.7768
-69.7825
382.116
-50.3756
-68.8877
385.993
-50.8498
-68.9003
377.692
-50.5373
-70.2233
318.36
-49.4563
-74.1472
35.7173
-107.346
-124.822
-31.892
-45.8651
-73.4605
-28.5451
-45.2209
-62.465
-38.6962
-53.2767
-66.968
-36.7447
-51.5795
-62.8824
-38.9322
-52.8686
-62.9747
-37.1985
-51.7807
-61.9253
-38.346
-52.6657
-62.1283
-39.2901
-53.2284
-62.4919
-35.7027
-53.7605
-62.531
-38.8033
-53.4021
-64.7784
-24.2944
-51.2411
-70.2606
)
;
    }
    water_left_surface
    {
        type            calculated;
        value           nonuniform List<scalar> 
42
(
19529.5
19529.7
19529.5
19529.6
19529.6
19529.5
13171.3
13171.8
13171.5
13171.5
13171.7
13171.4
4313.61
4313.41
4313.47
4313.48
4313.47
4313.53
-39.3423
-39.6031
-39.5641
-39.4027
-39.2982
-39.7159
1001.68
1005.68
1004.59
1003.73
1004.66
1003.25
-1.6649
-2.53225
-2.2623
-2.15066
-2.30804
-1.98638
-57.9063
-57.8179
-57.8364
-57.8475
-57.829
-57.8656
)
;
    }
    water_right_surface
    {
        type            calculated;
        value           nonuniform List<scalar> 
42
(
2833.65
3070.37
2910.61
3096.98
3184.01
2973.13
1340.98
1404.13
1338.8
1426.18
1436.09
1445.63
221.801
241.288
237.397
261.566
248.281
351.334
20.0112
30.0701
31.2583
35.855
32.8724
66.3262
-4.11314
-16.0005
-2.842
7.06834
-10.5854
35.7173
-152.246
-115.79
-89.1258
-78.4626
-73.3548
-107.346
-155.067
-144.546
-113.303
-88.0685
-86.2669
-124.822
)
;
    }
    water_top_surface
    {
        type            calculated;
        value           nonuniform List<scalar> 
180
(
-75.2464
-74.9208
-75.0378
-75.0863
-74.9996
-75.1209
-72.4334
-72.1452
-72.2463
-72.2912
-72.2171
-72.3213
-68.9986
-69.0044
-69.0021
-69.0017
-69.0051
-69.0003
-70.4729
-70.4291
-70.4512
-70.4551
-70.4664
-70.4462
-68.6701
-68.6702
-68.6701
-68.6701
-68.6701
-68.6701
-69.354
-69.7291
-69.5157
-69.4986
-69.5338
-69.43
-97.8694
-101.316
-99.8646
-99.3949
-99.2831
-99.7193
-106.658
-108.809
-108.281
-107.373
-106.671
-109.216
-75.4153
-76.4967
-76.1998
-75.9329
-76.0638
-76.0268
-87.9079
-88.3659
-88.3247
-87.9498
-88.1052
-88.1779
-81.5563
-81.5265
-81.5358
-81.5454
-81.6086
-81.4753
-74.5485
-74.5552
-74.5529
-74.5478
-74.5602
-74.5422
-69.5616
-69.5452
-69.5586
-69.7066
-69.8058
-69.6928
-70.6345
-70.6493
-70.6629
-70.701
-70.7261
-70.709
-70.3533
-70.3502
-70.344
-70.3232
-70.3269
-70.3064
-70.8395
-70.8428
-70.8424
-70.8405
-70.8477
-70.8265
-71.7485
-71.7502
-71.749
-71.7519
-71.7602
-71.7361
-72.0152
-72.0069
-72.0061
-72.0109
-72.0196
-71.9969
-315.574
-659.415
-554.245
-70.5113
-70.1954
-791.223
-68.8357
-68.7176
-68.6865
-68.6854
-71.5087
-69.4202
-71.4772
-71.8659
-72.4227
-71.1623
-71.9184
-69.345
-74.7985
-74.9059
-74.6821
-75.0438
-75.1211
-74.6732
-70.1249
-70.1394
-70.1513
-70.0682
-70.0918
-70.0737
-69.6625
-69.6586
-69.6779
-69.6809
-69.6953
-69.6716
-68.8274
-68.822
-68.8359
-68.8539
-68.8653
-68.8484
-68.8997
-68.8959
-68.9075
-68.9584
-68.995
-68.9787
-69.0062
-69.0199
-69.0411
-69.0731
-69.1116
-69.1075
-69.8203
-69.8887
-69.9491
-69.9703
-70.0387
-69.9877
-70.7851
-70.8602
-70.89
-71.0709
-71.2621
-71.0523
-69.215
-69.2574
-69.3089
-69.3925
-69.5732
-69.4531
)
;
    }
}


// ************************************************************************* //
