/*--------------------------------*- C++ -*----------------------------------*\
| =========                 |                                                 |
| \\      /  F ield         | OpenFOAM: The Open Source CFD Toolbox           |
|  \\    /   O peration     | Version:  v1612+                                |
|   \\  /    A nd           | Web:      www.OpenFOAM.com                      |
|    \\/     M anipulation  |                                                 |
\*---------------------------------------------------------------------------*/
FoamFile
{
    version     2.0;
    format      ascii;
    class       volScalarField;
    location    "6.3";
    object      p_rgh;
}
// * * * * * * * * * * * * * * * * * * * * * * * * * * * * * * * * * * * * * //

dimensions      [1 -1 -2 0 0 0 0];

internalField   nonuniform List<scalar> 
1116
(
22379.1
22379.2
22379.1
22379.1
22379.2
22379.1
21945.3
21945.4
21945.2
21945.2
21945.3
21945.3
19279.1
19278.9
19278.9
19279
19279
19279
16246.2
16246
16246
16246.1
16246.1
16246.1
13999.8
13999.6
13999.6
13999.8
13999.8
13999.7
12601.8
12602
12601.8
12602.1
12602
12601.8
11690.8
11691.5
11691.3
11691.2
11690.7
11691.5
11165.1
11166.1
11166
11165.6
11165.8
11165.4
11286.4
11286.2
11285.9
11287
11289.1
11283.4
11898.3
11902.1
11900.7
11899.7
11896.9
11905.7
12746.4
12742
12743.7
12747.5
12757.2
12744.4
12030
12024.6
12027.3
12027.6
12035.2
12019.1
24360
24359.9
24359.8
24360
24359.9
24359.9
21844.3
21844.2
21844.2
21844.3
21844.3
21844.3
17575
17574.1
17574.3
17574.9
17574.9
17574.5
10434.2
10431.7
10432.4
10433.4
10432.8
10433.4
6997.18
6995.39
6996
6996.73
6996.33
6996.86
5335.97
5337.96
5337.75
5336.05
5335.7
5338.18
4342.46
4345.18
4345.05
4342.53
4342.3
4344.89
3631.68
3631.52
3632.01
3631.02
3633.38
3630.72
4278.08
4280.28
4277.05
4279.51
4275.54
4279.92
6103.08
6121.56
6111.52
6110.66
6084.55
6136.47
7172.11
7090.73
7111.06
7166.05
7242.46
7061.94
4912.13
4878.15
4885.82
4903.48
4937.04
4857.34
22593.4
22600.7
22597.9
22596.9
22598.8
22595.7
8424.91
8419.52
8421.86
8422.36
8421
8423.29
1231.92
1230.43
1230.95
1231.23
1230.64
1231.64
6.65242
6.94401
6.83442
6.73472
6.75254
6.70507
-24.7028
-25.1749
-25.0053
-24.8829
-24.7991
-25.0463
-55.282
-55.6084
-55.4428
-55.5195
-55.4661
-55.5399
1.7033
1.78682
1.82335
1.59118
1.68748
1.56562
175.026
175.25
175.132
175.146
175.269
174.935
392.65
392.031
391.576
393.101
394.937
390.103
715.498
727.166
721.417
719.788
711.03
732.149
1514.8
1500.85
1498.89
1515.65
1507.95
1495.86
1162.94
1161.85
1162.86
1160.55
1162.05
1160.26
21660.2
21672.6
21667.5
21666
21669.7
21663.9
-52.7844
-52.8864
-52.8567
-52.8274
-52.8273
-52.857
-2.65403
-2.61793
-2.6542
-2.65216
-2.66064
-2.67064
-8.21178
-8.06197
-8.13723
-8.18132
-8.20952
-8.16445
-16.7377
-17.0144
-16.9157
-16.8865
-16.8512
-16.9861
-68.412
-68.7863
-68.6343
-68.8652
-68.8155
-68.8786
-55.994
-56.3042
-56.1795
-56.308
-56.1858
-56.414
53.7611
54.1136
53.9413
53.7741
53.7471
53.7851
366.553
361.695
359.325
368.539
373.694
353.042
1024.99
1019.86
1024.08
1021.45
1027.35
1019.38
1021.66
1017.78
1023.44
1016.93
1023.87
1018.37
854.111
852.675
853.89
853.31
854.244
852.035
3286.59
3524.65
3365.51
3552.06
3639.09
3420.89
2285.95
2429.01
2335.39
2490.28
2494.29
2389.07
1239.33
1522.16
1150.49
1517.23
1722.2
1486.44
1111.22
1093.65
1092.4
1108.12
1222.02
1289.38
871.949
849.181
910.475
902.152
940.038
1027.1
779.369
513.914
559.078
575.242
799.44
909.717
727.374
580.368
629.895
610.029
787.753
891.14
820.87
845.82
859.724
861.607
883.687
868.72
951.178
923.315
897.138
972.273
1046.86
912.018
1459.89
1408.5
1331.77
1468.26
1530.82
1435.55
1675.32
1705.66
1862.56
1742.39
1789.32
1578.17
1529.7
1541.13
1618.26
1590.35
1798.61
1552.69
2616.16
2758.48
2701.63
2597.71
2545.1
2783.61
464.412
361.677
498.283
383.407
387.33
959.792
119.683
89.4295
86.6877
140.764
159.604
127.282
14.8152
-8.34463
1.147
-2.10513
15.7131
49.8515
-18.8558
-15.5339
-18.6484
-21.1125
-19.2409
-14.733
-10.7831
-6.8745
-7.32921
-9.58568
-11.8308
-12.3455
-4.62683
-9.78814
1.73963
-1.96617
-0.974104
1.17628
3.06985
1.61347
-0.485345
-0.403697
3.47627
3.50472
52.1974
17.755
16.7389
33.1861
115.916
30.8781
418.067
219.717
144.465
338.079
411.117
317.872
891.655
838.578
931.06
1181.36
974.955
1453.81
1402.62
1663.67
1904.46
1967.68
1401.72
1875.42
2328.87
2371.9
2441.2
2299.53
2028.88
2565.03
43.9616
38.232
42.2975
30.5841
20.6244
355.09
13.7317
14.3978
14.3576
12.766
14.4367
13.3344
6.38796
8.32205
6.31944
7.82108
7.90055
6.59973
15.3323
15.9301
15.7686
14.7916
13.5911
13.4382
0.651165
2.33231
4.80344
4.70544
2.46439
3.44404
2.7319
4.16032
4.54345
4.88962
1.83203
4.43508
0.802088
3.07563
1.69897
-2.04642
-3.67999
-1.17399
-3.8494
-3.38898
-3.34243
-4.19315
-2.36351
-1.03026
1.60271
0.935328
-0.113215
-1.20895
1.78313
-1.33927
143.119
119.439
30.3411
65.1275
202.066
96.6893
2182.25
2170.46
2153.31
2128.92
298.838
2034.95
2934.57
1648.93
1876.61
2577.84
1875.91
3037.37
13.0643
15.8775
15.0157
9.73212
6.77128
96.1446
22.539
22.4614
25.7587
22.3561
20.1165
19.8163
-0.719948
-0.700829
-0.76924
-0.778237
-0.796881
-1.64275
3.24227
3.23524
3.04521
2.48783
2.03652
1.66991
-2.07798
-2.26266
-2.49423
-1.03214
-0.747362
-1.00167
4.16294
4.42165
4.43971
3.55916
3.59798
3.91569
2.64681
2.82368
1.93577
1.0611
1.38614
1.26891
-0.215134
-0.378884
-0.991854
-0.468414
0.571736
0.567739
-6.38459
-7.37741
-6.4897
-3.21221
-0.282241
-0.505925
-1.14849
-1.9117
-3.3564
35.9194
373.749
23.5872
1163.01
716.409
127.271
463.451
1399.83
1170.51
17587.1
17568.9
17574
17576.7
17574.1
17579.8
1130.73
1114.42
1119.55
1122.03
1118.76
1124.55
11.9653
11.7514
11.8416
11.8755
11.8135
11.8894
210.318
210.953
210.803
210.623
210.757
210.644
176.881
175.011
175.738
176.019
175.488
176.251
8.89067
8.72549
8.79456
8.82643
8.77222
8.83467
-14.8684
-14.8108
-14.8533
-14.8494
-14.8635
-14.8603
2.12679
2.17304
2.14479
2.14932
2.13755
2.15462
5.87098
5.86775
5.86439
5.87272
5.86464
5.87408
-15.5452
-15.4182
-15.5134
-15.5027
-15.5525
-15.5112
3.25571
3.56084
3.41317
3.39925
3.35968
3.43115
3.4424
3.55596
3.50435
3.50397
3.48718
3.5169
-11.9324
-12.1575
-12.1642
-12.1264
-12.1461
-12.2586
7.8131
8.02878
7.96455
8.09689
8.12104
8.07852
7.54811
7.87506
7.73086
7.75975
7.76552
7.75661
-38.0325
-38.313
-38.7264
-39.3013
-39.3696
-39.3447
3.27331
3.33965
3.88159
4.37614
4.60141
4.37015
12.1885
12.554
12.4385
12.5885
12.7259
12.5059
-32.7402
-33.3104
-33.2074
-33.186
-32.9804
-33.6411
26.0736
26.7213
26.4434
26.8229
27.2374
25.6713
19.491
22.057
21.0338
20.6423
20.6981
20.961
56.7036
55.0187
54.7141
56.5517
58.504
51.2911
46.3071
43.6992
43.6285
45.9582
48.2823
43.8699
-6.57849
-5.30114
-5.56273
-6.26029
-6.82094
-4.88426
111.997
108.973
110.095
110.62
110.933
110.277
-9.65253
-9.42743
-9.15709
-9.97995
-11.1451
-8.43668
-26.8161
-27.7072
-27.4517
-27.0639
-27.2171
-27.2827
3.95859
3.9748
3.9713
3.98418
3.97598
4.05452
-11.7587
-11.6693
-11.7441
-11.6649
-11.6897
-11.677
-15.0315
-15.245
-15.2585
-15.0147
-15.0908
-15.181
15.6877
15.6903
15.7223
15.6249
15.7115
15.6285
0.965672
0.971778
0.962208
0.967512
0.968507
0.959076
-9.66002
-9.63456
-9.64461
-9.65103
-9.66591
-9.62656
835.106
823.501
829.194
827.758
836.661
821.36
2.52502
2.53165
2.5167
2.53993
2.52476
2.52024
-12.1788
-12.1669
-12.1796
-12.1637
-12.1792
-12.1609
3769.81
3789.52
3846.54
3877.61
3923.53
3821.16
5.11399
5.24524
5.3777
5.4448
5.57147
5.42333
-8.2484
-8.29995
-8.31896
-8.33354
-8.25614
-8.25919
4264.91
4261.75
4258.93
4252.78
4249.16
4256.82
3.35193
3.31226
3.25026
3.18848
3.13631
3.17821
-6.01853
-6.03875
-6.0425
-6.00817
-5.98868
-6.01754
4291.23
4288.71
4287.56
4277.75
4273.77
4283.45
3.41406
3.45457
3.49383
3.54514
3.58573
3.5794
-5.15467
-5.15481
-5.14437
-5.12016
-5.09664
-5.12272
4327.49
4328.31
4328.52
4326.46
4328.16
4331.05
3.1276
3.12689
3.12141
3.11408
3.10846
3.10517
-5.1373
-5.13781
-5.13651
-5.13405
-5.13216
-5.13527
4306.65
4307.48
4307.76
4304.93
4306.29
4310.3
3.42896
3.42819
3.42518
3.42337
3.42001
3.41769
-6.45122
-6.45398
-6.45482
-6.45923
-6.461
-6.45827
3952.68
3949.9
3951.16
3943.2
3943.03
3952.05
4.48605
4.49655
4.49512
4.50335
4.50213
4.49869
-10.3724
-10.38
-10.3799
-10.3775
-10.3764
-10.3822
2099.81
392.173
715.348
1035.56
486.261
2034.24
286.402
337.462
419.664
-24.4825
-17.9857
1180.58
137.965
467.768
401.354
-22.5937
-21.0854
609.885
40.5893
13.9207
12.9296
11.6721
10.1219
127.381
26.2911
4.21345
3.53592
2.07544
1.59446
80.6478
-7.92121
-6.95614
-6.78801
-6.30635
-7.50396
-8.99886
15.7444
15.6516
16.2536
16.0174
16.385
15.6089
9.63206
8.86305
8.06397
7.46078
7.5417
8.74536
-3.39913
-4.24886
-3.94783
-2.03372
-1.83635
1.97322
5.5105
5.28532
5.17509
5.10982
5.07959
5.52397
0.820666
0.565774
0.475047
0.307867
0.103947
0.72028
-2.29345
-2.33519
-2.5189
-2.96676
-3.11491
-3.20295
7.62953
7.65948
7.57992
7.48251
7.38082
7.40035
2.40315
2.35804
2.26666
2.30149
2.26621
2.3755
0.665972
0.661893
0.670905
0.760869
0.78287
0.882615
4.69919
4.97033
4.95729
4.92608
4.90482
5.21278
1.06434
1.11418
1.05721
1.03688
1.00097
1.08638
0.840429
0.849848
0.828772
0.784848
0.771052
0.790292
6.50988
6.66532
6.89618
6.82262
6.75965
6.94646
2.19177
2.54215
2.2789
2.11761
2.0678
2.17427
1.84415
1.86181
1.84956
1.82225
1.80838
1.83971
6.90334
6.88591
6.99931
6.46525
5.62194
5.79895
1.75132
2.06439
2.10129
1.51212
1.26463
1.28932
1.86299
1.83295
1.81992
1.72706
1.64935
1.63671
5.87066
6.14931
6.38421
5.49982
5.04498
4.85488
1.00949
1.00508
0.926094
0.831324
0.749864
0.72659
1.37092
1.37269
1.40828
1.31729
1.28793
1.2731
8.74966
8.90264
9.14363
9.03703
8.66723
8.44225
0.0879709
0.0291643
-0.0980793
0.0982048
-0.0527786
0.19454
1.18789
1.18422
1.26823
1.2292
1.21959
1.23404
9.10634
8.66835
8.37093
6.74349
5.88272
5.34157
1.04142
0.974282
0.832418
0.612528
-0.266669
0.552857
-1.01669
-1.02507
-0.945125
-0.980668
-0.85603
-1.01343
293.675
369.508
567.392
505.879
886.866
359.585
3.01242
2.84029
2.32894
2.56589
2.39802
2.71387
-5.65089
-5.88614
-6.34284
-6.60613
-7.26296
-6.4956
)
;

boundaryField
{
    seabed_topleft_surface
    {
        type            fixedFluxPressure;
        gradient        uniform 0;
        value           nonuniform List<scalar> 
72
(
22379.1
22379.2
22379.1
22379.1
22379.2
22379.1
21945.3
21945.4
21945.2
21945.2
21945.3
21945.3
19279.1
19278.9
19278.9
19279
19279
19279
16246.2
16246
16246
16246.1
16246.1
16246.1
13999.8
13999.6
13999.6
13999.8
13999.8
13999.7
12601.8
12602
12601.8
12602.1
12602
12601.8
11690.8
11691.5
11691.3
11691.2
11690.7
11691.5
11165.1
11166.1
11166
11165.6
11165.8
11165.4
11286.4
11286.2
11285.9
11287
11289.1
11283.4
11898.3
11902.1
11900.7
11899.7
11896.9
11905.7
12746.4
12742
12743.7
12747.5
12757.2
12744.4
12030
12024.6
12027.3
12027.6
12035.2
12019.1
)
;
    }
    seabed_topright_surface
    {
        type            fixedFluxPressure;
        gradient        uniform 0;
        value           nonuniform List<scalar> 
72
(
3286.59
3524.65
3365.51
3552.06
3639.09
3420.89
2285.95
2429.01
2335.39
2490.28
2494.29
2389.07
1239.33
1522.16
1150.49
1517.23
1722.2
1486.44
1111.22
1093.65
1092.4
1108.12
1222.02
1289.38
871.949
849.181
910.475
902.152
940.038
1027.1
779.369
513.914
559.078
575.242
799.44
909.717
727.374
580.368
629.895
610.029
787.753
891.14
820.87
845.82
859.724
861.607
883.687
868.72
951.178
923.315
897.138
972.273
1046.86
912.018
1459.89
1408.5
1331.77
1468.26
1530.82
1435.55
1675.32
1705.66
1862.56
1742.39
1789.32
1578.17
1529.7
1541.13
1618.26
1590.35
1798.61
1552.69
)
;
    }
    breakwater_top_surface
    {
        type            fixedFluxPressure;
        gradient        uniform 0;
        value           nonuniform List<scalar> 
36
(
3769.81
3789.52
3846.54
3877.61
3923.53
3821.16
4264.91
4261.75
4258.93
4252.78
4249.16
4256.82
4291.23
4288.71
4287.56
4277.75
4273.77
4283.45
4327.49
4328.31
4328.52
4326.46
4328.16
4331.05
4306.65
4307.48
4307.76
4304.93
4306.29
4310.3
3952.68
3949.9
3951.16
3943.2
3943.03
3952.05
)
;
    }
    breakwater_left_surface
    {
        type            fixedFluxPressure;
        gradient        uniform 0;
        value           nonuniform List<scalar> 
24
(
12030
12024.6
12027.3
12027.6
12035.2
12019.1
4912.13
4878.15
4885.82
4903.48
4937.04
4857.34
1162.94
1161.85
1162.86
1160.55
1162.05
1160.26
854.111
852.675
853.89
853.31
854.244
852.035
)
;
    }
    breakwater_right_surface
    {
        type            fixedFluxPressure;
        gradient        uniform 0;
        value           nonuniform List<scalar> 
24
(
1529.7
1541.13
1618.26
1590.35
1798.61
1552.69
1402.62
1663.67
1904.46
1967.68
1401.72
1875.42
2182.25
2170.46
2153.31
2128.92
298.838
2034.95
1163.01
716.409
127.271
463.451
1399.83
1170.51
)
;
    }
    water_front_surface
    {
        type            fixedFluxPressure;
        gradient        uniform 0;
        value           nonuniform List<scalar> 
186
(
22379.1
21945.3
19279.1
16246.2
13999.8
12601.8
11690.8
11165.1
11286.4
11898.3
12746.4
12030
24360
21844.3
17575
10434.2
6997.18
5335.97
4342.46
3631.68
4278.08
6103.08
7172.11
4912.13
22593.4
8424.91
1231.92
6.65242
-24.7028
-55.282
1.7033
175.026
392.65
715.498
1514.8
1162.94
21660.2
-52.7844
-2.65403
-8.21178
-16.7377
-68.412
-55.994
53.7611
366.553
1024.99
1021.66
854.111
3286.59
2285.95
1239.33
1111.22
871.949
779.369
727.374
820.87
951.178
1459.89
1675.32
1529.7
2616.16
464.412
119.683
14.8152
-18.8558
-10.7831
-4.62683
3.06985
52.1974
418.067
891.655
1402.62
2328.87
43.9616
13.7317
6.38796
15.3323
0.651165
2.7319
0.802088
-3.8494
1.60271
143.119
2182.25
2934.57
13.0643
22.539
-0.719948
3.24227
-2.07798
4.16294
2.64681
-0.215134
-6.38459
-1.14849
1163.01
17587.1
1130.73
11.9653
210.318
176.881
8.89067
-14.8684
2.12679
5.87098
-15.5452
3.25571
3.4424
-11.9324
7.8131
7.54811
-38.0325
3.27331
12.1885
-32.7402
26.0736
19.491
56.7036
46.3071
-6.57849
111.997
-9.65253
-26.8161
3.95859
-11.7587
-15.0315
15.6877
0.965672
-9.66002
835.106
2.52502
-12.1788
3769.81
5.11399
-8.2484
4264.91
3.35193
-6.01853
4291.23
3.41406
-5.15467
4327.49
3.1276
-5.1373
4306.65
3.42896
-6.45122
3952.68
4.48605
-10.3724
2099.81
286.402
137.965
40.5893
26.2911
-7.92121
15.7444
9.63206
-3.39913
5.5105
0.820666
-2.29345
7.62953
2.40315
0.665972
4.69919
1.06434
0.840429
6.50988
2.19177
1.84415
6.90334
1.75132
1.86299
5.87066
1.00949
1.37092
8.74966
0.0879709
1.18789
9.10634
1.04142
-1.01669
293.675
3.01242
-5.65089
)
;
    }
    water_back_surface
    {
        type            fixedFluxPressure;
        gradient        uniform 0;
        value           nonuniform List<scalar> 
186
(
22379.1
21945.3
19279
16246.1
13999.7
12601.8
11691.5
11165.4
11283.4
11905.7
12744.4
12019.1
24359.9
21844.3
17574.5
10433.4
6996.86
5338.18
4344.89
3630.72
4279.92
6136.47
7061.94
4857.34
22595.7
8423.29
1231.64
6.70507
-25.0463
-55.5399
1.56562
174.935
390.103
732.149
1495.86
1160.26
21663.9
-52.857
-2.67064
-8.16445
-16.9861
-68.8786
-56.414
53.7851
353.042
1019.38
1018.37
852.035
3420.89
2389.07
1486.44
1289.38
1027.1
909.717
891.14
868.72
912.018
1435.55
1578.17
1552.69
2783.61
959.792
127.282
49.8515
-14.733
-12.3455
1.17628
3.50472
30.8781
317.872
1453.81
1875.42
2565.03
355.09
13.3344
6.59973
13.4382
3.44404
4.43508
-1.17399
-1.03026
-1.33927
96.6893
2034.95
3037.37
96.1446
19.8163
-1.64275
1.66991
-1.00167
3.91569
1.26891
0.567739
-0.505925
23.5872
1170.51
17579.8
1124.55
11.8894
210.644
176.251
8.83467
-14.8603
2.15462
5.87408
-15.5112
3.43115
3.5169
-12.2586
8.07852
7.75661
-39.3447
4.37015
12.5059
-33.6411
25.6713
20.961
51.2911
43.8699
-4.88426
110.277
-8.43668
-27.2827
4.05452
-11.677
-15.181
15.6285
0.959076
-9.62656
821.36
2.52024
-12.1609
3821.16
5.42333
-8.25919
4256.82
3.17821
-6.01754
4283.45
3.5794
-5.12272
4331.05
3.10517
-5.13527
4310.3
3.41769
-6.45827
3952.05
4.49869
-10.3822
2034.24
1180.58
609.885
127.381
80.6478
-8.99886
15.6089
8.74536
1.97322
5.52397
0.72028
-3.20295
7.40035
2.3755
0.882615
5.21278
1.08638
0.790292
6.94646
2.17427
1.83971
5.79895
1.28932
1.63671
4.85488
0.72659
1.2731
8.44225
0.19454
1.23404
5.34157
0.552857
-1.01343
359.585
2.71387
-6.4956
)
;
    }
    water_left_surface
    {
        type            fixedFluxPressure;
        gradient        uniform 0;
        value           nonuniform List<scalar> 
42
(
22379.1
22379.2
22379.1
22379.1
22379.2
22379.1
24360
24359.9
24359.8
24360
24359.9
24359.9
22593.4
22600.7
22597.9
22596.9
22598.8
22595.7
21660.2
21672.6
21667.5
21666
21669.7
21663.9
17587.1
17568.9
17574
17576.7
17574.1
17579.8
1130.73
1114.42
1119.55
1122.03
1118.76
1124.55
11.9653
11.7514
11.8416
11.8755
11.8135
11.8894
)
;
    }
    water_right_surface
    {
        type            fixedFluxPressure;
        gradient        uniform 0;
        value           nonuniform List<scalar> 
42
(
3286.59
3524.65
3365.51
3552.06
3639.09
3420.89
2616.16
2758.48
2701.63
2597.71
2545.1
2783.61
2328.87
2371.9
2441.2
2299.53
2028.88
2565.03
2934.57
1648.93
1876.61
2577.84
1875.91
3037.37
2099.81
392.173
715.348
1035.56
486.261
2034.24
286.402
337.462
419.664
-24.4825
-17.9857
1180.58
137.965
467.768
401.354
-22.5937
-21.0854
609.885
)
;
    }
    water_top_surface
    {
        type            totalPressure;
        rho             rho;
        psi             none;
        gamma           1;
        p0              uniform 0;
        value           nonuniform List<scalar> 
180
(
0
0
0
0
0
0
0
0
0
0
0
0
-0.32858
-0.334401
-0.332112
-0.331743
-0.335132
-0.330349
-1.80291
-1.75905
-1.78124
-1.78509
-1.79638
-1.77621
0
0
0
0
0
0
0
0
0
0
0
0
0
0
0
0
0
0
0
0
0
0
0
0
-6.7453
-7.82665
-7.52982
-7.26286
-7.39378
-7.35676
-19.2379
-19.6959
-19.6547
-19.2798
-19.4352
-19.5079
-12.8863
-12.8565
-12.8658
-12.8754
-12.9386
-12.8053
-5.87847
-5.8852
-5.8829
-5.87779
-5.89021
-5.87223
-0.891575
-0.875209
-0.888585
-1.03661
-1.13577
-1.02285
-1.96452
-1.97933
-1.99294
-2.031
-2.05614
-2.03898
-1.68333
-1.68022
-1.67398
-1.65322
-1.65692
-1.63637
-2.16949
-2.17282
-2.1724
-2.17045
-2.17773
-2.15651
-3.07855
-3.08017
-3.07903
-3.08194
-3.09024
-3.06613
-3.3452
-3.3369
-3.3361
-3.3409
-3.34957
-3.32691
0
0
0
0
0
0
0
0
0
0
0
0
-2.80722
-3.19595
-3.75274
-2.49234
-3.24836
-0.67501
-6.12852
-6.23589
-6.0121
-6.3738
-6.45113
-6.00317
-1.45489
-1.46937
-1.48126
-1.39816
-1.42179
-1.40366
-0.992521
-0.988614
-1.00791
-1.01093
-1.02529
-1.00164
-0.157437
-0.151994
-0.165879
-0.183861
-0.19535
-0.1784
-0.229719
-0.225913
-0.237486
-0.288396
-0.325017
-0.308681
-0.336191
-0.349901
-0.371075
-0.403128
-0.441575
-0.437497
-1.15029
-1.21869
-1.27907
-1.30028
-1.36867
-1.31773
-2.11507
-2.19021
-2.21995
-2.40094
-2.59208
-2.38233
-0.544977
-0.587426
-0.638866
-0.722466
-0.903206
-0.783111
)
;
    }
}


// ************************************************************************* //
