/*--------------------------------*- C++ -*----------------------------------*\
| =========                 |                                                 |
| \\      /  F ield         | OpenFOAM: The Open Source CFD Toolbox           |
|  \\    /   O peration     | Version:  v1612+                                |
|   \\  /    A nd           | Web:      www.OpenFOAM.com                      |
|    \\/     M anipulation  |                                                 |
\*---------------------------------------------------------------------------*/
FoamFile
{
    version     2.0;
    format      ascii;
    class       volVectorField;
    location    "6.3";
    object      U;
}
// * * * * * * * * * * * * * * * * * * * * * * * * * * * * * * * * * * * * * //

dimensions      [0 1 -1 0 0 0 0];

internalField   nonuniform List<vector> 
1116
(
(-0.702667 -0.000227566 0.256662)
(-0.702988 -0.000109508 0.25661)
(-0.702838 0.00014191 0.25664)
(-0.702761 -4.17866e-05 0.256633)
(-0.702856 4.79363e-05 0.256605)
(-0.702744 0.000114322 0.256648)
(-1.53145 -0.000100873 0.375133)
(-1.53188 -2.47524e-05 0.375058)
(-1.53164 5.507e-05 0.375095)
(-1.53156 -2.71045e-05 0.375114)
(-1.53169 2.14617e-05 0.375084)
(-1.53156 3.42181e-05 0.375127)
(-1.83402 -2.20286e-05 0.34641)
(-1.83436 1.7891e-05 0.346303)
(-1.83414 -7.03495e-07 0.346362)
(-1.8341 -1.53168e-05 0.346388)
(-1.8342 7.56354e-06 0.346318)
(-1.83413 -4.20218e-06 0.346413)
(-2.12467 3.01692e-05 0.246981)
(-2.12498 4.46787e-05 0.246957)
(-2.12475 -2.3614e-05 0.246985)
(-2.1248 1.03412e-05 0.247032)
(-2.12487 -9.30176e-06 0.246971)
(-2.12475 -4.70368e-05 0.247002)
(-2.27308 9.93406e-06 0.11451)
(-2.27336 6.82256e-06 0.114574)
(-2.27315 4.8457e-05 0.114536)
(-2.27328 9.61415e-05 0.114658)
(-2.2733 -8.17182e-05 0.11463)
(-2.27311 -0.000142035 0.114497)
(-2.25771 -0.000185953 0.0249912)
(-2.25849 -0.000188777 0.0249235)
(-2.25813 0.000284721 0.0248764)
(-2.25807 0.000254108 0.0252412)
(-2.25805 -0.000212495 0.0253528)
(-2.25804 -0.000235512 0.0247078)
(-2.16235 -0.000196699 -0.0916771)
(-2.16435 -0.000351514 -0.0919872)
(-2.16358 0.000423537 -0.0919411)
(-2.1631 0.000342234 -0.0913743)
(-2.16315 -0.000345508 -0.090938)
(-2.16337 -0.000173598 -0.0924295)
(-2.033 0.000285159 -0.292593)
(-2.03588 -0.000232697 -0.292984)
(-2.03498 0.000256823 -0.292745)
(-2.03392 0.000224549 -0.292369)
(-2.03411 -0.000278894 -0.291439)
(-2.03473 0.000126351 -0.293881)
(-1.77046 0.00125548 -0.575835)
(-1.77281 0.000372337 -0.576288)
(-1.7728 -0.000317141 -0.575667)
(-1.77078 -0.000522551 -0.57609)
(-1.77116 0.000618722 -0.574477)
(-1.77234 0.00104027 -0.577564)
(-1.4407 0.0013479 -0.779324)
(-1.43432 0.000533034 -0.778359)
(-1.43563 -0.000470769 -0.777609)
(-1.44059 -0.00114965 -0.780264)
(-1.44635 0.00107802 -0.779933)
(-1.42924 0.00117591 -0.778223)
(-0.791528 0.000481122 -0.77376)
(-0.779528 0.000965127 -0.768425)
(-0.78202 -0.0010418 -0.768732)
(-0.790143 -0.00224843 -0.774051)
(-0.799395 0.0024848 -0.778807)
(-0.772504 0.00184214 -0.763511)
(-0.188882 -0.000119739 -0.178938)
(-0.181774 0.000773774 -0.173958)
(-0.183162 -0.000695338 -0.174873)
(-0.188066 -0.00121648 -0.17817)
(-0.195121 0.00122069 -0.182779)
(-0.180348 0.000754502 -0.171739)
(-1.49553 -0.000174553 1.97027)
(-1.49611 -7.30879e-05 1.9693)
(-1.49579 8.23638e-05 1.96974)
(-1.49581 -4.55924e-05 1.96985)
(-1.49595 5.6966e-05 1.96954)
(-1.49566 9.00998e-05 1.97003)
(-2.28892 1.84799e-05 0.803382)
(-2.28927 1.29644e-05 0.803006)
(-2.28905 -2.98785e-05 0.803194)
(-2.28912 2.20777e-05 0.803241)
(-2.28918 1.35004e-05 0.803135)
(-2.28899 -2.01126e-05 0.803308)
(-2.27275 -0.000101176 0.264223)
(-2.27318 -7.71402e-05 0.264162)
(-2.27298 6.94997e-05 0.264201)
(-2.273 9.7514e-06 0.264239)
(-2.2731 4.18165e-05 0.26424)
(-2.27283 8.22753e-05 0.264181)
(-1.67143 -0.000589218 0.149236)
(-1.67186 -0.000388588 0.149526)
(-1.67168 0.000400522 0.149416)
(-1.67173 2.95171e-05 0.149432)
(-1.6719 0.000129706 0.149577)
(-1.67144 0.000291399 0.1492)
(-0.926367 -0.000250529 -0.0335527)
(-0.927738 -0.000150616 -0.0332088)
(-0.927278 8.87068e-05 -0.0334216)
(-0.926993 -0.000268322 -0.033217)
(-0.927401 0.000351615 -0.0330035)
(-0.926792 0.000623331 -0.0337223)
(0.0687876 0.000757883 -0.200155)
(0.0662732 0.000487286 -0.20012)
(0.0670719 -0.000762636 -0.20039)
(0.0677484 -0.000930485 -0.199711)
(0.0670217 0.00071242 -0.199551)
(0.0679969 0.00126974 -0.200628)
(1.12646 0.00107636 -0.277014)
(1.12566 0.000516339 -0.277295)
(1.12566 -0.000937221 -0.277496)
(1.12579 -0.000877585 -0.276583)
(1.12388 0.000568733 -0.27651)
(1.12764 0.001312 -0.277577)
(1.7776 0.00163405 -0.226011)
(1.78006 0.000555942 -0.225818)
(1.77828 -0.00151912 -0.226218)
(1.7788 -0.00233387 -0.225475)
(1.77751 0.00176368 -0.226307)
(1.78008 0.00388436 -0.225587)
(1.85757 -0.000329737 -0.171439)
(1.87298 0.000583615 -0.171237)
(1.872 -0.000751222 -0.171181)
(1.85678 -0.0027783 -0.1711)
(1.84414 0.00339887 -0.171981)
(1.87979 0.00589942 -0.170416)
(0.58781 -0.014642 -0.161829)
(0.589632 -0.00596628 -0.171429)
(0.59514 0.00913977 -0.168782)
(0.582241 0.0196058 -0.162669)
(0.586672 -0.0194714 -0.153617)
(0.595504 -0.0352563 -0.177676)
(0.825692 -0.0163901 -0.534759)
(0.732387 -0.00466518 -0.526603)
(0.749702 0.00835621 -0.527644)
(0.820325 0.0200137 -0.534328)
(0.896678 -0.0120521 -0.540021)
(0.661696 -0.027523 -0.519614)
(-0.85697 0.0095758 -0.573688)
(-0.929868 0.00505033 -0.558849)
(-0.918738 -0.00880148 -0.560453)
(-0.863614 -0.0148638 -0.572513)
(-0.812334 0.0119816 -0.586508)
(-0.936159 0.0284715 -0.551153)
(-1.9075 0.000378561 3.00403)
(-1.90857 0.000249498 3.00365)
(-1.90802 -0.000176244 3.00382)
(-1.90806 2.67001e-05 3.0039)
(-1.90829 -4.53245e-05 3.00368)
(-1.9078 -0.000111375 3.00399)
(-0.823345 -5.16997e-05 1.01045)
(-0.823172 -4.90973e-05 1.01015)
(-0.823236 2.93032e-05 1.01029)
(-0.823358 -4.8119e-05 1.01028)
(-0.82333 9.39754e-05 1.01031)
(-0.823197 0.000163456 1.01037)
(1.90368 -0.00101303 0.106329)
(1.90557 -0.000618464 0.106579)
(1.90515 0.00090754 0.106485)
(1.90394 0.000140562 0.106339)
(1.90378 -0.000133987 0.106412)
(1.90486 0.000184208 0.106549)
(5.56894 -0.0198303 -1.12885)
(5.53438 -0.0105158 -1.13933)
(5.54587 0.0130998 -1.13556)
(5.56238 0.0076839 -1.13157)
(5.56206 -0.00351253 -1.13381)
(5.54666 -0.00653719 -1.13301)
(9.47584 0.000951646 -2.32357)
(9.37452 0.0056485 -2.32458)
(9.40651 -0.00548108 -2.32375)
(9.45354 -0.00516135 -2.32494)
(9.45724 0.0047142 -2.32711)
(9.40615 0.00507688 -2.32085)
(12.5647 0.041019 -2.25456)
(12.5796 0.0273957 -2.23946)
(12.5643 -0.0313501 -2.24318)
(12.5801 -0.0202854 -2.2519)
(12.5707 0.0120708 -2.25527)
(12.5698 0.0217429 -2.24147)
(12.9664 0.0410789 -0.899024)
(13.0225 0.0210835 -0.89477)
(12.9862 -0.0247866 -0.893721)
(13.0021 -0.0108637 -0.899537)
(12.9926 0.00667194 -0.900682)
(12.9966 0.0193499 -0.893999)
(6.67981 0.0289765 0.36102)
(6.88818 0.0149001 0.349097)
(6.79906 -0.0289401 0.349343)
(6.76077 -0.0480779 0.359739)
(6.67968 0.044177 0.371467)
(6.85848 0.0808713 0.34116)
(-3.16629 -0.0306816 1.61285)
(-2.91312 -0.00204408 1.61842)
(-2.9256 -0.00115597 1.62546)
(-3.17861 -0.0237537 1.60866)
(-3.40656 0.0218899 1.56914)
(-2.76228 0.0507005 1.65779)
(-2.39343 -0.0887816 0.437476)
(-2.4226 -0.0301839 0.437011)
(-2.40654 0.0453678 0.434588)
(-2.40032 0.107701 0.44305)
(-2.48514 -0.0947485 0.443367)
(-2.36526 -0.16122 0.433669)
(0.223993 -0.0164521 0.33793)
(-0.160436 0.00322875 0.342159)
(-0.0735444 0.00592596 0.352191)
(0.162151 0.0343757 0.319385)
(0.439386 -0.0115306 0.322464)
(-0.367785 -0.0205145 0.342767)
(-0.635465 0.0611998 0.402594)
(-0.8247 0.0269031 0.299346)
(-0.791241 -0.0374988 0.325661)
(-0.66692 -0.0650587 0.386851)
(-0.532923 0.0534624 0.457973)
(-0.811648 0.120443 0.268559)
(-3.06727 -0.000176766 4.43717)
(-3.06772 -0.000103507 4.4397)
(-3.06747 1.82069e-05 4.4388)
(-3.06752 -5.0032e-05 4.43845)
(-3.06763 0.000107536 4.43896)
(-3.06747 0.000113193 4.43803)
(0.785689 -0.00333834 -2.29961)
(0.787145 -0.000386942 -2.30389)
(0.787561 0.00303277 -2.30245)
(0.785959 -0.000995492 -2.30181)
(0.785577 0.00236474 -2.30284)
(0.788286 0.00217893 -2.30035)
(-7.42104 -0.0305746 -5.8643)
(-7.42821 -0.0148236 -5.85217)
(-7.42446 0.0219542 -5.85549)
(-7.4219 0.013189 -5.86239)
(-7.42787 -0.00625217 -5.86674)
(-7.41629 -0.0135335 -5.85314)
(-1.3015 -0.0495203 -4.81328)
(-1.50548 -0.0222841 -4.87585)
(-1.43725 0.0291042 -4.85316)
(-1.34358 0.0207024 -4.82996)
(-1.33607 -0.0118451 -4.84502)
(-1.43645 -0.0254164 -4.8355)
(-3.31975 0.0166725 -7.01043)
(-3.70767 0.0210779 -6.9519)
(-3.57446 -0.0259536 -6.97054)
(-3.41917 -0.0144686 -7.00139)
(-3.37949 0.009358 -7.01872)
(-3.59257 0.0108537 -6.95703)
(-3.89495 0.111763 -3.54117)
(-4.07125 0.0679054 -3.32527)
(-3.99366 -0.0730265 -3.3996)
(-3.97154 -0.0417746 -3.4778)
(-3.95721 0.0265524 -3.50244)
(-4.00142 0.0565361 -3.39747)
(-1.61972 0.0597117 6.01237)
(-1.39048 0.0357164 6.05639)
(-1.4566 -0.0343552 6.02995)
(-1.55244 -0.0327506 6.04175)
(-1.61527 0.0338517 6.04494)
(-1.41058 0.065198 6.02485)
(-4.67272 -0.0107208 8.84796)
(-4.5519 -0.00587694 8.88073)
(-4.55102 0.00444265 8.89614)
(-4.67545 -0.0150938 8.83833)
(-4.79395 0.0246348 8.7657)
(-4.42677 0.0463303 8.97479)
(-8.08264 -0.0086299 2.6555)
(-8.0927 -0.00730454 2.69727)
(-8.07579 0.00657258 2.72758)
(-8.10525 0.00771081 2.62571)
(-8.15442 -0.0067158 2.54905)
(-8.02281 -0.00554246 2.82288)
(-6.31212 0.00706909 -1.59811)
(-6.33988 0.000380801 -1.61027)
(-6.32521 -0.00290694 -1.5905)
(-6.33025 -0.00961831 -1.61799)
(-6.33839 0.00706125 -1.65108)
(-6.31046 0.0194808 -1.54935)
(-4.15608 0.0168691 -3.26644)
(-4.17109 0.00389655 -3.31546)
(-4.15504 -0.00639502 -3.2916)
(-4.17963 -0.0129639 -3.29427)
(-4.18574 0.00862604 -3.26417)
(-4.14236 0.023048 -3.31254)
(-2.02796 0.0169692 -1.78597)
(-2.07191 0.00698954 -1.82347)
(-2.05692 -0.00943997 -1.81142)
(-2.04275 -0.0129982 -1.79786)
(-2.02188 0.0102644 -1.77212)
(-2.08366 0.0219128 -1.83355)
(0.34403 -0.550088 0.547335)
(1.14155 -0.168526 0.271321)
(0.421947 -0.495666 0.512011)
(1.70441 -0.879581 0.168677)
(3.13057 0.21681 -0.241934)
(0.280981 1.20727 0.727404)
(2.45297 -0.527391 -0.504192)
(4.83365 0.0371871 -1.4432)
(2.34698 -0.182175 -0.646894)
(4.61269 -0.509399 -1.18693)
(6.15012 -0.0769393 -1.58861)
(1.39596 0.330223 -0.0838484)
(5.41962 -0.308376 -1.1636)
(8.13187 0.15876 -2.74234)
(5.90498 -0.126195 -1.57769)
(7.0883 -0.152312 -2.16604)
(7.94502 -0.158444 -2.08951)
(4.48867 -0.143109 -1.27468)
(7.40074 0.0996224 -2.23331)
(8.77583 0.127891 -3.1841)
(8.25796 -0.0370091 -3.21106)
(7.94028 0.364579 -2.69823)
(8.16837 -0.125234 -1.96454)
(6.6007 -0.268136 -2.32536)
(7.53358 0.114766 -2.47316)
(8.35373 0.189046 -3.22021)
(8.06389 -0.155589 -3.69076)
(7.80564 0.212311 -2.79853)
(7.92738 -0.0831476 -1.71041)
(7.2755 -0.152158 -2.78563)
(7.36016 0.0639653 -2.24239)
(8.08365 0.353882 -3.16162)
(7.70308 -0.229 -3.69016)
(7.52565 -0.00799524 -2.61502)
(7.53207 -0.129313 -1.36708)
(7.42022 -0.0600463 -2.83111)
(7.25673 -0.164604 -1.97274)
(8.07323 0.338901 -3.1762)
(7.83802 -0.182019 -3.72591)
(7.52762 0.00810311 -2.54833)
(7.0884 -0.0661028 -1.04492)
(7.28121 0.013869 -2.71184)
(6.83337 -0.313275 -1.7461)
(7.5734 0.352095 -3.12348)
(7.55572 -0.113113 -3.75993)
(7.15966 0.171427 -2.55284)
(6.51958 0.12343 -0.801101)
(6.82762 0.0660094 -2.51758)
(5.84643 -0.246881 -1.7147)
(6.53456 0.524129 -2.95888)
(6.75544 -0.0465409 -3.65524)
(6.27664 0.23265 -2.54352)
(5.53109 0.0839628 -0.602301)
(6.00891 -0.0295847 -2.31742)
(4.15122 -0.235397 -1.88523)
(4.80635 0.379097 -2.78922)
(5.39754 -0.0290237 -3.59067)
(4.73985 0.507817 -2.55573)
(3.76157 -0.0446761 -0.52277)
(4.38553 -0.315423 -2.13024)
(1.82267 -0.221973 -1.41332)
(2.43241 -0.16542 -2.12832)
(3.27452 -0.0701862 -3.66369)
(2.43176 0.923667 -2.23794)
(1.23723 0.245905 -0.322683)
(2.09276 -0.449083 -1.68905)
(-1.86936 -0.16566 1.06378)
(-2.01304 -0.460663 0.726403)
(-0.51601 0.0390239 -0.859452)
(-1.50989 0.662793 0.46716)
(-1.80878 0.284142 0.562126)
(-2.38201 -0.109039 2.0146)
(1.56306 -0.356733 3.26747)
(2.4542 -0.0135872 3.65144)
(1.56743 -0.517984 3.6246)
(2.95913 -0.759606 3.34765)
(4.81563 -0.0221514 3.27334)
(0.701473 1.20357 3.5289)
(3.44248 -0.423136 5.25651)
(5.56158 -0.00901489 5.3282)
(3.50706 -0.455394 5.66903)
(5.54881 -0.503257 4.63886)
(7.34956 -0.657117 3.6955)
(2.62107 -0.0267061 4.13173)
(7.15777 0.0838617 5.50955)
(8.32972 -0.009568 4.53592)
(7.27703 -0.616539 7.63972)
(8.20938 -0.341684 3.94149)
(9.14785 -0.875826 3.18997)
(6.16114 -0.436127 4.33812)
(5.64304 0.0705223 2.45429)
(4.44837 -0.0431729 2.8477)
(5.89803 -0.536616 3.04544)
(5.08766 -0.577303 2.79122)
(6.66682 -0.598532 2.42384)
(5.80634 -0.212708 2.95532)
(-1.19127 -0.335004 1.06819)
(-0.992038 -0.40316 2.24962)
(-0.666886 -0.700574 1.89838)
(-0.343401 -0.508464 1.45434)
(2.47442 0.243114 1.29678)
(2.0292 0.414857 2.39849)
(-2.74362 -0.632997 0.424806)
(-0.554432 0.212555 3.22065)
(-0.487426 -0.835091 3.50067)
(1.291 0.0926189 1.82791)
(1.1287 0.208465 0.191875)
(-2.05002 0.702547 2.20969)
(-2.42685 0.288957 0.661072)
(-1.0789 0.501774 2.75615)
(-0.168566 -0.218896 3.64554)
(0.138779 -0.61168 1.90828)
(0.943454 -0.590424 -0.260496)
(1.87596 0.566385 1.73593)
(3.46638 0.113216 0.432651)
(3.55633 0.355828 1.09769)
(3.62256 -1.09664 2.6493)
(3.33942 -1.35224 0.841372)
(4.35898 -0.437113 -0.729023)
(5.53554 1.17538 1.85235)
(4.91628 -0.0499726 -1.39051)
(5.63572 0.343836 -0.0501798)
(6.55496 -1.1119 2.70251)
(5.87008 -1.38414 -0.0837236)
(6.62678 -0.317309 -1.72242)
(6.41642 0.928374 0.812376)
(5.44335 0.0173748 -3.68001)
(5.95587 0.645362 -3.30506)
(6.05682 -0.783894 -0.792442)
(5.97955 -1.2059 -2.80911)
(6.05205 -0.502755 -2.94984)
(5.30155 0.56493 -4.19854)
(4.09117 -0.0243737 -3.46386)
(4.64132 0.59855 -4.17841)
(4.36474 -0.117246 -5.57235)
(3.70735 -0.09994 -3.53583)
(3.75218 -0.663223 -2.84667)
(3.7663 -0.148218 -4.98651)
(0.69883 0.0727867 -0.0583829)
(1.45812 0.525496 -1.12601)
(2.40867 0.127625 -3.37279)
(1.45846 0.823423 -1.42241)
(-1.31597 -0.365237 1.21722)
(1.26081 -0.663919 -1.45516)
(2.48189 -0.17035 5.40956)
(3.12105 0.0336479 6.69038)
(2.07725 -0.21804 6.57798)
(3.60507 -0.15305 5.71307)
(5.60376 -0.098685 6.25398)
(0.971739 0.934835 5.82266)
(1.09027 -0.162217 8.84463)
(1.5463 -0.0249687 9.03584)
(1.64736 -0.305162 9.00337)
(1.3498 0.390822 8.07698)
(2.08687 -0.431497 6.19563)
(0.849152 0.0313641 5.70405)
(2.16345 0.0225568 3.3821)
(1.24063 -0.0857519 0.20568)
(2.78178 -0.10802 4.88792)
(1.66581 0.561347 -0.772943)
(1.67435 0.346859 -3.22358)
(4.3139 -0.226965 2.82271)
(-1.34989 -0.118017 -7.39182)
(-1.28783 0.0350809 -7.35017)
(-1.16063 0.0235934 -7.18138)
(-0.98803 -0.09233 -7.00623)
(-1.12349 0.373727 -6.21454)
(-0.815826 0.290901 -6.28654)
(1.99687 -0.0967794 -6.11512)
(2.0824 -0.0192236 -5.92486)
(1.76746 0.167214 -6.29279)
(1.96052 0.0908103 -5.84986)
(1.55066 -0.0350161 -5.98077)
(1.67831 -0.083647 -6.15331)
(0.61273 -0.423312 -2.00598)
(-0.0702514 -0.300171 -1.01632)
(0.620062 -0.144577 -2.57823)
(0.450718 -0.17562 -2.72487)
(0.270453 -0.61221 -2.91744)
(-0.102159 -0.431011 -0.825236)
(-0.874846 -0.126766 2.03949)
(-0.813257 0.153999 3.4528)
(-2.0424 0.0892837 3.28041)
(-0.32081 1.01028 -0.232923)
(0.252694 -0.434149 -0.61303)
(1.48676 -0.0465891 3.73536)
(1.36159 -0.277849 3.12548)
(1.45561 -0.413976 3.99586)
(1.61224 -0.456429 4.84989)
(-0.889617 1.22005 1.73991)
(-2.05041 -0.295167 -0.614371)
(3.16038 0.626367 2.63936)
(-1.78371 -0.371849 0.462396)
(1.46331 -0.683317 3.28159)
(3.34009 -0.800658 3.21397)
(-0.813268 0.138094 0.0320346)
(-1.64255 0.187645 -3.29092)
(0.377845 0.459908 -1.0771)
(1.73398 0.0847145 -3.7342)
(2.4383 0.133134 -2.68547)
(2.8415 -0.508168 -1.28903)
(2.29553 -0.914953 -4.89683)
(2.35881 -0.0235839 -6.66358)
(1.87603 0.662225 -3.96544)
(2.89215 0.16528 -5.52236)
(2.60227 0.325096 -6.03106)
(1.68385 -0.328542 -6.12871)
(1.88626 -0.884358 -5.72132)
(3.75007 -0.0587135 -5.78169)
(2.5029 0.783257 -6.45412)
(2.88014 0.0660534 -3.74619)
(3.27694 0.17167 -4.37395)
(3.57429 -0.130136 -5.00887)
(2.43698 -0.69999 -3.17256)
(-0.856582 -0.420134 2.92253)
(2.77258 0.64165 -4.20731)
(2.44388 -0.263499 6.90641)
(2.76101 -0.0107331 7.93782)
(1.55793 -0.070089 7.64741)
(3.68177 0.203368 7.25181)
(5.81722 0.00222052 8.10042)
(1.18959 0.713274 7.09579)
(-0.993223 -0.260799 8.90873)
(-0.248701 -0.16291 8.67898)
(0.382343 0.324866 8.49851)
(-1.32941 1.4563 8.24889)
(-2.22457 0.976826 7.01736)
(-1.27626 0.475391 6.6379)
(1.33362 0.394934 0.275344)
(2.32584 0.370411 -1.22132)
(1.81749 0.206242 -0.617217)
(2.59804 0.850115 -1.28454)
(3.14167 -0.190046 -0.811228)
(1.52995 -0.365824 1.2262)
(-1.3381 0.082562 -1.31534)
(-1.3348 -0.010846 -1.05131)
(-1.28683 -0.168516 -1.11028)
(-0.85064 -0.0907689 -1.59644)
(-0.903884 -0.132609 -1.80168)
(-0.796093 -0.101561 -1.08424)
(2.43025 -0.0176911 -0.490298)
(2.4943 0.0843733 -0.488203)
(2.40866 0.144323 -0.477448)
(2.41379 0.0212584 -0.388183)
(2.36363 0.0624585 -0.555687)
(2.32196 0.0224523 -0.417944)
(1.86866 -0.0908449 -0.261214)
(1.8612 0.177763 0.38414)
(1.7876 0.19108 0.0596788)
(1.67729 0.0888596 -0.214411)
(1.69347 -0.180205 -0.180741)
(1.69656 -0.293022 0.579293)
(0.995818 -0.197894 1.20347)
(0.723156 0.126395 2.58062)
(0.491475 0.557924 2.15385)
(1.0463 0.855393 0.469644)
(1.11627 -0.54225 0.349494)
(0.872661 -0.570677 2.50803)
(-0.687345 -0.132607 1.89573)
(-0.374598 -0.0392763 3.0235)
(-0.431719 0.303684 3.95859)
(-1.17321 1.28972 0.869983)
(-1.0201 0.143523 -0.506963)
(0.0944859 -0.203059 1.9831)
(-2.63113 -0.181121 -0.147153)
(-2.4061 -0.0769574 0.89237)
(-1.74274 0.363297 1.33376)
(-1.98493 1.16129 -0.000989947)
(-1.73758 0.865273 -0.394917)
(-1.66944 0.241777 -0.0153839)
(-1.28139 0.0572784 -1.39823)
(-0.990518 -0.0402703 -1.62426)
(-0.118879 -0.279051 -1.53433)
(-0.773974 -0.329496 -1.83834)
(-0.171622 -0.31198 -2.72561)
(-1.53329 -0.0506617 -0.889525)
(-3.14254 0.216482 -3.45481)
(-4.57868 0.282228 -3.33022)
(-5.96443 -0.0939545 -2.10159)
(-0.337039 -0.323578 -5.20843)
(3.7418 0.00464581 -5.47709)
(0.0601403 0.38931 -4.32941)
(4.16637 -0.0228005 -4.27424)
(4.22995 -0.222805 -4.08854)
(4.45644 0.322442 -3.41759)
(3.84598 -0.379951 -4.09469)
(2.58822 -0.0206999 -2.81079)
(3.56623 0.680851 -3.95548)
(-3.98997 -0.000142289 5.29133)
(-3.98975 -4.86011e-05 5.29053)
(-3.98959 -0.000111094 5.29027)
(-3.98989 -6.87058e-05 5.29101)
(-3.98971 8.30439e-05 5.29073)
(-3.99002 -8.71293e-06 5.29079)
(-4.25075 0.0015869 4.18471)
(-4.24968 0.00123978 4.18224)
(-4.24963 -0.000862841 4.18287)
(-4.2503 -5.79831e-05 4.18343)
(-4.24992 -0.000382086 4.18279)
(-4.25044 -0.000720074 4.18361)
(-3.38765 -0.00112035 4.72618)
(-3.38699 -0.00108185 4.74089)
(-3.38669 3.37529e-05 4.73588)
(-3.38728 2.8432e-06 4.73269)
(-3.38732 3.10596e-05 4.73585)
(-3.38732 0.000173191 4.73061)
(3.78262 -0.00297556 6.83062)
(3.78395 -0.0016273 6.83316)
(3.78346 0.00149402 6.83197)
(3.78328 -0.000500541 6.83177)
(3.7834 0.00108684 6.83245)
(3.78352 0.00160737 6.83163)
(3.91763 -0.00621625 5.11343)
(3.90425 -0.00394482 5.07162)
(3.90859 0.00205623 5.08643)
(3.91123 -0.00142276 5.09379)
(3.90813 0.0006919 5.08294)
(3.91268 0.0020229 5.09742)
(1.68403 -0.00333194 1.442)
(1.67377 -0.00187253 1.3808)
(1.67693 -0.000537602 1.40614)
(1.68026 -0.00219647 1.41129)
(1.67799 0.000248991 1.39073)
(1.68033 0.000606813 1.41775)
(-6.69689 -0.0187587 -3.24771)
(-6.68213 -0.00854063 -3.26002)
(-6.68617 0.0117938 -3.25447)
(-6.68997 0.00776087 -3.25278)
(-6.68703 -0.00418714 -3.25913)
(-6.68643 -0.0108419 -3.24902)
(0.250555 -0.00264601 -2.52037)
(0.236113 -0.000437445 -2.53653)
(0.242184 0.000569714 -2.53052)
(0.246165 0.000359991 -2.5281)
(0.25058 -0.000204028 -2.53244)
(0.243468 -0.00215675 -2.52688)
(0.262234 -0.000747026 -0.80952)
(0.257748 -0.000118437 -0.816677)
(0.259981 -4.89869e-05 -0.813888)
(0.260371 -0.000155242 -0.81345)
(0.261531 -4.71705e-06 -0.817622)
(0.25942 -0.00051827 -0.811789)
(-1.08784 -0.0504281 -4.06104)
(-1.22578 -0.0226036 -4.06182)
(-1.17085 0.0288902 -4.06242)
(-1.12357 0.018516 -4.06309)
(-1.10498 -0.0107144 -4.07967)
(-1.18058 -0.0258493 -4.04504)
(-0.451434 -0.0397171 -3.79201)
(-0.49677 -0.0200899 -3.77123)
(-0.472575 0.0245711 -3.78263)
(-0.47101 0.0127315 -3.78534)
(-0.464068 -0.00710896 -3.79725)
(-0.47601 -0.015798 -3.77329)
(-0.12767 -0.00853381 -1.89786)
(-0.14151 -0.00445563 -1.87464)
(-0.135043 0.00466677 -1.88646)
(-0.134262 0.00269641 -1.8885)
(-0.133021 -0.0010836 -1.89449)
(-0.134867 -0.00333724 -1.88384)
(-3.38192 -0.0230616 -4.09018)
(-3.83541 0.000281015 -3.9472)
(-3.65582 0.00286032 -4.00897)
(-3.51348 -0.00154849 -4.04262)
(-3.46078 0.00661121 -4.06033)
(-3.67594 0.00146564 -4.0012)
(-2.99819 -0.0796245 -2.12767)
(-3.40386 -0.0366032 -1.96781)
(-3.23252 0.0374136 -2.04093)
(-3.13641 0.0126086 -2.06999)
(-3.11548 -0.00305459 -2.08465)
(-3.23466 -0.0128949 -2.03551)
(-1.2463 -0.0539678 0.624944)
(-1.32561 -0.0285165 0.764341)
(-1.29102 0.0287972 0.699069)
(-1.28154 0.00886243 0.681343)
(-1.27389 -0.00403424 0.665794)
(-1.29193 -0.0101005 0.704012)
(-6.63483 0.0804692 -1.13624)
(-7.01155 0.0581975 -0.754409)
(-6.83595 -0.0426317 -0.920446)
(-6.79763 -0.0247893 -0.994504)
(-6.77894 0.027277 -1.01695)
(-6.82223 0.046471 -0.934614)
(-6.85324 0.0110948 1.2294)
(-7.48823 0.00897405 1.60727)
(-7.21154 -0.0262035 1.44008)
(-7.10863 -0.0204521 1.38356)
(-7.10293 0.0204191 1.40563)
(-7.17798 0.0341166 1.39721)
(-2.44641 -0.050651 4.49272)
(-2.95687 -0.0220958 4.8804)
(-2.73921 0.0129551 4.715)
(-2.63772 -0.00744949 4.66116)
(-2.63843 0.00728082 4.67382)
(-2.7195 0.0110513 4.69095)
(-8.35931 0.0430253 7.54479)
(-8.32028 0.0292644 7.76734)
(-8.28716 -0.0210114 7.6831)
(-8.39277 -0.0137933 7.62526)
(-8.46561 0.0197456 7.58573)
(-8.20502 0.0327516 7.70188)
(-9.3826 0.0609908 7.71705)
(-9.54543 0.0351234 7.82658)
(-9.43118 -0.0307262 7.78617)
(-9.50206 -0.000171039 7.76818)
(-9.57811 0.000999104 7.79297)
(-9.34523 0.0021901 7.77209)
(-5.42373 0.085058 8.34667)
(-5.89174 0.0466838 8.63022)
(-5.68226 -0.0510522 8.51573)
(-5.65861 -0.0193314 8.48662)
(-5.70884 0.00696137 8.52929)
(-5.62175 0.0263609 8.47988)
(-9.12084 -0.0286094 9.73078)
(-9.15507 -0.0170632 9.80483)
(-9.11319 0.016953 9.83369)
(-9.16207 0.0201344 9.70902)
(-9.25562 -0.0190123 9.58813)
(-8.98729 -0.0298409 9.96083)
(-8.74578 -0.0123205 8.09239)
(-8.73982 -0.0127996 7.99043)
(-8.72345 0.00971632 8.07759)
(-8.76596 0.0410626 8.01496)
(-8.86713 -0.0441194 7.97189)
(-8.61848 -0.0711666 8.15346)
(-5.26002 0.0822823 5.8285)
(-5.32291 0.038968 5.7516)
(-5.27767 -0.0400333 5.79906)
(-5.32561 0.00269342 5.77294)
(-5.38558 -0.0133198 5.73951)
(-5.24871 -0.00233483 5.84843)
(-9.17073 -0.017935 3.26676)
(-9.21286 -0.0164902 3.29291)
(-9.20317 0.012671 3.32687)
(-9.18322 0.0256558 3.23497)
(-9.22519 -0.0341974 3.1115)
(-9.14846 -0.0491848 3.45822)
(-5.29224 -0.0252787 -0.287482)
(-5.20837 -0.0256716 -0.481794)
(-5.24752 0.00950301 -0.3822)
(-5.25589 0.0322496 -0.392202)
(-5.27573 -0.0419295 -0.502631)
(-5.23166 -0.0598184 -0.26677)
(-1.82081 0.0133722 -3.67238)
(-1.71519 -0.00854178 -3.95585)
(-1.73861 0.00169847 -3.8801)
(-1.79365 0.0252702 -3.81068)
(-1.81017 -0.0268026 -3.84487)
(-1.74205 -0.0209011 -3.83524)
(-5.31108 -0.0114209 -3.66132)
(-5.25053 -0.0109681 -3.62668)
(-5.27702 0.00856379 -3.63541)
(-5.27811 0.01119 -3.65759)
(-5.28417 -0.0155821 -3.74223)
(-5.27408 -0.0171421 -3.5621)
(-2.40895 -0.0237871 -4.82923)
(-2.35031 -0.0182023 -4.90561)
(-2.35793 0.0171419 -4.89786)
(-2.39339 0.0244786 -4.84043)
(-2.40097 -0.0239378 -4.89736)
(-2.34811 -0.0358579 -4.83826)
(-0.682863 -0.00502937 -6.20248)
(-0.661472 -0.004048 -6.27589)
(-0.663383 0.00411421 -6.26931)
(-0.681402 0.00931945 -6.20921)
(-0.682662 -0.00771551 -6.23418)
(-0.664078 -0.0135608 -6.24584)
(-5.35474 0.000522623 -3.93458)
(-5.36873 -5.84284e-05 -3.86189)
(-5.36527 0.0003319 -3.8781)
(-5.35458 -0.00304589 -3.93042)
(-5.35546 0.00492133 -3.97387)
(-5.36625 0.0104841 -3.84414)
(-1.88596 -0.0148845 -4.20304)
(-1.89224 -0.00887144 -4.18263)
(-1.89344 0.00983584 -4.18395)
(-1.88209 0.0118739 -4.2032)
(-1.87967 -0.0106539 -4.22505)
(-1.89412 -0.0190051 -4.16079)
(-0.313272 -0.00354342 -5.07638)
(-0.310319 -0.00293773 -5.07049)
(-0.312056 0.00277525 -5.07231)
(-0.311836 0.00423886 -5.0742)
(-0.314293 -0.00472518 -5.08665)
(-0.311196 -0.00684832 -5.06037)
(-4.28771 0.00683282 -2.38266)
(-4.29836 0.00289985 -2.36106)
(-4.29098 -0.00454879 -2.36769)
(-4.29797 -0.00665319 -2.38267)
(-4.29872 0.00653501 -2.39751)
(-4.29267 0.0129678 -2.35472)
(-1.44006 -0.00478847 -5.67948)
(-1.4352 -0.00145288 -5.66872)
(-1.43767 0.00270757 -5.67758)
(-1.43546 0.00376875 -5.67479)
(-1.43626 -0.00349155 -5.69082)
(-1.43793 -0.00785381 -5.6585)
(-0.133019 -0.000960728 -3.42853)
(-0.128956 -6.0693e-05 -3.43048)
(-0.129905 0.000283039 -3.4298)
(-0.132255 0.000697543 -3.42831)
(-0.13434 -0.00173346 -3.43194)
(-0.12852 -0.00309676 -3.4267)
(2.12554 -0.00719417 0.394528)
(2.12666 -0.0207185 0.396518)
(2.11618 -0.0389449 0.387975)
(2.03765 -0.0353837 0.511285)
(1.93774 -0.000782488 0.504175)
(2.08383 0.0143557 0.501527)
(0.196811 -0.0153247 -5.37743)
(0.232403 -0.0370754 -5.36987)
(0.295235 -0.0673436 -5.35372)
(0.400704 -0.0866978 -5.27988)
(0.539419 -0.0187066 -4.89651)
(0.408461 0.0223722 -5.18382)
(0.574978 -0.00197974 -1.33513)
(0.595071 -0.013769 -1.32282)
(0.621808 -0.0426213 -1.33289)
(0.642011 -0.068647 -1.43964)
(0.700087 -0.0259634 -1.50693)
(0.627906 0.0137899 -1.43005)
(0.588377 -0.00120978 -0.195375)
(0.586163 -0.000256906 -0.199868)
(0.573665 0.00602829 -0.198196)
(0.561594 0.00848746 -0.199273)
(0.545196 -0.000907955 -0.165898)
(0.564414 -0.00537734 -0.194501)
(-0.245226 0.0162015 -2.0152)
(-0.259732 0.0396004 -2.03312)
(-0.264093 0.0568673 -2.02255)
(-0.31062 0.0502055 -1.8666)
(-0.333237 0.0231869 -1.76259)
(-0.296242 0.00968432 -1.96179)
(0.833959 -0.00155207 -1.98193)
(0.831333 -0.00727309 -1.98936)
(0.824361 -0.0265732 -1.99618)
(0.807428 -0.0325663 -2.01515)
(0.782144 -0.00676914 -2.02759)
(0.787512 0.00471301 -2.01912)
(0.221949 -0.0012856 0.206751)
(0.220132 -0.00249391 0.206038)
(0.220371 0.00488621 0.205299)
(0.22257 0.00573715 0.207066)
(0.223597 -0.00239985 0.205903)
(0.221414 -0.00166842 0.20004)
(-0.290038 -0.000232315 -1.0791)
(-0.282 0.000766471 -1.09224)
(-0.263568 -0.00397971 -1.08778)
(-0.251728 -0.00757504 -1.03949)
(-0.238885 0.00548971 -1.02345)
(-0.230619 0.00921904 -1.05704)
(0.274501 -0.00178343 -1.83449)
(0.275166 -0.0082379 -1.83277)
(0.272939 -0.0175867 -1.82937)
(0.259742 -0.0203282 -1.81799)
(0.252044 -0.0077406 -1.82004)
(0.258617 0.00123567 -1.80873)
(-0.246883 -0.000566234 0.245005)
(-0.246333 -0.000391696 0.244491)
(-0.246531 -0.00168855 0.244029)
(-0.243505 -0.00216472 0.246126)
(-0.243361 0.00113335 0.249308)
(-0.243372 0.00172303 0.240439)
(-0.880042 0.000739012 -1.13548)
(-0.881657 0.00324326 -1.13195)
(-0.880694 0.00360774 -1.13011)
(-0.880466 0.001822 -1.14689)
(-0.880345 0.00700905 -1.1556)
(-0.883738 0.00678432 -1.12563)
(-0.206917 -0.0014006 -2.0826)
(-0.207919 -0.00413042 -2.08417)
(-0.211505 -0.00590412 -2.08398)
(-0.217987 -0.00649869 -2.08305)
(-0.222425 -0.00457244 -2.08656)
(-0.222141 -0.00137472 -2.07639)
(-0.60607 -0.00150489 0.147477)
(-0.605231 -0.00161465 0.145901)
(-0.603914 -0.00115089 0.145739)
(-0.60828 -0.0011778 0.148363)
(-0.60911 0.000157014 0.151992)
(-0.603914 0.000544378 0.142861)
(-1.37665 0.000936291 -2.00006)
(-1.3787 0.00307616 -2.00475)
(-1.37809 0.00522145 -2.00327)
(-1.37486 0.00363407 -2.02021)
(-1.37334 0.00443632 -2.02884)
(-1.38056 0.0042614 -2.00133)
(-0.884402 -0.000201265 -2.48091)
(-0.886431 -0.00118877 -2.48155)
(-0.887956 -0.0014827 -2.4811)
(-0.887974 -0.00146151 -2.48228)
(-0.888156 -0.0027567 -2.48565)
(-0.893282 -0.0019012 -2.47596)
(-1.90088 -0.00172771 0.956938)
(-1.90104 -0.00249598 0.956061)
(-1.89894 0.000857449 0.95516)
(-1.90642 0.00211919 0.958494)
(-1.90835 -0.00209983 0.962047)
(-1.89963 -0.00245211 0.952369)
(-1.97692 0.00149534 -5.57062)
(-1.97326 0.00180051 -5.59744)
(-1.97507 0.00088956 -5.59381)
(-1.97105 -0.00028207 -5.58429)
(-1.97145 0.00227414 -5.57929)
(-1.97441 0.00337404 -5.59695)
(-0.865758 0.00192266 -2.58618)
(-0.864763 0.00126807 -2.58297)
(-0.8661 -0.0013456 -2.58266)
(-0.865556 -0.00138927 -2.58454)
(-0.866191 -0.000509481 -2.58791)
(-0.867221 7.76259e-05 -2.57916)
(1.8453 -0.360513 7.07991)
(1.78138 0.120492 8.10206)
(1.03571 0.159849 7.34937)
(3.13538 0.666796 7.31513)
(5.3202 -0.367813 8.4141)
(1.22565 0.445277 6.85406)
(1.9782 -0.762117 5.51905)
(1.32434 -0.301838 5.9846)
(1.54264 -0.180601 5.45632)
(3.51426 0.0826472 7.94569)
(4.90105 0.230245 9.70443)
(2.02394 0.632336 5.3121)
(3.97724 -0.542867 15.0336)
(2.84306 -0.546876 13.1998)
(3.65014 -0.929613 13.0624)
(5.34684 -1.20728 11.3324)
(5.1602 1.4181 11.0807)
(3.52291 0.967441 13.385)
(-1.87279 -0.427539 9.55608)
(-0.708214 0.0523629 7.2195)
(-0.173777 0.514457 6.55472)
(-1.14708 1.63432 6.48569)
(-1.59806 0.957237 5.94844)
(-1.8624 0.648421 8.71579)
(0.0390665 -0.0935265 10.229)
(1.36589 0.896036 9.05364)
(1.63025 0.838942 7.44722)
(0.821704 1.6818 7.3116)
(0.226621 -0.183596 8.37713)
(-1.53599 0.247523 10.5728)
(4.94907 0.0676825 5.24795)
(5.94341 0.614987 5.39486)
(4.76295 0.328465 4.22643)
(2.282 0.836777 5.55117)
(1.69126 -0.848435 7.75176)
(1.1287 -0.0657554 7.20748)
(2.72146 0.339328 -1.07008)
(3.7806 0.609265 -2.20092)
(3.44909 0.303676 -1.69956)
(3.4931 0.0378403 -1.98729)
(3.65632 -0.856834 -2.04976)
(1.76452 -0.469502 -0.317323)
(2.72386 0.181654 -0.61416)
(3.02827 0.177328 -1.00971)
(2.69555 -0.445505 -0.370482)
(2.82433 -0.175758 1.60896)
(3.19548 -0.656564 0.13163)
(2.37125 -0.127378 -0.35938)
(1.12394 -0.051185 -2.36965)
(0.991015 -0.5209 -2.52837)
(0.959664 -0.960436 -2.73976)
(1.3702 -0.577839 -2.23283)
(1.36671 -0.202618 -2.54907)
(1.92156 0.253833 -1.16211)
(-0.293554 0.0689117 -3.63203)
(-0.331053 0.0380528 -3.64674)
(-0.156192 -0.0451623 -3.56215)
(0.114497 0.0133869 -3.95265)
(-0.163062 -0.171018 -4.00436)
(-0.361929 -0.210384 -3.26147)
(0.0741486 0.0408408 -2.94895)
(0.173687 0.0244052 -2.97497)
(0.23914 0.0436168 -2.95872)