/*--------------------------------*- C++ -*----------------------------------*\
| =========                 |                                                 |
| \\      /  F ield         | OpenFOAM: The Open Source CFD Toolbox           |
|  \\    /   O peration     | Version:  v1612+                                |
|   \\  /    A nd           | Web:      www.OpenFOAM.com                      |
|    \\/     M anipulation  |                                                 |
\*---------------------------------------------------------------------------*/
FoamFile
{
    version     2.0;
    format      ascii;
    class       volScalarField;
    location    "5.4";
    object      p_rgh;
}
// * * * * * * * * * * * * * * * * * * * * * * * * * * * * * * * * * * * * * //

dimensions      [1 -1 -2 0 0 0 0];

internalField   nonuniform List<scalar> 
1116
(
3825.61
3825.63
3825.62
3825.63
3825.63
3825.59
5111.06
5111.06
5111.06
5111.08
5111.07
5111.06
8816.66
8816.74
8816.7
8816.7
8816.71
8816.69
14969.7
14969.9
14969.8
14969.8
14969.8
14969.8
19166.1
19166.1
19166.1
19166.1
19166.1
19166.1
20214.9
20214.8
20214.8
20214.9
20214.8
20214.9
19884.9
19885
19885
19885
19885
19885
18998.4
18998.7
18998.6
18998.6
18998.8
18998.5
17988.6
17988.5
17988.5
17988.6
17988.9
17988.1
17061.1
17060.4
17060.9
17060.3
17060.6
17060.5
16753.4
16753.9
16754.1
16752.4
16751.5
16755.3
16277.8
16278.3
16278.1
16277.8
16277
16279
273.629
273.65
273.656
273.661
273.656
273.634
860.151
860.249
860.232
860.249
860.235
860.186
4843.83
4844.63
4844.34
4844.12
4844.28
4844.12
14577.4
14579.7
14578.7
14578.4
14579
14578.1
20710.8
20711.6
20711.3
20711.2
20711.4
20711.1
21105.3
21105.1
21105.2
21105.2
21105.1
21105.3
19573.1
19573.7
19573.6
19573.4
19573.7
19573.1
16363.9
16366
16365.4
16364.9
16365.7
16364
12981.8
12982.4
12982.3
12981.7
12982
12981.1
10876.9
10874.9
10875.5
10875.4
10875.6
10875.1
11902.8
11901
11901
11902.2
11901.8
11901.6
11445.9
11440.7
11442.3
11444.1
11445.1
11442.1
168.467
168.54
168.51
168.522
168.534
168.504
156.366
156.43
156.403
156.42
156.436
156.402
2313.13
2319.33
2316.59
2316.07
2317.66
2314.78
8580.79
8586.61
8584.45
8583.62
8585.07
8582.54
10548.3
10550.6
10550.2
10549.4
10549.9
10549.3
9801.56
9802.5
9802.68
9801.98
9802.03
9802.14
5660.05
5660.97
5660.97
5660.3
5660.3
5660.37
2050.84
2051.14
2051.19
2050.64
2050.28
2050.99
228.956
227.717
228.238
227.983
227.053
228.948
72.8163
72.9695
72.8605
72.9089
72.6269
73.1378
1113.6
1121.01
1119.11
1113.08
1105.99
1125.5
1206.04
1203.78
1204.41
1205.78
1207.66
1201.7
91.0203
91.0852
91.0543
91.0631
91.0767
91.0461
97.5262
97.783
97.6159
97.6974
97.7765
97.5992
19.6149
19.6459
19.5915
19.6913
19.7168
19.6291
-65.0536
-65.0505
-65.0507
-65.0468
-65.0445
-65.0463
-32.1766
-32.1751
-32.1757
-32.1721
-32.1689
-32.1765
-18.1861
-18.1988
-18.1923
-18.1852
-18.1787
-18.197
-11.0507
-11.0678
-11.0577
-11.0478
-11.0346
-11.0694
-10.0906
-10.0905
-10.0858
-10.0936
-10.0984
-10.0753
-1.53747
-1.46211
-1.48002
-1.53798
-1.60407
-1.37848
44.5375
44.983
44.8236
44.539
43.95
45.0815
73.4431
73.7475
73.8243
73.136
73.1302
73.8778
491.936
490.213
491.486
490.167
492.868
492.248
4251.65
4394.78
4114.17
4417.81
4451.88
4136
2072.75
2074.64
2202.18
2297.23
2407.92
2526.46
774.105
754.822
834.557
914.056
975.881
1147.12
589.167
593.689
447.56
629.206
727.892
477.764
807.604
806.01
728.294
781.011
757.472
558.516
847.27
873.833
886.641
835.298
742.494
787.815
804.067
827.035
869.905
778.98
651.174
830.975
1147.14
1087.75
1062.62
1046.75
992.231
1032.13
2626
2489.57
2368.77
2296.38
1940.53
2281.56
3115.87
3213.06
3301.86
3099.34
2827.02
2892.33
1840.88
1924.53
2000.1
1961.97
2023.91
1849.33
1436.08
1440.38
1479.86
1490.11
1580.83
1452.78
1859.71
1844.56
1653.27
1936.52
2060.85
1959.1
253.14
255.277
287.672
274.334
281.345
363.945
53.9124
56.3121
41.6688
40.739
26.7564
24.3712
-52.6528
-52.4019
-55.1869
-59.6671
-67.4829
-60.5921
-66.7107
-66.7351
-65.8343
-62.9672
-59.076
-61.19
-37.6031
-37.3581
-37.7106
-37.4577
-36.125
-37.3992
-19.3581
-19.6253
-20.6185
-19.5016
-19.912
-20.3423
44.4915
30.8709
25.6204
34.6264
38.8536
25.4773
784.05
592.243
598.854
493.957
186.277
508.354
1573.67
1487.99
1898.9
1390.92
572.491
1839.2
1013.22
1702.89
2031.28
1662.54
494.117
2020.98
995.255
970.638
1284.67
822.147
684.35
881.47
649.439
676.304
551.104
769.692
749.854
765.008
-83.248
-85.1996
-80.5149
-85.6457
-90.0521
-81.5398
-84.8281
-84.7087
-85.5239
-86.7154
-88.1382
-88.4018
-71.0598
-71.1797
-68.9043
-70.9455
-70.8235
-70.2193
-48.347
-47.9125
-46.8584
-46.7509
-46.2501
-45.0982
-26.2163
-25.9281
-25.7058
-24.9083
-23.4835
-25.0495
-10.4804
-9.89083
-9.74737
-8.8004
-7.0728
-9.73087
-2.21135
-1.02116
-0.894125
0.0341031
0.409004
-1.16735
-5.86636
-3.74341
-3.38773
-0.224488
4.8913
-0.255032
94.2329
42.4143
43.3109
234.823
278.851
98.3244
2683.38
2584.35
3077.54
2213.13
1336.5
2936.11
3256.9
3900.18
3580.31
1311.3
520.923
3443.3
-53.3566
-52.4952
-19.0925
-37.0065
-44.6311
132.102
-234.66
-235.395
-237.413
-237.065
-236.793
-243.952
-190.472
-189.898
-192.113
-192.508
-194.336
-195.056
-132.442
-131.886
-131.97
-132.018
-132.747
-133.087
-66.9434
-66.5894
-66.4329
-65.933
-65.7105
-65.9282
-31.2011
-31.0668
-31.0133
-30.8025
-30.3752
-31.0451
-12.5227
-12.4345
-12.4318
-12.8088
-12.6713
-12.9499
-3.56098
-3.37923
-3.81053
-5.36848
-5.6544
-5.29607
-6.49905
-6.41691
-6.76344
-6.70629
-5.81245
-6.00995
2.04771
1.38982
1.32362
-1.33313
-4.87669
-0.864277
622.922
266.113
193.304
434.538
616.261
489.931
4019.08
4067.84
4026.75
4125.67
4378.71
3985.08
20.1826
20.1739
20.1753
20.1759
20.1749
20.1781
-3.78745
-3.79081
-3.79078
-3.79162
-3.79117
-3.78888
-4.28554
-4.28654
-4.2853
-4.28448
-4.28336
-4.28146
-10.4187
-10.311
-10.4035
-10.3379
-10.2986
-10.3929
-37.6834
-37.6932
-37.6877
-37.6914
-37.6918
-37.6903
-8.06919
-8.0746
-8.07111
-8.07049
-8.06992
-8.06789
-23.002
-23.11
-23.1053
-23.0145
-23.039
-23.0274
-49.1197
-49.1292
-49.1244
-49.1238
-49.1249
-49.1217
-6.07348
-6.07806
-6.07541
-6.07477
-6.07498
-6.07304
-42.0401
-42.0307
-42.0318
-42.0413
-42.039
-42.037
-34.7998
-34.8009
-34.7997
-34.7985
-34.7985
-34.7975
-4.03098
-4.03272
-4.03136
-4.03224
-4.03248
-4.03223
-20.0491
-20.0422
-20.0454
-20.0449
-20.044
-20.0483
-17.866
-17.8624
-17.8634
-17.8634
-17.8635
-17.8627
-4.40551
-4.40549
-4.4053
-4.40596
-4.40583
-4.40589
-8.44838
-8.44461
-8.44635
-8.4442
-8.44477
-8.44712
-3.25296
-3.24402
-3.24854
-3.2505
-3.25267
-3.2461
-4.82289
-4.82266
-4.8228
-4.82275
-4.82296
-4.82176
-1.13636
-1.13826
-1.13743
-1.13651
-1.13792
-1.13185
12.3181
12.3329
12.3247
12.3189
12.3103
12.3308
-5.92949
-5.93151
-5.93037
-5.92929
-5.93013
-5.92928
-3.50783
-3.5269
-3.52743
-3.51399
-3.50889
-3.51652
28.9041
28.9272
28.9146
28.9079
28.8817
28.9256
-9.15719
-9.1588
-9.15798
-9.15517
-9.16099
-9.15391
-15.5575
-15.4864
-15.5376
-15.5391
-15.5891
-15.4449
49.1785
49.1537
49.1625
49.2265
49.2175
49.0845
-8.37796
-8.3715
-8.37449
-8.37062
-8.39493
-8.3665
6.19473
6.4604
6.36383
6.24469
5.99523
6.48124
58.1184
58.284
58.2582
58.0838
57.8833
58.4395
2.91876
2.95728
2.95028
2.91597
2.8766
2.98919
28.8128
28.7484
28.8071
28.7361
28.8243
28.8188
56.1511
56.249
56.2662
56.1124
56.0755
56.3638
-4.32856
-4.35433
-4.34821
-4.31597
-4.27005
-4.38682
3131.74
3128.17
3130.32
3124.19
3118.92
3136.32
-36.0667
-36.1725
-36.1269
-36.085
-35.9789
-36.1647
-22.1661
-22.2477
-22.2186
-22.1651
-22.0956
-22.2676
8226.18
8226.82
8230.05
8236.36
8238.4
8233.75
-0.0535636
-0.031132
-0.106489
-0.144288
-0.27037
-0.288588
-8.19277
-8.23154
-8.16664
-8.02209
-7.86774
-8.01721
8250.19
8252.64
8255.45
8257.23
8257.34
8256.47
-2.4796
-2.51495
-2.50161
-2.48642
-2.46838
-2.51107
-6.49511
-6.51996
-6.48133
-6.41622
-6.3632
-6.38107
7940.44
7934.6
7932.43
7947.24
7950.02
7935.61
-2.20622
-2.21242
-2.22191
-2.23405
-2.25886
-2.26534
-5.49255
-5.48739
-5.47221
-5.45471
-5.43528
-5.44482
6865.37
6861.88
6857.97
6875.27
6878.15
6853.73
-3.8808
-3.88609
-3.88606
-3.89423
-3.90022
-3.88352
-5.44355
-5.43922
-5.43283
-5.42645
-5.41827
-5.42175
6683.64
6679.84
6677.14
6688.17
6688.12
6675.75
-8.33546
-8.34577
-8.34411
-8.34633
-8.3476
-8.35605
-7.81621
-7.81392
-7.80988
-7.80918
-7.80529
-7.80287
6479.03
6473.84
6472.14
6478.23
6477.1
6472.59
-11.2315
-11.2449
-11.2373
-11.2341
-11.2198
-11.2347
-11.9857
-11.9901
-11.9859
-11.9832
-11.978
-11.9853
-75.4801
-75.4215
-74.5678
-74.4881
-73.0155
-61.4185
-23.7666
-22.9234
-24.5311
-26.244
-25.2494
-22.586
-5.04358
-4.96911
-5.90955
-5.68501
-6.13759
-7.19746
-274.735
-275.417
-280.397
-271.926
-275.807
-275.487
-130.759
-132.174
-136.164
-128.687
-136.333
-126.147
-14.8272
-14.8666
-16.2487
-14.4132
-15.9529
-14.7432
-204.157
-202.439
-204.433
-202.116
-203.725
-205.521
-120.318
-119.257
-122.084
-117.658
-120.607
-121.437
-7.64593
-7.40562
-8.24316
-7.33276
-7.60582
-8.09349
-127.775
-126.316
-127.576
-125.541
-126.757
-128.314
-73.4223
-72.255
-73.4745
-71.9761
-72.5519
-74.4101
-3.09054
-3.1487
-3.02932
-3.6177
-3.13472
-3.23162
-58.4192
-58.0471
-58.1006
-57.7197
-57.7571
-57.7353
-34.82
-34.5444
-34.706
-34.5092
-34.3637
-34.7309
-5.28976
-5.38809
-5.16379
-5.56651
-5.29124
-5.34231
-29.4579
-29.3486
-29.3886
-29.3251
-29.2126
-29.5322
-18.9273
-18.9072
-18.9082
-18.9306
-18.8317
-18.9317
-7.02947
-7.04311
-6.99961
-7.07929
-7.02371
-7.04734
-13.8192
-13.7842
-13.779
-13.9041
-13.8356
-13.9882
-10.6568
-10.6565
-10.6699
-10.7164
-10.7068
-10.7518
-5.3376
-5.34063
-5.33672
-5.35907
-5.35037
-5.35823
-6.26587
-6.18469
-6.31613
-6.58167
-6.61185
-6.76609
-6.72429
-6.72956
-6.77595
-6.85936
-6.89248
-6.92481
-4.44935
-4.45033
-4.45703
-4.47741
-4.47728
-4.49242
-1.01831
-0.406048
-0.628654
-0.726025
-0.934714
-0.953542
-4.69156
-4.69362
-4.73682
-4.83025
-4.87645
-4.75048
-2.12142
-2.09797
-2.10696
-2.11166
-2.10718
-2.13661
1.96526
2.84328
2.76531
1.26961
0.732121
1.49646
-6.0782
-6.24906
-6.19677
-6.54344
-6.59216
-6.25108
-3.98941
-3.97615
-3.98683
-4.0076
-4.01241
-4.02512
-3.39767
1.74383
-1.08951
50.3194
22.3186
4.27172
-7.63206
-7.84542
-7.56904
-8.08629
-7.72487
-7.34441
-2.75751
-2.59971
-2.76221
-2.89945
-2.79837
-2.81989
4062.56
4143.5
3960.44
4667.93
4529.21
4393.9
-6.61946
-6.83869
-6.87476
-6.49985
-6.36804
-6.93607
-16.2502
-16.9044
-16.7187
-15.9026
-15.2502
-16.1819
)
;

boundaryField
{
    seabed_topleft_surface
    {
        type            fixedFluxPressure;
        gradient        uniform 0;
        value           nonuniform List<scalar> 
72
(
3825.61
3825.63
3825.62
3825.63
3825.63
3825.59
5111.06
5111.06
5111.06
5111.08
5111.07
5111.06
8816.66
8816.74
8816.7
8816.7
8816.71
8816.69
14969.7
14969.9
14969.8
14969.8
14969.8
14969.8
19166.1
19166.1
19166.1
19166.1
19166.1
19166.1
20214.9
20214.8
20214.8
20214.9
20214.8
20214.9
19884.9
19885
19885
19885
19885
19885
18998.4
18998.7
18998.6
18998.6
18998.8
18998.5
17988.6
17988.5
17988.5
17988.6
17988.9
17988.1
17061.1
17060.4
17060.9
17060.3
17060.6
17060.5
16753.4
16753.9
16754.1
16752.4
16751.5
16755.3
16277.8
16278.3
16278.1
16277.8
16277
16279
)
;
    }
    seabed_topright_surface
    {
        type            fixedFluxPressure;
        gradient        uniform 0;
        value           nonuniform List<scalar> 
72
(
4251.65
4394.78
4114.17
4417.81
4451.88
4136
2072.75
2074.64
2202.18
2297.23
2407.92
2526.46
774.105
754.822
834.557
914.056
975.881
1147.12
589.167
593.689
447.56
629.206
727.892
477.764
807.604
806.01
728.294
781.011
757.472
558.516
847.27
873.833
886.641
835.298
742.494
787.815
804.067
827.035
869.905
778.98
651.174
830.975
1147.14
1087.75
1062.62
1046.75
992.231
1032.13
2626
2489.57
2368.77
2296.38
1940.53
2281.56
3115.87
3213.06
3301.86
3099.34
2827.02
2892.33
1840.88
1924.53
2000.1
1961.97
2023.91
1849.33
1436.08
1440.38
1479.86
1490.11
1580.83
1452.78
)
;
    }
    breakwater_top_surface
    {
        type            fixedFluxPressure;
        gradient        uniform 0;
        value           nonuniform List<scalar> 
36
(
8226.18
8226.82
8230.05
8236.36
8238.4
8233.75
8250.19
8252.64
8255.45
8257.23
8257.34
8256.47
7940.44
7934.6
7932.43
7947.24
7950.02
7935.61
6865.37
6861.88
6857.97
6875.27
6878.15
6853.73
6683.64
6679.84
6677.14
6688.17
6688.12
6675.75
6479.03
6473.84
6472.14
6478.23
6477.1
6472.59
)
;
    }
    breakwater_left_surface
    {
        type            fixedFluxPressure;
        gradient        uniform 0;
        value           nonuniform List<scalar> 
24
(
16277.8
16278.3
16278.1
16277.8
16277
16279
11445.9
11440.7
11442.3
11444.1
11445.1
11442.1
1206.04
1203.78
1204.41
1205.78
1207.66
1201.7
491.936
490.213
491.486
490.167
492.868
492.248
)
;
    }
    breakwater_right_surface
    {
        type            fixedFluxPressure;
        gradient        uniform 0;
        value           nonuniform List<scalar> 
24
(
1436.08
1440.38
1479.86
1490.11
1580.83
1452.78
995.255
970.638
1284.67
822.147
684.35
881.47
3256.9
3900.18
3580.31
1311.3
520.923
3443.3
4019.08
4067.84
4026.75
4125.67
4378.71
3985.08
)
;
    }
    water_front_surface
    {
        type            fixedFluxPressure;
        gradient        uniform 0;
        value           nonuniform List<scalar> 
186
(
3825.61
5111.06
8816.66
14969.7
19166.1
20214.9
19884.9
18998.4
17988.6
17061.1
16753.4
16277.8
273.629
860.151
4843.83
14577.4
20710.8
21105.3
19573.1
16363.9
12981.8
10876.9
11902.8
11445.9
168.467
156.366
2313.13
8580.79
10548.3
9801.56
5660.05
2050.84
228.956
72.8163
1113.6
1206.04
91.0203
97.5262
19.6149
-65.0536
-32.1766
-18.1861
-11.0507
-10.0906
-1.53747
44.5375
73.4431
491.936
4251.65
2072.75
774.105
589.167
807.604
847.27
804.067
1147.14
2626
3115.87
1840.88
1436.08
1859.71
253.14
53.9124
-52.6528
-66.7107
-37.6031
-19.3581
44.4915
784.05
1573.67
1013.22
995.255
649.439
-83.248
-84.8281
-71.0598
-48.347
-26.2163
-10.4804
-2.21135
-5.86636
94.2329
2683.38
3256.9
-53.3566
-234.66
-190.472
-132.442
-66.9434
-31.2011
-12.5227
-3.56098
-6.49905
2.04771
622.922
4019.08
20.1826
-3.78745
-4.28554
-10.4187
-37.6834
-8.06919
-23.002
-49.1197
-6.07348
-42.0401
-34.7998
-4.03098
-20.0491
-17.866
-4.40551
-8.44838
-3.25296
-4.82289
-1.13636
12.3181
-5.92949
-3.50783
28.9041
-9.15719
-15.5575
49.1785
-8.37796
6.19473
58.1184
2.91876
28.8128
56.1511
-4.32856
3131.74
-36.0667
-22.1661
8226.18
-0.0535636
-8.19277
8250.19
-2.4796
-6.49511
7940.44
-2.20622
-5.49255
6865.37
-3.8808
-5.44355
6683.64
-8.33546
-7.81621
6479.03
-11.2315
-11.9857
-75.4801
-23.7666
-5.04358
-274.735
-130.759
-14.8272
-204.157
-120.318
-7.64593
-127.775
-73.4223
-3.09054
-58.4192
-34.82
-5.28976
-29.4579
-18.9273
-7.02947
-13.8192
-10.6568
-5.3376
-6.26587
-6.72429
-4.44935
-1.01831
-4.69156
-2.12142
1.96526
-6.0782
-3.98941
-3.39767
-7.63206
-2.75751
4062.56
-6.61946
-16.2502
)
;
    }
    water_back_surface
    {
        type            fixedFluxPressure;
        gradient        uniform 0;
        value           nonuniform List<scalar> 
186
(
3825.59
5111.06
8816.69
14969.8
19166.1
20214.9
19885
18998.5
17988.1
17060.5
16755.3
16279
273.634
860.186
4844.12
14578.1
20711.1
21105.3
19573.1
16364
12981.1
10875.1
11901.6
11442.1
168.504
156.402
2314.78
8582.54
10549.3
9802.14
5660.37
2050.99
228.948
73.1378
1125.5
1201.7
91.0461
97.5992
19.6291
-65.0463
-32.1765
-18.197
-11.0694
-10.0753
-1.37848
45.0815
73.8778
492.248
4136
2526.46
1147.12
477.764
558.516
787.815
830.975
1032.13
2281.56
2892.33
1849.33
1452.78
1959.1
363.945
24.3712
-60.5921
-61.19
-37.3992
-20.3423
25.4773
508.354
1839.2
2020.98
881.47
765.008
-81.5398
-88.4018
-70.2193
-45.0982
-25.0495
-9.73087
-1.16735
-0.255032
98.3244
2936.11
3443.3
132.102
-243.952
-195.056
-133.087
-65.9282
-31.0451
-12.9499
-5.29607
-6.00995
-0.864277
489.931
3985.08
20.1781
-3.78888
-4.28146
-10.3929
-37.6903
-8.06789
-23.0274
-49.1217
-6.07304
-42.037
-34.7975
-4.03223
-20.0483
-17.8627
-4.40589
-8.44712
-3.2461
-4.82176
-1.13185
12.3308
-5.92928
-3.51652
28.9256
-9.15391
-15.4449
49.0845
-8.3665
6.48124
58.4395
2.98919
28.8188
56.3638
-4.38682
3136.32
-36.1647
-22.2676
8233.75
-0.288588
-8.01721
8256.47
-2.51107
-6.38107
7935.61
-2.26534
-5.44482
6853.73
-3.88352
-5.42175
6675.75
-8.35605
-7.80287
6472.59
-11.2347
-11.9853
-61.4185
-22.586
-7.19746
-275.487
-126.147
-14.7432
-205.521
-121.437
-8.09349
-128.314
-74.4101
-3.23162
-57.7353
-34.7309
-5.34231
-29.5322
-18.9317
-7.04734
-13.9882
-10.7518
-5.35823
-6.76609
-6.92481
-4.49242
-0.953542
-4.75048
-2.13661
1.49646
-6.25108
-4.02512
4.27172
-7.34441
-2.81989
4393.9
-6.93607
-16.1819
)
;
    }
    water_left_surface
    {
        type            fixedFluxPressure;
        gradient        uniform 0;
        value           nonuniform List<scalar> 
42
(
3825.61
3825.63
3825.62
3825.63
3825.63
3825.59
273.629
273.65
273.656
273.661
273.656
273.634
168.467
168.54
168.51
168.522
168.534
168.504
91.0203
91.0852
91.0543
91.0631
91.0767
91.0461
20.1826
20.1739
20.1753
20.1759
20.1749
20.1781
-3.78745
-3.79081
-3.79078
-3.79162
-3.79117
-3.78888
-4.28554
-4.28654
-4.2853
-4.28448
-4.28336
-4.28146
)
;
    }
    water_right_surface
    {
        type            fixedFluxPressure;
        gradient        uniform 0;
        value           nonuniform List<scalar> 
42
(
4251.65
4394.78
4114.17
4417.81
4451.88
4136
1859.71
1844.56
1653.27
1936.52
2060.85
1959.1
649.439
676.304
551.104
769.692
749.854
765.008
-53.3566
-52.4952
-19.0925
-37.0065
-44.6311
132.102
-75.4801
-75.4215
-74.5678
-74.4881
-73.0155
-61.4185
-23.7666
-22.9234
-24.5311
-26.244
-25.2494
-22.586
-5.04358
-4.96911
-5.90955
-5.68501
-6.13759
-7.19746
)
;
    }
    water_top_surface
    {
        type            totalPressure;
        rho             rho;
        psi             none;
        gamma           1;
        p0              uniform 0;
        value           nonuniform List<scalar> 
180
(
0
0
0
0
0
0
0
0
0
0
0
0
0
0
0
0
0
0
-2.92538
-2.92356
-2.92436
-2.92574
-2.92523
-2.92651
-6.26026
-6.25569
-6.25815
-6.25901
-6.25801
-6.25877
-4.39213
-4.38518
-4.38888
-4.38986
-4.38827
-4.38816
-1.02643
-1.02089
-1.02374
-1.02485
-1.02354
-1.02383
-0.00986617
-0.0091961
-0.00954651
-0.0097241
-0.00971998
-0.00960509
0
0
0
0
0
0
0
0
0
0
0
0
-0.0360245
-0.036951
-0.0366611
-0.0340677
-0.0299057
-0.0407006
-8.58211
-8.57445
-8.56227
-8.59393
-8.61486
-8.53137
-2.63511
-2.65499
-2.6344
-2.58753
-2.60664
-2.61091
-3.20977
-3.23372
-3.21916
-3.14871
-3.13468
-3.25001
-2.8526
-2.85368
-2.84683
-2.84669
-2.86576
-2.80518
-3.34983
-3.35046
-3.33599
-3.36548
-3.3955
-3.27945
-5.68695
-5.69189
-5.67436
-5.70953
-5.7428
-5.62925
-4.53939
-4.54584
-4.53425
-4.55174
-4.56923
-4.51303
0
0
0
0
0
0
0
0
0
0
0
0
0
0
0
0
0
0
-0.756784
-0.792057
-0.659179
-0.917667
-0.755271
-0.799684
-3.60558
-3.60018
-3.61219
-3.62194
-3.54161
-3.6669
-4.19842
-4.19837
-4.19648
-4.20728
-4.18629
-4.20799
-3.39927
-3.39861
-3.39967
-3.40493
-3.40221
-3.4098
-3.68582
-3.68479
-3.68962
-3.69822
-3.69713
-3.703
-2.51668
-2.51176
-2.51391
-2.51778
-2.51969
-2.51066
-4.21766
-4.232
-4.23466
-4.35322
-4.41945
-4.26324
-4.66717
-4.67518
-4.57807
-4.79446
-4.7989
-4.45183
-3.65534
-3.58474
-3.65721
-3.4672
-3.69694
-3.72409
)
;
    }
}


// ************************************************************************* //
