/*--------------------------------*- C++ -*----------------------------------*\
| =========                 |                                                 |
| \\      /  F ield         | OpenFOAM: The Open Source CFD Toolbox           |
|  \\    /   O peration     | Version:  v1612+                                |
|   \\  /    A nd           | Web:      www.OpenFOAM.com                      |
|    \\/     M anipulation  |                                                 |
\*---------------------------------------------------------------------------*/
FoamFile
{
    version     2.0;
    format      ascii;
    class       volScalarField;
    location    "7";
    object      alpha.water;
}
// * * * * * * * * * * * * * * * * * * * * * * * * * * * * * * * * * * * * * //

dimensions      [0 0 0 0 0 0 0];

internalField   nonuniform List<scalar> 
1116
(
0.685885
0.685885
0.685886
0.685886
0.685886
0.685887
0.940278
0.94035
0.940306
0.940294
0.940316
0.940293
0.974408
0.974408
0.974408
0.974408
0.974408
0.974408
0.974408
0.974408
0.974408
0.974408
0.974408
0.974408
0.974404
0.974404
0.974404
0.974404
0.974404
0.974404
0.91307
0.912907
0.912878
0.913176
0.913222
0.912817
0.868478
0.868706
0.86868
0.868589
0.868369
0.868764
0.845558
0.845739
0.845861
0.845489
0.845294
0.845901
0.832802
0.832713
0.832946
0.832625
0.832577
0.832886
0.82474
0.82422
0.824531
0.824553
0.824889
0.824257
0.823372
0.822897
0.82319
0.823197
0.823509
0.822937
0.822597
0.822326
0.822485
0.822505
0.822733
0.822329
0.765655
0.765579
0.765616
0.765647
0.765627
0.765638
0.940274
0.940333
0.940294
0.940278
0.9403
0.940277
0.783457
0.783558
0.783528
0.783503
0.783545
0.783497
0.5588
0.558836
0.558833
0.558811
0.558803
0.558808
0.350602
0.350633
0.350559
0.350676
0.350699
0.350518
0.202618
0.203304
0.203132
0.202907
0.202586
0.20347
0.117641
0.115537
0.115856
0.117273
0.119025
0.114842
0.117987
0.117097
0.117425
0.117686
0.118051
0.117065
0.140674
0.140365
0.140712
0.140383
0.13956
0.141202
0.142983
0.143408
0.143282
0.143051
0.141944
0.144588
0.160041
0.163803
0.163433
0.160076
0.157161
0.165884
0.239976
0.238591
0.240035
0.239718
0.241252
0.238995
0.765753
0.765715
0.76573
0.765746
0.765736
0.765737
0.446578
0.446647
0.446653
0.446583
0.446551
0.446666
0.134892
0.135193
0.135098
0.134989
0.135013
0.13507
0.0374989
0.0377783
0.037664
0.0375941
0.0376025
0.0376421
0.00655535
0.00677041
0.00666516
0.00668361
0.00671706
0.00661281
0.000328893
0.000171281
0.000168434
0.000210584
0.000301837
0.000135566
0.000402546
0.000326383
0.000322978
0.000348568
0.000292646
0.000239943
0.00506281
0.00442527
0.00446228
0.00510149
0.00611226
0.00388333
0.0130838
0.0127338
0.0126429
0.0131897
0.0137219
0.012309
0.01911
0.0194918
0.0191472
0.0193116
0.0189047
0.0195925
0.023003
0.0242481
0.0237041
0.0232045
0.0220916
0.0243837
0.0257378
0.0267905
0.026392
0.025546
0.0245658
0.0263805
0.765694
0.765638
0.765664
0.765687
0.765672
0.765678
0.0387053
0.0386871
0.0386848
0.0387074
0.0387058
0.0386758
1.07198e-06
1.02062e-06
1.00637e-06
1.00011e-06
9.33037e-07
8.66174e-07
4.33816e-06
3.22657e-06
3.13361e-06
3.93466e-06
4.98957e-06
2.87122e-06
9.40016e-06
7.76014e-06
7.66628e-06
8.89137e-06
1.03753e-05
7.31283e-06
0.00022852
8.55817e-05
8.07133e-05
0.000111894
0.000192615
5.80187e-05
0.00350713
0.0028777
0.00287084
0.00345165
0.00372678
0.0022831
0.00518016
0.00517497
0.00529321
0.00542316
0.00557534
0.00542995
0.00119125
0.00123265
0.00120047
0.00112338
0.000941384
0.0012985
1.20736e-05
6.21655e-06
6.33448e-06
1.44097e-05
2.93585e-05
6.36683e-06
0.00921336
0.00865274
0.00866981
0.00930459
0.00970871
0.00836728
0.0272113
0.0274024
0.0272128
0.0269366
0.02681
0.0269918
0.0918478
0.09186
0.09188
0.0918674
0.0918705
0.0918725
0.0918478
0.0918499
0.09186
0.0918968
0.0918729
0.0918774
0.0918267
0.0395385
0.0569668
0.0600615
0.0918696
0.0918724
0.0428669
0.0425556
0.0607921
0.0376029
0.0630709
0.0918687
0.0434655
0.0749318
0.0749678
0.0749678
0.0638141
0.0918297
0.0750204
0.0738178
0.0748796
0.0733569
0.0730834
0.0677671
0.0752117
0.0658585
0.0640277
0.04196
0.0642378
0.0299194
0.0752178
0.0719237
0.054463
0.0399561
0.0568315
0.0222239
0.0752609
0.0750418
0.0545275
0.0646914
0.0666882
0.0619965
0.0752714
0.0745152
0.0694806
0.074656
0.076345
0.078789
0.0716594
0.0589924
0.0755214
0.0803778
0.0806609
0.0790422
0.0421959
0.0516301
0.0789446
0.0806609
0.0806609
0.054901
0.0918478
0.0723604
0.0918601
0.0918887
0.0918679
0.0918753
0.0816403
0.0321278
0.0622512
0.0509653
0.0355094
0.0918887
0.00854201
0.00754372
0.00271081
0.00692059
0.00865962
0.0117157
0.00427241
0.0026982
0.00367838
0.00264971
0.00461252
0.00307097
0.0022332
4.61658e-08
3.03202e-05
1.47367e-05
0.00146057
0.000267996
2.02761e-09
2.04101e-09
1.03385e-09
1.32035e-09
7.09447e-09
4.44362e-05
1.8405e-09
2.02761e-09
1.9808e-09
2.89055e-08
1.14334e-06
0.00235176
1.79356e-09
1.8405e-09
2.56744e-09
2.67961e-08
1.31463e-05
0.00413933
1.81887e-09
2.5569e-09
1.70122e-08
5.93531e-09
3.51993e-09
0.00187082
0.000369845
2.33317e-07
1.27279e-07
3.14686e-08
2.00723e-06
5.60321e-05
0.00956388
0.00439314
0.00167401
0.00892668
0.0192818
0.00846716
0.042472
0.0273459
0.0111675
0.0460935
0.0806609
0.0517356
0.0918325
0.0901521
0.0819889
0.0573276
0.06962
0.0918609
0.0537796
0.00557957
0.0222802
0.0112472
0.0108897
0.0581849
1.35995e-06
2.2083e-06
4.24825e-07
3.31747e-07
9.92669e-07
2.56512e-05
3.36339e-08
4.49574e-08
1.01956e-08
7.29589e-09
2.1817e-08
7.46638e-08
1.94859e-09
1.43297e-09
6.15228e-10
7.08746e-10
2.7277e-10
2.09551e-09
2.7599e-09
1.04985e-09
8.26892e-10
1.03385e-09
9.81557e-10
3.19848e-09
3.48007e-09
3.87156e-08
8.91195e-10
1.14725e-08
1.94504e-06
4.89106e-09
1.75918e-09
3.91594e-09
2.68263e-09
4.00001e-08
4.54231e-06
4.78482e-07
1.79162e-09
2.03629e-07
4.42292e-09
5.38944e-09
2.44678e-09
3.511e-09
5.05297e-08
1.99566e-07
1.6909e-08
5.92176e-09
3.23016e-09
7.17238e-07
2.66047e-06
1.91696e-06
8.14781e-07
3.59377e-08
2.25752e-06
7.51153e-07
0.012591
4.39584e-06
1.98436e-05
9.9388e-06
0.00977563
6.24183e-06
0.0918173
0.0918159
0.0904128
0.0355455
0.0432142
0.0918256
0.0189687
0.00888409
0.00632339
0.00248428
0.00316182
0.0145153
1.09927e-06
5.74663e-07
9.5465e-08
1.27699e-07
2.99531e-08
1.95628e-07
1.2008e-08
-2.33193e-09
-1.64583e-11
-1.96929e-11
2.71021e-10
2.17576e-09
-1.64189e-11
-3.91453e-12
4.20053e-12
4.21345e-14
3.28439e-14
3.21398e-12
5.86305e-09
1.3332e-08
8.10229e-10
5.57741e-09
5.90305e-09
4.82929e-08
1.51924e-08
3.83275e-08
7.09206e-10
1.20897e-08
3.38895e-08
1.45199e-08
1.72613e-09
1.33871e-09
8.60248e-10
5.35899e-09
3.207e-10
1.78349e-09
1.75174e-09
2.67892e-08
2.32884e-07
7.51925e-09
2.26238e-09
2.45076e-09
3.39582e-08
1.44352e-06
4.03378e-06
9.23849e-09
-6.14852e-09
4.59525e-09
2.66097e-07
1.12672e-06
2.39508e-06
0.00060844
0.0015179
0.000238954
0.00329837
0.00943199
0.0130843
0.0114538
0.00657397
0.00723912
0.694404
0.69416
0.694232
0.694256
0.694204
0.694333
0.170903
0.168885
0.169709
0.170092
0.169691
0.170181
0.00311126
0.00298057
0.00304388
0.00308844
0.00307712
0.00312043
0.0390778
0.0391087
0.0390668
0.0391308
0.0391791
0.0389699
0.0166405
0.0166069
0.0166169
0.0166201
0.0166202
0.0165662
0.00312886
0.00286471
0.00298288
0.00300847
0.00296406
0.00304023
1.02062e-06
1.00637e-06
1.00012e-06
9.3304e-07
8.66177e-07
8.66176e-07
1.07199e-06
1.02062e-06
1.00637e-06
1.00012e-06
9.3304e-07
8.66177e-07
2.40249e-06
1.93661e-06
1.89831e-06
2.28864e-06
2.49407e-06
1.47248e-06
1.07155e-06
1.02061e-06
1.00636e-06
9.99901e-07
9.32529e-07
8.66147e-07
2.40249e-06
1.93661e-06
1.89831e-06
2.28864e-06
2.49407e-06
1.47248e-06
0.00033948
0.000274988
0.000251871
0.000331627
0.000363138
0.000164625
7.05954e-06
3.20334e-06
3.11151e-06
3.89313e-06
1.86614e-05
2.85753e-06
0.000611567
0.000416407
0.000426384
0.000596159
0.00066321
0.000298453
0.000705001
0.000713482
0.000722301
0.000723229
0.000723229
0.000723229
0.00154703
0.00101533
0.00100009
0.0013683
0.00170475
0.0010625
0.00152484
0.00141802
0.00142518
0.001506
0.00162789
0.00145542
0.000534636
0.000562474
0.00057447
0.00052253
0.000462232
0.000641844
0.00287881
0.00287187
0.00286037
0.0028167
0.00274449
0.00272901
0.000235728
0.000310083
0.000344402
0.000191201
0.000126751
0.00040677
7.88613e-24
6.9721e-24
6.62261e-24
8.78362e-24
1.4789e-23
5.98258e-24
1.36578e-10
1.34431e-10
1.33069e-10
1.3902e-10
1.36928e-10
3.72012e-05
6.78964e-11
6.65347e-11
6.65349e-11
6.65347e-11
6.55756e-11
6.55756e-11
6.6422e-18
6.63878e-18
6.63683e-18
4.01224e-18
6.70061e-18
6.61948e-18
1.47399e-09
1.47394e-09
1.39848e-09
1.68859e-09
1.61744e-09
2.23682e-09
1.96719e-09
1.95616e-09
1.76795e-09
2.40046e-09
2.25024e-09
1.69157e-09
7.14148e-08
7.13342e-08
7.1089e-08
7.50489e-08
7.74906e-08
7.10148e-08
1.94488e-08
2.08423e-08
2.05151e-08
2.08358e-08
1.4631e-08
2.22587e-08
4.07544e-08
4.45112e-08
4.36793e-08
4.39305e-08
2.98379e-08
4.74257e-08
5.22512e-07
5.226e-07
5.22775e-07
5.22933e-07
5.22987e-07
5.22987e-07
-4.3715e-09
-8.78347e-10
-2.18329e-09
-5.55446e-09
-1.0902e-08
1.87935e-10
1.72957e-12
1.71841e-12
1.71419e-12
1.79712e-12
1.57379e-12
1.6696e-12
4.96695e-09
4.90083e-09
4.87917e-09
4.94164e-09
4.96744e-09
4.88698e-09
0.0139942
0.0134175
0.0136118
0.0138439
0.0141682
0.0135053
-2.41289e-20
-1.94485e-20
-3.55213e-20
-4.03151e-21
-2.13132e-19
-1.07903e-20
6.16119e-18
6.16086e-18
6.10014e-18
6.16111e-18
6.162e-18
6.16062e-18
0.0563045
0.0559271
0.0556981
0.055737
0.0556082
0.0560294
3.26349e-27
7.01165e-27
2.70611e-27
3.2231e-27
4.16014e-27
2.90806e-27
4.64382e-12
2.33324e-12
6.69994e-13
2.94788e-12
5.07541e-12
3.22641e-12
0.0582812
0.0581634
0.0585087
0.0593369
0.0602327
0.0589968
-3.41346e-16
-2.71332e-16
-9.25716e-17
-8.558e-18
-3.72022e-16
-8.6757e-17
-1.7997e-26
-1.44533e-26
-2.25454e-26
-1.51731e-26
-2.27162e-26
-1.1338e-26
0.0606443
0.0607125
0.0607944
0.0608516
0.0608555
0.0608175
-1.59842e-15
-1.32451e-15
-2.15215e-15
-2.66131e-16
-1.40041e-14
-8.56399e-16
-2.31295e-26
-2.19453e-26
-2.36918e-26
-2.12028e-26
-3.87323e-26
-1.39949e-26
0.0604985
0.0605395
0.0605934
0.0606607
0.06067
0.0606667
-1.15557e-15
-9.41459e-16
-1.63767e-15
-8.70177e-17
-1.0235e-14
-5.485e-16
-2.187e-26
-2.54576e-26
-2.7822e-26
-2.64189e-26
-2.90379e-26
-2.00803e-26
0.0601766
0.0602142
0.0602631
0.0603156
0.0603182
0.0603371
-6.86328e-16
-5.57668e-16
-9.98311e-16
-7.40688e-17
-6.08589e-15
-3.11396e-16
-1.45482e-26
-1.70846e-26
-1.86615e-26
-1.82105e-26
-2.00356e-26
-1.42166e-26
0.0555402
0.0554486
0.0554686
0.0554892
0.0555029
0.0554628
-2.95965e-16
-2.40643e-16
-4.39432e-16
-4.96263e-17
-2.64521e-15
-1.33332e-16
-1.14309e-26
-1.35936e-26
-1.48165e-26
-1.4983e-26
-1.65916e-26
-1.2096e-26
0.0918159
0.0918129
0.0917533
0.0861222
0.0573768
0.0917808
0.0918128
0.0741468
0.083343
0.0757921
0.0272839
0.0917071
0.0320436
0.0022876
0.00839826
0.00688207
5.57257e-18
0.0322602
0.01022
0.00816113
0.00617767
0.00331867
0.0019228
0.0104702
0.00100438
0.00653033
0.00408205
0.00278244
0.00172391
0.00169152
6.95905e-09
0.00223323
0.00217795
0.00164805
0.0006797
5.94143e-19
7.6112e-08
5.27798e-10
4.75393e-11
-1.48912e-10
6.86508e-10
3.47349e-08
1.24404e-18
4.98859e-10
1.08534e-10
3.24138e-11
4.27062e-09
4.89876e-12
2.39703e-19
1.08534e-10
-2.79697e-19
1.08534e-10
5.9627e-18
-8.04509e-12
-6.34839e-10
-2.97448e-11
8.23515e-15
-3.65898e-15
1.08274e-13
3.86219e-07
-8.67083e-16
1.84082e-09
5.41199e-09
-1.09683e-13
-3.41761e-11
2.46877e-19
-1.83603e-15
1.24088e-08
8.88348e-09
1.3719e-09
-3.83914e-15
-2.62594e-18
-1.27308e-12
-7.49146e-13
7.56909e-12
4.35737e-14
1.02056e-14
1.19203e-12
-2.45681e-16
6.03572e-16
9.43781e-17
1.04982e-16
4.64427e-15
7.50488e-11
6.01347e-16
1.21628e-15
4.63228e-22
3.90611e-21
4.59264e-16
9.21857e-17
8.73046e-10
6.9539e-10
3.61074e-11
1.3044e-14
7.01661e-14
4.39232e-10
1.46694e-15
8.78152e-15
2.98625e-15
2.65909e-16
2.87276e-14
2.56307e-13
2.8017e-14
2.03949e-14
1.61823e-14
3.3254e-14
4.38016e-14
1.99606e-14
3.99357e-09
8.07449e-09
7.33734e-11
6.12694e-11
4.21641e-13
1.99376e-10
3.4686e-11
9.30633e-13
1.25137e-11
2.02021e-14
6.87774e-13
4.17027e-13
1.4818e-13
2.46216e-14
2.22236e-12
3.11639e-13
2.16004e-13
2.17989e-14
3.74179e-11
8.3626e-10
4.51303e-10
2.52254e-10
6.26112e-12
1.80391e-11
7.45457e-12
5.55523e-10
3.74198e-09
6.64957e-10
6.93042e-12
7.32835e-13
3.45909e-12
3.88666e-11
2.57339e-10
2.38652e-11
2.25596e-13
6.35613e-13
1.07874e-08
3.7839e-08
5.50866e-08
1.23439e-08
4.95362e-09
7.39932e-09
1.12204e-08
8.00847e-08
1.06224e-07
2.93238e-08
6.45482e-10
1.7975e-08
3.81564e-10
1.1085e-09
1.131e-09
2.1559e-10
2.00334e-13
6.27546e-11
3.90543e-07
1.07495e-06
5.03323e-07
2.18504e-07
5.30918e-09
6.88053e-08
1.33996e-06
1.13115e-06
6.73384e-07
4.22321e-07
9.93906e-09
1.52614e-07
7.88459e-10
5.25464e-10
4.42133e-11
-9.18139e-16
3.66873e-12
1.07344e-20
-7.59172e-10
-2.46369e-08
-4.30851e-09
-3.53825e-08
-4.56469e-11
-1.86439e-08
-6.38315e-11
-1.76668e-11
4.6414e-13
-1.13061e-12
3.91973e-12
1.0401e-11
-1.07046e-12
-1.13842e-12
-1.13484e-13
4.53784e-18
4.31157e-11
1.43624e-11
0.0203333
0.0216772
0.0206966
0.0178295
0.0111756
0.0192205
4.79742e-14
1.00636e-13
5.36266e-14
5.32234e-14
5.91808e-14
4.76083e-14
5.53029e-19
2.7706e-19
2.32669e-19
2.56667e-11
7.47674e-11
3.28252e-11
)
;

boundaryField
{
    seabed_topleft_surface
    {
        type            zeroGradient;
    }
    seabed_topright_surface
    {
        type            zeroGradient;
    }
    breakwater_top_surface
    {
        type            zeroGradient;
    }
    breakwater_left_surface
    {
        type            zeroGradient;
    }
    breakwater_right_surface
    {
        type            zeroGradient;
    }
    water_front_surface
    {
        type            zeroGradient;
    }
    water_back_surface
    {
        type            zeroGradient;
    }
    water_left_surface
    {
        type            zeroGradient;
    }
    water_right_surface
    {
        type            zeroGradient;
    }
    water_top_surface
    {
        type            inletOutlet;
        inletValue      uniform 0;
        value           nonuniform List<scalar> 
180
(
0.00311126
0.00298057
0.00304388
0.00308844
0.00307712
0.00312043
0.00312886
0.00286471
0.00298288
0.00300847
0.00296406
0.00304023
2.40249e-06
1.93661e-06
1.89831e-06
2.28864e-06
2.49407e-06
1.47248e-06
0.00033948
0.000274988
0.000251871
0.000331627
0.000363138
0.000164625
0.000705001
0.000713482
0.000722301
0.000723229
0.000723229
0.000723229
0.000534636
0.000562474
0.00057447
0.00052253
0
0.000641844
0
0
0
0
0
0
0
0
0
0
0
0
0
0
0
0
0
0
0
0
0
0
0
0
0
0
0
0
0
0
0
0
0
0
0
0
0
0
0
0
0
0
0
0
0
0
0
0
0
0
0
0
0
0
0
0
0
0
0
0
0
0
0
0
0
0
0
0
0
0
0
0
0.0320436
0.0022876
0.00839826
0.00688207
0
0.0322602
6.95905e-09
0.00223323
0.00217795
0.00164805
0.0006797
0
2.39703e-19
1.08534e-10
0
1.08534e-10
5.9627e-18
-8.04509e-12
0
0
0
0
0
0
0
0
0
0
0
0
0
0
0
0
0
0
1.4818e-13
2.46216e-14
2.22236e-12
3.11639e-13
2.16004e-13
2.17989e-14
3.45909e-12
3.88666e-11
2.57339e-10
2.38652e-11
2.25596e-13
6.35613e-13
3.81564e-10
1.1085e-09
1.131e-09
2.1559e-10
0
0
0
0
0
0
0
0
0
0
0
0
0
0
0
0
0
0
0
0
)
;
    }
}


// ************************************************************************* //
