/*--------------------------------*- C++ -*----------------------------------*\
| =========                 |                                                 |
| \\      /  F ield         | OpenFOAM: The Open Source CFD Toolbox           |
|  \\    /   O peration     | Version:  v1612+                                |
|   \\  /    A nd           | Web:      www.OpenFOAM.com                      |
|    \\/     M anipulation  |                                                 |
\*---------------------------------------------------------------------------*/
FoamFile
{
    version     2.0;
    format      ascii;
    class       surfaceScalarField;
    location    "7";
    object      alphaPhi;
}
// * * * * * * * * * * * * * * * * * * * * * * * * * * * * * * * * * * * * * //

dimensions      [0 3 -1 0 0 0 0];

internalField   nonuniform List<scalar> 
2916
(
-6.8519e-05
-0.0376003
0.027497
1.30711e-05
-0.0377593
0.0275059
1.29874e-05
-0.0376743
0.0275027
-5.47921e-06
-0.03764
0.0274869
2.93761e-05
-0.0376934
0.027487
-0.0376441
0.0275021
-2.92483e-05
-0.0721604
0.0304188
1.15575e-05
-0.0723323
0.0303263
-4.18499e-06
-0.0722078
0.030364
-1.58086e-05
-0.0722202
0.0304099
-1.66814e-06
-0.0722744
0.0303736
-0.0721959
0.0303702
6.41399e-05
-0.213652
0.14143
-9.32731e-06
-0.213847
0.14159
-5.02146e-05
-0.213678
0.141513
-1.771e-05
-0.213767
0.141516
-2.31813e-05
-0.213811
0.141544
-0.213639
0.141422
-2.9946e-05
-0.513074
0.299454
2.11361e-05
-0.513678
0.299782
2.52168e-05
-0.513353
0.299673
1.72411e-05
-0.513377
0.29962
-3.28367e-06
-0.513489
0.299701
-0.513171
0.299531
-0.000804718
-0.698737
0.186465
6.32904e-05
-0.700727
0.186178
0.000549339
-0.700043
0.186202
0.000143344
-0.699566
0.186592
-0.000589844
-0.699342
0.186583
-0.699973
0.186209
-0.00138982
-0.751714
0.0676385
-6.49204e-07
-0.755709
0.0670214
0.000971165
-0.754704
0.0670983
0.000207752
-0.753011
0.0674926
-0.00163049
-0.751699
0.0675931
-0.75533
0.0670555
0.00106951
-0.708725
-0.00612974
-0.000174266
-0.713061
-0.00462992
-0.000909221
-0.712306
-0.00485071
-0.000406598
-0.70988
-0.00579371
0.00181288
-0.708141
-0.00698399
-0.713207
-0.00410351
0.00298563
-0.610212
-0.0458862
-0.000404024
-0.60984
-0.0448297
-0.00269715
-0.610166
-0.0449399
-0.000662474
-0.610249
-0.0458515
0.00503953
-0.611011
-0.0464597
-0.608981
-0.0445709
0.00138936
-0.464848
-0.0822357
-0.000268576
-0.461976
-0.0816511
-0.00144159
-0.462729
-0.0818282
-0.000440075
-0.46433
-0.0822369
0.00170731
-0.466686
-0.0818655
-0.460566
-0.0821739
-0.00288623
-0.291203
-0.104912
0.000351927
-0.291543
-0.106934
0.00269868
-0.29218
-0.1064
-0.000226301
-0.290295
-0.10518
-0.00793992
-0.290504
-0.103115
-0.292765
-0.108674
-0.000696119
-0.128667
-0.0967553
0.000243523
-0.131327
-0.0951452
0.00116475
-0.131255
-0.0960606
0.000723351
-0.128741
-0.0959312
-0.000719709
-0.127155
-0.0974132
-0.133511
-0.0936922
0.0049824
-0.0675776
-0.00106379
-0.0584148
-0.00591782
-0.0596545
-0.00114143
-0.0670527
0.0119402
-0.0763159
-0.0559015
-0.000173872
-0.0754037
0.0965506
8.95368e-06
-0.075533
0.0963718
3.02385e-05
-0.0754172
0.0964447
-1.69785e-07
-0.0754404
0.0964803
6.92279e-05
-0.0754881
0.0964201
-0.0754013
0.0965073
-0.00013871
-0.0709422
0.022025
-1.40942e-05
-0.0715258
0.0218099
5.87895e-05
-0.0713531
0.0218113
-1.22611e-05
-0.0712819
0.0219625
-3.44574e-05
-0.07141
0.0219462
-0.0712232
0.0217996
6.54298e-05
0.0131206
0.0181393
-1.91186e-05
0.0127892
0.0183255
-3.93068e-05
0.0129472
0.0182356
1.52086e-06
0.0129289
0.0182286
-1.00104e-05
0.0127916
0.0183086
0.0131048
0.0181203
-0.000113192
0.0499247
0.0256304
1.11925e-05
0.049627
0.025664
-9.70922e-05
0.0498308
0.0256644
1.5678e-05
0.0497129
0.0256366
0.000299393
0.0494866
0.0256535
0.0501207
0.0256189
0.000105045
0.0782953
-0.000104255
-3.804e-05
0.0786219
-8.68237e-05
-0.000138627
0.0785397
-9.46688e-05
-5.52103e-06
0.0784914
-9.05219e-05
9.07731e-05
0.0783276
-9.32824e-05
0.0786526
-9.8466e-05
0.00164436
0.109888
-0.0165746
5.41619e-05
0.111783
-0.0170641
-0.00105686
0.111451
-0.0167433
-0.00033384
0.110383
-0.016809
0.00185534
0.108951
-0.0164566
0.111826
-0.0168536
-7.53453e-05
0.130304
-0.00700581
6.14359e-05
0.132387
-0.00547356
0.00028307
0.131886
-0.00563547
-0.000181637
0.13076
-0.00690725
-0.000419428
0.128034
-0.00850327
0.132773
-0.00439402
-0.000360252
0.117303
-0.00272039
-0.000117629
0.120629
-0.0030308
1.4745e-05
0.120248
-0.00298882
1.7358e-05
0.117683
-0.00269177
1.67054e-05
0.115041
-0.00234315
0.122433
-0.00315196
-0.000942023
0.0824097
-0.00716849
-0.000121232
0.0837114
-0.00735476
7.75943e-06
0.0839261
-0.00730732
-0.000130435
0.0822004
-0.0071426
-0.000579428
0.0797833
-0.00689161
0.0857957
-0.00744518
-0.00251389
0.0586655
-0.0033515
0.000241244
0.0561016
-0.00535805
0.00245091
0.0568183
-0.005141
-0.000215949
0.0583199
-0.00317039
-0.00643705
0.0588587
-0.00185843
0.0555532
-0.00696071
-0.00294427
0.0790058
-0.0248914
0.000858735
0.0685866
-0.026484
0.00470399
0.0701645
-0.0265923
0.00118802
0.0781609
-0.0243313
-0.00729119
0.0850362
-0.0235669
0.0638578
-0.0270461
0.00431303
-0.00512461
-0.000137525
-0.00496738
-0.0035856
-0.00497569
5.97619e-05
-0.00511865
0.00858129
-0.00532445
-0.00491778
3.62246e-06
0.29154
-0.200928
1.43335e-05
0.291355
-0.200955
3.3009e-05
0.291388
-0.200925
-2.35223e-06
0.29145
-0.200915
-4.36029e-05
0.291436
-0.200959
0.291391
-0.200896
9.39173e-05
0.222791
-0.132536
-2.22063e-05
0.223
-0.13247
-1.08148e-05
0.222929
-0.132525
-3.63606e-05
0.222842
-0.132463
-0.000111877
0.222836
-0.132404
0.22292
-0.132638
-1.76553e-06
0.0973314
-0.01364
5.44744e-06
0.0979335
-0.0137523
0.000169578
0.0977058
-0.0136694
5.12573e-06
0.0975579
-0.0137133
-0.000267123
0.0975858
-0.0137454
0.0976674
-0.0136374
0.000152012
0.0534156
-0.000379668
-4.24593e-06
0.0543184
-0.000376826
-6.06118e-05
0.0539092
-0.000380815
-3.10077e-05
0.0538724
-0.000383551
7.03349e-05
0.0539446
-0.000373824
0.0538191
-0.00037712
0.000371233
0.0165923
-0.000166877
-1.89393e-05
0.0174008
-0.000104243
-9.13363e-05
0.0171762
-9.26343e-05
-1.92013e-05
0.016732
-0.000123532
0.000127339
0.0166326
-0.000174574
0.0173392
-8.75226e-05
0.000224706
0.000325671
-0.00039668
7.50713e-06
0.00056597
-0.000175338
-0.000119511
0.000484138
-0.000129623
-2.43831e-05
0.000314228
-0.00042991
0.000353851
0.000151118
-0.000397276
0.00065815
4.8289e-05
2.03049e-05
-0.00462842
-0.00224835
1.90978e-05
-0.00306198
-0.00203154
2.89693e-08
-0.0033016
-0.00203876
1.72635e-05
-0.00446765
-0.00229506
7.93687e-05
-0.00608599
-0.00243018
-0.00200952
-0.00177307
-0.000862413
-0.0105429
-4.41198e-05
3.47485e-05
-0.00991721
-7.69193e-05
0.000637188
-0.00994428
-9.07985e-05
4.7474e-05
-0.0106731
-1.89358e-05
-0.00133252
-0.0123987
-7.8198e-05
-0.00853998
-0.000264984
-0.0004
-0.0171608
-0.00090537
1.68079e-05
-0.0174755
-0.000748796
0.000375482
-0.0171557
-0.000722411
-9.60828e-05
-0.0174258
-0.000915293
-0.00154316
-0.0179676
-0.00107499
-0.0169522
-0.000622972
-0.000408279
-0.0215107
-0.000118893
0.000119259
-0.0229307
-0.00100974
0.000597423
-0.0223224
-0.000878233
0.000101933
-0.0219567
-9.02367e-05
-0.00156101
-0.0213786
-0.000379806
-0.0229603
-0.00147558
-0.000280119
-0.00843137
-0.034441
0.000195471
-0.0095935
-0.0345679
0.000403972
-0.00929942
-0.0342858
0.000307375
-0.00851844
-0.034644
-0.000623612
-0.00787525
-0.0348281
-0.00923259
-0.0339124
0.000314122
-0.0139697
8.21906e-05
-0.0156537
-0.000112384
-0.0150388
-4.1033e-05
-0.0137932
0.000112747
-0.0124743
-0.0151836
0.00015082
0.241068
-0.448567
5.95021e-06
0.240991
-0.44826
-6.00741e-06
0.241028
-0.448383
1.37701e-05
0.241011
-0.44841
-6.0378e-05
0.240992
-0.448348
0.241005
-0.448415
6.4316e-05
0.0140457
-0.0446643
-9.41564e-06
0.0141383
-0.044693
2.73989e-05
0.0140674
-0.0446563
-8.73423e-06
0.0141106
-0.0447004
-0.000101021
0.0141362
-0.0447164
0.0140437
-0.0446391
6.54597e-06
0.000395925
-2.96397e-06
7.63601e-07
0.000387937
-2.2072e-06
3.77065e-06
0.000391018
-2.19374e-06
-9.6833e-07
0.000397495
-2.0743e-06
-1.17565e-05
0.000397996
-3.00526e-06
0.000390003
-1.83104e-06
4.39459e-07
2.72841e-06
-3.94442e-06
-4.44443e-08
2.23475e-06
-2.30232e-06
-6.13432e-08
2.47808e-06
-2.74158e-06
-2.26757e-07
2.72502e-06
-3.15584e-06
-3.00404e-07
2.51635e-06
-3.44531e-06
2.49857e-06
-3.01149e-06
2.60756e-05
-0.00026326
1.40838e-05
2.31106e-06
-0.000163774
3.40733e-05
-1.04969e-05
-0.00016244
3.51826e-05
4.78567e-07
-0.000206365
1.94042e-05
3.18364e-05
-0.000271032
-1.11166e-05
-0.000127559
2.18927e-05
2.86206e-05
-0.00239068
0.00191506
-1.02628e-06
-0.00156822
0.0011367
-1.49823e-05
-0.00156365
0.00112231
3.09034e-06
-0.00200787
0.00146505
6.84055e-05
-0.00265687
0.00198743
-0.00119208
0.0011006
-0.000432708
-0.00712775
0.00335228
-6.10135e-05
-0.00755702
0.00408207
0.000212558
-0.00784653
0.00410285
-2.62532e-05
-0.00881609
0.0035962
-0.000510479
-0.00964268
0.00344189
-0.00809524
0.00460322
-0.000331351
-0.00642803
-1.56978e-07
-5.43543e-05
-0.00610132
-1.37884e-07
0.000280591
-0.00616259
-1.54804e-07
-4.83402e-05
-0.00614688
-1.77551e-07
-0.000851821
-0.00579369
-2.26961e-06
-0.00661852
-0.000530016
-2.57008e-06
1.9839e-06
-1.35073e-05
-8.04428e-06
1.21015e-05
-1.36857e-05
2.73426e-06
3.623e-06
-1.40364e-05
-3.52497e-06
-2.89016e-05
-1.31404e-05
-5.4395e-05
-0.00012557
-9.78131e-06
1.58835e-05
-1.32015e-05
-1.04935e-06
-0.000170328
-4.6138e-07
-2.52386e-06
-0.000979411
-3.59109e-06
-5.22669e-06
-0.000856981
-2.12858e-06
-4.18726e-06
-0.000173478
-5.32085e-07
6.14539e-06
-0.000261086
-1.13513e-06
-0.0014321
-8.75584e-06
2.63289e-05
-0.0234174
-0.005845
-8.11262e-06
-0.0234052
-0.00554238
-5.99846e-05
-0.0232371
-0.00554968
-3.19579e-05
-0.023805
-0.0058956
3.26766e-05
-0.0236141
-0.00613382
-0.0233619
-0.00538461
0.00042142
-0.0371333
-3.91256e-05
-0.0384137
-0.000265723
-0.0374543
-0.000160188
-0.0364081
0.000451945
-0.035881
-0.0377387
-0.0365232
-0.0144204
0.0509535
-0.00811956
-0.0793231
0.0512394
-0.0216863
-0.0408454
0.0538476
-0.00935947
-0.0618011
0.0494695
0.0534656
-0.117065
0.0541235
-0.00215615
0.0553982
0.0163388
-0.0989081
0.0681588
-0.0223828
-0.107918
0.067342
0.00142654
-0.119005
0.0546701
-0.0225065
-0.110587
0.0717604
-0.0211447
-0.19607
0.0774137
-0.0832193
0.0596738
0.01264
-0.160534
0.0489954
-0.0142948
-0.113489
0.039419
-0.00387975
-0.161106
0.0376156
-0.0335408
-0.117037
0.052219
-0.0669755
-0.206714
0.0439299
-0.198863
0.0484434
-0.00547132
-0.134592
0.0201851
-0.00684354
-0.207321
0.019142
0.00529281
-0.234575
0.0135538
-0.00124995
-0.214812
0.0203164
-0.0371096
-0.200948
0.0234959
-0.255005
0.0188871
-0.010412
-0.189748
0.00992296
-0.0042827
-0.202817
-0.000763609
0.000636867
-0.228686
-0.000880978
0.0154203
-0.216435
-0.00323256
0.000869064
-0.215065
0.00562926
-0.257008
0.00212557
-0.00331233
-0.179071
-6.39175e-05
0.0044737
-0.192443
-6.21919e-06
0.00353313
-0.2173
-3.37444e-05
0.0152288
-0.188983
-2.69179e-05
0.0129419
-0.180489
-0.000119651
-0.174535
0.00128776
0.00709847
-0.177582
-2.15981e-08
0.00385219
-0.168552
-6.93245e-07
0.00755066
-0.167204
-1.3713e-05
0.00746375
-0.107564
-0.000226178
0.00897796
-0.142792
-0.00416407
-0.0662321
0.00587368
0.00184805
-0.170185
-3.1539e-09
0.00234031
-0.162385
-8.34726e-08
0.00450485
-0.123242
-2.52634e-06
0.00760298
-0.079814
-7.10163e-05
0.00741716
-0.110537
-0.00214142
-0.0648488
0.00640258
-0.0106449
-0.149899
-0.000116998
-0.00788687
-0.156224
-2.47345e-05
-0.00653181
-0.0992774
-1.14434e-05
0.0173406
-0.0948386
-2.79789e-06
0.0236873
-0.102301
-0.000208172
-0.172309
0.00362035
-0.0101554
-0.125381
-0.00492062
-0.0148978
-0.131749
-0.00418594
-0.021065
-0.103354
-0.00189769
0.00641837
-0.108531
-0.00783896
0.0290862
-0.0928311
-0.0164616
-0.135658
-0.00235004
-0.00212545
-0.0340512
-0.0676106
-0.00564733
-0.0526408
-0.0348691
-0.0250505
-0.0770967
-0.0219706
-0.0109708
-0.0557453
-0.0651763
0.00343941
-0.0225263
-0.0833946
-0.0468133
-0.07802
-0.000751725
-0.0207525
-0.00422315
-0.073184
-0.0195938
-0.0655248
-0.0174108
-0.0566078
0.0051306
-0.0437474
-0.0442101
-0.0451515
-0.00623255
0.102347
-0.00144555
-0.115893
0.124697
-0.0207768
-0.0409119
0.114416
-0.0104601
-0.0944702
0.132921
0.0476789
-0.127645
0.123625
0.00489832
0.0980503
0.0288942
-0.0604929
0.0790463
-0.000544532
-0.0608376
0.0145184
-0.00167617
-0.0475283
0.047766
-0.0122172
-0.071496
0.0281245
-0.0370558
-0.0662144
0.0191557
-0.041882
0.0691212
0.00529126
-0.0277638
0.00179588
0.000176144
-0.0220086
0.00102435
-0.00172676
-0.0151633
0.00328509
-0.00353377
-0.0211407
0.00179181
-0.00498835
-0.0278953
0.000973602
-0.0173283
-0.00199182
0.00339199
-0.0102913
-7.22137e-05
0.000595665
-2.06984e-05
-6.87229e-06
-0.000824463
-1.83218e-05
-4.30811e-05
-0.00184197
-0.000128312
-2.20209e-05
-0.000208225
-0.00628703
-9.76483e-05
-0.000370829
-0.000300587
0.000777883
6.38027e-05
-3.4516e-06
-7.52236e-06
5.8576e-06
-3.71566e-06
-1.44325e-05
3.51434e-05
-1.06504e-06
-0.00071288
2.52825e-05
-7.70167e-07
-0.000132248
1.69343e-06
-2.36148e-06
6.97655e-05
-7.6676e-06
-9.08414e-08
4.92586e-09
-1.39396e-08
-6.08739e-07
2.43131e-07
-5.97155e-08
-5.42361e-07
1.35392e-06
-2.24249e-08
-3.26776e-06
1.10619e-06
-1.72929e-08
-0.000124206
3.47022e-06
-5.21816e-07
-0.000285366
-1.10376e-07
-1.66691e-08
6.26914e-09
-4.61232e-09
-4.83551e-07
3.54021e-08
-3.70604e-09
-1.35256e-05
6.75073e-07
2.67941e-09
-0.000250927
1.31594e-05
-1.01115e-06
-0.00444058
-1.50701e-06
-2.90299e-06
-0.0103373
-3.39993e-05
-1.57886e-09
4.56282e-09
7.95193e-10
-4.88197e-08
4.08825e-09
-3.31076e-09
-1.96157e-06
7.182e-08
1.11429e-08
-6.211e-05
2.65424e-06
-2.86323e-07
-0.00268244
8.33041e-07
-2.81646e-06
-0.0104184
5.18352e-05
2.73762e-06
-0.000119406
-3.23628e-07
3.58078e-07
-2.21754e-05
-1.53796e-07
1.86731e-07
-1.10769e-05
-2.58505e-08
6.77791e-08
2.04726e-08
-1.27537e-08
4.71538e-06
-0.000211875
-8.21258e-08
-0.00013943
2.34445e-05
0.000479569
-0.000230376
-5.12117e-06
-1.85828e-05
-0.00370665
1.86698e-06
-0.000219347
-0.00171226
6.0071e-06
-0.000427371
-0.00762817
-2.71872e-06
0.000643002
-0.0175731
-0.000162513
-0.00204019
-3.14434e-07
0.00720371
-0.034141
-0.0077139
0.000235128
-0.0253588
4.71948e-05
-0.00443778
-0.0124575
0.000101674
-0.0130491
-0.0363549
-0.00138095
0.00677585
-0.0448889
-0.0180131
-0.0351232
-0.000664517
0.0160127
-0.0571221
0.00796555
-0.00939243
-0.00431722
-0.00743807
-0.0236257
-0.0187949
-0.0150201
-0.0958944
-0.00798335
-0.0218732
0.0323365
0.0918171
-0.0194068
0.00549042
0.115113
-0.00803674
-0.00186475
0.10729
-0.00372907
-0.00618535
0.0698373
0.0111821
-0.0193705
0.0870553
0.0301941
0.0789006
0.00766994
-0.00164234
0.0416666
0.000565241
-0.000744056
0.019545
0.00855281
-0.00333743
0.0153968
-0.000233752
-0.00156229
0.00290964
-0.0204243
-0.000853453
0.00939971
0.00346606
0.0117087
-0.000158066
7.20811e-05
0.000234545
5.7667e-05
5.78117e-06
0.000147483
-0.000118148
4.2099e-05
7.99566e-05
3.55817e-05
2.19775e-05
5.59347e-05
4.95972e-05
9.91826e-05
6.01386e-06
0.000305504
9.60031e-05
1.35484e-07
3.38505e-06
-3.79806e-06
1.10469e-06
3.61973e-06
-3.98135e-06
-9.18596e-09
1.06932e-06
-9.75743e-07
1.16448e-07
7.5101e-07
-8.76238e-07
2.31987e-07
2.36286e-06
-9.71852e-07
7.71864e-06
-3.40345e-06
1.37686e-08
8.3293e-09
-1.01519e-07
-5.31998e-10
3.76209e-08
-9.04381e-08
-3.89702e-10
2.0548e-08
-1.76624e-08
-1.07166e-08
6.23974e-09
-1.53799e-08
-1.28136e-08
1.56146e-08
-1.45282e-08
6.23435e-08
-6.44316e-08
3.78731e-10
1.07217e-09
-8.41103e-09
-2.54231e-10
-1.02149e-09
-2.15416e-08
-4.39335e-10
1.11692e-09
-2.57331e-09
-2.9917e-09
4.72535e-10
-1.01258e-08
-7.65367e-10
-4.93977e-07
-1.71093e-08
9.0718e-10
-4.41436e-08
-2.31246e-08
2.14827e-09
-4.41155e-09
-2.78004e-10
1.09701e-09
3.06673e-08
-2.46173e-09
1.21132e-09
1.13777e-09
-1.07692e-06
2.04375e-08
-7.48198e-09
-1.95422e-05
-1.37196e-06
-3.79777e-08
-5.41213e-05
5.6861e-07
-5.83956e-09
6.59051e-09
2.35815e-09
-6.28269e-10
-1.26734e-08
1.20525e-08
-4.14635e-09
-4.4189e-09
7.476e-09
-6.45015e-07
3.19525e-08
6.81081e-09
-2.40483e-05
1.29415e-07
-1.71552e-07
-2.40337e-05
4.57012e-07
4.70281e-08
-3.76384e-07
1.16473e-08
4.78358e-08
-1.09465e-06
2.77699e-07
1.05988e-09
-9.27422e-09
1.61673e-08
8.35339e-09
8.30117e-09
3.70305e-09
3.29201e-09
3.71558e-08
-1.15312e-09
-3.25231e-07
-2.28706e-07
3.52674e-06
-5.84386e-06
-2.07211e-06
-6.99065e-07
3.62125e-06
-2.81699e-08
-2.57629e-08
5.30969e-06
1.19141e-07
-1.7498e-06
4.09375e-07
-1.36266e-06
1.4242e-06
-0.000140397
-2.52277e-05
1.15412e-06
-9.89433e-07
-2.61735e-06
-0.00771989
-9.2897e-05
-2.07757e-05
1.60448e-05
1.25121e-07
-6.66425e-06
7.44763e-05
1.70128e-05
7.1896e-06
3.79591e-06
-0.00139828
0.000214493
-0.0111409
-0.00720945
1.29837e-05
-0.000455699
-0.00155682
-0.0198202
7.57048e-07
-0.011084
0.00048516
-0.00783425
0.000699367
-0.0190304
-0.000100228
-0.0304308
-0.00804593
-0.0127415
0.0440981
0.0603133
-0.0212356
0.0313743
0.0919913
-0.0184041
0.0161507
0.084478
-0.00223725
0.00984465
0.0774474
0.00358967
0.00524126
0.0600756
0.0320646
0.0502634
-0.000561515
-7.12144e-05
0.014765
0.000807337
-7.13943e-05
0.0294168
0.0017962
-5.99229e-05
0.0147844
0.000800181
-3.39973e-05
0.00884867
-0.00312664
-1.53012e-05
0.00595245
-6.31399e-05
0.00396752
-4.99441e-05
3.9796e-06
0.000200314
-1.18039e-06
4.02591e-06
1.92889e-05
5.06103e-06
6.01798e-07
1.16863e-05
2.21633e-05
9.35539e-07
2.83986e-06
8.65661e-06
8.81349e-07
3.06553e-06
3.04977e-06
3.44667e-05
4.57847e-07
9.86103e-08
-4.78471e-07
4.60844e-07
8.46166e-08
-3.93051e-08
6.39727e-08
1.55459e-08
-1.37748e-09
1.04923e-07
1.33493e-08
-1.47022e-11
7.73568e-09
1.1579e-08
-7.30228e-09
4.82172e-08
-4.35025e-07
2.2759e-09
-4.90153e-09
-1.34354e-10
1.58282e-09
-5.17034e-09
-5.77516e-11
-1.71599e-10
-3.00953e-10
-3.78726e-11
-9.21127e-11
-2.11441e-09
2.5266e-12
-3.97532e-10
-2.64327e-09
-6.59335e-13
-1.65944e-08
-3.96414e-11
5.08056e-10
-1.47785e-08
-1.51292e-09
3.15699e-10
-3.2047e-08
-8.56915e-10
-1.68041e-09
-5.12465e-10
-3.27118e-11
-7.54268e-10
-8.18909e-09
-1.03143e-10
-8.80056e-09
-4.16347e-08
-1.80636e-10
-6.20451e-07
-1.31845e-09
-1.37128e-08
-2.81934e-09
4.06081e-09
-9.94622e-10
-5.84567e-09
2.94756e-08
3.11877e-10
-4.15138e-09
9.69522e-10
-6.27414e-09
-4.83193e-09
1.92315e-09
-3.09747e-07
6.18091e-11
-6.01432e-10
-4.42312e-07
5.57326e-09
-1.04784e-09
-9.6199e-10
1.61567e-09
1.12288e-11
2.13392e-09
4.7838e-09
3.01988e-09
-1.27445e-08
9.41396e-09
2.22628e-09
-5.58975e-10
6.11198e-09
-4.20945e-08
-7.73629e-12
-7.42299e-10
1.36236e-08
9.72412e-10
3.08707e-10
6.73198e-09
3.12041e-09
1.43552e-08
-5.89715e-07
2.77788e-08
1.58823e-07
-2.05664e-06
1.81337e-08
6.34155e-09
1.64156e-07
3.34e-10
1.00279e-09
1.10725e-09
-4.98751e-09
3.41609e-09
-2.36075e-07
2.10512e-07
4.59443e-06
-6.93327e-06
1.39899e-06
4.68859e-06
-1.45458e-05
1.37483e-07
4.93368e-06
-1.71037e-05
4.86952e-07
2.24208e-05
-1.87169e-05
6.38669e-06
-2.59631e-05
-5.24746e-06
3.11345e-05
-2.57564e-05
-1.24036e-05
0.000159932
-0.000235402
1.39245e-06
0.000344103
-0.000320156
3.20004e-05
0.000488312
-0.000502091
0.00105607
-0.00406627
-0.000391058
0.000269336
-0.00365646
-0.000576021
0.000131643
-0.000242699
-2.37074e-05
-0.0301777
0.00470168
-0.0328087
0.00924492
-0.0371113
0.00254026
-0.0317523
-0.00526273
-0.0233706
-0.0282638
-0.000937239
-0.408817
0.0913424
1.03316e-05
-0.4081
0.0917834
0.000374335
-0.408475
0.091545
3.0157e-05
-0.408343
0.0915227
-3.51e-05
-0.408157
0.0916466
-0.408391
0.0912402
-0.00101071
-0.0104681
0.0152226
0.000458472
-0.0102267
0.0153392
0.000648139
-0.0102763
0.0152633
0.00035387
-0.0102118
0.015124
0.000652608
-0.0102187
0.015074
-0.0102967
0.0150734
-0.000193568
-0.00341902
3.08883e-05
-0.00351408
1.0078e-05
-0.0034122
4.09248e-05
-0.00352572
0.000224023
-0.00363422
-0.00330396
2.66514e-05
-0.0111078
-4.81579e-06
-1.70755e-05
-0.0113117
-1.37663e-06
9.72938e-05
-0.011179
-8.62597e-07
-3.86224e-05
-0.0112143
-3.90483e-06
-0.000314561
-0.0112327
-6.54252e-06
-0.0110501
-2.49141e-07
-6.43937e-05
0.0068866
-0.000147177
2.38263e-05
0.00659789
-0.000103117
-4.05273e-07
0.00674379
-0.000100503
-7.02673e-05
0.00676213
-0.000144886
-2.19498e-05
0.0067365
-0.00017149
0.00682287
-6.88969e-05
-0.000389349
-0.00125036
1.00547e-06
-0.00106387
5.55571e-06
-0.000915236
4.92668e-05
-0.00126694
0.000382265
-0.00151238
-0.000544884
5.1048e-08
-4.23835e-06
-9.71851e-06
-1.94197e-09
-2.68433e-06
-7.10775e-06
-1.28302e-08
-2.98981e-06
-6.70699e-06
-2.14534e-08
-3.64356e-06
-9.00728e-06
-2.23613e-08
-3.77099e-06
-1.22165e-05
-2.447e-06
-6.09617e-06
3.93551e-07
9.81515e-07
-0.000159072
-6.42569e-09
2.02738e-06
-0.000113556
6.1946e-08
1.12409e-06
-0.000110946
-9.85241e-08
2.08634e-06
-0.000157107
-3.6256e-07
3.14076e-06
-0.000184819
1.69861e-07
-7.8317e-05
1.31925e-06
-0.00126952
-3.2765e-08
-0.00108442
2.66679e-07
-0.000932542
-1.57269e-07
-0.00128962
-6.03236e-07
-0.00154334
-0.000558716
6.4016e-07
2.15336e-05
-4.21156e-05
2.38543e-08
1.9567e-05
-3.44882e-05
-3.05694e-07
1.71344e-05
-3.25146e-05
-1.57374e-07
2.18212e-05
-4.07821e-05
7.55453e-07
2.66558e-05
-4.99067e-05
1.29045e-05
-2.77001e-05
2.96199e-06
0.000366435
-0.000517624
-3.14235e-07
0.000294691
-0.000395727
-1.37079e-06
0.000251635
-0.000354918
-1.57492e-06
0.000369061
-0.000514893
-6.35195e-07
0.000423015
-0.000594046
0.000131549
-0.000209495
1.40835e-05
-0.00292631
-7.85671e-06
-0.00265665
2.46505e-05
-0.00265204
-2.13407e-05
-0.00302986
-0.000108926
-0.00320428
-0.00254237
1.66886e-05
0.000699522
-0.000911101
1.61359e-06
0.000516943
-0.000513944
-6.2386e-06
0.000522831
-0.000522763
1.05985e-06
0.000680005
-0.000723172
2.57447e-05
0.000804489
-0.00126352
0.000389081
-0.000382244
1.17177e-05
0.00250018
-0.00349938
-1.37003e-07
0.00224366
-0.00344007
-6.82931e-06
0.00223442
-0.00381821
1.33329e-05
0.00245041
-0.00388201
4.32374e-05
0.0025916
-0.0039286
0.00174971
-0.00355993
-2.40633e-05
-0.00231274
-2.04941e-05
-0.00279996
3.16793e-05
-0.0028318
-1.43792e-05
-0.00227286
-0.000163491
-0.00201735
-0.00296955
-3.18589e-05
0.00485003
-0.00766985
-1.17658e-05
0.00500142
-0.00609573
-9.61848e-08
0.00487879
-0.00557979
4.0748e-05
0.00496601
-0.0072737
9.02482e-05
0.0049035
-0.00822612
0.00573097
-0.00801444
-0.000121126
0.00108115
-0.00288187
-2.54154e-05
0.00138204
-0.00311505
4.50428e-05
0.00159966
-0.00307964
2.79972e-05
0.0012027
-0.00263151
4.32442e-06
0.00073601
-0.00245887
0.00115335
-0.00402085
-1.44449e-05
-4.86428e-10
-1.3395e-05
-4.73515e-10
-2.17228e-05
-4.64205e-10
-2.60979e-06
-5.25239e-10
1.08323e-05
-4.86367e-10
-4.93586e-10
-0.000268236
0.000156691
-3.5089e-07
-6.11076e-05
0.000459189
-3.21308e-07
0.000113485
0.000473111
-3.13414e-07
-1.00776e-05
0.000163465
-3.33468e-07
-0.000380888
2.77087e-05
-3.3331e-06
0.0011892
-0.000881392
-1.72006e-05
-2.07428e-10
-3.9839e-09
-7.78687e-06
-2.19927e-10
-3.99531e-09
4.94743e-06
-2.27561e-10
-3.84387e-09
-2.71968e-06
-1.94265e-10
-4.50103e-09
-3.88462e-05
-2.39117e-10
-4.42128e-09
-2.15287e-10
-3.47404e-09
-1.55098e-13
-6.93701e-10
-7.03139e-14
-6.93527e-10
2.40277e-14
-6.9186e-10
-5.08234e-14
-7.19429e-10
-5.51931e-13
-7.24982e-10
-7.09425e-10
-1.4848e-10
-1.82908e-10
-5.08054e-07
7.11979e-12
-1.90406e-10
-4.59632e-07
6.47784e-11
-1.88586e-10
-4.6853e-07
-6.64849e-10
-1.95286e-10
-5.10599e-07
-5.06319e-06
-1.96741e-10
-5.40446e-07
-5.91117e-10
-1.98699e-06
3.91743e-12
-1.52769e-09
-2.89521e-09
-4.40682e-13
-1.56279e-09
-2.84063e-09
-8.38905e-12
-1.5544e-09
-2.69217e-09
-1.64946e-12
-1.61168e-09
-3.31343e-09
6.3141e-12
-1.66565e-09
-3.17678e-09
-1.64143e-09
-2.63385e-09
1.28962e-11
-2.23428e-09
-8.53736e-13
-2.24257e-09
-1.88169e-11
-2.2283e-09
4.50178e-13
-2.35038e-09
3.20429e-11
-2.42222e-09
-2.31881e-09
2.13125e-09
-5.62119e-08
-1.3975e-05
-8.19227e-10
-5.66146e-08
-1.40999e-05
-8.05478e-09
-5.87943e-08
-1.44517e-05
4.41165e-10
-5.63256e-08
-1.36191e-05
2.23105e-08
-5.74615e-08
-1.03007e-05
-6.04506e-08
-1.51355e-05
-2.56845e-12
-8.45243e-08
-1.26308e-08
3.21229e-12
-8.50261e-08
-1.36204e-08
-1.31786e-11
-8.48891e-08
-1.33921e-08
4.91106e-12
-8.88112e-08
-1.35529e-08
3.53451e-11
-9.20156e-08
-9.40599e-09
-8.49011e-08
-1.42717e-08
3.31038e-10
-1.01014e-07
-6.85284e-11
-1.01859e-07
-4.41488e-10
-1.01737e-07
-7.32774e-11
-1.01482e-07
3.58398e-10
-1.00592e-07
-1.02437e-07
3.46732e-07
-1.16611e-07
-1.48551e-05
-1.67263e-07
-6.10502e-08
-1.73346e-05
-4.64378e-07
-6.9671e-08
-1.6428e-05
-2.57307e-08
-9.7471e-08
-1.46894e-05
9.48889e-07
-1.84436e-07
-1.23805e-05
-3.57765e-08
-2.31391e-05
-4.64933e-10
-6.17684e-07
1.65519e-08
-1.50457e-11
-6.18871e-07
1.7714e-08
3.95894e-10
-6.17341e-07
1.73752e-08
1.20048e-10
-6.14964e-07
1.77528e-08
-8.58052e-10
-6.19038e-07
1.24947e-08
-6.19274e-07
1.86132e-08
1.0115e-09
3.51909e-08
-7.557e-10
3.49123e-08
-1.95542e-09
3.48565e-08
-2.87994e-10
3.50357e-08
2.16745e-10
3.49611e-08
3.49016e-08
1.513e-06
-2.56688e-08
-0.00586131
8.56642e-07
-2.65242e-08
-0.00555902
3.55289e-06
-2.61631e-08
-0.00556877
-4.05044e-07
-2.67729e-08
-0.00590629
-4.86912e-06
-2.16881e-08
-0.00614164
-2.72855e-08
-0.00541259
-2.98678e-12
-9.29777e-09
1.65775e-10
-5.6805e-13
-9.00363e-09
1.70745e-10
2.43127e-12
-8.97921e-09
1.68229e-10
3.54431e-13
-9.21133e-09
1.74266e-10
-5.74781e-12
-9.34289e-09
1.37993e-10
-8.87391e-09
1.75985e-10
-4.05617e-12
7.77614e-11
-7.65206e-12
7.65149e-11
-8.64943e-12
7.62841e-11
-3.61435e-12
7.73123e-11
-3.67249e-12
7.75357e-11
7.66147e-11
0.000287221
-2.44003e-10
-0.0307505
7.18866e-05
-2.46964e-10
-0.0308098
-9.4041e-05
-2.44285e-10
-0.0307743
-7.01139e-05
-2.51556e-10
-0.03083
0.000219724
-2.15854e-10
-0.0308302
-2.52352e-10
-0.0306908
-4.34012e-14
-7.81841e-11
8.65873e-17
-1.98411e-14
-7.62429e-11
7.04481e-17
-2.43716e-15
-7.60739e-11
1.28612e-16
3.29407e-15
-7.72962e-11
1.43165e-17
-1.17721e-14
-7.78471e-11
7.59443e-16
-7.6379e-11
3.90102e-17
-4.22674e-13
6.42088e-28
-1.50689e-13
7.17013e-28
5.95263e-14
7.65031e-28
7.56884e-14
7.64397e-28
-2.35676e-13
8.63614e-28
6.0612e-28
-0.000680743
-4.95624e-12
-0.0215939
0.0318394
-0.00066024
-1.05067e-11
-0.0215075
0.0314435
0.000154457
-3.94962e-12
-0.0211384
0.0305446
0.000966562
-4.74237e-12
-0.021176
0.0304872
0.000219692
-6.00472e-12
-0.0205064
0.0302225
-4.47928e-12
-0.0215321
0.0315471
-1.27646e-14
-4.9481e-12
6.93242e-17
4.54953e-15
-2.85409e-15
-2.53729e-12
5.08368e-17
-7.97939e-12
-8.31962e-16
-7.29217e-13
1.75213e-17
-3.22244e-12
-2.96152e-16
-3.22193e-12
1.47895e-18
-1.52098e-12
8.66139e-16
-5.76925e-12
5.19045e-17
-2.36692e-13
-3.58489e-12
1.43552e-17
-8.93558e-13
4.57262e-14
6.20552e-27
-8.52505e-15
1.18609e-14
5.33883e-27
-1.71099e-15
2.42758e-15
8.58992e-27
1.07851e-15
-7.62173e-15
5.52297e-27
-7.96e-13
5.23328e-14
7.52813e-27
-6.27262e-12
3.95623e-27
-1.76228e-12
0.000199977
1.5461e-16
-0.0099604
-7.85545e-05
1.19537e-16
-0.00984803
-0.000596794
4.04078e-17
-0.00978205
-0.000429779
3.99164e-18
-0.00984211
0.000287778
1.80364e-16
-0.00987829
3.94138e-17
-0.00988945
-9.73002e-19
9.80111e-27
1.82679e-16
-1.98198e-18
7.77646e-27
1.24939e-16
1.85452e-20
1.20512e-26
1.75996e-16
4.39227e-18
8.34961e-27
2.11066e-17
7.66818e-19
1.27288e-26
9.37844e-16
6.10316e-27
7.73421e-17
-1.07867e-28
5.39522e-27
-4.2485e-29
5.16169e-27
6.95369e-29
5.58254e-27
2.69956e-28
5.03717e-27
5.66429e-29
8.97734e-27
3.25145e-27
-0.00024425
2.76713e-16
0.000351363
-0.000217643
2.34191e-16
0.000296593
7.81383e-06
3.79633e-16
0.000253431
3.43562e-05
4.52066e-17
0.000438423
-1.86782e-05
2.37514e-15
0.000496039
1.48797e-16
0.000357403
2.52842e-17
7.44021e-27
-8.52953e-17
5.03657e-17
7.0892e-27
-7.44499e-17
4.43369e-18
7.59996e-27
-1.20237e-16
1.27339e-16
6.69741e-27
-1.57367e-17
-9.28226e-17
1.21791e-26
-8.70347e-16
4.43626e-27
-5.10083e-17
-6.344e-29
1.20403e-28
-3.85624e-29
1.79352e-28
-6.91285e-31
2.13557e-28
3.87176e-29
1.76367e-28
-2.40008e-29
1.1277e-28
8.69382e-29
-0.000140417
2.07668e-16
0.0105993
-0.00020318
1.72258e-16
0.0105805
-0.000195823
3.04643e-16
0.0106227
-7.39953e-05
1.61899e-17
0.0106972
3.07571e-05
1.89417e-15
0.0107197
1.00481e-16
0.0106792
1.49654e-18
7.83565e-27
-2.69852e-16
3.49782e-18
9.196e-27
-2.21256e-16
3.76627e-19
1.011e-26
-3.85544e-16
3.11345e-17
9.60377e-27
-2.04763e-17
-1.21344e-17
1.05531e-26
-2.41831e-15
7.22335e-27
-1.30148e-16
-6.10114e-29
-5.23746e-27
-7.95468e-29
-6.08637e-27
-3.04489e-29
-6.64741e-27
3.40439e-29
-6.33577e-27
2.83976e-29
-6.99851e-27
-4.83408e-27
-0.000137786
2.7538e-16
0.0208047
-0.000209082
2.26339e-16
0.0208283
-0.00019372
4.07748e-16
0.02092
-7.72392e-05
3.05927e-17
0.0209042
1.57879e-05
2.51493e-15
0.0209025
1.27465e-16
0.0209429
8.60868e-20
7.36743e-27
-2.32568e-16
-1.12067e-19
8.71435e-27
-1.88974e-16
5.15008e-21
9.5496e-27
-3.38408e-16
1.63998e-18
9.37869e-27
-2.49979e-17
-5.54081e-18
1.03368e-26
-2.05571e-15
7.2657e-27
-1.05852e-16
-3.39649e-29
-5.73202e-27
-5.72684e-29
-6.70269e-27
-6.10352e-29
-7.30322e-27
-1.54321e-29
-7.11549e-27
1.97513e-29
-7.8433e-27
-5.56412e-27
7.90257e-05
2.58374e-16
7.99454e-05
2.10514e-16
0.000100806
3.85036e-16
3.77956e-06
4.35231e-17
-0.00012698
2.32311e-15
1.17102e-16
-1.39008e-19
9.45511e-27
1.02078e-19
1.12552e-26
8.44352e-20
1.22746e-26
1.04957e-18
1.24256e-26
-6.90499e-18
1.37802e-26
1.00193e-26
-1.32263e-29
-3.07924e-29
-3.9656e-29
-2.6346e-29
1.07356e-29
-0.00588818
0.0470612
0.0188963
-0.01674
0.0827415
0.0137249
-0.0239674
0.0646604
0.0111055
-0.00426421
0.0776119
0.00729756
0.00562628
0.0441751
0.00400548
0.0365301
0.0193041
-0.0712077
0.127574
-0.016297
-0.0187283
0.00961827
0.00461732
-0.00918772
0.0334472
-0.00955985
0.00877171
0.0352482
-0.00377205
0.0658305
0.00749405
0.00167336
0.123141
-0.0193744
-0.010709
-0.00263979
-0.00255884
-0.00160796
-0.00633828
-0.00373852
0.00117282
-0.00263579
0.00916985
-0.000502982
-0.00122685
-0.00179496
0.0107025
-0.000150189
2.64005e-05
0.0231011
-2.12125e-05
0.00149847
0.0150925
-1.32763e-05
0.000986434
0.0114277
2.40614e-06
-0.000921049
0.00567317
1.63568e-05
0.00641753
-3.36099e-05
-0.000419611
0.00276565
-4.04213e-05
6.97945e-05
0.0162395
-4.13728e-06
0.000485844
0.0097202
-1.47155e-07
0.000291771
0.00854409
-7.61074e-06
-0.000803425
0.00475224
1.65911e-05
0.00125532
-3.80484e-06
0.000108101
-7.62884e-07
0.00140427
-5.4801e-08
-0.000460393
-1.6776e-08
-0.00149849
-2.58779e-07
-2.88153e-05
-2.98878e-05
-3.4798e-07