/*--------------------------------*- C++ -*----------------------------------*\
| =========                 |                                                 |
| \\      /  F ield         | OpenFOAM: The Open Source CFD Toolbox           |
|  \\    /   O peration     | Version:  v1612+                                |
|   \\  /    A nd           | Web:      www.OpenFOAM.com                      |
|    \\/     M anipulation  |                                                 |
\*---------------------------------------------------------------------------*/
FoamFile
{
    version     2.0;
    format      ascii;
    class       volScalarField;
    location    "7";
    object      p;
}
// * * * * * * * * * * * * * * * * * * * * * * * * * * * * * * * * * * * * * //

dimensions      [1 -1 -2 0 0 0 0];

internalField   nonuniform List<scalar> 
1116
(
17811.2
17811.2
17811.2
17811.2
17811.2
17811.2
16458
16458.2
16458.1
16458
16458
16458.1
14129.1
14129.7
14129.5
14129.4
14129.4
14129.4
11473.3
11473.8
11473.6
11473.6
11473.8
11473.3
9039.66
9040.43
9039.78
9040.48
9040.02
9039.93
7106.39
7111.43
7109.63
7108.73
7105.62
7112.02
5903.93
5902.47
5903.27
5903.5
5906.74
5902.44
5500.21
5495.63
5498.21
5498.63
5504.47
5495.6
5551.91
5546.7
5548.96
5550.81
5553.09
5547.03
5692.95
5695.3
5694.02
5695.46
5690.32
5702.05
6068.98
6079.64
6078.27
6068.8
6057.36
6085.13
6383.36
6382.11
6386.63
6380.15
6384.9
6381.59
11637.9
11637.9
11637.8
11637.8
11637.8
11637.8
8560.92
8561.49
8561.22
8561.06
8561.21
8561.24
5511.33
5513.32
5512.56
5512.28
5512.63
5512.25
3195.53
3196.88
3196.28
3196.23
3196.4
3195.98
1653.39
1653.38
1653.31
1653.87
1654.45
1652.56
897.185
893.664
895.194
895.167
899.857
895.06
591.429
587.958
588.524
590.496
595.109
592.772
636.38
633.593
634.63
637.969
640.494
635.636
882.338
883.818
883.5
882.621
879.807
887.184
1093.31
1095.25
1094.04
1095.96
1095.37
1098.94
1355.01
1361.42
1359.02
1355.84
1349.2
1361.1
1559.68
1561.38
1561.6
1556.82
1554.39
1556.96
5806.71
5806.61
5806.56
5806.48
5806.33
5806.42
1843.61
1844.11
1844.07
1843.62
1843.63
1844.24
613.459
612.987
613.727
612.713
612.274
614.301
112.773
113.06
113.034
112.898
113.244
112.716
-47.5236
-51.6354
-50.4174
-49.1718
-48.0191
-52.0851
80.3684
75.9958
76.6758
78.6214
81.9517
72.8643
166.133
165.344
165.444
166.78
166.532
164.801
137.495
139.789
139.07
139.517
138.478
143.205
118.793
120.417
119.586
118.781
116.09
123.322
129.028
132.464
131.001
129.269
125.619
133.627
248.683
250.38
247.984
249.46
246.094
248.498
228.365
229.325
227.87
228.79
227.025
228.754
3105.14
3104.94
3104.88
3104.84
3104.57
3104.42
-93.4712
-94.2258
-93.7684
-94.0004
-94.0854
-93.4884
-54.7656
-54.9787
-54.8078
-55.0446
-55.1572
-54.7193
-77.6499
-77.8861
-77.939
-77.8316
-77.737
-78.0322
-66.9282
-67.7042
-67.5794
-67.3685
-67.0393
-68.319
-8.88637
-9.06189
-8.94176
-8.77966
-8.72365
-9.18593
29.8012
31.2102
31.1306
31.0774
31.4258
34.0431
8.42001
9.99221
9.99534
9.69935
8.99071
13.3828
-6.17864
-5.81429
-5.75786
-6.0469
-6.55071
-4.88156
-2.99123
-3.33236
-3.20646
-2.79132
-2.49709
-2.69687
7.35446
7.75873
7.51698
7.64744
7.73056
7.94986
-86.5658
-87.5695
-86.6437
-86.8552
-85.6905
-86.8214
2139.75
2143.87
2171.21
2194.66
2212.77
2135.05
1846.5
1757
1904.74
1764.56
1778.78
1727.78
1251.67
1187.69
1267.02
1212.4
1251
1311.77
707.562
725.452
748.14
712.576
735.772
855.546
455.185
447.123
452.598
456.019
451.607
557.269
403.695
404.381
411.259
404.101
372.066
369.029
366.123
326.125
315.717
265.791
263.549
260.883
366.718
333.101
269.365
211.407
222.706
253.03
368.894
363.067
283.399
290.157
313.161
356.845
374.152
379.112
361.152
401.195
475.209
448.071
631.789
618.398
580.962
671.614
730.279
739.735
656.003
662.915
694.336
762.214
841.563
802.669
1204.14
1232.69
1211.13
1271.47
1186.14
1141.3
510.338
396.106
466.028
404.052
411.656
439.406
69.2164
61.1541
70.2156
62.3601
62.9746
66.1063
-13.2376
-47.3601
-47.233
-40.1047
-20.3708
-26.0118
-40.2072
-46.9967
-42.0032
-41.0324
-38.3953
-33.1507
-32.2841
-29.0309
-24.6454
-18.526
-12.7828
-6.92316
-25.814
-27.7831
-28.7959
-26.223
-18.076
-4.30423
-20.731
-23.5413
-25.7886
-36.1396
-50.951
-30.7533
-1.41917
-5.81951
-8.69007
-17.7844
-26.2232
-26.676
11.0472
10.7093
8.86927
8.13645
8.59548
-2.20944
58.9331
37.6808
39.8097
58.6844
90.3899
71.1347
129.377
69.5318
56.0718
158.361
224.471
213.316
540.307
517.048
511.159
499.51
412.992
484.618
56.6172
60.1837
52.9642
32.3108
18.4966
6.55158
-18.9613
-12.559
-16.4569
-14.6547
-14.7438
-15.5642
-24.5486
-26.0041
-25.4952
-24.663
-23.9252
-19.4128
-19.1098
-19.8656
-17.0924
-18.725
-15.9536
-15.0714
-23.9581
-23.6527
-22.0609
-20.1472
-18.3531
-17.2491
-30.0048
-29.0288
-28.9303
-27.0819
-23.3166
-24.0305
-28.5632
-27.3026
-24.8475
-28.9063
-29.9714
-28.1597
-15.8055
-14.3165
-13.1133
-17.9907
-21.2495
-20.8417
-16.5107
-18.2005
-17.2846
-25.3148
-21.8982
-24.6665
-13.0623
-13.6678
-13.1849
-12.1768
-8.78636
-9.29432
-47.5536
-27.0595
-30.2829
-26.1026
-21.3658
-20.3585
243.203
239.71
198.145
235.937
189.375
209.253
-15.2382
-5.22227
-15.5879
-19.7141
-27.6102
-15.4644
-15.0067
-14.2163
-13.8273
-14.0399
-14.5385
-14.6391
-31.7909
-33.0552
-34.362
-33.1572
-33.3444
-31.6108
-33.6216
-33.4673
-33.3445
-32.7612
-32.5775
-32.5108
-38.696
-39.4139
-39.678
-37.8125
-37.2641
-38.846
-41.1161
-41.5074
-41.462
-40.0981
-36.8814
-36.6105
-37.1203
-36.6663
-35.3346
-38.5775
-37.7196
-38.0269
-25.7541
-25.0588
-24.428
-26.6604
-28.2472
-28.7658
-33.1301
-32.7162
-32.502
-30.1768
-31.6014
-33.0812
-21.3346
-16.5267
-19.45
-22.1667
-24.5465
-24.8936
-60.1536
-58.646
-72.5696
-109.336
-128.984
-97.3277
1977.44
1983.91
1980.78
1979.56
1979.93
1976.93
353.9
356.376
354.682
351.229
349.783
350.278
-160.557
-159.8
-160.678
-160.365
-160.291
-161.607
-70.3249
-72.2266
-71.0729
-71.413
-71.4162
-69.9911
-111.485
-110.864
-110.976
-110.906
-110.113
-111.307
-137.15
-135.128
-136.271
-136.032
-135.676
-137.442
-60.7865
-60.6989
-60.654
-60.5737
-60.4911
-60.6755
-59.5185
-59.6048
-59.1571
-59.4861
-59.504
-58.0231
-69.6863
-69.7717
-69.6997
-69.6796
-69.8489
-70.295
-104.361
-104.229
-104.195
-104.282
-104.104
-104.015
-95.2313
-95.1312
-95.0767
-95.0358
-94.8918
-94.254
-94.5741
-94.6928
-94.3141
-94.4901
-94.6234
-93.0689
-80.6283
-81.1396
-81.0854
-81.0708
-80.7851
-81.7336
-85.8353
-85.8571
-85.835
-85.8385
-85.6637
-86.0156
-106.717
-106.729
-106.689
-106.738
-107.156
-105.38
-41.5466
-41.6028
-41.7548
-41.559
-41.7322
-43.0598
-64.9328
-64.5223
-64.1855
-63.7991
-62.7152
-65.3343
-111.566
-111.504
-111.063
-108.93
-103.799
-109.143
-21.4582
-21.0785
-21.5296
-21.61
-22.4183
-21.7137
-46.201
-45.7014
-45.5515
-45.8152
-45.8193
-45.5104
-88.7904
-88.5313
-88.3513
-88.1519
-87.9078
-87.5091
-26.9384
-26.8467
-26.9815
-26.9797
-27.1928
-26.4231
-45.1354
-45.2281
-45.3013
-45.1111
-45.0993
-45.4336
-69.455
-69.5119
-69.4847
-69.3765
-69.3078
-69.4616
-22.0466
-22.1072
-22.0245
-21.8314
-21.5592
-21.746
-42.6975
-42.6467
-42.6259
-42.606
-42.5533
-42.5332
-62.6476
-62.6575
-62.6453
-62.6178
-62.6068
-62.6167
-26.595
-26.5349
-26.4172
-26.6021
-26.6359
-26.7841
-48.7186
-48.6744
-48.6811
-48.6691
-48.6426
-48.5761
-62.6774
-62.6834
-62.673
-62.6478
-62.6384
-62.6539
-42.7127
-42.5436
-42.4326
-42.5992
-42.6006
-42.3491
-54.9192
-54.8854
-54.8715
-54.8762
-54.8749
-54.8312
-65.0507
-65.0479
-65.0408
-65.0328
-65.0298
-65.0244
3.40743
1.86202
2.38057
3.15464
4.15045
2.05073
-50.9375
-50.9358
-50.9563
-50.9352
-50.9346
-50.9455
-71.2393
-71.1842
-71.1959
-71.2
-71.2301
-71.183
214.657
214.605
213.656
211.73
206.734
212.606
-47.9087
-47.6819
-47.6242
-47.6766
-47.865
-47.5826
-71.6873
-71.6735
-71.664
-71.8113
-71.9449
-71.9577
235
234.893
236.259
239.281
242.472
238.62
-51.4199
-51.3724
-51.3346
-51.2581
-51.1613
-51.1408
-70.2672
-70.2891
-70.3062
-70.3484
-70.3285
-70.3059
248.948
249.228
249.591
249.884
249.873
249.767
-49.6886
-49.668
-49.6541
-49.6903
-49.7068
-49.6859
-69.4255
-69.4336
-69.438
-69.4563
-69.4611
-69.4614
247.924
248.072
248.319
248.679
248.811
248.747
-50.2969
-50.2934
-50.2887
-50.2773
-50.2657
-50.2519
-69.3952
-69.403
-69.4125
-69.4188
-69.4174
-69.4161
242.174
242.283
242.518
242.713
242.744
242.812
-49.6314
-49.6191
-49.6038
-49.5911
-49.5814
-49.5851
-70.2101
-70.2167
-70.2266
-70.2395
-70.245
-70.2407
205.435
205.004
205.026
205.058
205.05
204.995
-47.4058
-47.4045
-47.3994
-47.3854
-47.3709
-47.3843
-72.1393
-72.1455
-72.1568
-72.1668
-72.1754
-72.169
120.474
105.831
83.8948
137.14
111.114
131.63
-198.748
-42.0476
-213.163
-151.244
24.4891
-135.94
-167.111
-146.178
-172.56
-148.096
-109.331
-145.466
-46.506
-39.707
-45.8082
-47.7684
-54.6509
-46.5098
-70.1656
-73.4026
-89.7451
-79.0912
-75.8601
-64.6174
-88.9664
-100.904
-107.248
-100.608
-93.3113
-86.4153
-28.1144
-27.7531
-27.1574
-28.4969
-31.5304
-30.9925
-45.5557
-44.3272
-45.1561
-45.1308
-45.4329
-46.9184
-64.22
-62.5715
-62.9893
-62.8014
-62.9726
-65.5082
-40.7028
-41.7028
-41.8768
-42.4602
-43.2315
-42.3388
-56.5315
-56.9088
-57.3132
-57.0226
-56.5032
-56.555
-69.3329
-70.1579
-70.4602
-70.044
-69.0671
-68.8303
-37.5632
-37.6978
-37.3275
-37.4374
-37.3569
-37.1019
-52.9828
-52.7783
-52.8238
-52.9654
-53.116
-53.2616
-61.8535
-61.823
-61.7436
-61.7103
-61.7345
-61.7578
-40.2838
-40.0234
-40.2115
-40.3377
-40.1883
-39.5687
-54.4297
-54.3377
-54.4057
-54.5345
-54.6141
-54.549
-62.5983
-62.5529
-62.557
-62.6648
-62.661
-62.6529
-40.0396
-40.3684
-40.8185
-40.6273
-40.3547
-40.1245
-52.9376
-52.3966
-52.2762
-52.7948
-53.1943
-53.1778
-61.7676
-61.7117
-61.6022
-61.7068
-61.7343
-61.7869
-41.4026
-41.7874
-42.1172
-42.0174
-41.9465
-41.6298
-54.4018
-54.3405
-54.6344
-54.4408
-54.3854
-54.5159
-61.7438
-61.6346
-61.5545
-61.5603
-61.6994
-61.7891
-34.7114
-35.6338
-37.1911
-37.1763
-38.0875
-37.154
-55.3637
-55.8291
-56.098
-55.317
-54.5155
-54.6061
-60.7335
-60.6312
-60.6546
-60.7953
-60.9419
-60.9817
-39.302
-40.1639
-41.682
-41.9122
-41.4725
-41.3503
-58.1193
-58.0992
-57.9958
-57.7977
-57.3063
-57.5709
-61.0338
-60.9992
-61.0737
-61.0987
-61.1811
-61.148
-46.3006
-47.8734
-48.3461
-49.106
-47.3314
-47.425
-60.3811
-60.4
-60.2845
-60.0785
-59.1173
-59.479
-61.7795
-61.8447
-62.0547
-62.3292
-62.5272
-62.4633
-5.82433
-7.75006
-9.83417
-15.7548
-25.1865
-10.7141
-58.4202
-58.2237
-57.7615
-57.7102
-56.8879
-57.4256
-73.3573
-73.5139
-73.1863
-72.7164
-71.6687
-72.6015
)
;

boundaryField
{
    seabed_topleft_surface
    {
        type            calculated;
        value           nonuniform List<scalar> 
72
(
21188.6
21188.5
21188.5
21188.6
21188.5
21188.6
21086.2
21086.7
21086.4
21086.3
21086.4
21086.3
18925.1
18925.7
18925.5
18925.4
18925.5
18925.5
16269.4
16269.8
16269.6
16269.6
16269.8
16269.3
13835.7
13836.4
13835.8
13836.5
13836
13835.9
11600.8
11605.1
11603.1
11603.7
11600.8
11605.2
10179.1
10178.8
10179.4
10179.2
10181.4
10179
9662.68
9659
9662.17
9660.76
9665.65
9659.76
9651.67
9646.02
9649.42
9649.69
9651.74
9647.2
9753.06
9752.86
9753.11
9754.66
9751.16
9759.78
10122.4
10130.7
10130.8
10121.3
10111.4
10136.4
10432.9
10430.4
10435.7
10429.3
10435.1
10429.8
)
;
    }
    seabed_topright_surface
    {
        type            calculated;
        value           nonuniform List<scalar> 
72
(
2596.28
2600.46
2627.9
2651.29
2669.42
2591.7
2303.04
2213.54
2361.33
2221.34
2235.44
2184.46
1708.09
1387.02
1552.04
1512.64
1707.64
1768.43
923.257
939.617
1051.97
902.389
1050.81
1312.18
673.824
820.479
826.132
829.552
770.298
1013.71
777.487
772.26
784.358
769.714
736.334
707.157
740.856
654.868
635.459
477.028
584.323
412.917
741.481
691.667
542.078
412.791
507.064
367.225
743.869
736.964
556.429
613.162
645.984
666.6
749.179
750.421
707.705
773.196
855.514
840.393
989.055
913.382
957.217
1071.75
1131.81
1133.3
868.4
921.698
1087.42
1163.74
1243.09
1077.54
)
;
    }
    breakwater_top_surface
    {
        type            calculated;
        value           nonuniform List<scalar> 
36
(
495.459
493.558
491.487
489.752
484.125
492.06
525.489
524.804
527.862
534.942
542.523
532.615
551.016
551.63
552.394
552.968
552.976
552.683
549.277
549.626
550.137
550.827
551.005
550.924
541.95
542.243
542.718
543.17
543.214
543.375
482.492
481.612
481.732
481.865
481.925
481.673
)
;
    }
    breakwater_left_surface
    {
        type            calculated;
        value           nonuniform List<scalar> 
24
(
6397.22
6395.98
6400.5
6394.02
6398.77
6395.45
1563.66
1565.33
1565.58
1560.8
1558.38
1560.92
228.798
229.774
228.313
229.219
227.439
229.197
-86.1184
-87.1191
-86.1963
-86.4121
-85.2495
-86.3775
)
;
    }
    breakwater_right_surface
    {
        type            calculated;
        value           nonuniform List<scalar> 
24
(
656.731
663.801
695.682
763.589
842.939
803.611
130.094
69.9995
56.2725
159.138
225.818
214.186
-47.3338
-27.0432
-30.2664
-26.0862
-21.1915
-20.3422
-60.0854
-58.4805
-72.3463
-109.138
-128.864
-97.1971
)
;
    }
    water_front_surface
    {
        type            calculated;
        value           nonuniform List<scalar> 
186
(
17811.2
16458
14129.1
11473.3
9039.66
7106.39
5903.93
5500.21
5551.91
5692.95
6068.98
6383.36
11637.9
8560.92
5511.33
3195.53
1653.39
897.185
591.429
636.38
882.338
1093.31
1355.01
1559.68
5806.71
1843.61
613.459
112.773
-47.5236
80.3684
166.133
137.495
118.793
129.028
248.683
228.365
3105.14
-93.4712
-54.7656
-77.6499
-66.9282
-8.88637
29.8012
8.42001
-6.17864
-2.99123
7.35446
-86.5658
2139.75
1846.5
1251.67
707.562
455.185
403.695
366.123
366.718
368.894
374.152
631.789
656.003
1204.14
510.338
69.2164
-13.2376
-40.2072
-32.2841
-25.814
-20.731
-1.41917
11.0472
58.9331
129.377
540.307
56.6172
-18.9613
-24.5486
-19.1098
-23.9581
-30.0048
-28.5632
-15.8055
-16.5107
-13.0623
-47.5536
243.203
-15.2382
-15.0067
-31.7909
-33.6216
-38.696
-41.1161
-37.1203
-25.7541
-33.1301
-21.3346
-60.1536
1977.44
353.9
-160.557
-70.3249
-111.485
-137.15
-60.7865
-59.5185
-69.6863
-104.361
-95.2313
-94.5741
-80.6283
-85.8353
-106.717
-41.5466
-64.9328
-111.566
-21.4582
-46.201
-88.7904
-26.9384
-45.1354
-69.455
-22.0466
-42.6975
-62.6476
-26.595
-48.7186
-62.6774
-42.7127
-54.9192
-65.0507
3.40743
-50.9375
-71.2393
214.657
-47.9087
-71.6873
235
-51.4199
-70.2672
248.948
-49.6886
-69.4255
247.924
-50.2969
-69.3952
242.174
-49.6314
-70.2101
205.435
-47.4058
-72.1393
120.474
-198.748
-167.111
-46.506
-70.1656
-88.9664
-28.1144
-45.5557
-64.22
-40.7028
-56.5315
-69.3329
-37.5632
-52.9828
-61.8535
-40.2838
-54.4297
-62.5983
-40.0396
-52.9376
-61.7676
-41.4026
-54.4018
-61.7438
-34.7114
-55.3637
-60.7335
-39.302
-58.1193
-61.0338
-46.3006
-60.3811
-61.7795
-5.82433
-58.4202
-73.3573
)
;
    }
    water_back_surface
    {
        type            calculated;
        value           nonuniform List<scalar> 
186
(
17811.2
16458.1
14129.4
11473.3
9039.93
7112.02
5902.44
5495.6
5547.03
5702.05
6085.13
6381.59
11637.8
8561.24
5512.25
3195.98
1652.56
895.06
592.772
635.636
887.184
1098.94
1361.1
1556.96
5806.42
1844.24
614.301
112.716
-52.0851
72.8643
164.801
143.205
123.322
133.627
248.498
228.754
3104.42
-93.4884
-54.7193
-78.0322
-68.319
-9.18593
34.0431
13.3828
-4.88156
-2.69687
7.94986
-86.8214
2135.05
1727.78
1311.77
855.546
557.269
369.029
260.883
253.03
356.845
448.071
739.735
802.669
1141.3
439.406
66.1063
-26.0118
-33.1507
-6.92316
-4.30423
-30.7533
-26.676
-2.20944
71.1347
213.316
484.618
6.55158
-15.5642
-19.4128
-15.0714
-17.2491
-24.0305
-28.1597
-20.8417
-24.6665
-9.29432
-20.3585
209.253
-15.4644
-14.6391
-31.6108
-32.5108
-38.846
-36.6105
-38.0269
-28.7658
-33.0812
-24.8936
-97.3277
1976.93
350.278
-161.607
-69.9911
-111.307
-137.442
-60.6755
-58.0231
-70.295
-104.015
-94.254
-93.0689
-81.7336
-86.0156
-105.38
-43.0598
-65.3343
-109.143
-21.7137
-45.5104
-87.5091
-26.4231
-45.4336
-69.4616
-21.746
-42.5332
-62.6167
-26.7841
-48.5761
-62.6539
-42.3491
-54.8312
-65.0244
2.05073
-50.9455
-71.183
212.606
-47.5826
-71.9577
238.62
-51.1408
-70.3059
249.767
-49.6859
-69.4614
248.747
-50.2519
-69.4161
242.812
-49.5851
-70.2407
204.995
-47.3843
-72.169
131.63
-135.94
-145.466
-46.5098
-64.6174
-86.4153
-30.9925
-46.9184
-65.5082
-42.3388
-56.555
-68.8303
-37.1019
-53.2616
-61.7578
-39.5687
-54.549
-62.6529
-40.1245
-53.1778
-61.7869
-41.6298
-54.5159
-61.7891
-37.154
-54.6061
-60.9817
-41.3503
-57.5709
-61.148
-47.425
-59.479
-62.4633
-10.7141
-57.4256
-72.6015
)
;
    }
    water_left_surface
    {
        type            calculated;
        value           nonuniform List<scalar> 
42
(
17822.8
17822.7
17822.7
17822.8
17822.7
17822.7
11650.5
11650.5
11650.5
11650.5
11650.4
11650.4
5819.11
5819.01
5818.96
5818.88
5818.73
5818.82
3117.3
3117.1
3117.04
3117
3116.73
3116.57
1977.44
1983.91
1980.78
1979.56
1979.93
1976.93
353.9
356.376
354.682
351.229
349.783
350.278
-160.557
-159.8
-160.678
-160.365
-160.291
-161.607
)
;
    }
    water_right_surface
    {
        type            calculated;
        value           nonuniform List<scalar> 
42
(
2141.31
2145.43
2172.77
2196.22
2214.34
2136.61
1205.67
1233.9
1212.67
1273
1187.67
1142.83
541.808
518.522
512.501
500.453
414.134
486.12
244.675
241.181
199.595
236.516
190.076
210.725
120.474
105.831
83.8948
137.14
111.114
131.63
-198.748
-42.0476
-213.163
-151.244
24.4891
-135.94
-167.111
-146.178
-172.56
-148.096
-109.331
-145.466
)
;
    }
    water_top_surface
    {
        type            calculated;
        value           nonuniform List<scalar> 
180
(
-282.107
-273.141
-277.484
-280.541
-279.764
-282.736
-283.314
-265.193
-273.299
-275.055
-272.009
-277.234
-68.8348
-68.8029
-68.8002
-68.827
-68.8411
-68.771
-91.9588
-87.5346
-85.9487
-91.4201
-93.5818
-79.9635
-117.034
-117.616
-118.221
-118.284
-118.284
-118.284
-105.347
-107.256
-108.079
-104.516
-68.8182
-112.701
-88.0133
-87.9499
-87.9388
-87.9749
-88.5782
-87.1727
-78.5658
-78.7522
-78.7326
-78.6087
-78.5408
-78.8155
-71.5793
-71.5848
-71.5866
-71.5731
-71.5724
-71.5829
-70.8155
-70.8135
-70.8169
-70.8095
-70.8257
-70.8031
-72.1873
-72.1858
-72.1876
-72.1844
-72.1976
-72.1755
-70.6648
-70.6909
-70.6937
-70.6853
-70.6814
-70.6896
-68.9824
-68.9591
-68.9465
-68.9849
-69.0534
-68.9822
-70.4751
-70.5156
-70.5331
-70.5123
-70.4951
-70.4566
-69.8908
-69.8813
-69.866
-69.8604
-69.8523
-69.854
-70.168
-70.1765
-70.1775
-70.1761
-70.1777
-70.1676
-70.4537
-70.4597
-70.4576
-70.4537
-70.4571
-70.4513
-69.5327
-69.5288
-69.527
-69.5247
-69.5237
-69.5218
-2266.9
-225.602
-644.802
-540.789
-70.1135
-2281.76
-68.6705
-221.873
-218.08
-181.729
-115.298
-69.1704
-68.67
-68.67
-68.7618
-68.67
-68.67
-68.67
-72.1226
-72.5721
-72.6983
-72.721
-72.3982
-72.4659
-68.7234
-68.7192
-68.7255
-68.7201
-68.7266
-68.7214
-68.9911
-68.971
-68.988
-69.0445
-69.0752
-69.0493
-68.67
-68.67
-68.67
-68.67
-68.67
-68.67
-68.67
-68.67
-68.67
-68.67
-68.67
-68.67
-68.67
-68.6701
-68.6701
-68.67
-68.672
-68.6727
-68.9399
-68.9822
-69.0204
-69.0296
-69.0683
-69.0511
-70.0032
-70.1147
-70.2486
-70.3107
-70.4464
-70.2625
-70.8659
-70.569
-70.1067
-70.3403
-70.7795
-70.5755
)
;
    }
}


// ************************************************************************* //
