/*--------------------------------*- C++ -*----------------------------------*\
| =========                 |                                                 |
| \\      /  F ield         | OpenFOAM: The Open Source CFD Toolbox           |
|  \\    /   O peration     | Version:  v1612+                                |
|   \\  /    A nd           | Web:      www.OpenFOAM.com                      |
|    \\/     M anipulation  |                                                 |
\*---------------------------------------------------------------------------*/
FoamFile
{
    version     2.0;
    format      ascii;
    class       volScalarField;
    location    "7";
    object      p_rgh;
}
// * * * * * * * * * * * * * * * * * * * * * * * * * * * * * * * * * * * * * //

dimensions      [1 -1 -2 0 0 0 0];

internalField   nonuniform List<scalar> 
1116
(
21188.6
21188.5
21188.5
21188.6
21188.5
21188.6
21086.2
21086.7
21086.4
21086.3
21086.4
21086.3
18925.1
18925.7
18925.5
18925.4
18925.5
18925.5
16269.4
16269.8
16269.6
16269.6
16269.8
16269.3
13835.7
13836.4
13835.8
13836.5
13836
13835.9
11600.8
11605.1
11603.1
11603.7
11600.8
11605.2
10179.1
10178.8
10179.4
10179.2
10181.4
10179
9662.68
9659
9662.17
9660.76
9665.65
9659.76
9651.67
9646.02
9649.42
9649.69
9651.74
9647.2
9753.06
9752.86
9753.11
9754.66
9751.16
9759.78
10122.4
10130.7
10130.8
10121.3
10111.4
10136.4
10432.9
10430.4
10435.7
10429.3
10435.1
10429.8
22920.6
22919.5
22920
22920.4
22920.1
22920.2
22413.5
22414.9
22414.1
22413.7
22414.1
22413.8
17056
17059.5
17058.3
17057.7
17058.6
17057.5
11434
11435.9
11435.2
11434.9
11434.9
11434.6
6827.85
6828.3
6827.14
6829.43
6830.34
6825.79
3893.8
3900.38
3899.38
3896.03
3896
3904.22
2337.45
2303.03
2308.28
2331.11
2361.51
2297.62
2387.49
2371.62
2377.47
2384.65
2392.56
2373.18
2967.33
2964.27
2969.06
2963.34
2948.41
2979.96
3212.29
3220.48
3217.41
3215.94
3199.07
3241.54
3725.03
3786.8
3778.95
3726.38
3676.83
3817.11
5106.09
5087.4
5108.87
5099.43
5119.57
5088.93
24604.9
24603.9
24604.2
24604.5
24604.1
24604.3
12816.7
12818.9
12819
12816.9
12816.1
12819.5
3945.09
3952
3950.41
3946.74
3946.89
3950.3
1056.66
1063.8
1060.97
1059.12
1059.67
1060.11
137.733
138.893
137.531
139.229
141.202
134.58
112.973
104.736
105.346
108.325
113.893
100.729
200.543
197.887
197.904
199.867
198.248
195.224
286.159
272.823
273.011
289.129
312.871
262.952
464.105
457.148
454.09
466.69
477.046
449.639
622.082
634.879
624.967
627.265
613.641
638.512
837.18
869.403
853.671
842.897
812.247
870.846
883.912
910.679
899.455
879.632
853.837
900.058
29415.5
29413.3
29414.2
29414.9
29414.1
29414.2
1269.11
1267.73
1268.11
1268.65
1268.51
1268.08
-20.378
-20.5928
-20.4224
-20.6594
-20.7743
-20.3387
-43.1501
-43.4245
-43.4806
-43.3457
-43.2149
-43.5828
-32.2547
-33.087
-32.9654
-32.7125
-32.3324
-33.7172
33.3065
28.2259
28.1789
29.411
32.2371
27.1559
184.505
164.314
163.999
183.877
193.667
146.742
220.536
221.93
225.991
230.154
234.668
234.071
69.0518
70.8369
69.7891
66.8544
60.1052
74.0294
31.774
31.2318
31.3618
32.054
32.8613
31.8725
357.876
339.042
339.386
361.3
375.25
329.437
881.582
887.138
881.555
871.865
868.687
873.793
2596.28
2600.46
2627.9
2651.29
2669.42
2591.7
2303.04
2213.54
2361.33
2221.34
2235.44
2184.46
1708.09
1387.02
1552.04
1512.64
1707.64
1768.43
923.257
939.617
1051.97
902.389
1050.81
1312.18
673.824
820.479
826.132
829.552
770.298
1013.71
777.487
772.26
784.358
769.714
736.334
707.157
740.856
654.868
635.459
477.028
584.323
412.917
741.481
691.667
542.078
412.791
507.064
367.225
743.869
736.964
556.429
613.162
645.984
666.6
749.179
750.421
707.705
773.196
855.514
840.393
989.055
913.382
957.217
1071.75
1131.81
1133.3
868.4
921.698
1087.42
1163.74
1243.09
1077.54
2570.57
2312.33
2577.75
2638.51
2552.87
2508.14
1726.55
883.654
1396.9
1168.83
948.972
1806.44
209.659
186.905
124.841
178.94
205.148
253.255
64.37
7.08032
21.6324
13.622
62.2421
33.9145
7.38986
-32.2645
-26.8254
-26.084
-2.16897
-14.4751
-17.5526
-14.2993
-9.91383
-3.7945
1.94885
8.46232
-11.0825
-13.0515
-14.0644
-11.491
-3.32762
45.0376
-5.99942
-8.80978
-11.0571
-21.4077
-36.026
44.8959
13.3124
8.91204
6.04169
-3.05277
-11.4916
15.5879
31.2216
25.4442
23.6027
22.8684
23.3565
13.3467
214.414
117.065
79.1772
204.788
388.888
210.476
769.16
486.708
235.153
851.441
1426.27
989.429
2816.27
2751.82
2545.79
1929.53
2144.38
2761.28
1399.65
221.517
623.741
332.595
310.017
1457.59
5.6132
12.0363
8.09468
9.89458
9.82168
9.60589
-0.00657015
-1.46179
-0.95373
-0.1216
0.616515
5.13021
5.43146
4.67559
7.44878
5.81623
8.58761
9.46986
0.583203
0.888477
2.48034
4.394
6.18816
7.29218
-5.46355
-4.48666
-4.3891
-2.54046
1.27225
0.510766
-4.02196
-2.76127
-0.306233
-4.36414
-5.31889
-3.60682
8.73573
10.2297
11.428
6.55064
3.29175
3.69957
8.03177
6.34554
7.25699
-0.773451
2.64308
-0.107683
11.5441
10.9203
11.3762
12.3653
15.8102
15.2653
285.678
-2.41053
-5.25523
-1.31772
242.841
4.33573
3428.4
3424.86
3335.15
1490.09
1706.69
3394.74
670.053
334
235.76
99.8886
115.243
517
19.3819
20.1543
20.5269
20.3154
19.8134
19.7185
2.56037
1.29558
-0.0111646
1.19366
1.0065
2.74013
0.729294
0.883593
1.0064
1.58969
1.77341
1.84007
-4.34492
-5.06259
-5.32709
-3.46141
-2.91306
-4.49347
-6.7647
-7.15518
-7.11109
-5.74685
-2.52936
-2.25912
-2.76939
-2.31537
-0.983658
-4.22645
-3.36876
-3.67593
8.59683
9.29304
9.93085
7.69075
6.1038
5.58511
1.22192
1.68423
1.98734
4.17437
2.74924
1.26983
13.0254
17.8629
14.9831
33.0637
61.8933
17.6574
87.3858
299.378
410.79
318.071
130.963
185.444
32645.4
32641.1
32641.1
32641
32639.1
32641.7
9619.69
9513.39
9556.12
9573.34
9550.28
9577.18
101.399
93.831
96.9856
100.137
99.4903
100.933
1697.19
1696.65
1695.95
1698.43
1700.56
1692.76
839.41
838.218
838.649
838.888
839.685
835.582
125.927
111.123
117.507
119.376
116.904
119.99
-16.5964
-16.5095
-16.4649
-16.3875
-16.3079
-16.4923
-5.50573
-5.59476
-5.14785
-5.47723
-5.49869
-4.02143
-5.76829
-5.88333
-5.81376
-5.76878
-5.92499
-6.43622
-60.1684
-60.0389
-60.0055
-60.0926
-59.918
-59.8322
-41.1468
-41.0718
-41.0194
-40.9575
-40.8024
-40.2196
-9.18384
-13.4107
-14.5046
-9.59999
-7.72606
-18.817
-36.172
-36.8534
-36.8032
-36.7541
-35.8171
-37.4626
1.08379
-9.45735
-8.8975
0.250152
4.03901
-15.9737
1.95708
2.48606
3.08748
3.09764
2.67935
4.45559
70.8239
47.319
46.4948
62.9293
77.5936
47.9422
71.2127
65.8656
66.588
71.3309
78.9845
67.0693
-13.7436
-11.909
-10.7038
-11.879
-10.589
-4.49195
149.645
149.718
148.76
146.754
142.761
142.783
20.4599
24.9674
26.9672
18.4457
14.9677
30.3699
-25.0254
-24.7663
-24.5863
-24.3869
-24.1428
-23.7441
17.2066
17.2983
17.1635
17.1653
16.9522
19.3625
8.81957
8.72694
8.6537
8.8439
8.85567
8.5214
-5.69004
-5.74694
-5.71969
-5.61146
-5.5428
-5.69663
22.0985
22.0379
22.1205
22.3137
22.5859
22.3991
11.2576
11.3084
11.3292
11.3491
11.4018
11.4219
1.12195
1.11204
1.12423
1.15196
1.16318
1.1528
17.5508
17.6111
17.7287
17.5438
17.5098
17.3618
5.23855
5.28301
5.2763
5.28824
5.31403
5.38147
1.12091
1.11488
1.12525
1.15049
1.15987
1.14445
1.43212
1.60136
1.71235
1.54559
1.54395
1.79595
-0.964215
-0.930352
-0.916453
-0.921151
-0.919891
-0.876154
-1.28542
-1.28254
-1.27547
-1.2675
-1.26452
-1.25913
664.71
637.731
646.816
657.825
673.125
641.789
3.01751
3.01921
2.99871
3.01981
3.02041
3.00951
-7.47428
-7.41922
-7.43093
-7.43501
-7.46509
-7.41799
2741.88
2725.18
2714.14
2713.93
2703.25
2727.7
6.04633
6.27305
6.33084
6.27845
6.09002
6.37236
-7.92233
-7.90853
-7.89898
-8.04632
-8.17991
-8.19266
2849.4
2844.09
2860.69
2900.23
2942.93
2884.58
2.53507
2.58261
2.62038
2.69686
2.79369
2.8142
-6.50216
-6.5241
-6.54124
-6.58336
-6.56354
-6.54086
2967.56
2970.85
2974.82
2977.64
2977.8
2976.02
4.26644
4.28697
4.30093
4.26471
4.24816
4.26914
-5.66048
-5.66859
-5.67295
-5.69127
-5.69612
-5.69639
2960.11
2962.06
2964.68
2968.01
2968.55
2968.34
3.65809
3.66161
3.66629
3.67772
3.68933
3.70308
-5.63019
-5.63805
-5.6475
-5.65383
-5.65244
-5.65107
2940.16
2941.93
2944.32
2946.83
2946.97
2947.88
4.3236
4.3359
4.35118
4.36392
4.37364
4.36985
-6.44511
-6.4517
-6.46162
-6.47453
-6.48001
-6.47574
2698.95
2694.48
2695.38
2696.32
2696.92
2695.1
6.5492
6.5505
6.55558
6.5696
6.58414
6.57065
-8.37427
-8.38051
-8.39182
-8.40185
-8.41042
-8.40397
4213.78
4199
4174.44
3979.35
2685.63
4223.38
4804.02
4008.5
4333.07
3987.98
1549.07
4861.12
1937.87
63.3098
426.184
354.065
-45.5658
1973.31
448.35
364.351
270.777
142.733
74.2913
459.378
37.9266
332.544
184.237
124.84
71.0156
80.5124
-25.201
105.121
95.2549
68.1395
13.7515
-22.6503
16.0339
16.3919
16.9876
15.6481
12.6146
13.154
8.39935
9.62785
8.79892
8.82419
8.52229
7.03657
-0.454993
1.19348
0.775659
0.963636
0.792447
-1.74324
3.44221
2.44222
2.26815
1.68478
0.913457
1.82326
-2.57654
-2.95367
-3.3579
-3.06759
-2.54818
-2.59997
-5.56791
-6.39206
-6.6946
-6.27887
-5.3021
-5.06529
6.58179
6.44722
6.81752
6.70763
6.78806
7.04307
0.972184
1.17671
1.13124
0.989558
0.839037
0.693412
1.91149
1.94203
2.02143
2.05466
2.03051
2.00719
3.86124
4.12164
3.93348
3.80725
3.95673
4.57637
-0.474679
-0.382674
-0.450744
-0.579501
-0.659119
-0.593996
1.1667
1.21213
1.20803
1.10021
1.10398
1.11206
4.10555
3.77697
3.32647
3.51765
3.79029
4.02049
1.0174
1.55843
1.6788
1.16023
0.760749
0.777154
1.99744
2.05332
2.16279
2.05823
2.03072
1.97812
2.74238
2.35764
2.02778
2.1276
2.1985
2.5152
-0.446835
-0.385492
-0.679196
-0.485758
-0.43037
-0.56087
2.02123
2.13036
2.21056
2.20469
2.06558
1.97586
9.43407
8.51289
6.95631
6.96923
6.05776
6.99128
-1.40806
-1.86983
-2.13727
-1.36039
-0.560458
-0.650128
3.03157
3.13389
3.11044
2.96975
2.82305
2.7833
4.8602
4.02856
2.48517
2.24249
2.67271
2.79776
-4.09209
-4.08324
-4.00448
-3.81997
-3.35079
-3.60767
2.73128
2.76588
2.69134
2.66629
2.58393
2.61698
-2.1556
-3.72948
-4.20133
-4.96252
-3.18639
-3.28081
-6.42608
-6.44498
-6.32955
-6.12347
-5.16231
-5.52402
1.98547
1.92033
1.71028
1.43583
1.23784
1.3017
935.036
992.379
947.05
814.686
511.812
881.072
-4.46518
-4.26872
-3.80645
-3.75523
-2.93289
-3.47059
-9.59231
-9.74893
-9.42127
-8.95144
-7.90366
-8.83646
)
;

boundaryField
{
    seabed_topleft_surface
    {
        type            fixedFluxPressure;
        gradient        uniform 0;
        value           nonuniform List<scalar> 
72
(
21188.6
21188.5
21188.5
21188.6
21188.5
21188.6
21086.2
21086.7
21086.4
21086.3
21086.4
21086.3
18925.1
18925.7
18925.5
18925.4
18925.5
18925.5
16269.4
16269.8
16269.6
16269.6
16269.8
16269.3
13835.7
13836.4
13835.8
13836.5
13836
13835.9
11600.8
11605.1
11603.1
11603.7
11600.8
11605.2
10179.1
10178.8
10179.4
10179.2
10181.4
10179
9662.68
9659
9662.17
9660.76
9665.65
9659.76
9651.67
9646.02
9649.42
9649.69
9651.74
9647.2
9753.06
9752.86
9753.11
9754.66
9751.16
9759.78
10122.4
10130.7
10130.8
10121.3
10111.4
10136.4
10432.9
10430.4
10435.7
10429.3
10435.1
10429.8
)
;
    }
    seabed_topright_surface
    {
        type            fixedFluxPressure;
        gradient        uniform 0;
        value           nonuniform List<scalar> 
72
(
2596.28
2600.46
2627.9
2651.29
2669.42
2591.7
2303.04
2213.54
2361.33
2221.34
2235.44
2184.46
1708.09
1387.02
1552.04
1512.64
1707.64
1768.43
923.257
939.617
1051.97
902.389
1050.81
1312.18
673.824
820.479
826.132
829.552
770.298
1013.71
777.487
772.26
784.358
769.714
736.334
707.157
740.856
654.868
635.459
477.028
584.323
412.917
741.481
691.667
542.078
412.791
507.064
367.225
743.869
736.964
556.429
613.162
645.984
666.6
749.179
750.421
707.705
773.196
855.514
840.393
989.055
913.382
957.217
1071.75
1131.81
1133.3
868.4
921.698
1087.42
1163.74
1243.09
1077.54
)
;
    }
    breakwater_top_surface
    {
        type            fixedFluxPressure;
        gradient        uniform 0;
        value           nonuniform List<scalar> 
36
(
2741.88
2725.18
2714.14
2713.93
2703.25
2727.7
2849.4
2844.09
2860.69
2900.23
2942.93
2884.58
2967.56
2970.85
2974.82
2977.64
2977.8
2976.02
2960.11
2962.06
2964.68
2968.01
2968.55
2968.34
2940.16
2941.93
2944.32
2946.83
2946.97
2947.88
2698.95
2694.48
2695.38
2696.32
2696.92
2695.1
)
;
    }
    breakwater_left_surface
    {
        type            fixedFluxPressure;
        gradient        uniform 0;
        value           nonuniform List<scalar> 
24
(
10432.9
10430.4
10435.7
10429.3
10435.1
10429.8
5106.09
5087.4
5108.87
5099.43
5119.57
5088.93
883.912
910.679
899.455
879.632
853.837
900.058
881.582
887.138
881.555
871.865
868.687
873.793
)
;
    }
    breakwater_right_surface
    {
        type            fixedFluxPressure;
        gradient        uniform 0;
        value           nonuniform List<scalar> 
24
(
868.4
921.698
1087.42
1163.74
1243.09
1077.54
769.16
486.708
235.153
851.441
1426.27
989.429
285.678
-2.41053
-5.25523
-1.31772
242.841
4.33573
87.3858
299.378
410.79
318.071
130.963
185.444
)
;
    }
    water_front_surface
    {
        type            fixedFluxPressure;
        gradient        uniform 0;
        value           nonuniform List<scalar> 
186
(
21188.6
21086.2
18925.1
16269.4
13835.7
11600.8
10179.1
9662.68
9651.67
9753.06
10122.4
10432.9
22920.6
22413.5
17056
11434
6827.85
3893.8
2337.45
2387.49
2967.33
3212.29
3725.03
5106.09
24604.9
12816.7
3945.09
1056.66
137.733
112.973
200.543
286.159
464.105
622.082
837.18
883.912
29415.5
1269.11
-20.378
-43.1501
-32.2547
33.3065
184.505
220.536
69.0518
31.774
357.876
881.582
2596.28
2303.04
1708.09
923.257
673.824
777.487
740.856
741.481
743.869
749.179
989.055
868.4
2570.57
1726.55
209.659
64.37
7.38986
-17.5526
-11.0825
-5.99942
13.3124
31.2216
214.414
769.16
2816.27
1399.65
5.6132
-0.00657015
5.43146
0.583203
-5.46355
-4.02196
8.73573
8.03177
11.5441
285.678
3428.4
670.053
19.3819
2.56037
0.729294
-4.34492
-6.7647
-2.76939
8.59683
1.22192
13.0254
87.3858
32645.4
9619.69
101.399
1697.19
839.41
125.927
-16.5964
-5.50573
-5.76829
-60.1684
-41.1468
-9.18384
-36.172
1.08379
1.95708
70.8239
71.2127
-13.7436
149.645
20.4599
-25.0254
17.2066
8.81957
-5.69004
22.0985
11.2576
1.12195
17.5508
5.23855
1.12091
1.43212
-0.964215
-1.28542
664.71
3.01751
-7.47428
2741.88
6.04633
-7.92233
2849.4
2.53507
-6.50216
2967.56
4.26644
-5.66048
2960.11
3.65809
-5.63019
2940.16
4.3236
-6.44511
2698.95
6.5492
-8.37427
4213.78
4804.02
1937.87
448.35
37.9266
-25.201
16.0339
8.39935
-0.454993
3.44221
-2.57654
-5.56791
6.58179
0.972184
1.91149
3.86124
-0.474679
1.1667
4.10555
1.0174
1.99744
2.74238
-0.446835
2.02123
9.43407
-1.40806
3.03157
4.8602
-4.09209
2.73128
-2.1556
-6.42608
1.98547
935.036
-4.46518
-9.59231
)
;
    }
    water_back_surface
    {
        type            fixedFluxPressure;
        gradient        uniform 0;
        value           nonuniform List<scalar> 
186
(
21188.6
21086.3
18925.5
16269.3
13835.9
11605.2
10179
9659.76
9647.2
9759.78
10136.4
10429.8
22920.2
22413.8
17057.5
11434.6
6825.79
3904.22
2297.62
2373.18
2979.96
3241.54
3817.11
5088.93
24604.3
12819.5
3950.3
1060.11
134.58
100.729
195.224
262.952
449.639
638.512
870.846
900.058
29414.2
1268.08
-20.3387
-43.5828
-33.7172
27.1559
146.742
234.071
74.0294
31.8725
329.437
873.793
2591.7
2184.46
1768.43
1312.18
1013.71
707.157
412.917
367.225
666.6
840.393
1133.3
1077.54
2508.14
1806.44
253.255
33.9145
-14.4751
8.46232
45.0376
44.8959
15.5879
13.3467
210.476
989.429
2761.28
1457.59
9.60589
5.13021
9.46986
7.29218
0.510766
-3.60682
3.69957
-0.107683
15.2653
4.33573
3394.74
517
19.7185
2.74013
1.84007
-4.49347
-2.25912
-3.67593
5.58511
1.26983
17.6574
185.444
32641.7
9577.18
100.933
1692.76
835.582
119.99
-16.4923
-4.02143
-6.43622
-59.8322
-40.2196
-18.817
-37.4626
-15.9737
4.45559
47.9422
67.0693
-4.49195
142.783
30.3699
-23.7441
19.3625
8.5214
-5.69663
22.3991
11.4219
1.1528
17.3618
5.38147
1.14445
1.79595
-0.876154
-1.25913
641.789
3.00951
-7.41799
2727.7
6.37236
-8.19266
2884.58
2.8142
-6.54086
2976.02
4.26914
-5.69639
2968.34
3.70308
-5.65107
2947.88
4.36985
-6.47574
2695.1
6.57065
-8.40397
4223.38
4861.12
1973.31
459.378
80.5124
-22.6503
13.154
7.03657
-1.74324
1.82326
-2.59997
-5.06529
7.04307
0.693412
2.00719
4.57637
-0.593996
1.11206
4.02049
0.777154
1.97812
2.5152
-0.56087
1.97586
6.99128
-0.650128
2.7833
2.79776
-3.60767
2.61698
-3.28081
-5.52402
1.3017
881.072
-3.47059
-8.83646
)
;
    }
    water_left_surface
    {
        type            fixedFluxPressure;
        gradient        uniform 0;
        value           nonuniform List<scalar> 
42
(
21188.6
21188.5
21188.5
21188.6
21188.5
21188.6
22920.6
22919.5
22920
22920.4
22920.1
22920.2
24604.9
24603.9
24604.2
24604.5
24604.1
24604.3
29415.5
29413.3
29414.2
29414.9
29414.1
29414.2
32645.4
32641.1
32641.1
32641
32639.1
32641.7
9619.69
9513.39
9556.12
9573.34
9550.28
9577.18
101.399
93.831
96.9856
100.137
99.4903
100.933
)
;
    }
    water_right_surface
    {
        type            fixedFluxPressure;
        gradient        uniform 0;
        value           nonuniform List<scalar> 
42
(
2596.28
2600.46
2627.9
2651.29
2669.42
2591.7
2570.57
2312.33
2577.75
2638.51
2552.87
2508.14
2816.27
2751.82
2545.79
1929.53
2144.38
2761.28
3428.4
3424.86
3335.15
1490.09
1706.69
3394.74
4213.78
4199
4174.44
3979.35
2685.63
4223.38
4804.02
4008.5
4333.07
3987.98
1549.07
4861.12
1937.87
63.3098
426.184
354.065
-45.5658
1973.31
)
;
    }
    water_top_surface
    {
        type            totalPressure;
        rho             rho;
        psi             none;
        gamma           1;
        p0              uniform 0;
        value           nonuniform List<scalar> 
180
(
0
0
0
0
0
0
0
0
0
0
0
0
0
0
0
0
0
0
0
0
0
0
0
0
0
0
0
0
0
0
0
0
0
0
-0.148179
0
-19.3433
-19.2799
-19.2688
-19.3049
-19.9082
-18.5027
-9.89575
-10.0822
-10.0626
-9.93866
-9.87081
-10.1455
-2.90927
-2.91484
-2.91657
-2.90305
-2.90238
-2.91292
-2.14545
-2.14347
-2.14694
-2.13955
-2.1557
-2.13306
-3.5173
-3.51575
-3.51764
-3.51442
-3.52756
-3.50546
-1.99481
-2.02092
-2.02374
-2.01532
-2.01145
-2.01961
-0.312357
-0.289066
-0.276451
-0.314917
-0.383407
-0.312249
-1.80508
-1.84556
-1.86311
-1.84231
-1.82507
-1.78662
-1.22083
-1.21132
-1.19597
-1.19038
-1.18231
-1.18395
-1.49799
-1.5065
-1.50748
-1.50609
-1.5077
-1.49765
-1.78375
-1.78965
-1.78756
-1.78373
-1.78714
-1.78135
-0.862716
-0.858754
-0.856954
-0.854733
-0.853657
-0.851769
0
0
0
0
-1.44355
0
0
0
0
0
0
-0.500411
0
0
-0.0917992
0
0
0
-3.45259
-3.90205
-4.02833
-4.05101
-3.72819
-3.79588
-0.0533766
-0.0492376
-0.0555107
-0.0501124
-0.0565765
-0.0514039
-0.321072
-0.300957
-0.318031
-0.374495
-0.405202
-0.379332
0
0
0
0
0
0
0
0
0
0
0
0
0
0
0
0
-0.00198097
-0.00265776
-0.269876
-0.31221
-0.35042
-0.359599
-0.398296
-0.381086
-1.3332
-1.44469
-1.57859
-1.6407
-1.77635
-1.5925
-2.19592
-1.89897
-1.43667
-1.67033
-2.10946
-1.90553
)
;
    }
}


// ************************************************************************* //
