/*--------------------------------*- C++ -*----------------------------------*\
| =========                 |                                                 |
| \\      /  F ield         | OpenFOAM: The Open Source CFD Toolbox           |
|  \\    /   O peration     | Version:  v1612+                                |
|   \\  /    A nd           | Web:      www.OpenFOAM.com                      |
|    \\/     M anipulation  |                                                 |
\*---------------------------------------------------------------------------*/
FoamFile
{
    version     2.0;
    format      ascii;
    class       surfaceScalarField;
    location    "7";
    object      phi;
}
// * * * * * * * * * * * * * * * * * * * * * * * * * * * * * * * * * * * * * //

dimensions      [0 3 -1 0 0 0 0];

internalField   nonuniform List<scalar> 
2916
(
-9.85906e-05
-0.0330326
0.0331312
1.89763e-05
-0.0332413
0.0331238
1.87007e-05
-0.0331301
0.0331304
-7.74482e-06
-0.033085
0.0331116
4.26254e-05
-0.0331551
0.0331047
-0.0330908
0.0331334
-3.21745e-05
-0.0635211
0.0305205
1.27066e-05
-0.0636983
0.030412
-3.84675e-06
-0.0635701
0.0304564
-1.68011e-05
-0.0635832
0.030511
-1.88134e-06
-0.063639
0.0304689
-0.0635574
0.0304648
6.06011e-05
-0.208742
0.14516
-9.60442e-06
-0.208943
0.145315
-5.042e-05
-0.208768
0.145239
-1.8193e-05
-0.208861
0.145245
-2.27168e-05
-0.208906
0.145271
-0.208728
0.145147
-4.14184e-05
-0.517513
0.308812
2.16774e-05
-0.51815
0.309143
3.00109e-05
-0.517809
0.309033
1.89923e-05
-0.51783
0.308981
-3.84956e-06
-0.517946
0.309062
-0.517621
0.308889
-0.000848459
-0.743981
0.227317
6.32284e-05
-0.746289
0.227227
0.000577452
-0.745564
0.22724
0.000151468
-0.744839
0.227434
-0.000627485
-0.744511
0.227344
-0.745556
0.227308
-0.00154832
-0.846171
0.103738
-4.05991e-06
-0.850604
0.10277
0.00107331
-0.849555
0.102914
0.00022751
-0.847464
0.103472
-0.00181589
-0.846109
0.103642
-0.850213
0.102841
0.00128817
-0.836228
-0.0112307
-0.000206382
-0.841077
-0.00803259
-0.00111639
-0.840153
-0.00849158
-0.000487156
-0.837561
-0.0105323
0.00219345
-0.835743
-0.0130472
-0.841142
-0.00687777
0.00361648
-0.741243
-0.0986013
-0.000489678
-0.740552
-0.0964188
-0.00327561
-0.740804
-0.0965636
-0.000809555
-0.741401
-0.0986264
0.00611644
-0.742622
-0.100046
-0.739265
-0.0957606
0.00164889
-0.577439
-0.165453
-0.000325115
-0.574216
-0.164362
-0.00171744
-0.574901
-0.16451
-0.000532858
-0.576957
-0.165629
0.0019906
-0.579707
-0.165439
-0.572407
-0.164867
-0.00354858
-0.364614
-0.209276
0.000425157
-0.365019
-0.213171
0.0033099
-0.365702
-0.212084
-0.000292119
-0.363535
-0.20982
-0.0097734
-0.363891
-0.206334
-0.366296
-0.215885
-0.000996929
-0.161067
-0.202551
0.00032719
-0.164003
-0.20234
0.00161623
-0.163927
-0.203064
0.000909135
-0.161129
-0.201698
-0.00124531
-0.15958
-0.202157
-0.166624
-0.200917
0.00603842
-0.167105
-0.00129875
-0.156666
-0.0071887
-0.158037
-0.00137084
-0.166947
0.0145134
-0.175464
-0.152111
-0.000226628
-0.0733278
0.106686
1.25997e-05
-0.0735556
0.10644
4.00925e-05
-0.0734387
0.106541
3.02223e-07
-0.0734371
0.106588
9.11416e-05
-0.0734937
0.106508
-0.0734032
0.106628
-0.000151965
-0.0635129
0.0208576
-1.47837e-05
-0.0639857
0.020705
6.50687e-05
-0.0637742
0.0207123
-1.39897e-05
-0.0637418
0.0208949
-3.85708e-05
-0.0638783
0.020878
-0.0636553
0.0206785
6.8468e-05
0.0348372
0.0467415
-2.55488e-05
0.0342911
0.0471325
-4.60816e-05
0.0345511
0.0469345
1.90026e-06
0.0345205
0.046935
-8.75122e-06
0.0342951
0.0471086
0.0348126
0.0466707
-0.00022973
0.142023
0.201857
2.09935e-05
0.141225
0.201958
-0.000166211
0.141774
0.201997
2.61322e-05
0.14144
0.201869
0.000534897
0.140846
0.202003
0.142546
0.201691
0.000276499
0.355703
0.01336
-0.00011597
0.357222
0.0116229
-0.000402123
0.356867
0.0124332
-9.31279e-06
0.356451
0.0120297
0.000299928
0.355566
0.0123146
0.357306
0.0128478
0.00845648
0.77947
-0.328486
0.000315547
0.796941
-0.328808
-0.00547798
0.794007
-0.328433
-0.00178909
0.783238
-0.327005
0.00967921
0.769205
-0.321466
0.79822
-0.328395
-0.000258737
1.00895
-0.240447
0.000564737
1.04277
-0.254679
0.00189322
1.03573
-0.251541
-0.00202739
1.01562
-0.238997
-0.00284887
0.989302
-0.232322
1.05134
-0.262851
-0.00313917
0.841673
0.0718103
-0.00111296
0.863828
0.0804915
9.22549e-05
0.858914
0.0790457
-1.04417e-05
0.845981
0.0711194
-0.000282101
0.827605
0.0619224
0.872246
0.0830556
-0.00689101
0.49001
0.1931
-0.0008236
0.495768
0.197632
0.000261846
0.497277
0.196041
-0.000956393
0.488677
0.192893
-0.00488725
0.478272
0.187825
0.503898
0.198594
-0.017515
0.321286
-0.0230369
0.00164372
0.304418
-0.0409802
0.0168086
0.309132
-0.0391038
-0.00182467
0.318859
-0.0213686
-0.0442929
0.324908
-0.0105022
0.298624
-0.0549034
-0.0185715
0.346198
-0.208891
0.00537702
0.293559
-0.21543
0.0294916
0.300283
-0.21833
0.00762098
0.342735
-0.203704
-0.0453265
0.378824
-0.203125
0.270342
-0.217962
0.0176883
0.161405
-0.000466258
0.155048
-0.0145215
0.156301
0.000469437
0.160797
0.0350767
0.168753
0.153308
8.3861e-06
0.401027
-0.294349
2.01094e-05
0.40083
-0.294402
4.40145e-05
0.40087
-0.294352
-1.18191e-06
0.400963
-0.294329
-5.68934e-05
0.400953
-0.29439
0.400874
-0.294303
0.000203176
1.20031
-0.778624
-4.59483e-05
1.20019
-0.778402
-1.80521e-05
1.20011
-0.77856
-8.172e-05
1.20032
-0.778395
-0.000264865
1.20034
-0.77833
1.20012
-0.778834
9.36554e-06
2.52308
-1.27604
4.52017e-05
2.52298
-1.2757
0.0013223
2.52316
-1.27739
3.76458e-05
2.5233
-1.27476
-0.00216327
2.52287
-1.27322
2.52384
-1.27921
0.003218
3.93842
-1.21671
-8.24536e-05
3.94472
-1.21648
-0.00132091
3.94216
-1.21576
-0.000755064
3.9445
-1.21989
0.00157342
3.94384
-1.22129
3.94497
-1.21787
0.0474828
3.35646
0.547846
-0.0024083
3.5246
0.481637
-0.0120279
3.47917
0.485043
-0.0021649
3.41328
0.533382
0.0163926
3.35209
0.585509
3.53765
0.436561
0.290662
0.465829
2.27148
0.0108893
1.01669
2.45889
-0.183906
0.897661
2.44787
-0.0336279
0.541491
2.39451
0.466861
0.241331
2.28881
1.22973
2.44639
0.0341766
-1.28828
1.47948
0.0426976
-0.864889
1.61837
-0.00141417
-0.939509
1.62974
0.033894
-1.25199
1.51917
0.174266
-1.58895
1.45759
-0.580667
1.72181
-0.185239
-1.35911
0.327877
0.00543588
-1.37482
0.399744
0.131318
-1.37078
0.384433
0.00256421
-1.3702
0.318082
-0.320873
-1.45065
0.247057
-1.26417
0.445684
-0.0309093
-1.35391
0.218814
0.00194684
-1.39858
0.188539
0.0301027
-1.38771
0.184821
-0.00703845
-1.36055
0.220384
-0.124674
-1.39165
0.246459
-1.35647
0.166225
-0.023139
-1.36178
0.007975
0.00660616
-1.37804
-0.0912655
0.0336774
-1.37644
-0.0774467
0.00566919
-1.36481
0.0108988
-0.0835398
-1.3906
0.0776532
-1.3516
-0.143319
-0.0112314
-0.424158
-1.13529
0.00826467
-0.465103
-1.14786
0.0171191
-0.456991
-1.14664
0.0138153
-0.431455
-1.13375
-0.0251153
-0.413275
-1.14152
-0.454107
-1.14057
0.0119046
-0.274657
0.00320119
-0.301351
-0.00393347
-0.293555
-0.00157814
-0.273014
0.00433819
-0.250439
-0.296461
0.000198198
0.353367
-0.647914
4.1564e-06
0.353336
-0.647544
-8.50666e-06
0.353362
-0.647701
1.91518e-05
0.353346
-0.647703
-8.13789e-05
0.353337
-0.647627
0.353308
-0.647693
0.00166028
0.497555
-0.924472
-0.000212682
0.501635
-0.924827
0.000688872
0.498484
-0.924584
-0.000228408
0.500423
-0.924554
-0.00268301
0.501888
-0.924425
0.497125
-0.925334
0.0212022
1.26066
-2.06035
0.00165174
1.22893
-1.98343
0.0103782
1.2465
-2.03414
-0.00312568
1.25891
-2.01975
-0.0357796
1.25622
-1.9949
1.24778
-2.06564
0.0432616
0.242574
-0.241885
-0.00262764
0.238473
-0.180143
-0.00792901
0.261914
-0.225872
-0.0203343
0.256458
-0.205032
-0.0243266
0.213349
-0.17443
0.275737
-0.270159
0.257397
-2.11363
2.64666
0.0268298
-1.78603
2.73671
-0.116694
-1.80037
2.69085
0.00644346
-2.03162
2.69833
0.303191
-2.22434
2.72645
-1.62025
2.63574
0.0910981
-3.24073
3.30747
-0.00719392
-2.87104
3.64218
-0.0858914
-2.90408
3.63028
0.010569
-3.16724
3.43366
0.232169
-3.408
3.25087
-2.63314
3.69145
-0.119102
-3.12455
1.48241
-0.0212723
-3.06052
1.71003
0.0580501
-3.06945
1.71578
-0.010063
-3.11561
1.53566
-0.149221
-3.22302
1.41177
-2.91021
1.84967
-0.0681
-2.41522
-0.31335
-0.0117982
-2.42974
-0.287338
0.0487619
-2.42629
-0.319278
-0.0109153
-2.41234
-0.325513
-0.160124
-2.42423
-0.402531
-2.39823
-0.226426
-0.00353188
-2.1512
-0.041677
-0.00692896
-2.1355
-0.102306
0.00346148
-2.13368
-0.118182
-0.00374335
-2.15498
-0.0297688
-0.0469853
-2.16529
0.0307609
-2.1204
-0.158591
0.00184221
-2.21621
0.0711456
-0.0121081
-2.20725
-0.005562
-0.0284422
-2.19991
0.00511565
-0.0220356
-2.22983
0.0793354
0.0213235
-2.23519
0.104193
-2.18166
-0.0607285
0.00349713
-1.31459
-2.0404
-0.000885149
-1.3356
-2.01513
-0.00754124
-1.32703
-2.01286
-0.00385731
-1.32504
-2.04222
0.00416144
-1.31661
-2.06811
-1.33277
-1.9853
0.0160538
-1.6053
-0.00127355
-1.61962
-0.00988169
-1.61198
-0.00618276
-1.60175
0.01719
-1.59042
-1.61204
-0.391408
-0.152857
0.544265
-0.0948931
-0.853843
0.557329
-0.235692
-0.438232
0.57903
-0.1054
-0.661724
0.531432
0.574549
-1.2645
0.584553
-0.0209742
0.595523
0.181647
-1.07644
0.741941
-0.248277
-1.56836
1.14444
0.0138941
-1.5139
0.8135
-0.250091
-1.37496
0.977218
-0.235635
-2.14111
0.862152
-0.900489
0.64388
0.256572
-2.20176
0.868738
-0.21857
-2.56601
1.47279
-0.168014
-2.66031
1.09586
-0.599156
-2.31398
1.37017
-0.730786
-2.77124
0.761763
-2.16493
0.533655
-0.221569
-2.87257
0.892388
-0.134849
-3.4738
0.821068
0.088789
-3.33705
0.453097
-0.0785558
-3.28615
1.13951
-0.415044
-3.051
0.616249
-2.79224
0.21227
-0.190215
-3.06414
0.381786
-0.0562032
-3.41906
-0.188752
0.00905292
-3.31383
-0.088472
0.193514
-3.23423
-0.236383
0.0126764
-3.03679
0.166627
-2.80952
0.0299518
-0.0350459
-2.78358
-0.245517
0.067407
-3.05083
-0.470676
0.0571387
-3.02039
-0.283177
0.237339
-2.85461
-0.559816
0.190866
-2.76009
-0.230229
-2.66823
0.0495747
0.113575
-2.53053
-0.366627
0.114839
-2.87246
-0.179635
0.190557
-2.83661
-0.2595
0.237974
-2.70736
-0.194665
0.260452
-2.57387
-0.208704
-2.71021
0.302429
0.0303075
-2.36192
-0.198914
0.0834661
-2.63828
-0.287339
0.191618
-2.67996
-0.2648
0.270881
-2.67611
-0.110516
0.258106
-2.49645
-0.0646368
-2.8815
0.429399
-0.130409
-2.1167
-0.114817
-0.0951986
-2.268
-0.405494
-0.110246
-2.43874
-0.226173
0.22742
-2.31797
-0.695809
0.379475
-2.14538
-0.503125
-2.57887
0.076848
-0.127531
-1.67946
-0.30971
-0.19945
-1.86799
-0.328094
-0.325031
-2.1448
-0.168355
0.0579875
-1.82761
-0.87338
0.36252
-1.49105
-0.958862
-2.00009
-0.216259
-0.0178963
-0.448191
-1.21337
-0.110497
-0.924137
-0.851248
-0.44164
-1.2757
-0.537959
-0.170754
-0.761176
-1.33732
0.0426433
-0.289107
-1.41534
-0.621763
-1.33569
-0.180072
-0.268119
-0.154659
-0.94955
-0.31033
-1.12003
-0.196002
-0.875504
0.0674206
-0.55253
-0.554342
-0.492855
-0.0564438
1.09356
-0.0189716
-1.37831
1.46175
-0.255684
-0.458415
1.27416
-0.114616
-1.34497
1.73533
0.521871
-1.81362
1.76169
0.0716186
1.04578
0.599726
-1.42776
1.51353
-0.00619993
-2.68996
3.06202
-0.032505
-1.81897
2.20036
-0.412223
-2.40329
2.41526
-0.657015
-2.88007
2.17339
-0.920926
0.97941
0.637238
-3.03703
1.84078
0.0314704
-3.30867
2.69727
-0.300115
-2.86375
2.47222
-0.514532
-3.02347
2.20477
-0.470569
-3.5285
1.36623
-2.05603
1.19819
0.773661
-2.85014
-0.0681675
0.198552
-1.91351
0.00101607
-0.290404
-1.18172
-0.739971
-0.416974
-1.66027
-0.0971155
-0.0874878
-2.38632
-0.855418
-0.850199
-1.08105
0.286567
-1.13461
-1.62031
-0.211676
0.426623
-2.03064
-0.390885
0.790067
-1.88105
-0.486
0.375584
-2.17712
-0.50322
-0.0244117
-2.17806
0.646972
-1.97044
-0.783313
1.28059
-1.8774
-0.980877
2.05931
-1.90579
-1.13749
2.13994
-1.47643
-1.52169
2.14548
-1.94551
-1.71
1.40728
-1.47361
-0.392419
-0.621039
-1.07082
2.87338
-0.888602
-1.84769
2.41624
0.240298
-2.95223
2.64601
0.338965
-3.15576
2.84267
-0.688329
-1.87532
-0.203408
0.121552
-3.06786
1.10255
-0.477634
2.53874
0.613369
-0.96939
1.35712
1.26354
-1.318
1.49309
1.23673
-0.975144
1.89013
0.499167
-0.693985
-0.680532
0.131326
-4.10646
0.774007
1.20427
-0.0904175
1.31006
0.838622
-0.126643
1.44392
0.9205
-0.178874
1.36392
1.25046
0.375557
0.488812
1.03459
-0.336998
-0.630788
-3.26954
0.274518
0.613113
-1.76558
0.752341
-0.320664
-1.10079
1.57983
-1.33375
-1.06901
1.73487
-0.687448
-0.980458
-0.163673
1.36198
-1.68153
-1.66376
-2.09244
-0.0313805
0.830295
-1.10492
-2.70432
0.0677309
-1.29129
0.101822
-1.19642
-1.3026
0.95979
-0.751185
-1.06809
-1.69492
0.358936
-1.03303
-3.17396
-1.04229
-2.0269
0.56418
-1.93722
0.453481
-2.13014
-0.483375
-1.48578
-0.529821
-1.89715
-0.224826
-1.89056
-1.82145
-0.244327
0.370505
0.967385
-0.140827
0.112209
1.24604
-0.0792533
-0.0108783
1.22346
-0.0803747
-0.152152
1.88861
0.145582
-0.450478
1.98621
0.362483
0.828875
0.220588
-0.0779674
1.74141
0.233957
-0.247976
3.40883
0.394832
-0.566656
2.59526
-0.0249746
-0.390795
3.07371
-0.566155
-0.288443
2.55254
0.273049
0.502689
-0.382355
0.467711
1.67745
0.138944
0.129146
1.79885
-0.389877
0.270734
2.16365
0.0761437
0.114706
1.23324
0.386333
0.438909
0.328685
0.848956
1.00862
0.0668016
1.26226
-0.92952
0.251597
1.11358
-1.16821
-0.0190727
1.30214
-1.50071
0.148295
1.14906
-1.29883
0.0832319
1.21976
-1.5712
1.08396
-1.23282
0.207245
0.989605
-1.55489
-0.0264379
0.972473
-1.65585
-0.0331347
1.10577
-1.67799
-0.26848
0.789526
-1.58224
-0.103262
0.462025
-1.58554
0.438676
-1.42841
0.102097
0.45716
-1.44705
-0.230875
0.589682
-1.19003
-0.346476
1.01946
-1.27452
-0.451789
0.340645
-1.39132
-0.171607
-0.23534
-1.05642
0.111934
-0.465902
-0.600986
0.479538
-0.309994
-0.476991
-0.0338225
0.739806
-0.444679
0.546709
0.779403
-1.05481
0.531103
-0.268653
-0.823803
-0.319235
-0.0255636
-1.01141
1.40209
-0.643833
0.452022
1.28472
-0.445445
-1.14209
2.17342
-0.204636
-0.53677
2.07939
-0.756668
0.508097
1.0742
-0.786118
0.00292928
-0.161389
-1.81279
0.789267
0.496444
-0.179501
1.44514
0.264765
-1.08026
1.61377
0.78873
-0.669215
0.972395
0.852728
0.460923
0.471987
0.275448
0.421864
-0.472442
-0.833704
-0.429116
0.597169
-0.440275
0.415947
-0.532118
1.08018
0.548673
-0.408458
0.79299
0.149001
-0.336826
0.969267
-0.743651
0.63701
-0.743167
-1.47257
0.822407
-1.05048
-0.465636
-0.728372
-1.95059
-0.864397
1.272
0.308753
-0.365187
0.640022
0.613548
0.372767
0.147478
-1.61109
0.673623
-1.20063
-3.01736
0.969398
-1.50028
-0.750076
-1.91552
-0.0027296
-1.60549
0.928058
-1.77654
0.762858
-1.58447
-0.300654
-2.02768
-1.15271
-0.139733
0.486646
0.620472
-0.2202
0.358116
0.968394
-0.203981
0.310815
0.896427
-0.0775458
0.388804
1.37337
0.0661245
0.166374
1.67616
0.384343
0.510656
-0.0398925
0.357905
1.91005
0.146948
0.36646
3.21365
0.38594
0.076772
2.59031
0.227652
0.302731
3.31807
-0.261828
0.158829
3.04956
0.102368
0.522835
-0.589544
0.997727
1.62717
-0.0940132
0.999335
0.670439
0.38699
0.796952
0.962465
0.953466
0.650754
0.318741
0.821849
0.321413
0.297716
0.737555
1.19528
0.2395
0.637669
-0.808961
0.565638
0.713891
-1.2089
0.348346
0.601369
-1.08783
0.392712
0.511322
-1.20377
0.109057
0.430387
-1.39652
0.529878
-0.916089
0.0943426
-0.232654
-0.778914
0.139185
-0.190259
-0.796539
-0.0742784
-0.146295
-0.716858
-0.172444
-0.304614
-0.668141
-0.0992122
-0.595781
-0.632606
-0.482944
-0.514801
0.0783744
-0.96402
-0.794059
0.0221217
-0.979004
-0.345026
-0.323099
-0.637197
-0.438393
-0.4432
-0.722367
-0.853463
-0.192195
-1.10027
-0.802938
-1.01306
-0.12798
-0.413625
-1.15063
0.290239
-0.124126
-1.67352
1.14483
0.106361
-1.37132
1.28304
-0.418325
-0.800777
0.334445
-0.515032
-0.648769
-0.380352
-0.860141
0.734144
-0.415316
-0.377015
0.926423
-0.000910667
-1.7639
1.84939
0.583576
-1.70415
1.82774
0.283741
-0.44472
1.01798
-0.0434094
-0.0251731
-0.457834
-0.362471
0.248186
0.0426092
0.295921
0.729594
0.187303
-0.960373
0.665549
0.66105
-1.29031
0.0847978
0.867908
-0.207298
0.0277052
0.423421
0.284848
-0.337979
0.0398235
-0.407992
0.269924
0.964858
-0.522914
0.342722
0.419961
-0.90446
0.0225515
0.298655
-1.11979
0.266889
-0.18102
-1.01427
0.479869
-0.474357
-0.926349
0.498204
-1.02899
-0.974395
0.359858
-0.3712
0.117715
0.184166
-0.547571
1.12862
0.457538
-0.556247
0.918167
-0.572545
-1.00911
0.19474
-1.02347
-1.74482
0.0614136
-0.868746
-0.00416722
-1.55149
0.287102
-1.71259
0.891049
-1.92295
0.605502
-1.87147
-0.565136
-1.88051
-1.65643
-0.00138702
-0.83809
0.191563
5.26503e-05
-0.841623
0.192639
0.000609748
-0.840333
0.192075
5.44221e-05
-0.839177
0.19203
-9.15786e-05
-0.839812
0.192332
-0.83913
0.191346
-0.00662029
-0.936495
0.105025
0.0028676
-0.957962
0.106851
0.00420184
-0.947634
0.105966
0.00242469
-0.942021
0.104621
0.00438617
-0.9461
0.104327
-0.939162
0.104418
-0.0651231
-1.02173
0.0108103
-1.13881
0.00334913
-1.06618
0.01379
-1.09574
0.0756527
-1.14433
-1.00831
0.00103981
-0.473455
-0.260494
-0.000406552
-0.4798
-0.250941
0.00234643
-0.475717
-0.259545
-0.0011288
-0.476837
-0.252212
-0.00824684
-0.47709
-0.247885
-0.472384
-0.269852
-0.00466701
1.25034
-1.6141
0.00144762
1.23085
-1.60992
-0.000144741
1.24174
-1.6099
-0.00477945
1.2468
-1.61438
-0.000487943
1.25152
-1.62857
1.25061
-1.61906
-0.122717
-3.34302
0.000110421
-3.6712
0.00258847
-3.49533
0.0157193
-3.54508
0.120612
-3.68281
-3.31758
0.0452965
-1.0621
-1.30404
-0.00275664
-0.862621
-1.3237
-0.0153884
-0.990946
-1.2901
-0.0237656
-0.935518
-1.32806
-0.0229503
-0.863886
-1.37971
-1.0945
-1.26394
0.101764
0.416984
-3.19495
-0.00439411
0.852676
-3.21906
0.0190366
0.534664
-3.15894
-0.0309172
0.748672
-3.24862
-0.183043
1.00755
-3.34788
0.189293
-3.0859
0.0658105
-3.74602
-0.00513535
-4.04762
0.0206025
-3.84799
-0.00961289
-3.9669
-0.0838841
-4.20142
-3.54457
0.0971778
1.67342
-3.31652
0.00614267
1.88509
-3.2979
-0.056272
1.77553
-3.22908
-0.0186629
1.78275
-3.35344
0.0988548
1.82158
-3.49324
1.69273
-3.12797
0.0674426
3.15339
-4.74237
-0.00893027
3.46045
-4.71804
-0.0406612
3.30583
-4.65751
-0.0320936
3.30853
-4.78297
-0.00975233
3.36331
-4.91195
3.11453
-4.51746
0.0423359
-4.21941
-0.0312966
-4.3052
0.0716301
-4.21999
-0.0572828
-4.29215
-0.370953
-4.46656
-3.9479
0.185271
3.59071
-4.44584
0.0250422
3.88081
-4.28177
-0.0858505
3.83118
-4.25852
0.0181491
3.6724
-4.43151
0.278614
3.57527
-4.60252
3.88037
-4.094
0.0231713
3.89912
-5.07395
0.000284405
4.2336
-5.04794
-0.0172582
4.22892
-5.03771
0.0226201
3.92775
-5.0782
0.103326
3.74374
-5.16112
4.39678
-4.93053
-0.0359446
-4.07757
-0.0293541
-4.12332
0.0363603
-4.13537
-0.0212601
-4.07133
-0.20851
-4.10419
-4.06841
-0.0248092
2.92702
-4.04058
-0.0120975
3.29373
-3.94604
0.00162412
3.30064
-3.9426
0.0237642
3.00382
-4.02382
0.0671729
2.76143
-4.1565
3.45407
-3.78945
-0.0745888
1.68762
-3.75996
-0.0220695
1.9923
-3.79902
0.0220274
2.0256
-3.80677
0.0113578
1.66939
-3.7331
0.00720238
1.33565
-3.73118
2.33826
-3.80752
-0.0302376
-2.55055
-0.0295775
-2.60198
-0.056682
-2.62004
-0.0645759
-2.516
0.073916
-2.43178
-2.68991
-0.0939366
0.106817
-2.57105
-0.0202191
0.290712
-2.60044
0.0446071
0.309701
-2.60135
-0.00460553
0.120637
-2.55958
-0.141294
-0.0234131
-2.58463
0.499229
-2.58031
-0.0601673
-1.87321
-1.71977
-0.0226761
-1.7962
-1.74961
0.013691
-1.77675
-1.75668
-0.0197128
-1.88419
-1.69487
-0.100234
-2.01554
-1.65853
-1.62352
-1.785
-0.0143325
-0.942854
-0.00854784
-0.944051
-0.00203251
-0.945571
-0.0118968
-0.929883
-0.0429763
-0.90758
-0.968829
-0.0158287
-1.3049
-1.56367
0.00211131
-1.37396
-1.53176
0.00607477
-1.38936
-1.53523
-0.0079246
-1.31722
-1.55388
-0.084064
-1.34404
-1.56698
-1.35174
-1.53906
0.0300315
-2.04127
-1.01343
-0.00282004
-2.09691
-0.993804
-0.0587108
-2.0961
-0.994053
-0.0104398
-2.05096
-1.00939
0.0499244
-2.05049
-1.01244
-2.09706
-0.989756
0.0170739
-0.577379
-0.00164611
-0.576553
-0.0247852
-0.575487
5.50818e-05
-0.577364
0.0395145
-0.577596
-0.5742
0.00842148
-0.28543
-1.32834
-0.00444673
-0.314685
-1.30651
-0.030176
-0.322859
-1.30482
-0.00151777
-0.279776
-1.33253
0.0691529
-0.269486
-1.3374
-0.331949
-1.29655
-0.00191026
-0.995909
-0.301042
0.000625465
-1.01035
-0.300679
-0.00479926
-1.01093
-0.300555
0.000707613
-0.994269
-0.300409
0.0123482
-0.992088
-0.30148
-1.01222
-0.297135
0.00453014
-0.266486
-0.00117034
-0.268441
-0.00631943
-0.268168
-0.00118172
-0.266786
0.00455438
-0.265523
-0.269519
0.0252651
-0.00877265
-1.27368
-0.0143835
0.00509647
-1.27752
-0.0349786
0.00193359
-1.28104
0.00180067
-0.00314207
-1.28683
0.0757077
-0.0191243
-1.28799
0.0130057
-1.29458
-0.0114535
-0.741277
0.442915
-0.000299699
-0.74548
0.438744
0.00906629
-0.745531
0.437545
0.00173125
-0.73843
0.442214
-0.019589
-0.74536
0.446076
-0.739039
0.43532
0.00197177
0.105867
-0.00162893
0.104932
-0.00407794
0.1048
-0.000731559
0.105438
0.000680462
0.105853
0.104762
0.00169469
-1.18471
-2.13108
0.00123941
-1.16989
-2.12231
0.00707002
-1.166
-2.13374
-0.00116899
-1.17792
-2.14289
-0.010576
-1.19099
-2.15571
-1.15411
-2.13635
-0.007886
-1.15096
0.417059
-0.00180131
-1.15031
0.413078
0.00602397
-1.14947
0.413194
0.000554753
-1.14791
0.417671
-0.0138701
-1.15204
0.421557
-1.14475
0.412094
-0.000776654
0.38148
-0.00160277
0.381007
-0.00182593
0.381471
-0.00078701
0.381693
-0.000706015
0.38154
0.382794
0.0205447
-2.29514
-1.46179
0.00494671
-2.25673
-1.46961
-0.00733007
-2.26046
-1.47298
-0.0049345
-2.267
-1.48004
0.0158683
-2.28417
-1.48276
-2.25851
-1.47401
-0.0111099
-1.5818
-0.285166
-0.00500153
-1.56437
-0.285391
-0.000497956
-1.56646
-0.285307
0.000834138
-1.56961
-0.281049
-0.00304403
-1.57911
-0.279624
-1.56427
-0.285184
-0.012116
-0.0519622
-0.00417752
-0.0485513
0.00183776
-0.0474765
0.00218711
-0.0468636
-0.00686266
-0.0479114
-0.0459473
-0.0118183
-0.895721
-0.619893
1.52743
-0.0114052
-0.877066
-0.616139
1.49279
0.00326984
-0.861311
-0.613942
1.46058
0.0177473
-0.888827
-0.625111
1.49946
0.0037098
-0.904842
-0.635294
1.55417
-0.915155
-0.626053
1.54492
-0.046223
-0.6955
-0.207171
0.0531723
-0.0261688
-0.686295
-0.191278
-0.0195495
-0.00702949
-0.677532
-0.192745
-0.0101749
-0.00184906
-0.709206
-0.176147
-0.00865583
0.00622553
-0.743585
-0.141835
-0.0274986
-0.722377
-0.167912
-0.0186427
0.00963601
-0.345064
-0.0497168
0.00896665
-0.369571
-0.0153029
0.0049829
-0.380756
0.00248357
0.000116975
-0.363581
-0.0283753
0.0100544
-0.330602
-0.0831865
-0.349216
-0.0509986
0.00336056
-0.451738
-0.171516
-0.00168541
-0.43941
-0.171684
-0.0111692
-0.435833
-0.168625
-0.00770254
-0.466372
-0.162206
0.00518498
-0.485981
-0.162201
-0.453326
-0.167542
0.00251691
-0.544159
-0.117268
0.00651501
-0.537583
-0.0971042
-0.00326057
-0.534308
-0.0844967
-0.0130218
-0.550498
-0.0822621
-0.00916866
-0.561293
-0.0703786
-0.537696
-0.0927128
0.00601786
-0.23294
0.00311021
-0.234857
-0.00422066
-0.235229
-0.0115542
-0.237457
-0.00511879
-0.231913
-0.232293
-0.00408902
-0.172879
0.00545216
-0.00366357
-0.176637
0.00452842
9.12715e-05
-0.176248
0.00386831
0.000560802
-0.169696
0.00702024
-0.000300865
-0.169472
0.00813238
-0.173502
0.00565918
-0.0191048
-0.320868
0.049825
-0.0232553
-0.322295
0.052702
-0.016316
-0.320066
0.0523801
-0.00878485
-0.315198
0.0557074
0.00634488
-0.313824
0.0588423
-0.316255
0.056385
0.00280421
-0.00577725
0.00187171
-0.00731289
0.00021759
-0.00793121
-0.000838452
-0.00704428
0.000600851
-0.00433714
-0.00472429
-0.00235531
-0.17981
0.187618
-0.00341633
-0.183111
0.1887
-0.00329733
-0.18615
0.189899
-0.00125206
-0.1861
0.191075
0.000507261
-0.18502
0.191393
-0.183243
0.18941
-0.00163773
-0.357766
0.229418
-0.00222364
-0.360756
0.230932
-0.00448202
-0.362893
0.231381
-0.00321023
-0.362954
0.231289
0.00106669
-0.362769
0.232313
-0.359124
0.233333
0.00282251
0.238449
0.00317068
0.238045
0.00115162
0.237896
-0.00113664
0.238778
-0.0014004
0.239962
0.239675
-0.00233195
-0.401798
0.591748
-0.00354563
-0.406449
0.596363
-0.00328782
-0.408997
0.598639
-0.00131026
-0.413588
0.602686
0.000260751
-0.413761
0.603583
-0.409903
0.599573
-0.000224965
-0.505701
0.333545
0.000111483
-0.509386
0.333532
-0.000162987
-0.511016
0.333674
-0.000365466
-0.514283
0.332187
0.000850626
-0.515153
0.33249
-0.510345
0.334625
0.00236217
0.391496
0.00340143
0.389798
0.00332272
0.388847
0.000877786
0.388246
-0.00138171
0.389006
0.388863
0.00141114
-0.871452
0.00140395
-0.87324
0.00178117
-0.874714
5.34436e-05
-0.875626
-0.0022884
-0.876839
-0.876726
0.000481686
-0.823553
-0.000227347
-0.824388
-0.00171461
-0.82486
-0.000434618
-0.825768
0.00259324
-0.827
-0.824692
0.00122295
0.00236548
0.00277065
0.00179443
-0.000907572
-0.059497
0.471969
0.208
-0.181092
0.926599
0.163389
-0.241849
0.806876
0.150308
-0.0541326
1.03481
0.150837
0.0862286
1.39985
0.135953
0.368094
0.228791
-0.824276
1.89991
-0.603662
-0.205056
0.208531
0.0988488
-0.0910366
0.945058
-0.252202
0.158853
0.925021
-0.140098
0.98345
0.484171
0.0910804
1.92019
-0.568642
-1.02578
-1.97074
-0.228653
-0.636922
-0.727165
-0.798955
-1.16126
-0.729539
1.12091
-0.703445
-2.02036
-0.181503
2.12745
0.172094
0.0057516
3.1432
0.0465812
0.332731
2.63612
-0.222482
0.380826
3.36271
0.0581018
-0.0940679
3.28281
0.3776
0.89536
-0.237803
-0.0569812
2.00773
-0.426958
0.0205748
3.38087
-0.216375
0.163099
3.30698
-1.06559
0.120078
3.65073
-0.385102
-0.443901
3.31698
0.620888
0.561099
-0.678282
1.12249
-1.67757
0.48488
-1.22604
-0.195046
-1.73996
-0.820452
-1.26217
-1.10095
-0.54032
-1.89978
0.194221
1.33608
0.268966
0.273226
0.648737
-0.0107238
0.686199
0.448951
-0.121943
0.692145
0.653289
-0.282393
0.0261129
1.49393
-0.152582
1.04616
-0.0625689
0.0843737
0.969487
-0.144742
0.211601
0.520703
-0.215569
-0.144087
0.316114
-0.577061
-0.271236
0.857209
-0.461874
0.173651
1.6326
0.0373265
0.745327
-0.203799
-0.439134
-0.60981
-0.321407
-0.828657
-0.467153
-1.02971
-0.233563
-0.942285
0.566372
-0.671201
-0.729025
0.365597
-0.815328
-0.0902649
0.281408
-0.960916
-0.174519
0.216866
-0.953904
-0.191327
0.00678088
-1.02772
-0.248355
-0.177946
-1.09817
-0.2662
-1.06309
-0.0935078
0.219307
-1.078
-0.101378
0.294769
-1.152
-0.0999481
0.0464824
-1.14027
-0.142407
-0.121667
-1.19081
-0.130631
0.0337423
-1.15413
-0.0621254
-1.19743
-0.0357157
0.183925
-0.430245
0.164
-0.426565
-0.0139876
-0.432944
-0.135946
-0.450261
-0.0445043
-0.422924
-0.466004
-0.0013035
-0.330207
-0.537667
-0.007785
-0.361286
-0.603287
-0.00199398
-0.37268
-0.541295
-0.105494
-0.319718
-0.493277
-0.19074
-0.344574
-0.468983
-0.312956
-0.486091
-0.0046257
-0.0315763
-0.39538
0.0253012
-0.0363178
-0.454842
0.01728
-0.04461
-0.462455
-0.0093846
-0.0190779
-0.404605
-0.0247087
-0.0417816
-0.349592
-0.0189996
-0.354381
-0.0104154
-0.28747
-0.0152042
-0.300838
-0.00993076
-0.315852
0.00133244
-0.32325
0.0101387
-0.305676
-0.315734
-0.109753
-0.466664
-0.755307
0.114224
-0.306922
-0.865368
0.219798
-0.33741
-0.747852
-0.0506584
-0.506843
-0.56944
-0.336492
-0.541185
-0.444902
-0.326898
-0.623665
-0.0503357
-0.366063
-0.445644
0.0920422
-0.322473
-0.58167
0.222327
-0.334514
-0.595636
0.12017
-0.393145
-0.416146
-0.0432417
-0.406865
-0.320499
-0.370334
-0.354188
-0.00511812
-0.22662
0.0202693
-0.240742
0.0461981
-0.256807
0.0206763
-0.234364
0.00717736
-0.22409
-0.219529
-0.0749844
0.31073
-0.700813
0.115736
1.15314
-1.0644
0.398164
1.35254
-1.09978
0.431714
0.385265
-0.653809
-0.0248981
-0.0367693
-0.331872
0.560382
-0.474802
-0.285263
0.317202
-0.166855
0.0826171
0.517678
-0.314088
0.639254
0.599601
-0.399333
0.481893
0.318497
-0.192018
-0.032566
0.245125
-0.0879366
0.261329
-0.0877015
-0.0649345
-0.213835
-0.0148907
-0.208076
0.085795
-0.208237
0.0581234
-0.214624
0.0254355
-0.21043
-0.20814
0.0379906
0.649713
-0.462093
0.322231
1.44069
-0.93995
0.608627
1.68067
-1.23911
0.772513
0.914617
-0.714328
0.118809
0.118396
-0.254396
0.226453
-0.33426
-0.0954883
0.255831
0.322515
0.217254
0.505726
0.308138
0.586377
0.701333
0.210888
0.682099
0.311695
0.315182
0.291461
0.0878825
0.333216
0.0808787
0.349336
-0.0942694
-0.118228
-0.0209811
-0.0890423
0.151188
-0.0642382
0.15363
-0.109437
0.0668655
-0.129711
-0.131718
0.379194
0.724503
-0.836196
0.803578
0.767095
-1.46588
0.913056
0.579673
-1.84346
1.1236
0.422419
-1.31959
0.112634
0.363872
0.054716
0.352069
-0.981689
0.194855
0.285598
0.566567
0.330009
0.284903
0.655182
0.212652
0.260123
0.647798
0.124092
0.177378
0.648788
0.0799422
0.0931581
0.648082
0.118788
0.66256
-0.0146592
0.0688394
0.0284382
0.0740531
0.111698
0.0786676
0.109839
0.0604273
0.0437852
0.0390988
0.0459103
0.517049
0.32475
-2.20091
0.74681
0.239944
-2.84005
0.490815
0.145992
-2.85325
0.362446
0.121106
-2.32659
-0.0736553
0.173715
-0.609249
0.0618809
-2.14622
0.12563
0.0656807
0.700005
0.141474
0.0476647
0.831615
0.027354
0.00603351
0.901876
-0.0258081
-0.019648
0.842704
0.0867096
-0.149007
0.858286
-0.0446309
0.85578
0.0106768
0.487412
0.0395175
0.486125
0.0656722
0.477935
0.0709975
0.461432
0.00294834
0.409991
0.444597
0.379422
-0.0879809
-2.86355
0.26444
-0.213078
-3.05956
0.0610885
-0.354352
-2.85179
-0.205771
-0.449431
-2.61941
-0.16146
-0.537428
-1.86095
-0.417891
-2.75854
0.102477
-0.384574
0.894119
0.0756603
-0.394014
1.03937
-0.00366391
-0.441811
1.06866
-0.0469547
-0.572553
1.00911
-0.0270449
-0.668201
0.969147
-0.592482
1.00333
0.0147336
0.933694
0.0667573
0.921868
0.127049
0.900666
0.103563
0.858334
0.042232
0.792166
0.828537
-0.0281056
-2.85951
-0.0612999
-3.24617
-0.0618223
-3.31365
-0.048104
-3.00514
-0.0692556
-2.16614
-2.93931
0.0876576
-1.99988
-0.0271774
-2.11152
-0.257121
-2.02522
-0.342964
-1.91884
-0.00381369
-1.56364
-1.95844
0.0693424
-0.0266269
-0.175848
-0.224809
0.074912
)
;

boundaryField
{
    seabed_topleft_surface
    {
        type            calculated;
        value           uniform 0;
    }
    seabed_topright_surface
    {
        type            calculated;
        value           uniform 0;
    }
    breakwater_top_surface
    {
        type            calculated;
        value           uniform 0;
    }
    breakwater_left_surface
    {
        type            calculated;
        value           uniform 0;
    }
    breakwater_right_surface
    {
        type            calculated;
        value           uniform 0;
    }
    water_front_surface
    {
        type            calculated;
        value           uniform 0;
    }
    water_back_surface
    {
        type            calculated;
        value           uniform 0;
    }
    water_left_surface
    {
        type            calculated;
        value           uniform 0;
    }
    water_right_surface
    {