/*--------------------------------*- C++ -*----------------------------------*\
| =========                 |                                                 |
| \\      /  F ield         | OpenFOAM: The Open Source CFD Toolbox           |
|  \\    /   O peration     | Version:  v1612+                                |
|   \\  /    A nd           | Web:      www.OpenFOAM.com                      |
|    \\/     M anipulation  |                                                 |
\*---------------------------------------------------------------------------*/
FoamFile
{
    version     2.0;
    format      ascii;
    class       volVectorField;
    location    "7";
    object      U;
}
// * * * * * * * * * * * * * * * * * * * * * * * * * * * * * * * * * * * * * //

dimensions      [0 1 -1 0 0 0 0];

internalField   nonuniform List<vector> 
1116
(
(-0.0397207 -0.00015475 -0.11505)
(-0.0401546 -5.15289e-05 -0.114909)
(-0.039948 9.06901e-05 -0.114978)
(-0.0398349 -4.76876e-05 -0.115026)
(-0.0399757 2.77127e-05 -0.114992)
(-0.0398394 6.49565e-05 -0.115013)
(-0.123579 -4.95637e-05 0.0702768)
(-0.124051 1.28156e-06 0.0700717)
(-0.123776 1.57468e-05 0.0701768)
(-0.123694 -2.5372e-05 0.0702293)
(-0.123858 -2.83507e-06 0.0701337)
(-0.123714 -9.6563e-07 0.0702289)
(-0.152076 9.81222e-05 0.308328)
(-0.152334 6.39032e-05 0.308563)
(-0.152069 -9.55748e-05 0.308478)
(-0.152212 -2.01228e-05 0.308423)
(-0.152291 -6.17729e-06 0.308399)
(-0.152074 -3.63033e-05 0.308428)
(-0.704339 -5.68426e-05 0.354177)
(-0.704927 -2.59147e-06 0.354196)
(-0.704466 2.77227e-05 0.354191)
(-0.704702 3.26029e-05 0.354277)
(-0.704783 2.10348e-05 0.354241)
(-0.704324 -3.93144e-05 0.354179)
(-1.32279 -0.000938709 0.170983)
(-1.32487 -0.000568311 0.170831)
(-1.32401 0.000634051 0.170773)
(-1.32368 0.000660019 0.171233)
(-1.32394 -0.000422374 0.171213)
(-1.32352 -0.000837373 0.170738)
(-1.64958 -0.00132778 -0.0254885)
(-1.65565 -0.00115234 -0.0259625)
(-1.65394 0.001061 -0.0258767)
(-1.65157 0.00129735 -0.0251546)
(-1.65093 -0.00108389 -0.0249829)
(-1.65379 -0.00177754 -0.02634)
(-1.7618 0.00184733 -0.261336)
(-1.77511 0.000369182 -0.262767)
(-1.77221 -0.000665517 -0.262046)
(-1.76557 -0.00173717 -0.261706)
(-1.75965 0.00110192 -0.260421)
(-1.77578 0.00250403 -0.26389)
(-1.66633 0.00448993 -0.528408)
(-1.67226 0.00182548 -0.530243)
(-1.67104 -0.00248444 -0.529084)
(-1.6681 -0.00464695 -0.529587)
(-1.66607 0.00363401 -0.526944)
(-1.67232 0.00687776 -0.531691)
(-1.46299 0.00167041 -0.73585)
(-1.45622 0.00090529 -0.736695)
(-1.45772 -0.0013079 -0.735606)
(-1.46236 -0.00226777 -0.737092)
(-1.46776 0.00153577 -0.734784)
(-1.45219 0.00158458 -0.737587)
(-1.1259 -0.00443401 -0.752625)
(-1.11603 -0.00189701 -0.750278)
(-1.11886 0.00249114 -0.749672)
(-1.1235 0.00478152 -0.753614)
(-1.13289 -0.00574806 -0.755824)
(-1.10973 -0.011069 -0.746759)
(-0.555937 -0.000849227 -0.58662)
(-0.565509 -0.000473724 -0.581756)
(-0.564922 0.0010234 -0.581684)
(-0.555078 0.00178556 -0.586991)
(-0.548715 -0.000913143 -0.591143)
(-0.57522 -0.000323984 -0.576053)
(-0.238809 0.00705815 -0.19045)
(-0.237601 0.00372685 -0.171674)
(-0.238185 -0.00557434 -0.174487)
(-0.239206 -0.0106096 -0.188933)
(-0.241906 0.00870992 -0.204842)
(-0.236522 0.0176008 -0.164715)
(-0.106412 -0.000285323 0.245474)
(-0.106919 -0.000127348 0.2453)
(-0.106673 0.000145178 0.245396)
(-0.10664 -5.75999e-05 0.245404)
(-0.106775 5.78899e-05 0.245335)
(-0.10658 0.000110623 0.245449)
(-0.266591 -0.000115715 0.0933023)
(-0.267125 -0.000114315 0.0930233)
(-0.266838 6.8867e-05 0.0931122)
(-0.26686 4.20337e-05 0.0933108)
(-0.266983 -5.8371e-05 0.0932204)
(-0.266764 -2.71934e-05 0.0930959)
(-0.00624148 0.000189278 0.300837)
(-0.00767737 3.97254e-05 0.301251)
(-0.00706497 -0.000133363 0.301004)
(-0.00690844 2.38683e-05 0.301133)
(-0.00737377 -2.57649e-06 0.301276)
(-0.00664461 -3.38866e-05 0.300671)
(0.20527 -0.000258879 0.765903)
(0.204644 -4.03022e-05 0.7672)
(0.205008 3.64022e-05 0.76674)
(0.204726 -0.000309332 0.766479)
(0.204321 0.000386625 0.76682)
(0.205582 0.000497267 0.766208)
(0.453333 0.000311771 0.613606)
(0.451221 0.000175479 0.613522)
(0.452901 -0.000466886 0.613588)
(0.45189 -0.000202147 0.613819)
(0.449608 0.000254431 0.613552)
(0.455306 7.99174e-05 0.613847)
(1.12095 0.00805102 0.343423)
(1.12676 0.00578521 0.34008)
(1.12446 -0.00477054 0.340711)
(1.1239 -0.00726106 0.341917)
(1.12395 0.00525688 0.342778)
(1.12296 0.0103295 0.341028)
(2.00024 -0.00182311 0.183178)
(2.07459 0.000519733 0.201916)
(2.06237 0.0010332 0.198611)
(2.01525 0.00228721 0.187263)
(1.95323 -0.00474879 0.172942)
(2.08934 -0.00211119 0.209843)
(2.0571 -0.00604308 0.0803784)
(2.11533 -0.00171668 0.0911864)
(2.10065 -8.61733e-05 0.0895721)
(2.06986 0.000521422 0.0817209)
(2.02675 -3.75353e-06 0.072595)
(2.13165 -0.0015489 0.095882)
(1.49966 -0.010016 0.130766)
(1.53691 -0.00213054 0.137589)
(1.53069 0.000447375 0.135923)
(1.50342 0.000181585 0.131336)
(1.46791 -0.00327344 0.127915)
(1.55714 -0.00325512 0.138056)
(0.453027 -0.0231359 0.0177284)
(0.435517 -0.0077768 -0.000720765)
(0.447536 0.00983618 0.00339955)
(0.445346 0.0250581 0.0164468)
(0.441235 -0.0297694 0.0334987)
(0.447912 -0.0476859 -0.0152466)
(0.85217 -0.0235825 -0.143499)
(0.798898 -0.00755041 -0.14906)
(0.805685 0.0161584 -0.151698)
(0.849375 0.0395215 -0.139939)
(0.88055 -0.0290102 -0.136283)
(0.757807 -0.0475489 -0.150392)
(0.33635 0.0196354 -0.397512)
(0.185421 0.0134157 -0.376922)
(0.204805 -0.0139059 -0.379504)
(0.325636 -0.0171844 -0.398654)
(0.435118 0.0179302 -0.415839)
(0.137884 0.0481552 -0.367283)
(-0.172216 7.9096e-06 0.0696685)
(-0.172854 4.94092e-06 0.0689776)
(-0.17253 3.49779e-05 0.0692403)
(-0.17254 4.0122e-05 0.0693935)
(-0.172713 -4.69088e-05 0.0691776)
(-0.172396 -4.10824e-05 0.0694949)
(1.50158 0.000411596 -0.0488789)
(1.50154 6.87258e-05 -0.0490659)
(1.50135 -0.000144119 -0.0491366)
(1.50169 8.18679e-05 -0.0487618)
(1.50184 -0.000247085 -0.0487276)
(1.50125 -0.00014344 -0.0492289)
(3.5128 0.000134955 -0.169525)
(3.51257 -0.000239316 -0.168791)
(3.51256 0.000540311 -0.169063)
(3.51262 0.00135872 -0.169323)
(3.51236 -0.00142441 -0.16896)
(3.51282 -0.00166377 -0.16952)
(6.01396 0.00347614 -0.0683978)
(6.01798 0.00187506 -0.0697135)
(6.0164 -0.00204409 -0.0687662)
(6.01716 -0.00114075 -0.069146)
(6.01626 0.000407953 -0.0687025)
(6.01844 0.00146115 -0.0696922)
(8.2578 0.0366937 -0.519537)
(8.28797 0.0212585 -0.531465)
(8.27315 -0.0193475 -0.5268)
(8.28118 -0.00490429 -0.527221)
(8.27632 0.00711416 -0.525135)
(8.2823 0.00541162 -0.526534)
(6.32051 0.231148 -0.619111)
(6.87753 0.184394 -0.577954)
(6.72318 -0.139718 -0.575292)
(6.48193 -0.213749 -0.577078)
(6.31378 0.2324 -0.591289)
(6.87662 0.3793 -0.582266)
(-3.94712 -0.0618954 -0.204278)
(-2.03214 0.0981227 -0.229829)
(-2.38972 -0.0281898 -0.21689)
(-3.73773 0.0447727 -0.188811)
(-4.97757 0.0182796 -0.138297)
(-1.04406 0.232991 -0.233797)
(-2.42679 -0.193266 0.397331)
(-2.4758 -0.105076 0.443618)
(-2.4622 0.105539 0.436279)
(-2.49 0.173356 0.390998)
(-2.7031 -0.179379 0.337625)
(-2.1791 -0.334544 0.464328)
(-2.73025 -0.036534 0.672336)
(-2.81125 -0.010869 0.680642)
(-2.78451 0.0123051 0.677863)
(-2.74736 0.0518272 0.668586)
(-2.85041 -0.0753409 0.64448)
(-2.67987 -0.114552 0.693577)
(-2.87214 -0.0215786 -0.178689)
(-2.96847 -0.0114001 -0.24665)
(-2.95412 0.0190209 -0.243238)
(-2.87678 0.0534268 -0.168742)
(-2.90246 -0.0507649 -0.126542)
(-2.93052 -0.0742416 -0.29649)
(-2.28914 -0.00891333 -0.812537)
(-2.28925 -0.00556768 -0.819444)
(-2.29653 0.0145673 -0.8325)
(-2.29157 0.0283582 -0.793313)
(-2.34798 -0.0123582 -0.807114)
(-2.24776 -0.0229635 -0.822467)
(0.367994 0.0228219 1.05243)
(0.184634 0.00513585 0.991824)
(0.224834 -0.00219155 1.00645)
(0.344339 -0.00144329 1.05706)
(0.483329 -0.00419367 1.11666)
(0.190627 0.0165217 0.985676)
(-1.49876 0.000225741 -1.11683)
(-1.49948 9.98377e-05 -1.11653)
(-1.4991 -8.71162e-05 -1.11652)
(-1.49917 7.78831e-05 -1.11654)
(-1.4994 -5.39455e-05 -1.11658)
(-1.49894 -8.2909e-05 -1.11653)
(2.121 0.0015787 -2.60192)
(2.12139 0.000383695 -2.6008)
(2.12115 -0.000331644 -2.60134)
(2.12132 0.00112875 -2.60123)
(2.12154 -0.00177638 -2.60119)
(2.12087 -0.00218406 -2.6025)
(0.434375 0.0170945 -4.78423)
(0.45762 0.0120983 -4.74468)
(0.441254 -0.00297799 -4.77449)
(0.449111 0.0143285 -4.76502)
(0.455048 -0.0243011 -4.75823)
(0.434484 -0.0251881 -4.78802)
(3.01148 0.0448595 -3.83326)
(2.88003 0.0217205 -3.81854)
(2.95412 -0.0247084 -3.82789)
(2.99492 0.0129571 -3.84312)
(2.9796 -0.0418114 -3.85415)
(2.96983 -0.0159581 -3.83527)
(-2.15054 0.227328 2.66409)
(-2.10352 0.17758 2.54953)
(-2.0745 -0.108851 2.51265)
(-2.11702 -0.125948 2.66226)
(-2.24585 0.154151 2.83184)
(-2.08295 0.302757 2.35199)
(-4.10297 0.0762165 6.68474)
(-2.83866 0.0761053 7.20825)
(-2.92624 -0.0850934 7.15592)
(-3.78258 -0.0853919 6.97894)
(-4.43257 0.113113 6.68437)
(-2.26033 0.276227 7.20551)
(-7.14499 -0.102358 3.57734)
(-6.77573 -0.0844529 3.96323)
(-6.82488 0.0339018 3.97771)
(-7.09894 0.0752645 3.64811)
(-7.47259 -0.100634 3.41341)
(-6.28518 -0.128354 4.21979)
(-5.4558 -0.0468972 0.369896)
(-5.54779 -0.056012 0.521848)
(-5.54541 0.0281346 0.48562)
(-5.48916 0.0667801 0.35162)
(-5.58785 -0.0991083 0.220139)
(-5.4386 -0.140094 0.620736)
(-4.3617 0.00862277 -0.080449)
(-4.34105 -0.0116038 -0.193344)
(-4.33499 -0.00244194 -0.201739)
(-4.33473 0.00928628 -0.0702471)
(-4.29029 -0.0274965 0.0482466)
(-4.33564 -0.0263732 -0.283992)
(-4.56685 0.00518055 0.14094)
(-4.59988 -0.00793034 -0.270478)
(-4.57787 -0.0149935 -0.210256)
(-4.59353 -0.0328605 0.147507)
(-4.60024 0.00137461 0.321358)
(-4.56181 0.0274692 -0.445797)
(-4.31064 0.00800896 -3.6289)
(-4.35547 0.000739893 -3.68551)
(-4.33766 -0.00367141 -3.66438)
(-4.33883 -0.0084792 -3.64252)
(-4.32482 9.96904e-05 -3.63124)
(-4.34788 0.00922348 -3.6609)
(-2.81098 0.0172153 -2.3389)
(-2.88613 0.00783513 -2.38281)
(-2.85749 -0.00855663 -2.36757)
(-2.8292 -0.0135965 -2.33993)
(-2.78922 0.00572514 -2.30937)
(-2.87425 0.020594 -2.36117)
(-0.195391 -0.684347 0.189701)
(1.14708 -0.0496027 -0.367361)
(-0.165069 -0.141766 0.159822)
(0.889725 -0.289612 -0.225613)
(1.92998 0.121436 -0.218728)
(0.0363378 0.877882 0.322444)
(0.837957 0.327813 0.0582234)
(2.49445 -0.0751918 -0.740772)
(1.92875 -0.256452 -0.746696)
(1.97466 0.237527 -0.308525)
(3.39693 -0.633111 -0.354221)
(0.0833986 0.0969493 0.0947847)
(3.72004 0.338363 -0.74086)
(4.08144 0.0260255 -1.0477)
(4.54437 -0.311272 -2.04491)
(3.7346 -0.129628 -0.624615)
(5.28029 -0.935637 -0.873105)
(3.49764 -0.444643 -1.28522)
(5.46505 -0.393714 -1.00005)
(6.65563 -0.0639829 -2.26719)
(6.62678 -0.149937 -3.02012)
(6.07994 0.26249 -1.58146)
(6.10884 -0.383452 -0.713211)
(5.53926 -0.320995 -2.00947)
(6.20754 -0.482217 -1.39489)
(7.33369 0.0990138 -2.8532)
(7.08346 -0.196487 -3.37943)
(6.94744 0.217841 -2.38251)
(6.17918 0.0926508 -0.637232)
(5.93503 -0.0407927 -1.96615)
(6.09739 -0.316578 -1.70133)
(6.69781 0.254131 -2.73973)
(6.67105 -0.113196 -3.36954)
(6.28212 0.235705 -2.4303)
(5.88305 0.190829 -0.771217)
(5.59604 0.211964 -1.7076)
(5.43589 -0.112261 -1.7135)
(6.23877 0.298905 -2.5792)
(6.28146 -0.0312703 -3.35748)
(5.79576 0.34734 -2.29289)
(5.36731 0.177239 -0.749652)
(5.49821 0.321775 -1.42598)
(5.11637 -0.128175 -1.60211)
(5.93611 0.18399 -2.50528)
(6.05852 -0.033502 -3.35321)
(5.82493 0.347764 -2.28205)
(5.28449 0.258491 -0.796052)
(5.87841 0.325025 -1.41464)
(4.89323 -0.224204 -1.34716)
(5.47831 0.00748127 -2.42128)
(5.83181 -0.26265 -3.30403)
(5.56315 0.0916241 -2.29054)
(4.97179 0.376724 -0.91011)
(6.07207 0.389331 -1.9444)
(4.22428 -0.220315 -0.989347)
(4.68284 -0.015865 -2.15866)
(5.32122 -0.44173 -3.10553)
(4.67503 -0.147133 -2.18371)
(3.98912 0.312725 -1.05448)
(5.25748 0.299005 -2.10004)
(2.43843 -0.14155 -0.582983)
(3.20476 0.118236 -1.66199)
(4.09958 -0.401645 -2.69838)
(3.15067 -0.359574 -1.98513)
(2.15133 0.0128603 -1.05051)
(3.06457 0.0731008 -1.49326)
(-0.640206 -0.330109 1.07235)
(1.1799 -0.034892 -0.821044)
(2.09801 -0.242943 -1.872)
(0.692453 -0.381545 -0.970465)
(-0.700936 0.0571603 -0.0462429)
(-0.252068 0.0239855 0.5175)
(-0.910528 -1.01989 1.76317)
(1.86942 0.160592 2.39115)
(-0.70458 -0.220555 1.94008)
(1.90509 -0.16989 2.30173)
(3.24329 -0.116245 2.36972)
(-0.154535 1.1531 1.79795)
(1.15904 0.473573 2.434)
(4.22893 0.437414 4.58593)
(2.76348 -0.377564 3.44576)
(4.00166 0.272356 3.6214)
(4.57547 -0.997869 3.21135)
(-0.101484 -0.209965 2.07007)
(5.04469 0.540427 3.20974)
(6.12118 0.589624 5.28559)
(5.16265 -0.475773 4.53042)
(5.6036 -0.231695 4.63931)
(6.98455 -0.707509 2.98328)
(4.07065 -0.212331 2.64251)
(6.00228 0.157338 3.36482)
(6.51143 0.946386 4.01193)
(4.96422 -0.409182 3.85893)
(5.74368 -0.193754 4.32288)
(6.33663 -0.41497 2.25678)
(3.6557 0.164001 2.21934)
(4.78055 -0.206075 2.09612)
(0.177599 0.488124 1.40957)
(-1.33933 -0.678597 2.38604)
(0.148134 -0.240961 0.703361)
(3.06683 -0.646852 0.80392)
(-0.455408 -0.172467 1.51443)
(-0.978901 -0.512201 0.19114)
(-2.39511 -0.867514 0.102954)
(-2.71951 -1.06147 1.68247)
(-2.06868 -1.08235 -0.522172)
(-3.24926 -2.01979 -0.393351)
(-3.18892 -0.888668 1.74413)
(-4.00675 -0.770277 -0.0521345)
(-5.52088 -1.3718 1.58544)
(-5.53293 -2.4649 2.00761)
(-5.98439 -3.19239 0.977867)
(-2.42543 -2.91541 0.307176)
(4.37035 -0.251359 2.22717)
(-7.21624 -0.777844 0.635584)
(-4.49856 -0.28568 1.34468)
(-5.63503 -1.26512 1.97075)
(-5.34202 -1.54578 1.50789)
(3.51319 -1.17173 0.438978)
(7.64537 0.515583 2.57996)
(-3.76411 0.376632 1.04898)
(-1.55603 1.6314 1.03388)
(-1.36155 0.297131 2.14261)
(-2.7333 1.22725 -0.149494)
(-1.2059 0.845195 -1.50266)
(7.97597 1.48632 2.02968)
(4.30082 0.313572 -0.186656)
(2.01381 0.840945 0.935918)
(1.49883 -1.45689 2.44873)
(1.94311 -1.14206 -1.62308)
(3.90716 0.0319845 -3.60061)
(5.9046 2.12561 0.825634)
(3.06774 0.303945 -4.68598)
(2.21202 1.09411 -2.49667)
(1.83344 -1.00645 -0.0693565)
(2.59952 -1.10059 -3.79434)
(3.85815 -0.216528 -4.89157)
(2.26194 0.771697 -4.41181)
(2.69555 0.264683 -2.31751)
(3.99814 0.68686 -3.29774)
(4.01848 -0.0327952 -2.97705)
(2.83821 -0.644294 -2.46361)
(1.66671 -0.433866 -2.056)
(3.17576 -0.0583303 -2.85187)
(-1.23272 -0.595812 2.28522)
(0.86623 0.0814517 2.94442)
(-0.830283 -0.308921 2.7374)
(1.80408 0.194615 3.96167)
(3.11858 -0.420897 4.08682)
(-0.42175 0.784825 2.07266)
(-0.101382 0.0404075 3.83537)
(-1.17346 0.450241 7.287)
(0.805243 -0.0535651 5.5524)
(-1.06709 0.708487 6.02116)
(-0.983932 -0.757536 5.24177)
(-0.838837 -0.222672 2.06624)
(0.401937 -0.566896 4.44842)
(1.42271 0.173239 6.40421)
(1.53531 -0.104947 6.67798)
(1.99077 -0.433597 4.82381)
(1.58369 0.521159 2.9578)
(-0.236278 0.22503 2.74454)
(-3.03144 -0.33835 -3.15166)
(-2.41554 0.408023 -3.14952)
(-3.10837 0.125149 -5.33802)
(-2.70143 -0.151451 -3.85392)
(-3.21292 0.323451 -4.37788)
(-3.44911 -0.036418 -4.82238)
(-1.80889 0.252268 -6.50012)
(-1.88621 0.011635 -6.79326)
(-1.77203 0.0131669 -7.31933)
(-1.60982 -0.159506 -6.79269)
(-1.36915 -0.191894 -7.18189)
(-0.405112 -0.0397459 -6.80546)
(-0.528569 0.226326 -5.78185)
(-0.434606 -0.0722136 -5.72995)
(-0.911377 -0.310926 -5.91883)
(-0.155845 -0.363105 -5.44245)
(0.952457 -0.433745 -4.38723)
(-0.147399 0.117039 -3.43625)
(-0.0182986 -0.662547 -2.7902)
(-0.963926 -0.335525 -0.257917)
(-2.01138 -0.707989 -0.20244)
(0.0250448 -0.1808 -2.60716)
(0.448582 -1.51017 -0.0300782)
(-0.187195 -0.303578 2.74831)
(-1.68354 -1.07072 2.01456)
(0.684883 -0.102525 3.68444)
(-0.800853 -0.517693 3.57997)
(-1.77769 -0.0522673 1.19499)
(1.07481 -1.25484 0.468392)
(3.91627 -0.0186198 1.34082)
(-1.44261 0.17878 3.42917)
(1.89123 0.859967 4.17673)
(1.28121 -0.207828 3.57767)
(-1.26438 1.42203 1.86583)
(-1.20876 0.0858891 -0.356102)
(2.63022 0.558928 -0.470349)
(1.22574 0.719309 2.75539)
(1.41644 0.233024 4.59107)
(0.567169 -0.916736 3.66143)
(-0.523769 -0.269242 0.782318)
(0.301005 -0.0238441 -2.01342)
(1.55364 0.942571 -0.774105)
(0.561614 -0.573694 -5.62873)
(-8.20731 -0.397048 3.03989)
(-6.09347 -1.23199 4.00269)
(-3.95531 0.493149 -2.7902)
(3.91691 0.350431 -7.03239)
(-4.98331 0.790688 -3.06978)
(5.47349 -0.187053 -4.94761)
(4.33936 -0.782081 -4.11222)
(4.06722 0.528838 -3.16957)
(5.3245 1.41862 -3.92396)
(4.21379 0.0899306 -4.7939)
(3.44117 -0.671962 -2.97442)
(-0.183557 -0.234971 1.50636)
(0.810902 -0.0125898 2.02065)
(0.351104 -0.453281 2.03966)
(2.22588 0.176578 3.14279)
(3.26954 -0.393486 3.60288)
(0.133277 0.561371 1.20779)
(-1.49515 -0.276998 3.30357)
(-2.03052 0.244303 6.28784)
(-1.32915 -0.0522691 4.73916)
(-3.25372 0.874177 6.1681)
(-3.70018 -0.597597 5.22226)
(-1.35409 0.269014 0.227087)
(-0.567246 -0.773039 3.02096)
(-0.177198 -0.21601 1.34071)
(0.473945 0.0429981 2.99046)
(1.05505 0.690842 0.759306)
(2.42733 0.990197 -1.2347)
(0.669188 0.565941 1.77678)
(-2.93439 -0.00202353 -0.857908)
(-3.1293 0.439919 -2.08948)
(-3.0427 0.456336 -1.37783)
(-2.91873 0.344132 -1.87455)
(-2.97207 0.240741 -2.33228)
(-3.09502 0.0511262 -0.660092)
(0.0687065 0.0196636 -0.501634)
(-0.0202366 0.165781 -0.510899)
(0.235382 0.0626604 -0.126669)
(0.590101 -0.171452 -0.180799)
(1.0194 -0.159449 0.0460632)
(0.561286 -0.0397739 0.382768)
(1.12438 -0.0892535 -0.533401)
(0.965366 0.197293 0.452509)
(0.512911 -0.18442 0.28221)
(0.916805 -0.291697 -0.593505)
(1.7074 -0.460614 -0.286266)
(1.55898 -0.00978241 1.16534)
(2.60136 -0.640745 1.32703)
(2.50699 -0.145782 2.51012)
(1.63028 -0.115906 2.56555)
(1.77258 0.261573 1.27842)
(2.4174 -0.873702 -0.18519)
(1.63051 -0.225769 2.14438)
(1.49941 -0.795243 2.57367)
(3.26932 0.00221617 4.10758)
(2.90215 0.0469832 3.71351)
(1.15842 0.765588 2.32229)
(0.722588 -0.0811121 -1.36293)
(1.75461 -0.0360373 0.921288)
(-1.18162 -0.25294 2.19956)
(2.09403 0.354576 1.79647)
(2.62927 0.0833428 -0.0247495)
(-0.170437 0.976508 -0.0926667)
(-0.246548 0.632934 -1.53276)
(-0.575614 0.157148 -1.50025)
(0.274121 0.100879 -1.11651)
(2.63184 0.416161 -2.30368)
(3.97131 0.150147 -3.02596)
(1.84823 -0.0509892 -2.90775)
(0.292176 0.469498 -2.87631)
(1.38128 0.323975 -2.65067)
(-4.99325 -0.80207 -0.869122)
(-4.42209 -0.565872 -1.41898)
(-5.08763 0.664192 -0.966009)
(-0.401611 1.40066 -2.51467)
(2.42242 0.268416 -4.36498)
(-3.32419 0.102971 -1.99102)
(5.15082 -0.0576027 -2.82546)
(5.17112 0.0673956 -2.77688)
(5.03402 0.493524 -3.16801)
(4.80866 0.992943 -3.10111)
(4.48066 -0.0844928 -3.64888)
(4.52704 -0.670754 -2.55232)
(-2.71322 -0.00104472 -1.04182)
(-2.71198 -0.000802144 -1.04015)
(-2.71235 0.000735839 -1.04098)
(-2.71266 0.000396177 -1.04101)
(-2.71253 -0.00021552 -1.04057)
(-2.71302 -5.05559e-05 -1.0411)
(-3.223 -0.00860694 -1.7752)
(-3.21953 -0.00211758 -1.78783)
(-3.2213 0.00672366 -1.78319)
(-3.22308 0.000400052 -1.78002)
(-3.22242 0.00427851 -1.78268)
(-3.22341 0.00388498 -1.77969)
(-2.81403 -0.0729574 -0.358415)
(-2.81564 -0.0246116 -0.429791)
(-2.81843 0.0336462 -0.395478)
(-2.81987 -0.0230834 -0.371111)
(-2.81329 0.0556471 -0.382857)
(-2.8223 0.0596573 -0.365698)
(3.05176 0.000734377 -0.952867)
(3.05284 -2.67894e-05 -0.957332)
(3.05187 0.00038859 -0.954675)
(3.05241 0.00252787 -0.954898)
(3.0534 -0.00529352 -0.954808)
(3.05053 -0.0067196 -0.954763)
(3.3963 -0.00634518 -0.666205)
(3.39733 -0.00125443 -0.679753)
(3.39704 0.00284257 -0.670904)
(3.3958 -0.00341108 -0.673416)
(3.39486 -0.00233156 -0.672249)
(3.39512 -0.000884881 -0.65954)
(-1.2842 -0.121983 6.45044)
(-1.67962 -0.0549603 6.36216)
(-1.41613 0.0444942 6.40915)
(-1.52551 -0.0367999 6.43407)
(-1.71637 0.0773375 6.44133)
(-1.21727 0.104113 6.43162)
(-3.38569 0.0529852 -3.09629)
(-3.35235 0.0232373 -2.86294)
(-3.37884 -0.0287836 -3.01641)
(-3.35822 -0.00238694 -2.95919)
(-3.34786 -0.0358079 -2.86654)
(-3.41108 -0.0079359 -3.132)
(-8.11857 0.107174 -0.177116)
(-8.11583 0.0408791 0.249289)
(-8.10258 -0.0366453 -0.0149887)
(-8.13261 0.0519355 0.0961519)
(-8.20062 -0.130694 0.238445)
(-8.11631 -0.115499 -0.197897)
(-10.0693 0.099318 1.44635)
(-10.9782 0.0349453 2.45459)
(-10.5199 -0.0433324 1.64691)
(-10.6397 0.0870173 2.27031)
(-11.0258 -0.10142 3.0096)
(-10.0222 -0.0816371 0.684754)
(-3.38433 0.127966 2.43247)
(-3.52113 0.0702656 2.71242)
(-3.33462 -0.0597823 2.50679)
(-3.52982 -0.059514 2.61782)
(-3.77092 0.0350507 2.77628)
(-3.16796 0.152877 2.30849)
(-6.94271 0.0859767 4.57764)
(-7.02555 0.0369715 5.11497)
(-6.81185 -0.0513666 4.9)
(-7.12891 -0.0298499 4.81544)
(-7.44583 -0.0409169 4.80212)
(-6.51398 0.0441699 4.79871)
(-6.91295 0.0734902 6.63793)
(-7.20899 -0.015148 7.05222)
(-6.88317 -0.0244947 6.66025)
(-7.21181 0.132587 6.97025)
(-7.72646 -0.266285 7.28917)
(-6.12031 -0.31143 5.90795)
(-8.61791 0.162712 6.35449)
(-8.44266 0.14023 6.7299)
(-8.34869 -0.0807113 6.62371)
(-8.64776 -0.0929396 6.50908)
(-8.95205 0.145858 6.46453)
(-8.13278 0.294176 6.56957)
(-11.0135 0.0165407 7.45502)
(-10.9104 0.0239508 8.14726)
(-10.8687 -0.0230011 8.07432)
(-11.0334 -0.0123568 7.6109)
(-11.2428 0.0587109 7.28919)
(-10.6385 0.128374 8.3011)
(-9.79123 -0.0288145 7.00469)
(-9.81757 -0.0403271 7.46933)
(-9.81129 -0.00740619 7.52778)
(-9.79743 0.0719549 6.94597)
(-10.0277 -0.130982 6.58704)
(-9.47984 -0.172955 7.94371)
(-8.5503 -0.0294403 6.70834)
(-8.04502 -0.014584 7.41145)
(-8.04642 -0.0134699 7.41848)
(-8.43971 0.0194351 6.90786)
(-8.8443 0.0338239 6.52036)
(-7.62839 0.057376 7.5476)
(-9.15821 -0.0769208 4.7368)
(-9.11636 -0.0515766 5.39446)
(-9.12004 0.0072079 5.41779)
(-9.12432 0.034508 4.82065)
(-9.24916 0.00905827 4.3114)
(-8.95561 -0.0186017 5.8464)
(-7.13282 -0.0395866 0.515329)
(-7.2806 -0.0260711 1.01821)
(-7.33734 -0.0438811 1.13323)
(-7.0734 -0.0583363 0.374198)
(-6.92999 0.0236332 -0.543919)
(-7.4333 0.0133279 1.99878)
(-7.51372 -0.0844641 2.46002)
(-7.67805 -0.0736368 2.95738)
(-7.65905 0.0264664 2.96108)
(-7.55137 0.069739 2.5844)
(-7.65817 -0.0838568 2.31918)
(-7.42949 -0.1576 3.23642)
(-5.32493 -0.0497965 -1.78842)
(-5.53926 -0.0408256 -1.48209)
(-5.57154 -0.0026412 -1.40421)
(-5.25372 0.017443 -1.84331)
(-5.10828 -0.0574866 -2.26013)
(-5.70193 -0.104622 -0.9037)
(-2.39606 -0.00826341 -6.21903)
(-2.44914 -0.0109169 -6.20881)
(-2.46255 -0.00690548 -6.20703)
(-2.3417 0.00271552 -6.21285)
(-2.2031 -0.0255989 -6.30917)
(-2.6159 -0.0336935 -6.08236)
(-3.24335 -0.0184488 -1.2351)
(-3.20667 -0.000919612 -1.31362)
(-3.22644 0.00137503 -1.38602)
(-3.19194 0.0164833 -1.2659)
(-3.18473 -0.0431284 -1.38945)
(-3.33766 -0.0652771 -1.23521)
(-2.0673 0.0185264 -3.48927)
(-1.98328 0.0302616 -3.64337)
(-1.98006 -0.0391332 -3.64285)
(-2.04885 -0.0495816 -3.51311)
(-2.04858 0.0353274 -3.52863)
(-1.97541 0.0365151 -3.6268)
(-1.32367 0.0134537 -4.44784)
(-1.30191 0.0128012 -4.48955)
(-1.29764 -0.0161574 -4.48517)
(-1.31975 -0.0239512 -4.45747)
(-1.33269 0.0256672 -4.44224)
(-1.27314 0.0340562 -4.50366)
(-2.55901 0.00200906 0.142057)
(-2.47553 0.0115957 0.0921172)
(-2.4725 -0.0184751 0.0563794)
(-2.55387 -0.042168 0.163641)
(-2.5913 0.0445836 0.198729)
(-2.4222 0.0643605 0.0226895)
(-1.59535 -0.0044994 -1.41983)
(-1.58998 0.00222469 -1.47642)
(-1.58887 -0.00192183 -1.47463)
(-1.59421 -0.00833526 -1.416)
(-1.60695 0.0109106 -1.40523)
(-1.57154 0.0102862 -1.4806)
(-1.01556 0.00395679 -2.41119)
(-1.02334 0.00302559 -2.4135)
(-1.02205 -0.00491435 -2.41422)
(-1.01671 -0.00535138 -2.40863)
(-1.0133 0.00301249 -2.40837)
(-1.02702 0.00426408 -2.41277)
(-2.45482 0.0220698 0.274081)
(-2.46903 0.013194 0.36317)
(-2.46478 -0.0294686 0.343692)
(-2.48637 -0.039799 0.294304)
(-2.47492 0.0457121 0.228533)
(-2.49118 0.0676149 0.393811)
(0.189334 -0.0113162 -0.36855)
(0.183152 -0.00648564 -0.391644)
(0.180783 0.00508923 -0.385918)
(0.1892 0.0110323 -0.360342)
(0.195963 -0.00933708 -0.373128)
(0.177907 -0.0202905 -0.377327)
(-0.176944 0.00192302 -2.07053)
(-0.17814 0.00104008 -2.06957)
(-0.178285 -0.0042207 -2.07125)
(-0.176565 -0.00216716 -2.0677)
(-0.173978 0.000910882 -2.07551)
(-0.180064 -0.000213697 -2.0646)
(-3.73562 0.00447544 -3.40324)
(-3.72519 0.0016739 -3.30942)
(-3.74812 0.00285436 -3.31116)
(-3.75074 0.00380405 -3.39469)
(-3.76784 -0.00693663 -3.46486)
(-3.76692 -0.0047329 -3.25071)
(1.31372 -0.0070851 -1.32909)
(1.30483 -0.00534218 -1.32536)
(1.30371 0.00225056 -1.31868)
(1.31261 0.00741319 -1.31655)
(1.32082 -0.00712397 -1.32578)
(1.29801 -0.0142607 -1.30554)
(0.637618 -0.000300662 -2.65156)
(0.634219 -0.00107152 -2.65097)
(0.633985 -0.00188137 -2.65169)
(0.634663 -0.00118295 -2.65048)
(0.634172 -0.000554143 -2.65545)
(0.6358 -0.000449151 -2.64714)
(-3.82577 0.014515 -2.78166)
(-3.83208 0.0150744 -2.78741)
(-3.84386 -0.00275829 -2.7762)
(-3.86791 -0.0109841 -2.76397)
(-3.887 0.00604819 -2.75583)
(-3.84267 0.0142123 -2.78149)
(0.592739 -0.0100607 -4.98889)
(0.58431 -0.00917912 -4.88948)
(0.584551 -0.00220599 -4.9005)
(0.595515 0.00207192 -4.92207)
(0.60348 -0.000743061 -4.9695)
(0.585371 -0.0059215 -4.89188)
(0.683806 -0.0085258 -1.99693)
(0.687647 -0.00945202 -2.00996)
(0.689334 -0.000402916 -2.01136)
(0.689486 0.00468011 -2.00718)
(0.688394 -0.00252379 -2.00527)
(0.692797 -0.00668428 -2.00935)
(2.18094 -0.0113321 0.0745995)
(2.17451 -0.0216832 0.120108)
(2.17585 -0.0110322 0.166481)
(2.21233 0.0223337 0.22407)
(2.22403 0.020055 0.361896)
(2.19889 -0.00310587 0.194817)
(1.113 -0.0525783 -4.49887)
(1.10609 -0.0664525 -4.45857)
(1.15887 -0.00872742 -4.4175)
(1.06586 -0.0140665 -4.60046)
(0.913464 0.00149592 -4.78014)
(0.984635 0.0296876 -4.70447)
(0.605256 0.013348 -0.790306)
(0.716904 0.0158558 -0.760271)
(0.766965 0.017008 -0.743494)
(0.651492 -0.00592965 -0.793539)
(0.485518 0.00599884 -0.875596)
(0.557955 0.0241524 -0.790168)
(0.494311 0.00341307 -0.155837)
(0.487367 0.00503361 -0.161353)
(0.474348 -0.0104444 -0.163283)
(0.476822 -0.020095 -0.18239)
(0.495815 0.00168402 -0.177835)
(0.493412 0.00888967 -0.181223)
(0.024942 -0.000540512 -2.0767)
(-0.0402014 0.010366 -2.00837)
(-0.088079 0.00557787 -1.98196)
(-0.0785166 -0.0145402 -2.11462)
(-0.103102 -0.020282 -2.20957)
(-0.0388148 -0.00977994 -2.05371)
(0.704602 0.0062586 -1.89996)
(0.699361 0.0101064 -1.92114)
(0.688488 0.00055918 -1.93026)
(0.705844 -0.0164329 -1.91946)
(0.704442 -0.0140753 -1.91045)
(0.721523 -0.000923515 -1.89022)
(0.204576 -0.00324453 0.203345)
(0.208337 -0.00839688 0.201868)
(0.211902 -0.00211596 0.200411)
(0.198396 0.0025186 0.203688)
(0.192288 -0.00106712 0.200999)
(0.201587 -2.00646e-05 0.195531)
(0.28717 -0.0176017 -0.935751)
(0.284249 -0.0359942 -0.952828)
(0.291502 -0.0285651 -0.948691)
(0.278731 -0.0264134 -0.918793)
(0.270592 0.00135844 -0.914894)
(0.275027 0.0194951 -0.930331)
(0.219851 0.00326904 -1.56247)
(0.225404 0.00436668 -1.55637)
(0.229261 0.00204493 -1.54648)
(0.227635 -0.0016549 -1.54286)
(0.218645 -0.000300866 -1.53763)
(0.217201 0.00209763 -1.53869)
(-0.22111 -0.00216312 0.219613)
(-0.221425 -0.00461292 0.218765)
(-0.222886 -0.00532637 0.217763)
(-0.221739 -0.00393228 0.219619)
(-0.221506 -4.2573e-05 0.222122)
(-0.219815 0.00132358 0.213999)
(-0.410808 -0.00190119 -0.99698)
(-0.41727 -0.00278171 -1.01274)
(-0.423392 -0.00446247 -1.02717)
(-0.42399 -0.00906907 -1.02872)
(-0.428404 -0.000979918 -1.02608)
(-0.424736 0.00496837 -1.00819)
(-0.198871 0.00255675 -1.73074)
(-0.198189 0.00537386 -1.73565)
(-0.198957 0.00359454 -1.73622)
(-0.200788 -0.000391642 -1.73542)
(-0.203198 -0.00255226 -1.73635)
(-0.200874 -0.00147871 -1.73055)
(-0.575295 -0.00236605 0.00625995)
(-0.580055 -0.00461237 0.00484048)
(-0.583901 -0.00548034 0.0044859)
(-0.589767 -0.00412567 0.00612458)
(-0.591146 -0.0001459 0.00948677)
(-0.584863 0.00102736 0.00148267)
(-0.463427 -0.00040352 -1.9022)
(-0.467198 -7.96735e-05 -1.92472)
(-0.468108 0.000584133 -1.93759)
(-0.467146 -0.0010465 -1.9629)
(-0.468388 0.000208839 -1.96711)
(-0.472405 0.00165523 -1.93819)
(-0.78149 0.00209165 -1.88858)
(-0.780474 0.00464939 -1.8917)
(-0.779397 0.00547195 -1.8906)
(-0.779353 0.00377965 -1.88857)
(-0.780675 -0.0012886 -1.89038)
(-0.781716 -0.0022099 -1.88732)
(-1.9406 0.00123618 0.669556)
(-1.95443 0.00219093 0.668587)
(-1.95904 0.00257376 0.667213)
(-1.9692 0.00295608 0.672529)
(-1.97077 -0.00282769 0.677731)
(-1.96168 -0.00391017 0.660762)
(-1.11012 0.000625766 -4.88486)
(-1.1056 0.00064109 -4.89373)
(-1.10496 -0.00150988 -4.89944)
(-1.09939 -0.00303488 -4.90862)
(-1.09977 0.00229147 -4.91908)
(-1.10493 0.00381281 -4.90338)
(-0.613237 0.00104172 -1.31327)
(-0.606584 0.00271449 -1.31025)
(-0.603961 0.003931 -1.30887)
(-0.601965 0.00452172 -1.30718)
(-0.604023 0.000138627 -1.30636)
(-0.60155 -0.00218065 -1.30492)
(1.30297 -0.146099 1.01447)
(1.5699 0.045601 1.77115)
(1.33774 -0.430054 1.54453)
(3.11856 0.0653184 2.32019)
(4.25624 -0.20425 2.90506)
(0.812843 0.404661 0.893878)
(2.05201 -0.775531 0.58901)
(1.83088 -0.444513 1.94368)
(1.60334 -0.0997802 1.53374)
(3.05585 -0.0273101 1.70923)
(4.69372 0.524971 2.6904)
(1.9872 0.829721 0.355716)
(2.47993 -0.850807 8.41162)
(2.28419 -0.570103 -0.490904)
(2.05166 -0.138174 3.45209)
(3.09366 -1.04839 3.17861)
(4.47767 -0.0146189 -1.6993)
(2.53845 0.999032 8.71803)
(-1.88299 -0.423584 3.37669)
(-2.00337 0.166213 5.88375)
(-1.70518 -0.174424 4.58139)
(-3.36976 0.87772 6.12496)
(-4.4062 -0.370733 5.68888)
(-1.45261 0.296578 1.34796)
(-0.239152 -0.224587 4.83177)
(-2.09643 0.121311 5.84516)
(-0.806784 -0.148907 4.95907)
(-2.62332 0.586006 6.22756)
(-4.7781 -0.471305 6.45731)
(-0.044489 -0.150293 2.29756)
(4.34603 0.867947 1.33632)
(-0.082052 0.78196 8.17802)
(0.834385 0.00290259 8.79725)
(-0.440899 -0.269594 8.63031)
(-1.77598 -1.20556 6.25491)
(4.67233 -0.552659 -1.00036)
(0.818001 0.0512709 2.47182)
(1.62432 0.26812 0.86206)
(2.13064 0.340402 0.179481)
(2.78333 0.862597 0.194451)
(2.09436 0.191026 2.0227)
(1.97006 -0.102808 2.07697)
(2.05102 0.0418865 2.55317)
(2.55379 0.184833 1.63878)
(4.26892 0.106341 1.43028)
(3.70976 -0.311703 2.332)
(1.33799 -0.1238 3.89601)
(2.46022 0.36195 2.05007)
(2.90521 -0.275876 0.67638)
(4.13858 -0.389718 0.0396593)
(5.12741 -0.313519 -0.428441)
(4.65788 -0.533222 0.589333)
(3.35133 0.196292 1.80834)
(3.34199 0.649249 0.319364)
(-1.44037 0.242137 -1.87426)
(-1.38321 0.330949 -2.18347)
(-1.2951 0.258699 -2.27576)
(-1.13691 0.122619 -2.31253)
(-1.10787 -0.128104 -2.55944)
(-1.49816 -0.116178 -2.42281)
(-1.11871 0.104044 -1.49794)
(-1.22689 0.268763 -1.69299)
(-1.11996 0.22287 -1.61929)