/*--------------------------------*- C++ -*----------------------------------*\
| =========                 |                                                 |
| \\      /  F ield         | OpenFOAM: The Open Source CFD Toolbox           |
|  \\    /   O peration     | Version:  v1612+                                |
|   \\  /    A nd           | Web:      www.OpenFOAM.com                      |
|    \\/     M anipulation  |                                                 |
\*---------------------------------------------------------------------------*/
FoamFile
{
    version     2.0;
    format      ascii;
    class       surfaceScalarField;
    location    "0.9";
    object      alphaPhi;
}
// * * * * * * * * * * * * * * * * * * * * * * * * * * * * * * * * * * * * * //

dimensions      [0 3 -1 0 0 0 0];

internalField   nonuniform List<scalar> 
2916
(
-1.73409e-07
0.189507
-0.189507
-9.5376e-07
0.189508
-0.189508
-1.49451e-06
0.189508
-0.189508
-1.44441e-06
0.189508
-0.189508
-8.06432e-07
0.189508
-0.189509
0.189507
-0.189508
2.82304e-07
0.475433
-0.285927
3.35326e-07
0.475435
-0.285927
4.10609e-07
0.475435
-0.285927
3.61403e-07
0.475435
-0.285926
1.05335e-07
0.475434
-0.285926
0.475432
-0.285925
8.04262e-07
0.955451
-0.480019
1.55371e-06
0.955454
-0.480019
1.88091e-06
0.955453
-0.480018
1.54832e-06
0.955452
-0.480016
5.30589e-07
0.955449
-0.480015
0.955446
-0.480014
2.67698e-07
1.72973
-0.774274
2.45478e-07
1.72973
-0.774277
7.01382e-07
1.72973
-0.774278
1.3854e-06
1.72973
-0.774279
1.08465e-06
1.72973
-0.774279
1.72972
-0.774277
6.03175e-06
1.31733
-0.731023
-1.66881e-06
1.31734
-0.731019
-7.18018e-06
1.31734
-0.731019
-9.83551e-06
1.31734
-0.73102
-8.32183e-06
1.31734
-0.731023
1.31732
-0.731017
6.67806e-06
0.0162972
-0.0442561
1.70042e-06
0.0162971
-0.0442542
-2.67993e-06
0.0162972
-0.0442543
-4.53072e-06
0.0162972
-0.0442546
-6.99391e-06
0.0162974
-0.0442552
0.0162979
-0.0442549
1.71218e-07
0.000708098
0.0102005
-2.99042e-07
0.000708052
0.0102014
-8.00861e-07
0.000708046
0.0102017
-1.22365e-06
0.000708041
0.0102017
-1.54965e-06
0.000708078
0.0102016
0.000708016
0.0102008
3.15056e-08
1.72339e-05
0.000461054
1.22068e-08
1.72318e-05
0.000461088
-8.80376e-09
1.72306e-05
0.000461096
-3.01316e-08
1.72303e-05
0.000461096
-2.30349e-08
1.72304e-05
0.000461099
1.72295e-05
0.000461039
1.27744e-09
2.07464e-07
1.16063e-05
9.80032e-10
2.07459e-07
1.16063e-05
8.997e-10
2.07431e-07
1.16053e-05
9.25276e-10
2.07421e-07
1.16051e-05
6.54271e-10
2.07419e-07
1.16055e-05
2.07413e-07
1.16053e-05
7.5928e-12
1.43439e-09
1.32736e-07
3.00744e-11
1.43451e-09
1.32715e-07
4.60027e-11
1.43439e-09
1.32701e-07
4.98758e-11
1.43425e-09
1.32707e-07
3.47378e-11
1.43409e-09
1.32726e-07
1.43384e-09
1.32747e-07
2.29278e-13
1.68131e-11
1.00092e-09
4.35945e-13
1.68148e-11
1.00107e-09
5.89376e-13
1.68125e-11
1.00109e-09
5.94778e-13
1.68102e-11
1.00116e-09
4.0206e-13
1.68079e-11
1.00126e-09
1.6804e-11
1.00131e-09
8.42326e-16
2.28052e-12
1.56208e-15
2.28111e-12
1.99794e-15
2.28097e-12
1.96651e-15
2.28076e-12
1.33318e-15
2.2805e-12
2.27999e-12
-1.59312e-06
0.104047
-0.293553
-3.27103e-06
0.104048
-0.293553
-4.10924e-06
0.104047
-0.293553
-3.66638e-06
0.104045
-0.293553
-2.03005e-06
0.104043
-0.293553
0.104042
-0.293552
-3.39931e-07
0.30144
-0.483319
-8.87775e-07
0.30144
-0.483319
-1.0415e-06
0.301438
-0.483318
-1.00604e-06
0.301435
-0.483317
-9.44136e-07
0.301433
-0.483315
0.30143
-0.483314
2.51483e-06
0.670212
-0.848794
3.88578e-06
0.670213
-0.848793
4.89964e-06
0.67021
-0.84879
4.80652e-06
0.670206
-0.848787
3.17713e-06
0.670203
-0.848783
0.670199
-0.848779
3.36951e-06
1.24893
-1.35299
4.3439e-06
1.24894
-1.353
4.93891e-06
1.24893
-1.353
3.96023e-06
1.24893
-1.35299
1.45311e-06
1.24893
-1.35299
1.24892
-1.35299
2.23391e-06
0.043467
-0.345955
-4.49226e-07
0.0434664
-0.345957
-1.58479e-06
0.0434663
-0.345955
-2.56571e-06
0.0434666
-0.345953
-8.106e-06
0.0434665
-0.345954
0.0434684
-0.345951
-1.67692e-07
-0.0043783
-0.00108883
-2.97419e-07
-0.00437813
-0.0010886
-5.9114e-07
-0.00437809
-0.00108861
-7.81425e-07
-0.00437803
-0.00108862
-1.37165e-06
-0.00437829
-0.00108872
-0.00437763
-0.00108895
-1.11259e-07
-3.83307e-05
0.000131082
-7.4544e-08
-3.83389e-05
0.000131099
-1.41336e-08
-3.83169e-05
0.000131105
1.49108e-08
-3.82986e-05
0.000131102
4.53837e-08
-3.83108e-05
0.000131083
-3.82891e-05
0.000131068
7.47169e-09
-9.76627e-06
1.30725e-05
6.63932e-09
-9.76723e-06
1.30782e-05
6.59573e-09
-9.7669e-06
1.30797e-05
5.5928e-09
-9.76684e-06
1.30806e-05
4.56112e-09
-9.767e-06
1.30799e-05
-9.76666e-06
1.30769e-05
7.06711e-11
-1.31108e-07
1.56185e-08
5.86545e-11
-1.31088e-07
1.56101e-08
-1.96284e-12
-1.31075e-07
1.56035e-08
-6.39628e-11
-1.3108e-07
1.56029e-08
-8.33658e-11
-1.31098e-07
1.56062e-08
-1.31118e-07
1.56076e-08
-5.65495e-14
-9.89468e-10
3.91418e-10
-5.65274e-13
-9.8961e-10
3.9135e-10
-1.14858e-12
-9.89634e-10
3.9135e-10
-1.54381e-12
-9.89708e-10
3.91452e-10
-1.46557e-12
-9.89803e-10
3.9163e-10
-9.89859e-10
3.91797e-10
-3.13527e-15
-2.40514e-12
2.03218e-12
-1.58633e-15
-2.40521e-12
2.03171e-12
-9.28803e-17
-2.40461e-12
2.03147e-12
3.67714e-16
-2.40429e-12
2.03185e-12
-1.05534e-16
-2.40418e-12
2.03276e-12
-2.40391e-12
2.0336e-12
5.81169e-18
7.54469e-15
2.42889e-17
7.54658e-15
3.77167e-17
7.5463e-15
4.12847e-17
7.54573e-15
3.09137e-17
7.54505e-15
7.5436e-15
-1.75123e-06
-0.0548316
-0.238719
-3.26283e-06
-0.0548327
-0.238719
-3.77838e-06
-0.0548343
-0.238719
-2.98829e-06
-0.0548361
-0.238718
-1.50199e-06
-0.0548372
-0.238717
-0.0548371
-0.238716
8.96831e-07
0.0191845
-0.557336
7.12433e-07
0.0191838
-0.557335
8.19689e-07
0.0191816
-0.557334
1.23401e-06
0.0191791
-0.557332
1.45061e-06
0.019178
-0.55733
0.0191789
-0.557328
5.83924e-06
0.254673
-1.08428
5.16624e-06
0.254682
-1.08429
5.05244e-06
0.254681
-1.08429
4.41743e-06
0.254678
-1.08428
4.09358e-06
0.254677
-1.08428
0.25468
-1.08427
5.2361e-06
0.546769
-1.73976
5.44524e-06
0.546779
-1.73977
4.5858e-06
0.546778
-1.73977
3.64046e-06
0.546775
-1.73976
2.22851e-06
0.546774
-1.73976
0.546779
-1.73976
1.70358e-06
0.00136806
-0.0240893
7.14374e-07
0.00136799
-0.0240903
3.21621e-07
0.00136799
-0.0240902
4.90696e-07
0.00136796
-0.02409
-6.45708e-07
0.00136802
-0.0240905
0.00136819
-0.0240915
-3.98892e-08
-0.000122981
0.000373735
-6.92861e-08
-0.000122994
0.000373867
-2.45678e-08
-0.000122999
0.000373806
1.85677e-09
-0.000122997
0.000373784
-4.69805e-08
-0.000122979
0.00037379
-0.00012297
0.000373661
1.67392e-11
-2.8431e-06
5.08533e-06
1.88747e-09
-2.84372e-06
5.08663e-06
4.97578e-09
-2.84388e-06
5.08623e-06
6.47944e-09
-2.84364e-06
5.08623e-06
5.97158e-09
-2.84307e-06
5.08649e-06
-2.84187e-06
5.08498e-06
2.63483e-11
7.14808e-10
3.98273e-08
1.179e-10
7.12094e-10
3.9849e-08
1.43552e-10
7.11176e-10
3.98445e-08
1.27419e-10
7.11038e-10
3.98395e-08
9.46579e-11
7.11652e-10
3.98357e-08
7.14794e-10
3.98178e-08
5.96824e-13
-3.41279e-10
4.66524e-10
-8.31209e-14
-3.41229e-10
4.66931e-10
-1.40026e-12
-3.41228e-10
4.66794e-10
-2.34122e-12
-3.41312e-10
4.66559e-10
-2.04535e-12
-3.41461e-10
4.66347e-10
-3.41592e-10
4.66011e-10
-5.95949e-15
-1.81778e-12
8.7928e-13
-2.3594e-14
-1.81729e-12
8.78837e-13
-3.85574e-14
-1.81706e-12
8.79638e-13
-4.3868e-14
-1.81742e-12
8.80766e-13
-3.37069e-14
-1.8183e-12
8.81984e-13
-1.81911e-12
8.83045e-13
-7.94804e-17
9.8158e-16
1.93461e-14
-1.25895e-16
9.81854e-16
1.93426e-14
-1.50836e-16
9.81839e-16
1.93447e-14
-1.45871e-16
9.81749e-16
1.93512e-14
-9.89691e-17
9.81626e-16
1.93614e-14
9.81387e-16
1.93706e-14
4.92937e-20
2.40528e-16
3.10499e-19
2.40469e-16
5.22122e-19
2.40489e-16
5.94837e-19
2.40545e-16
4.58589e-19
2.40621e-16
2.4069e-16
9.55702e-07
-0.32513
0.0864098
8.97824e-07
-0.325131
0.0864115
7.11822e-07
-0.32513
0.0864119
1.05923e-06
-0.32513
0.0864119
1.12973e-06
-0.32513
0.086412
-0.325127
0.0864119
2.55955e-06
-0.486479
-0.395987
1.20203e-06
-0.486475
-0.395987
7.91901e-07
-0.486475
-0.395987
8.4e-07
-0.486475
-0.395986
1.65668e-06
-0.486474
-0.395986
-0.486468
-0.395984
1.6404e-06
-0.219389
-1.3511
3.03861e-07
-0.21938
-1.3511
-1.49979e-06
-0.219379
-1.3511
-2.27733e-06
-0.219378
-1.3511
-8.96177e-07
-0.219377
-1.3511
-0.219371
-1.35109
2.19836e-06
0.0566809
-0.894407
3.50055e-06
0.0566833
-0.894411
5.00937e-06
0.0566837
-0.894409
8.56735e-06
0.056684
-0.894411
8.34647e-06
0.0566866
-0.894414
0.0566912
-0.894416
8.96205e-08
-0.000368507
-0.00298214
-1.07483e-08
-0.000368636
-0.00298219
-4.12582e-08
-0.000368576
-0.00298217
-1.8276e-08
-0.000368553
-0.00298224
-5.18539e-08
-0.000368559
-0.00298242
-0.000368433
-0.00298262
-6.2357e-10
-4.37263e-06
3.59721e-06
-3.78509e-10
-4.37375e-06
3.59937e-06
-5.97185e-11
-4.37341e-06
3.59807e-06
9.65336e-11
-4.37332e-06
3.59789e-06
4.10431e-10
-4.37342e-06
3.59814e-06
-4.37207e-06
3.59561e-06
-3.58594e-11
-3.41598e-08
6.0783e-07
5.0653e-11
-3.41783e-08
6.07881e-07
7.28493e-11
-3.41755e-08
6.07882e-07
6.87568e-11
-3.41709e-08
6.07977e-07
6.89344e-11
-3.41671e-08
6.08099e-07
-3.41515e-08
6.08015e-07
-1.74021e-12
-4.23254e-10
7.63747e-10
4.38529e-13
-4.23737e-10
7.63928e-10
1.63137e-12
-4.23589e-10
7.6396e-10
2.33167e-12
-4.23311e-10
7.63988e-10
2.50427e-12
-4.23045e-10
7.64014e-10
-4.22659e-10
7.63769e-10
1.00401e-14
-2.90197e-13
2.43483e-12
5.9011e-15
-2.89928e-13
2.43522e-12
3.30403e-15
-2.90833e-13
2.43473e-12
5.63731e-15
-2.91906e-13
2.43446e-12
8.42638e-15
-2.9292e-13
2.43438e-12
-2.93802e-13
2.43358e-12
-2.99835e-17
1.28222e-15
3.3254e-14
-1.88215e-16
1.28184e-15
3.32437e-14
-3.04863e-16
1.28258e-15
3.32412e-14
-3.23233e-16
1.28376e-15
3.32471e-14
-2.15184e-16
1.28529e-15
3.32585e-14
1.28695e-15
3.32651e-14
-1.51623e-18
2.19963e-17
5.03989e-16
-3.31247e-18
2.1986e-17
5.03882e-16
-4.32106e-18
2.19953e-17
5.03945e-16
-4.28953e-18
2.20121e-17
5.04135e-16
-2.92826e-18
2.20335e-17
5.04415e-16
2.20549e-17
5.04658e-16
-1.39986e-21
8.8659e-17
-2.2369e-21
8.86699e-17
-2.25031e-21
8.86694e-17
-1.88019e-21
8.86737e-17
-1.20053e-21
8.86823e-17
8.86847e-17
-4.19014e-107
-1.35656e-99
6.38984e-105
-1.25499e-107
-1.35768e-99
6.39829e-105
8.96195e-109
-1.35732e-99
6.398e-105
5.60388e-108
-1.35614e-99
6.39494e-105
5.48477e-108
-1.35454e-99
6.38934e-105
-1.35196e-99
6.37983e-105
-5.8517e-102
-2.89354e-94
1.42096e-99
-5.00522e-103
-2.89726e-94
1.42326e-99
1.41107e-102
-2.89702e-94
1.42357e-99
2.69456e-102
-2.89561e-94
1.42314e-99
3.74965e-102
-2.89301e-94
1.42218e-99
-2.88856e-94
1.42042e-99
-4.2246e-97
-3.02626e-89
1.59872e-94
4.63715e-98
-3.03045e-89
1.60132e-94
2.19457e-97
-3.03044e-89
1.60175e-94
3.27742e-97
-3.02913e-89
1.60125e-94
4.03363e-97
-3.02652e-89
1.60014e-94
-3.02188e-89
1.59808e-94
-1.46189e-92
-2.04017e-84
1.18092e-89
7.37959e-93
-2.04311e-84
1.1828e-89
1.62974e-92
-2.04322e-84
1.18304e-89
2.16374e-92
-2.04237e-84
1.18264e-89
2.49463e-92
-2.0406e-84
1.18176e-89
-2.03744e-84
1.18015e-89
6.53742e-89
-9.88332e-80
6.2646e-85
5.45374e-88
-9.89811e-80
6.27362e-85
7.89238e-88
-9.89899e-80
6.27431e-85
9.23765e-88
-9.89486e-80
6.27187e-85
9.76513e-88
-9.88619e-80
6.26671e-85
-9.87062e-80
6.25742e-85
3.16091e-83
-3.6544e-75
2.46806e-80
2.65732e-83
-3.66003e-75
2.47099e-80
2.5568e-83
-3.66039e-75
2.47107e-80
2.52837e-83
-3.65886e-75
2.46993e-80
2.25452e-83
-3.65558e-75
2.46775e-80
-3.64972e-75
2.46389e-80
1.37005e-78
-1.07739e-70
7.24341e-76
5.71788e-79
-1.07908e-70
7.24946e-76
2.94786e-79
-1.07918e-70
7.24874e-76
1.74733e-79
-1.07871e-70
7.24481e-76
2.12156e-80
-1.07771e-70
7.23816e-76
-1.07596e-70
7.22653e-76
2.54552e-74
-2.63874e-66
1.51782e-71
-3.4942e-75
-2.64286e-66
1.51807e-71
-1.06768e-74
-2.64308e-66
1.51753e-71
-1.28126e-74
-2.64184e-66
1.51657e-71
-1.58211e-74
-2.6393e-66
1.51516e-71
-2.63495e-66
1.51283e-71
1.02742e-70
-5.63343e-62
1.70166e-67
-4.8567e-70
-5.64192e-62
1.69774e-67
-5.43315e-70
-5.64227e-62
1.69588e-67
-4.97689e-70
-5.63948e-62
1.69477e-67
-5.04631e-70
-5.63401e-62
1.69388e-67
-5.62479e-62
1.69247e-67
-7.8949e-66
-9.93594e-58
-1.28939e-58
-1.41799e-65
-9.94365e-58
-1.29781e-58
-1.11185e-65
-9.94281e-58
-1.29928e-58
-7.27441e-66
-9.93859e-58
-1.29802e-58
-6.1917e-66
-9.93112e-58
-1.29498e-58
-9.91813e-58
-1.29036e-58
-6.1346e-62
-1.0495e-53
-1.03428e-53
-1.0211e-61
-1.04985e-53
-1.03538e-53
-4.92969e-62
-1.04981e-53
-1.03528e-53
1.89516e-62
-1.04965e-53
-1.03465e-53
3.34435e-62
-1.04936e-53
-1.03355e-53
-1.04873e-53
-1.03177e-53
4.18794e-58
-3.07225e-49
-3.68799e-58
-3.07304e-49
-9.93806e-58
-3.07294e-49
-1.21013e-57
-3.07261e-49
-9.92002e-58
-3.07205e-49
-3.0708e-49
-1.46726e-102
-6.86022e-95
6.34371e-100
-1.58868e-103
-6.87099e-95
6.35443e-100
3.17917e-103
-6.86983e-95
6.35404e-100
6.34995e-103
-6.86575e-95
6.35069e-100
8.97512e-103
-6.85846e-95
6.34426e-100
-6.84668e-95
6.33351e-100
-1.96183e-97
-1.49954e-89
1.44956e-94
3.29392e-98
-1.50237e-89
1.45239e-94
1.24507e-97
-1.50255e-89
1.45271e-94
2.06165e-97
-1.50196e-89
1.45217e-94
3.05343e-97
-1.50071e-89
1.45098e-94
-1.49856e-89
1.44887e-94
-1.41205e-92
-1.60072e-84
1.67492e-89
6.01096e-93
-1.60382e-84
1.67824e-89
1.51701e-92
-1.60414e-84
1.67868e-89
2.28099e-92
-1.60355e-84
1.67807e-89
3.1263e-92
-1.60223e-84
1.6767e-89
-1.59992e-84
1.67424e-89
-4.04037e-88
-1.09476e-79
1.26754e-84
5.88488e-88
-1.09692e-79
1.27004e-84
1.05065e-87
-1.09716e-79
1.27035e-84
1.43005e-87
-1.09676e-79
1.26988e-84
1.84521e-87
-1.09584e-79
1.26881e-84
-1.09422e-79
1.2669e-84
1.18929e-83
-5.33207e-75
6.86248e-80
3.60961e-83
-5.34272e-75
6.87567e-80
4.76038e-83
-5.34394e-75
6.87717e-80
5.70451e-83
-5.34194e-75
6.87444e-80
6.56123e-83
-5.33734e-75
6.86843e-80
-5.32923e-75
6.85789e-80
1.48874e-78
-1.95697e-70
2.75075e-75
1.2587e-78
-1.96088e-70
2.75574e-75
1.23247e-78
-1.96132e-70
2.75621e-75
1.17888e-78
-1.96055e-70
2.75502e-75
9.99163e-79
-1.95879e-70
2.75253e-75
-1.95572e-70
2.74826e-75
4.11067e-74
-5.62186e-66
8.19099e-71
1.02348e-74
-5.63295e-66
8.20405e-71
2.32793e-75
-5.63405e-66
8.20477e-71
-6.353e-75
-5.63163e-66
8.20093e-71
-2.08505e-74
-5.62636e-66
8.19344e-71
-5.61731e-66
8.18093e-71
1.84344e-70
-1.3074e-61
1.71982e-66
-8.21119e-70
-1.30986e-61
1.72171e-66
-1.10266e-69
-1.31005e-61
1.72161e-66
-1.28813e-69
-1.30945e-61
1.7208e-66
-1.60427e-69
-1.3082e-61
1.7194e-66
-1.3061e-61
1.71712e-66
-2.63192e-65
-2.57266e-57
2.00683e-62
-3.79034e-65
-2.5772e-57
2.00642e-62
-3.38112e-65
-2.57746e-57
2.00574e-62
-2.89843e-65
-2.57622e-57
2.00509e-62
-3.02179e-65
-2.57378e-57
2.0043e-62
-2.56974e-57
2.00294e-62
-8.65196e-61
-4.20071e-53
-3.89023e-54
-7.47444e-61
-4.20526e-53
-3.91735e-54
-4.38946e-61
-4.20529e-53
-3.91993e-54
-1.69024e-61
-4.20378e-53
-3.91386e-54
-9.68878e-62
-4.20096e-53
-3.90167e-54
-4.1961e-53
-3.88369e-54
-7.97659e-57
-3.7582e-49
-3.8227e-49
-3.93021e-57
-3.76105e-49
-3.82625e-49
8.64988e-58
-3.76134e-49
-3.82582e-49
4.85845e-57
-3.76098e-49
-3.82387e-49
5.69591e-57
-3.7601e-49
-3.8206e-49
-3.75816e-49
-3.81531e-49
1.24436e-53
-9.08497e-45
-2.14963e-54
-9.0888e-45
-3.21385e-53
-9.08912e-45
-4.94377e-53
-9.08878e-45
-3.84069e-53
-9.08802e-45
-9.08595e-45
-2.8497e-98
-1.69624e-90
2.27086e-95
6.31843e-100
-1.69809e-90
2.27352e-95
1.16993e-98
-1.69774e-90
2.27321e-95
1.85477e-98
-1.69708e-90
2.27237e-95
2.3388e-98
-1.69591e-90
2.2708e-95
-1.69399e-90
2.26822e-95
-3.95927e-93
-3.969e-85
5.5821e-90
1.44245e-93
-3.97442e-85
5.58994e-90
3.85522e-93
-3.97492e-85
5.59085e-90
5.8525e-93
-3.97404e-85
5.58956e-90
8.02965e-93
-3.97213e-85
5.58674e-90
-3.96873e-85
5.58172e-90
-2.76618e-88
-4.50586e-80
6.92787e-85
2.45062e-88
-4.51226e-80
6.93787e-85
4.80413e-88
-4.51311e-80
6.93929e-85
6.71767e-88
-4.51223e-80
6.93783e-85
8.66904e-88
-4.51015e-80
6.93443e-85
-4.50629e-80
6.92822e-85
-5.64612e-84
-3.24158e-75
5.60024e-80
2.13772e-83
-3.24629e-75
5.60835e-80
3.37754e-83
-3.24696e-75
5.6095e-80
4.37297e-83
-3.24635e-75
5.60831e-80
5.32171e-83
-3.24482e-75
5.6055e-80
-3.24199e-75
5.60042e-80
4.57798e-79
-1.63416e-70
3.20563e-75
1.12543e-78
-1.63656e-70
3.21018e-75
1.44174e-78
-1.6369e-70
3.21081e-75
1.67939e-78
-1.63658e-70
3.21008e-75
1.84963e-78
-1.63577e-70
3.20843e-75
-1.6343e-70
3.20548e-75
3.19995e-74
-6.07526e-66
1.33856e-70
2.89277e-74
-6.0841e-66
1.34037e-70
2.89023e-74
-6.0853e-66
1.34059e-70
2.62887e-74
-6.08396e-66
1.34026e-70
2.1159e-74
-6.08076e-66
1.33955e-70
-6.07506e-66
1.33831e-70
3.49262e-70
-1.72169e-61
4.09613e-66
-2.45489e-70
-1.7241e-61
4.10104e-66
-4.66184e-70
-1.72438e-61
4.10148e-66
-6.76201e-70
-1.72394e-61
4.10042e-66
-9.29441e-70
-1.72297e-61
4.09825e-66
-1.7213e-61
4.09457e-66
-2.77741e-65
-3.82394e-57
8.97384e-62
-3.80216e-65
-3.82897e-57
8.98213e-62
-3.87688e-65
-3.82941e-57
8.98247e-62
-3.88593e-65
-3.82832e-57
8.98021e-62
-3.98091e-65
-3.8261e-57
8.97599e-62
-3.82237e-57
8.96889e-62
-1.26395e-60
-6.83478e-53
1.29058e-57
-1.04052e-60
-6.8429e-53
1.29098e-57
-7.40425e-61
-6.84341e-53
1.29093e-57
-4.76681e-61
-6.84146e-53
1.29076e-57
-3.49298e-61
-6.83766e-53
1.29047e-57
-6.83134e-53
1.2899e-57
-1.87971e-56
-1.00941e-48
1.10001e-54
-9.4155e-57
-1.01044e-48
1.08048e-54
-1.10286e-57
-1.01049e-48
1.07975e-54
4.96653e-57
-1.01023e-48
1.08577e-54
6.93058e-57
-1.00975e-48
1.09631e-54
-1.00892e-48
1.11092e-54
-1.25671e-52
-7.77021e-45
-5.98816e-45
2.68041e-53
-7.77688e-45
-5.99158e-45
1.42855e-52
-7.7778e-45
-5.99098e-45
2.16142e-52
-7.77732e-45
-5.98893e-45
2.11324e-52
-7.77604e-45
-5.98543e-45
-7.77342e-45
-5.9793e-45
1.60441e-49
-1.21857e-40
-5.09569e-50
-1.21916e-40
-6.08225e-49
-1.21925e-40
-1.00672e-48
-1.21927e-40
-9.09768e-49
-1.21927e-40
-1.21916e-40
-3.59599e-94
-2.9193e-86
4.95243e-91
6.38331e-95
-2.92044e-86
4.9547e-91
2.21484e-94
-2.9193e-86
4.95308e-91
3.18216e-94
-2.91824e-86
4.95124e-91
3.84672e-94
-2.91661e-86
4.94841e-91
-2.91394e-86
4.9438e-91
-5.28635e-89
-7.74119e-81
1.38846e-85
3.55288e-89
-7.74611e-81
1.38939e-85
7.5923e-89
-7.74562e-81
1.38932e-85
1.0862e-88
-7.74393e-81
1.38898e-85
1.43804e-88
-7.74117e-81
1.38843e-85
-7.73607e-81
1.38745e-85
-3.62081e-84
-9.86794e-76
1.96005e-80
5.9832e-84
-9.87473e-76
1.96143e-80
1.0295e-83
-9.87461e-76
1.9614e-80
1.37981e-83
-9.87274e-76
1.96097e-80
1.72559e-83
-9.86941e-76
1.96023e-80
-9.86292e-76
1.95885e-80
-1.21155e-80
-7.8446e-71
1.78793e-75
5.31156e-79
-7.85023e-71
1.78921e-75
7.75449e-79
-7.85026e-71
1.78919e-75
9.65871e-79
-7.84881e-71
1.78881e-75
1.14203e-78
-7.8461e-71
1.78813e-75
-7.84082e-71
1.78685e-75
1.30815e-74
-4.26189e-66
1.13954e-70
2.66481e-74
-4.26499e-66
1.14034e-70
3.2692e-74
-4.26503e-66
1.14033e-70
3.6418e-74
-4.26419e-66
1.14008e-70
3.92935e-74
-4.26262e-66
1.13962e-70
-4.25962e-66
1.1388e-70
5.6607e-70
-1.64372e-61
5.18821e-66
5.21548e-70
-1.64489e-61
5.19168e-66
4.59433e-70
-1.64488e-61
5.19153e-66
3.64684e-70
-1.64452e-61
5.1903e-66
2.78219e-70
-1.64386e-61
5.18816e-66
-1.64265e-61
5.18433e-66
-4.84782e-66
-4.5693e-57
1.67069e-61
-1.00225e-65
-4.5724e-57
1.6717e-61
-1.53403e-65
-4.57224e-57
1.67161e-61
-1.93856e-65
-4.57114e-57
1.67121e-61
-2.13762e-65
-4.5692e-57
1.67052e-61
-4.56577e-57
1.66932e-61
-8.25396e-61
-9.25025e-53
3.66796e-57
-6.38298e-61
-9.25612e-53
3.66983e-57
-6.01097e-61
-9.25569e-53
3.66962e-57
-5.50344e-61
-9.25346e-53
3.66882e-57
-4.35654e-61
-9.24962e-53
3.66749e-57
-9.24287e-53
3.66512e-57
-1.50212e-56
-1.39329e-48
5.06358e-53
-3.95868e-57
-1.39412e-48
5.0655e-53
6.56988e-58
-1.39407e-48
5.06524e-53
4.053e-57
-1.39378e-48
5.06442e-53
6.51653e-57
-1.39327e-48
5.06305e-53
-1.39233e-48
5.06038e-53
-7.74732e-53
-1.64244e-44
3.0889e-49
1.3372e-52
-1.64333e-44
3.089e-49
2.47715e-52
-1.64333e-44
3.089e-49
3.10246e-52
-1.64309e-44
3.0891e-49
3.01756e-52
-1.64263e-44
3.08913e-49
-1.64169e-44
3.08864e-49
3.94284e-49
-8.69064e-41
-7.15579e-41
1.94134e-48
-8.69533e-41
-7.15783e-41
3.13596e-48
-8.69594e-41
-7.15764e-41
4.04536e-48
-8.69578e-41
-7.15689e-41
3.85447e-48
-8.69493e-41
-7.15541e-41
-8.69239e-41
-7.15185e-41
-2.01712e-44
-8.86238e-37
-2.51331e-44
-8.86583e-37
-2.87964e-44
-8.86644e-37
-3.14004e-44
-8.86694e-37
-2.67988e-44
-8.86754e-37
-8.86758e-37
5.52633e-06
0.862151
-0.775744
3.58384e-06
0.862158
-0.775742
1.90339e-06
0.862158
-0.775742
1.53002e-06
0.862157
-0.775743
1.94136e-06
0.862156
-0.775743
0.862156
-0.77574
1.032e-05
1.98526
-1.12292
7.13043e-06
1.98527
-1.1229
4.68715e-06
1.98526
-1.1229
2.96162e-06
1.98526
-1.1229
2.49211e-06
1.98526
-1.1229
1.98526
-1.1229
1.37141e-05
-2.27701
9.09752e-06
-2.27699
1.02451e-05
-2.27699
1.28471e-05
-2.27699
1.55952e-05
-2.27699
-2.27697
4.87579e-06
-0.0112893
-1.16024
2.55826e-06
-0.0112872
-1.16023
7.57961e-07
-0.0112883
-1.16024
1.14474e-08
-0.0112888
-1.16024
9.25784e-07
-0.0112893
-1.16024
-0.011289
-1.16023
-5.07644e-07
1.43106
-1.80916
8.73826e-08
1.43107
-1.80916
1.2634e-06
1.43107
-1.80916
3.8435e-06
1.43106
-1.80916
6.04643e-06
1.43107
-1.80916
1.43107
-1.80916
1.28031e-06
-2.65634e-10
3.10765e-06
-2.65644e-10
8.29284e-06
-2.65635e-10
1.47348e-05
-2.65634e-10
1.63669e-05
-2.65636e-10
-2.65611e-10
-1.13223e-06
-0.827344
-0.460362
-1.66266e-06
-0.827347
-0.460362
-1.36058e-06
-0.827345
-0.460362
3.41029e-07
-0.827345
-0.460363
-5.82532e-08
-0.827345
-0.460364
-0.827342
-0.460365
2.51344e-06
-6.88506e-11
-0.000256382
4.23038e-07
-6.88529e-11
-0.000256386
2.41885e-06
-6.88505e-11
-0.000256383
5.17698e-06
-6.885e-11
-0.000256381
1.81901e-06
-6.88506e-11
-0.000256369
-6.88434e-11
-0.00025638
-3.90507e-16
-3.34484e-10
-3.87899e-16
-3.34497e-10
-6.20107e-16
-3.34485e-10
-8.96018e-16
-3.34483e-10
-1.05708e-15
-3.34486e-10
-3.34455e-10
1.11201e-06
-0.00064366
0.00465634
7.77325e-07
-0.000643664
0.00465671
2.34568e-06
-0.000643654
0.00465644
3.85359e-06
-0.000643645
0.00465634
1.76666e-06
-0.000643624
0.00465637
-0.000643623
0.00465611
7.39318e-10
-3.86623e-09
-0.000900039
6.41896e-10
-3.86637e-09
-0.000900046
3.53774e-10
-3.86622e-09
-0.000900033
2.71661e-10
-3.8662e-09
-0.000900022
-8.45544e-11
-3.86623e-09
-0.00089999
-3.86583e-09
-0.0009
-2.7549e-15
-4.20071e-09
-5.53937e-15
-4.20086e-09
-4.78424e-15
-4.20071e-09
-5.36211e-15
-4.20068e-09
-3.41116e-15
-4.20072e-09
-4.20029e-09
5.36636e-08
0.00140761
6.98044e-05
4.53505e-07
0.00140759
6.98071e-05
6.32586e-07
0.00140759
6.98033e-05
6.49938e-07
0.00140758
6.98032e-05
5.60543e-07
0.00140755
6.98027e-05
0.00140756
6.97946e-05
2.06187e-08
-6.61864e-08
-5.29661e-05
5.63824e-09
-6.61883e-08
-5.29662e-05
-5.66756e-09
-6.61863e-08
-5.29646e-05
-2.87509e-09
-6.61865e-08
-5.2964e-05
8.89023e-09
-6.61877e-08
-5.29628e-05
-6.61821e-08
-5.29591e-05
-3.4951e-14
-7.03871e-08
-5.42916e-14
-7.03892e-08
-5.59121e-14
-7.0387e-08
-5.81757e-14
-7.03871e-08
-5.20063e-14
-7.03884e-08
-7.03824e-08
-1.17199e-09
7.38652e-05
-5.95863e-07
1.18093e-09
7.38666e-05
-5.95912e-07
1.37618e-09
7.38636e-05
-5.95913e-07
2.4234e-09
7.38625e-05
-5.96004e-07
4.33503e-09
7.38616e-05
-5.96123e-07
7.38571e-05
-5.96041e-07
-1.96205e-10
4.66995e-07
-1.08017e-08
-2.67122e-11
4.67039e-07
-1.08026e-08
3.16875e-11
4.67022e-07
-1.08027e-08
1.48859e-12
4.67021e-07
-1.08049e-08
5.16613e-11
4.67048e-07
-1.08078e-08
4.67013e-07
-1.08064e-08
-7.97771e-13
-3.94212e-11
-6.7579e-13
-3.94232e-11
-5.34913e-13
-3.94234e-11
-3.18581e-13
-3.94302e-11
-4.43131e-14
-3.94392e-11
-3.94356e-11
-3.00286e-13
1.08407e-08
-5.844e-10
-4.64764e-13
1.08417e-08
-5.8457e-10
-9.29442e-13
1.08418e-08
-5.84601e-10
-1.02543e-12
1.0844e-08
-5.84611e-10
-4.27246e-13
1.08469e-08
-5.84608e-10
1.08454e-08
-5.84379e-10
-4.33038e-15
4.12613e-11
-2.94861e-11
-7.9377e-15
4.12639e-11
-2.9491e-11
-1.0564e-14
4.12646e-11
-2.9493e-11
-8.83055e-15
4.12717e-11
-2.94983e-11
-3.07369e-15
4.12808e-11
-2.95044e-11
4.12768e-11
-2.94984e-11
-6.66098e-18
-1.57492e-13
-1.4259e-17
-1.57521e-13
-1.85382e-17
-1.57538e-13
-1.74659e-17
-1.57571e-13
-8.55357e-18
-1.57604e-13
-1.57573e-13
-1.50346e-14
3.07402e-11
-1.52257e-12
-2.56654e-14
3.07453e-11
-1.52326e-12
-2.23841e-14
3.07473e-11
-1.52278e-12
-1.16719e-14
3.07526e-11
-1.52231e-12
-2.49947e-15
3.07586e-11
-1.52188e-12
3.07523e-11
-1.52077e-12
-1.2365e-16
1.81445e-13
-6.58857e-15
-2.44748e-16
1.81479e-13
-6.591e-15
-2.44564e-16
1.81496e-13
-6.58982e-15
-1.54468e-16
1.81529e-13
-6.58887e-15
-5.74648e-17
1.81561e-13
-6.58814e-15
1.81524e-13
-6.58511e-15
-1.2238e-19
-1.50606e-16
-2.66619e-19
-1.50642e-16
-2.85399e-19
-1.50619e-16
-2.09961e-19
-1.50598e-16
-1.08196e-19
-1.50583e-16
-1.50542e-16
-4.74003e-17
3.75048e-14
2.43173e-15
4.87727e-17
3.75168e-14
2.43096e-15
1.48865e-16
3.75118e-14
2.43009e-15
2.00795e-16
3.75054e-14
2.42977e-15
1.71251e-16
3.74989e-14
2.42999e-15
3.74865e-14
2.43054e-15
-6.62016e-19
6.96883e-16
6.01817e-18
-1.75816e-19
6.96834e-16
6.0158e-18
3.66066e-19
6.96737e-16
6.01556e-18
6.91374e-19
6.96727e-16
6.0147e-18
6.52238e-19
6.96779e-16
6.01381e-18
6.96763e-16
6.01605e-18
-2.28882e-21
-7.56665e-19
-1.62303e-21
-7.56521e-19
-3.71853e-22
-7.56439e-19
5.09858e-22
-7.56521e-19
7.49967e-22
-7.56719e-19
-7.56821e-19
7.45267e-19
7.20941e-16
1.07542e-16
1.37774e-18
7.20782e-16
1.07492e-16
1.55215e-18
7.20689e-16
1.07485e-16
1.50181e-18
7.2075e-16
1.0751e-16
1.24435e-18
7.20917e-16
1.07558e-16
7.20999e-16
1.07605e-16
4.68614e-21
3.0248e-16
3.83617e-17
8.39562e-21
3.02402e-16
3.8351e-17
9.99151e-21
3.0237e-16
3.83459e-17
9.77939e-21
3.02405e-16
3.83489e-17
6.9464e-21
3.02487e-16
3.83578e-17
3.02543e-16
3.83649e-17
1.91782e-23
-1.65214e-21
2.18099e-23
-1.65204e-21
2.25535e-23
-1.65215e-21
1.9651e-23
-1.65257e-21
9.18469e-24
-1.65321e-21
-1.6536e-21
8.11183e-23
2.18656e-16
8.39014e-17
-1.00169e-20
2.18617e-16
8.38859e-17
-1.71138e-20
2.18625e-16
8.38876e-17
-1.83285e-20
2.18681e-16
8.39071e-17
-1.26039e-20
2.18771e-16
8.39397e-17
2.18846e-16
8.39675e-17
8.25511e-24
3.06399e-18
7.26412e-19
-3.5536e-23
3.0635e-18
7.2629e-19
-6.40926e-23
3.06358e-18
7.26304e-19
-6.68991e-23
3.06428e-18
7.26465e-19
-4.64482e-23
3.06543e-18
7.26731e-19
3.06637e-18
7.26951e-19
-2.8909e-26
1.2678e-21
-1.21536e-25
1.26757e-21
-1.8975e-25
1.26761e-21
-1.95958e-25
1.2679e-21
-1.69503e-25
1.26836e-21
1.26879e-21
-4.7619e-23
1.9633e-18
1.61964e-18
-1.09319e-22
1.96335e-18
1.61968e-18
-1.40612e-22
1.96338e-18
1.61971e-18
-1.38788e-22
1.96362e-18
1.61991e-18
-9.76329e-23
1.96404e-18
1.62024e-18
1.96432e-18
1.62047e-18
-2.41744e-25
2.45844e-20
1.11629e-20
-5.09121e-25
2.45846e-20
1.1163e-20
-6.53405e-25
2.45852e-20
1.11632e-20
-6.3835e-25
2.45886e-20
1.11648e-20
-4.39412e-25
2.45943e-20
1.11674e-20
2.45984e-20
1.11693e-20
-8.27257e-28
2.46973e-23
-1.37901e-27
2.46978e-23
-1.63129e-27
2.46985e-23
-1.54635e-27
2.47019e-23
-1.17338e-27
2.47074e-23
2.47116e-23
1.64812e-38
1.35868e-33
-2.54917e-30
3.74474e-33
-2.64601e-38
1.35891e-33
-2.54957e-30
3.7454e-33
-5.82193e-38
1.35896e-33
-2.54967e-30
3.74556e-33
-6.57339e-38
1.35908e-33
-2.5499e-30
3.7459e-33
-4.61313e-38
1.35926e-33
-2.55026e-30
3.7464e-33
1.35935e-33
-2.55045e-30
3.74666e-33
-7.18706e-42
8.43427e-36
-8.11051e-33
9.49312e-36
-1.42092e-40
8.43567e-36
-8.11177e-33
9.49474e-36
-2.3881e-40
8.43602e-36
-8.11208e-33
9.49516e-36
-2.47141e-40
8.4368e-36
-8.11284e-33
9.49605e-36
-1.41683e-40
8.43796e-36
-8.11399e-33
9.49736e-36
8.43863e-36
-8.11466e-33
9.49813e-36
-4.57918e-44
-5.01412e-36
4.08661e-39
-1.08e-43
-5.01499e-36
4.0874e-39
-1.53209e-43
-5.01519e-36
4.08759e-39
-1.31272e-43
-5.01563e-36
4.08795e-39
-3.52714e-44
-5.01627e-36
4.08848e-39
-5.01665e-36
4.0888e-39
4.84249e-36
1.00087e-30
-1.24507e-27
-2.7807e-35
1.00103e-30
-1.24525e-27
-4.43986e-35
1.00106e-30
-1.24529e-27
-4.43516e-35
1.00115e-30
-1.24541e-27
-2.58732e-35
1.00129e-30
-1.24559e-27
1.00137e-30
-1.2457e-27
-2.35897e-38
7.53553e-33
-4.8066e-30
-1.45929e-37
7.5367e-33
-4.80727e-30
-2.0549e-37
7.53698e-33
-4.80743e-30
-1.8696e-37
7.53768e-33
-4.80789e-30
-7.59878e-38
7.53876e-33
-4.80861e-30
7.5394e-33
-4.80905e-30
-2.68044e-41
-4.16141e-33
-1.15827e-40
-4.16206e-33
-1.57338e-40
-4.16221e-33
-1.22487e-40
-4.16259e-33
3.02579e-42
-4.16316e-33
-4.16355e-33
-5.26795e-34
5.13698e-28
-4.25088e-25
-1.65406e-32
5.1377e-28
-4.25141e-25
-2.1076e-32
5.13786e-28
-4.25154e-25
-1.87507e-32
5.13834e-28
-4.25196e-25
-1.10316e-32
5.1391e-28
-4.25263e-25
5.13953e-28
-4.25302e-25
-8.72325e-36
4.61937e-30
-1.94871e-27
-7.81089e-35
4.62e-30
-1.94894e-27
-9.94847e-35
4.62016e-30
-1.949e-27
-8.61024e-35
4.62061e-30
-1.9492e-27
-3.9929e-35
4.62131e-30
-1.94951e-27
4.62174e-30
-1.94971e-27
-1.11424e-38
-2.32294e-30
-8.32017e-38
-2.32326e-30
-1.06463e-37
-2.32334e-30
-8.23911e-38
-2.32356e-30
-1.98304e-38
-2.32392e-30
-2.32416e-30
-1.91473e-30
1.83084e-25
-9.94666e-23
-7.24474e-30
1.83106e-25
-9.94765e-23
-7.75883e-30
1.83111e-25
-9.9479e-23
-6.65587e-30
1.83129e-25
-9.94895e-23
-4.30755e-30
1.83158e-25
-9.95065e-23
1.83175e-25
-9.95168e-23
-1.06483e-32
1.93715e-27
-5.32009e-25
-3.03426e-32
1.93737e-27
-5.32058e-25
-3.47904e-32
1.93743e-27
-5.32073e-25
-3.08506e-32
1.93763e-27
-5.32131e-25
-2.08037e-32
1.93795e-27
-5.32226e-25
1.93815e-27
-5.32287e-25
-1.45885e-35
-8.47761e-28
-4.08194e-35
-8.47848e-28
-4.8693e-35
-8.47876e-28
-4.33821e-35
-8.47967e-28
-2.86768e-35
-8.48114e-28
-8.48212e-28
-8.96065e-28
4.44175e-23
-1.56394e-20
-1.97549e-27
4.44218e-23
-1.56404e-20
-2.24377e-27
4.44229e-23
-1.56408e-20
-2.05684e-27
4.44275e-23
-1.56426e-20
-1.35787e-27
4.44351e-23
-1.56455e-20
4.44397e-23
-1.56473e-20
-3.76738e-30
5.5063e-25
-9.64913e-23
-8.26583e-30
5.50681e-25
-9.6497e-23
-1.01537e-29
5.50697e-25
-9.64996e-23
-9.80114e-30
5.50757e-25
-9.65114e-23
-7.39019e-30
5.50855e-25
-9.65306e-23
5.50919e-25
-9.65436e-23
-7.21981e-33
-1.84872e-25
-1.50122e-32
-1.84885e-25
-1.90844e-32
-1.84891e-25
-1.85844e-32
-1.84913e-25
-1.44655e-32
-1.84949e-25
-1.84974e-25
-2.04793e-25
7.53248e-21
-3.76191e-25
7.53298e-21
-4.56683e-25
7.53313e-21
-4.30262e-25
7.53398e-21
-2.84959e-25
7.53537e-21
7.53626e-21
-1.23511e-27
1.05889e-22
-2.11598e-27
1.05895e-22
-2.50072e-27
1.05898e-22
-2.42211e-27
1.05911e-22
-1.83894e-27
1.05932e-22
1.05946e-22
-3.24747e-30
-5.20759e-30
-6.02158e-30
-6.07495e-30
-5.14209e-30
-1.04372e-90
2.69335e-87
-1.37622e-82
3.62503e-91
2.69317e-87
-1.37605e-82
9.49857e-91
2.6927e-87
-1.37577e-82
1.31603e-90
2.69268e-87
-1.37578e-82
1.58217e-90
2.69279e-87
-1.37588e-82
2.69269e-87
-1.37586e-82
-3.58307e-95
2.61335e-91
-1.06863e-86
3.2086e-95
2.61342e-91
-1.06865e-86
6.29232e-95
2.61309e-91
-1.06853e-86
8.52582e-95
2.61301e-91
-1.06855e-86
1.04765e-94
2.61301e-91
-1.0686e-86