/*--------------------------------*- C++ -*----------------------------------*\
| =========                 |                                                 |
| \\      /  F ield         | OpenFOAM: The Open Source CFD Toolbox           |
|  \\    /   O peration     | Version:  v1612+                                |
|   \\  /    A nd           | Web:      www.OpenFOAM.com                      |
|    \\/     M anipulation  |                                                 |
\*---------------------------------------------------------------------------*/
FoamFile
{
    version     2.0;
    format      ascii;
    class       volScalarField;
    location    "0.9";
    object      p;
}
// * * * * * * * * * * * * * * * * * * * * * * * * * * * * * * * * * * * * * //

dimensions      [1 -1 -2 0 0 0 0];

internalField   nonuniform List<scalar> 
1116
(
33883.2
33883.2
33883.2
33883.2
33883.2
33883.2
32381.6
32381.6
32381.6
32381.6
32381.5
32381.5
29347.4
29347.4
29347.4
29347.4
29347.4
29347.4
22372.9
22372.9
22372.9
22372.9
22372.9
22372.9
8785.98
8785.95
8785.95
8785.92
8785.89
8785.85
573.069
573.047
573.046
573.041
573.03
573.039
146.666
146.667
146.668
146.667
146.665
146.665
106.473
106.472
106.472
106.472
106.471
106.469
91.4984
91.4981
91.4987
91.4986
91.4983
91.4978
72.4538
72.4548
72.4553
72.4553
72.4553
72.4553
60.978
60.9785
60.9783
60.9784
60.9789
60.9794
55.0042
55.0033
55.0023
55.0017
55.0015
55.0015
25275
25275
25275
25274.9
25274.9
25274.9
23812.6
23812.6
23812.6
23812.5
23812.5
23812.5
20982.3
20982.3
20982.3
20982.3
20982.3
20982.3
11835.9
11835.9
11835.9
11835.9
11835.8
11835.8
337.189
337.145
337.144
337.144
337.131
337.15
-133.171
-133.175
-133.177
-133.175
-133.173
-133.165
23.1223
23.1215
23.1207
23.1187
23.1157
23.1135
81.1418
81.1414
81.1418
81.1412
81.1405
81.1392
64.6948
64.6965
64.6978
64.6986
64.6993
64.6998
51.9966
51.9976
51.9983
51.9988
51.9989
51.999
43.5867
43.5863
43.5856
43.5849
43.5842
43.5838
38.467
38.4657
38.4641
38.4626
38.4614
38.4607
17840.3
17840.3
17840.3
17840.3
17840.2
17840.2
16875.6
16875.6
16875.6
16875.5
16875.5
16875.5
14644.3
14644.2
14644.2
14644.2
14644.2
14644.2
3218.11
3218.04
3218
3217.96
3217.95
3217.95
-4.2885
-4.30056
-4.3056
-4.30313
-4.30174
-4.29183
-28.5081
-28.5061
-28.5047
-28.5044
-28.5052
-28.5053
18.0863
18.0858
18.0852
18.0836
18.0822
18.0812
38.6293
38.6296
38.6294
38.6294
38.6302
38.6311
34.8804
34.8807
34.8809
34.8818
34.8829
34.8838
28.5493
28.5491
28.549
28.549
28.5487
28.5483
22.9658
22.9652
22.9644
22.9632
22.9619
22.9608
18.743
18.7422
18.741
18.7396
18.7384
18.7377
10120.5
10120.5
10120.5
10120.5
10120.5
10120.5
11429.6
11429.5
11429.5
11429.5
11429.5
11429.5
10281.9
10281.8
10281.8
10281.8
10281.8
10281.8
-80.2734
-80.303
-80.321
-80.3297
-80.3347
-80.337
-27.9626
-27.9603
-27.9608
-27.9604
-27.9582
-27.9556
5.41148
5.41351
5.41522
5.41623
5.41634
5.41508
1.73561
1.7369
1.73675
1.73648
1.73658
1.73642
12.6891
12.6891
12.688
12.6876
12.6878
12.6882
10.5924
10.5915
10.5908
10.5907
10.5909
10.5911
6.0081
6.00744
6.00769
6.00801
6.00823
6.00829
1.63479
1.6347
1.63445
1.63393
1.63325
1.63266
-2.26319
-2.2635
-2.26415
-2.26492
-2.26562
-2.26601
-4.81219
-4.81214
-4.81214
-4.81215
-4.81215
-4.81216
-4.807
-4.80696
-4.80696
-4.80697
-4.80698
-4.807
-4.79651
-4.79648
-4.79649
-4.79649
-4.7965
-4.79652
-4.78034
-4.78031
-4.78031
-4.78031
-4.78032
-4.78033
-4.75795
-4.75792
-4.75792
-4.75792
-4.75792
-4.75793
-4.72879
-4.72877
-4.72876
-4.72876
-4.72876
-4.72876
-4.69245
-4.69243
-4.69242
-4.69242
-4.69243
-4.69244
-4.64887
-4.64886
-4.64886
-4.64887
-4.64889
-4.64891
-4.59874
-4.59875
-4.59877
-4.5988
-4.59883
-4.59886
-4.54421
-4.54424
-4.54427
-4.54431
-4.54434
-4.54436
-4.49048
-4.49053
-4.49056
-4.49059
-4.49061
-4.49062
-4.44502
-4.44505
-4.44507
-4.44508
-4.44508
-4.44507
-14.627
-14.627
-14.627
-14.627
-14.627
-14.627
-14.6218
-14.6217
-14.6217
-14.6218
-14.6218
-14.6218
-14.6111
-14.6111
-14.6111
-14.6111
-14.6111
-14.6111
-14.5946
-14.5946
-14.5946
-14.5946
-14.5946
-14.5946
-14.5716
-14.5715
-14.5715
-14.5715
-14.5715
-14.5716
-14.5412
-14.5412
-14.5412
-14.5412
-14.5412
-14.5412
-14.5029
-14.5029
-14.5029
-14.5029
-14.5029
-14.5029
-14.456
-14.456
-14.4561
-14.4561
-14.4561
-14.4561
-14.4009
-14.401
-14.401
-14.401
-14.4011
-14.4011
-14.3388
-14.3389
-14.3389
-14.3389
-14.339
-14.339
-14.2729
-14.273
-14.273
-14.273
-14.273
-14.273
-14.2101
-14.2102
-14.2102
-14.2101
-14.2101
-14.2101
-24.447
-24.447
-24.447
-24.447
-24.447
-24.447
-24.4419
-24.4419
-24.4419
-24.4419
-24.4419
-24.442
-24.4316
-24.4315
-24.4315
-24.4316
-24.4316
-24.4316
-24.4153
-24.4153
-24.4153
-24.4153
-24.4153
-24.4154
-24.3924
-24.3924
-24.3924
-24.3924
-24.3924
-24.3924
-24.3615
-24.3615
-24.3615
-24.3615
-24.3615
-24.3615
-24.3212
-24.3212
-24.3212
-24.3213
-24.3213
-24.3213
-24.2697
-24.2697
-24.2698
-24.2698
-24.2698
-24.2698
-24.2046
-24.2046
-24.2047
-24.2047
-24.2047
-24.2047
-24.123
-24.123
-24.123
-24.123
-24.123
-24.123
-24.0309
-24.0309
-24.0309
-24.0309
-24.0309
-24.0308
-23.9276
-23.9276
-23.9275
-23.9275
-23.9275
-23.9274
-34.2717
-34.2717
-34.2717
-34.2717
-34.2717
-34.2718
-34.2671
-34.2671
-34.2671
-34.2671
-34.2671
-34.2672
-34.2577
-34.2577
-34.2577
-34.2577
-34.2577
-34.2577
-34.2426
-34.2426
-34.2426
-34.2426
-34.2426
-34.2426
-34.2209
-34.2209
-34.2209
-34.2209
-34.2209
-34.2209
-34.1907
-34.1907
-34.1907
-34.1907
-34.1907
-34.1908
-34.1496
-34.1496
-34.1496
-34.1496
-34.1496
-34.1497
-34.0941
-34.0941
-34.0941
-34.0941
-34.0942
-34.0942
-34.0206
-34.0206
-34.0206
-34.0206
-34.0206
-34.0206
-33.9273
-33.9273
-33.9273
-33.9273
-33.9272
-33.9272
-33.8046
-33.8046
-33.8045
-33.8045
-33.8044
-33.8044
-33.642
-33.642
-33.642
-33.6419
-33.6419
-33.6419
8558.38
8558.28
8558.24
8558.23
8558.22
8558.2
-15507.4
-15507.4
-15507.5
-15507.5
-15507.5
-15507.5
-20139.6
-20140
-20140.1
-20140
-20140
-20140
12283.1
12283.1
12283.1
12283.1
12283.1
12283.1
-4228.45
-4228.47
-4228.45
-4228.45
-4228.47
-4228.45
-454.628
-454.625
-454.627
-454.624
-454.618
-454.628
6423.29
6423.37
6423.37
6423.37
6423.39
6423.43
835.603
835.62
835.611
835.61
835.613
835.618
-160.77
-160.771
-160.772
-160.771
-160.77
-160.773
225.935
225.947
225.938
225.936
225.942
225.933
-90.8614
-90.8588
-90.8634
-90.8652
-90.8639
-90.8678
-155.95
-155.952
-155.953
-155.953
-155.953
-155.953
-35.145
-35.1457
-35.1461
-35.1453
-35.1439
-35.1437
-7.22638
-7.22446
-7.22496
-7.22536
-7.22381
-7.22358
-48.2417
-48.2411
-48.2406
-48.2403
-48.2401
-48.2404
25.2355
25.2363
25.2361
25.2361
25.2363
25.2364
-6.33939
-6.33853
-6.3369
-6.33557
-6.33486
-6.33449
-46.8781
-46.878
-46.8776
-46.8773
-46.8771
-46.877
-20.5575
-20.5567
-20.556
-20.5554
-20.5551
-20.5549
-36.5775
-36.5772
-36.577
-36.5771
-36.5773
-36.5775
-56.8708
-56.8706
-56.8706
-56.8707
-56.8708
-56.8709
-5.55482
-5.55481
-5.55519
-5.5555
-5.5558
-5.55617
-31.4822
-31.4822
-31.4823
-31.4824
-31.4825
-31.4825
-56.639
-56.6389
-56.639
-56.6391
-56.6391
-56.6392
-11.4171
-11.4179
-11.4184
-11.4186
-11.4187
-11.4186
-33.9336
-33.9337
-33.9337
-33.9336
-33.9335
-33.9334
-57.0847
-57.0847
-57.0846
-57.0846
-57.0846
-57.0845
-15.5937
-15.5937
-15.5934
-15.593
-15.5927
-15.5925
-36.8704
-36.8701
-36.8698
-36.8696
-36.8694
-36.8693
-58.1906
-58.1905
-58.1904
-58.1904
-58.1903
-58.1903
-19.6662
-19.6659
-19.6657
-19.6656
-19.6656
-19.6657
-39.4341
-39.434
-39.4339
-39.4339
-39.4339
-39.434
-58.9489
-58.9489
-58.9489
-58.949
-58.949
-58.949
-24.4535
-24.4535
-24.4537
-24.454
-24.4542
-24.4544
-42.4675
-42.4676
-42.4677
-42.4678
-42.4679
-42.468
-59.9784
-59.9784
-59.9784
-59.9785
-59.9785
-59.9786
-42.0538
-42.0537
-42.0538
-42.0538
-42.0539
-42.0539
-52.424
-52.424
-52.4241
-52.4242
-52.4243
-52.4243
-63.1627
-63.1627
-63.1627
-63.1628
-63.1628
-63.1628
-41.1684
-41.1684
-41.1685
-41.1686
-41.1687
-41.1687
-51.793
-51.7931
-51.7931
-51.7932
-51.7933
-51.7933
-62.9273
-62.9274
-62.9274
-62.9274
-62.9275
-62.9275
-39.9426
-39.9426
-39.9427
-39.9428
-39.9428
-39.9429
-50.936
-50.9361
-50.9361
-50.9362
-50.9363
-50.9363
-62.6129
-62.6129
-62.6129
-62.613
-62.613
-62.613
-38.2254
-38.2254
-38.2255
-38.2256
-38.2256
-38.2257
-49.7737
-49.7737
-49.7738
-49.7738
-49.7739
-49.7739
-62.1995
-62.1995
-62.1995
-62.1995
-62.1995
-62.1995
-35.8383
-35.8384
-35.8385
-35.8385
-35.8386
-35.8386
-48.2187
-48.2187
-48.2188
-48.2188
-48.2189
-48.2189
-61.6693
-61.6693
-61.6693
-61.6693
-61.6694
-61.6694
-32.6224
-32.6225
-32.6226
-32.6228
-32.6229
-32.623
-46.1698
-46.1699
-46.17
-46.17
-46.1701
-46.1702
-61.0106
-61.0106
-61.0106
-61.0107
-61.0107
-61.0107
-44.0851
-44.085
-44.085
-44.085
-44.0851
-44.0851
-53.9175
-53.9175
-53.9175
-53.9175
-53.9175
-53.9175
-63.752
-63.752
-63.752
-63.752
-63.752
-63.752
-44.0814
-44.0814
-44.0814
-44.0814
-44.0814
-44.0814
-53.9151
-53.9151
-53.9151
-53.9151
-53.9151
-53.9152
-63.7511
-63.7511
-63.7511
-63.7511
-63.7512
-63.7512
-44.0738
-44.0738
-44.0738
-44.0738
-44.0738
-44.0738
-53.9102
-53.9102
-53.9102
-53.9102
-53.9102
-53.9102
-63.7494
-63.7494
-63.7494
-63.7494
-63.7494
-63.7494
-44.0615
-44.0615
-44.0615
-44.0615
-44.0615
-44.0615
-53.9022
-53.9022
-53.9022
-53.9022
-53.9022
-53.9022
-63.7464
-63.7464
-63.7465
-63.7465
-63.7465
-63.7465
-44.0433
-44.0433
-44.0433
-44.0433
-44.0433
-44.0433
-53.89
-53.89
-53.89
-53.89
-53.8901
-53.8901
-63.742
-63.742
-63.742
-63.742
-63.742
-63.742
-44.0171
-44.0171
-44.0171
-44.0171
-44.0171
-44.0172
-53.8721
-53.8721
-53.8721
-53.8721
-53.8721
-53.8721
-63.7352
-63.7352
-63.7352
-63.7352
-63.7352
-63.7352
-43.979
-43.979
-43.9791
-43.9791
-43.9791
-43.9791
-53.845
-53.845
-53.8451
-53.8451
-53.8451
-53.8451
-63.7246
-63.7246
-63.7246
-63.7246
-63.7246
-63.7246
-43.9218
-43.9218
-43.9219
-43.9219
-43.9219
-43.9219
-53.8028
-53.8028
-53.8028
-53.8028
-53.8028
-53.8028
-63.7077
-63.7077
-63.7077
-63.7077
-63.7077
-63.7077
-43.8308
-43.8308
-43.8308
-43.8308
-43.8308
-43.8307
-53.7337
-53.7337
-53.7337
-53.7337
-53.7337
-53.7336
-63.6793
-63.6793
-63.6793
-63.6793
-63.6793
-63.6793
-43.6757
-43.6757
-43.6757
-43.6757
-43.6756
-43.6756
-53.6163
-53.6163
-53.6163
-53.6162
-53.6162
-53.6162
-63.6303
-63.6303
-63.6303
-63.6303
-63.6303
-63.6303
-43.3994
-43.3993
-43.3993
-43.3993
-43.3993
-43.3992
-53.4093
-53.4093
-53.4093
-53.4093
-53.4093
-53.4093
-63.5434
-63.5434
-63.5434
-63.5434
-63.5434
-63.5434
-42.9095
-42.9095
-42.9095
-42.9095
-42.9095
-42.9096
-53.0405
-53.0406
-53.0406
-53.0406
-53.0407
-53.0407
-63.3902
-63.3902
-63.3902
-63.3902
-63.3902
-63.3903
)
;

boundaryField
{
    seabed_topleft_surface
    {
        type            calculated;
        value           nonuniform List<scalar> 
72
(
38805.1
38805.1
38805.1
38805.1
38805.1
38805.1
37303.4
37303.4
37303.4
37303.4
37303.4
37303.4
34269.2
34269.2
34269.2
34269.2
34269.2
34269.2
27294.8
27294.8
27294.8
27294.7
27294.7
27294.7
12864.9
12864.8
12864.8
12864.8
12864.8
12864.7
1429.35
1429.33
1429.33
1429.33
1429.32
1429.31
153.694
153.695
153.696
153.695
153.693
153.693
111.465
111.464
111.464
111.464
111.463
111.461
96.4216
96.4213
96.4219
96.4218
96.4215
96.421
77.3757
77.3767
77.3771
77.3772
77.3772
77.3772
65.8999
65.9003
65.9002
65.9003
65.9007
65.9013
59.9261
59.9252
59.9241
59.9235
59.9233
59.9234
)
;
    }
    seabed_topright_surface
    {
        type            calculated;
        value           nonuniform List<scalar> 
72
(
0.109663
0.109715
0.10972
0.10971
0.109704
0.109698
0.114857
0.114897
0.114892
0.114884
0.114875
0.114858
0.125342
0.125376
0.12537
0.125362
0.125353
0.125336
0.14152
0.14155
0.141547
0.141542
0.141535
0.141521
0.163911
0.163935
0.163939
0.163938
0.163935
0.163926
0.193063
0.193086
0.193095
0.193098
0.193098
0.193091
0.229401
0.229424
0.229432
0.229433
0.229427
0.229417
0.272983
0.272994
0.272994
0.272982
0.272964
0.272944
0.323117
0.323105
0.323086
0.323059
0.323028
0.323
0.37765
0.37762
0.377586
0.37755
0.377517
0.377493
0.431372
0.431329
0.431296
0.431268
0.431247
0.431238
0.476833
0.476807
0.47679
0.476778
0.476775
0.476783
)
;
    }
    breakwater_top_surface
    {
        type            calculated;
        value           nonuniform List<scalar> 
36
(
-37.1488
-37.1487
-37.1488
-37.1488
-37.1489
-37.1489
-36.2634
-36.2634
-36.2635
-36.2636
-36.2637
-36.2637
-35.0376
-35.0376
-35.0377
-35.0378
-35.0378
-35.0379
-33.3204
-33.3204
-33.3205
-33.3206
-33.3206
-33.3207
-30.9333
-30.9334
-30.9335
-30.9335
-30.9336
-30.9336
-27.7174
-27.7175
-27.7176
-27.7178
-27.7179
-27.718
)
;
    }
    breakwater_left_surface
    {
        type            calculated;
        value           nonuniform List<scalar> 
24
(
55.0211
55.0202
55.0191
55.0185
55.0183
55.0184
38.4835
38.4822
38.4806
38.4791
38.4779
38.4772
18.7592
18.7584
18.7571
18.7558
18.7546
18.7539
-2.24732
-2.24762
-2.24828
-2.24905
-2.24975
-2.25014
)
;
    }
    breakwater_right_surface
    {
        type            calculated;
        value           nonuniform List<scalar> 
24
(
-4.42817
-4.42819
-4.42821
-4.42822
-4.42823
-4.42822
-14.1936
-14.1936
-14.1936
-14.1936
-14.1936
-14.1936
-23.9114
-23.9114
-23.9114
-23.9113
-23.9113
-23.9113
-33.6261
-33.6261
-33.6261
-33.6261
-33.6261
-33.6261
)
;
    }
    water_front_surface
    {
        type            calculated;
        value           nonuniform List<scalar> 
186
(
33883.2
32381.6
29347.4
22372.9
8785.98
573.069
146.666
106.473
91.4984
72.4538
60.978
55.0042
25275
23812.6
20982.3
11835.9
337.189
-133.171
23.1223
81.1418
64.6948
51.9966
43.5867
38.467
17840.3
16875.6
14644.3
3218.11
-4.2885
-28.5081
18.0863
38.6293
34.8804
28.5493
22.9658
18.743
10120.5
11429.6
10281.9
-80.2734
-27.9626
5.41148
1.73561
12.6891
10.5924
6.0081
1.63479
-2.26319
-4.81219
-4.807
-4.79651
-4.78034
-4.75795
-4.72879
-4.69245
-4.64887
-4.59874
-4.54421
-4.49048
-4.44502
-14.627
-14.6218
-14.6111
-14.5946
-14.5716
-14.5412
-14.5029
-14.456
-14.4009
-14.3388
-14.2729
-14.2101
-24.447
-24.4419
-24.4316
-24.4153
-24.3924
-24.3615
-24.3212
-24.2697
-24.2046
-24.123
-24.0309
-23.9276
-34.2717
-34.2671
-34.2577
-34.2426
-34.2209
-34.1907
-34.1496
-34.0941
-34.0206
-33.9273
-33.8046
-33.642
8558.38
-15507.4
-20139.6
12283.1
-4228.45
-454.628
6423.29
835.603
-160.77
225.935
-90.8614
-155.95
-35.145
-7.22638
-48.2417
25.2355
-6.33939
-46.8781
-20.5575
-36.5775
-56.8708
-5.55482
-31.4822
-56.639
-11.4171
-33.9336
-57.0847
-15.5937
-36.8704
-58.1906
-19.6662
-39.4341
-58.9489
-24.4535
-42.4675
-59.9784
-42.0538
-52.424
-63.1627
-41.1684
-51.793
-62.9273
-39.9426
-50.936
-62.6129
-38.2254
-49.7737
-62.1995
-35.8383
-48.2187
-61.6693
-32.6224
-46.1698
-61.0106
-44.0851
-53.9175
-63.752
-44.0814
-53.9151
-63.7511
-44.0738
-53.9102
-63.7494
-44.0615
-53.9022
-63.7464
-44.0433
-53.89
-63.742
-44.0171
-53.8721
-63.7352
-43.979
-53.845
-63.7246
-43.9218
-53.8028
-63.7077
-43.8308
-53.7337
-63.6793
-43.6757
-53.6163
-63.6303
-43.3994
-53.4093
-63.5434
-42.9095
-53.0405
-63.3902
)
;
    }
    water_back_surface
    {
        type            calculated;
        value           nonuniform List<scalar> 
186
(
33883.2
32381.5
29347.4
22372.9
8785.85
573.039
146.665
106.469
91.4978
72.4553
60.9794
55.0015
25274.9
23812.5
20982.3
11835.8
337.15
-133.165
23.1135
81.1392
64.6998
51.999
43.5838
38.4607
17840.2
16875.5
14644.2
3217.95
-4.29183
-28.5053
18.0812
38.6311
34.8838
28.5483
22.9608
18.7377
10120.5
11429.5
10281.8
-80.337
-27.9556
5.41508
1.73642
12.6882
10.5911
6.00829
1.63266
-2.26601
-4.81216
-4.807
-4.79652
-4.78033
-4.75793
-4.72876
-4.69244
-4.64891
-4.59886
-4.54436
-4.49062
-4.44507
-14.627
-14.6218
-14.6111
-14.5946
-14.5716
-14.5412
-14.5029
-14.4561
-14.4011
-14.339
-14.273
-14.2101
-24.447
-24.442
-24.4316
-24.4154
-24.3924
-24.3615
-24.3213
-24.2698
-24.2047
-24.123
-24.0308
-23.9274
-34.2718
-34.2672
-34.2577
-34.2426
-34.2209
-34.1908
-34.1497
-34.0942
-34.0206
-33.9272
-33.8044
-33.6419
8558.2
-15507.5
-20140
12283.1
-4228.45
-454.628
6423.43
835.618
-160.773
225.933
-90.8678
-155.953
-35.1437
-7.22358
-48.2404
25.2364
-6.33449
-46.877
-20.5549
-36.5775
-56.8709
-5.55617
-31.4825
-56.6392
-11.4186
-33.9334
-57.0845
-15.5925
-36.8693
-58.1903
-19.6657
-39.434
-58.949
-24.4544
-42.468
-59.9786
-42.0539
-52.4243
-63.1628
-41.1687
-51.7933
-62.9275
-39.9429
-50.9363
-62.613
-38.2257
-49.7739
-62.1995
-35.8386
-48.2189
-61.6694
-32.623
-46.1702
-61.0107
-44.0851
-53.9175
-63.752
-44.0814
-53.9152
-63.7512
-44.0738
-53.9102
-63.7494
-44.0615
-53.9022
-63.7465
-44.0433
-53.8901
-63.742
-44.0172
-53.8721
-63.7352
-43.9791
-53.8451
-63.7246
-43.9219
-53.8028
-63.7077
-43.8307
-53.7336
-63.6793
-43.6756
-53.6162
-63.6303
-43.3992
-53.4093
-63.5434
-42.9096
-53.0407
-63.3903
)
;
    }
    water_left_surface
    {
        type            calculated;
        value           nonuniform List<scalar> 
42
(
33900.1
33900.1
33900.1
33900.1
33900.1
33900.1
25291.5
25291.5
25291.5
25291.4
25291.4
25291.4
17856.5
17856.5
17856.5
17856.5
17856.4
17856.4
10136.4
10136.4
10136.4
10136.4
10136.4
10136.4
8558.38
8558.28
8558.24
8558.23
8558.22
8558.2
-15507.4
-15507.4
-15507.5
-15507.5
-15507.5
-15507.5
-20139.6
-20140
-20140.1
-20140
-20140
-20140
)
;
    }
    water_right_surface
    {
        type            calculated;
        value           nonuniform List<scalar> 
42
(
-4.79534
-4.79528
-4.79528
-4.79529
-4.7953
-4.7953
-14.6105
-14.6105
-14.6105
-14.6105
-14.6105
-14.6105
-24.4308
-24.4308
-24.4308
-24.4308
-24.4308
-24.4308
-34.2559
-34.2558
-34.2558
-34.2559
-34.2559
-34.2559
-44.0851
-44.085
-44.085
-44.085
-44.0851
-44.0851
-53.9175
-53.9175
-53.9175
-53.9175
-53.9175
-53.9175
-63.752
-63.752
-63.752
-63.752
-63.752
-63.752
)
;
    }
    water_top_surface
    {
        type            calculated;
        value           nonuniform List<scalar> 
180
(
-68570.2
-68570.2
-68570.2
-68570.2
-68570.2
-68570.2
-39114.5
-39114.7
-39114.7
-39114.7
-39114.7
-39115
-117.711
-117.719
-117.718
-117.717
-117.709
-117.702
-123.5
-123.502
-123.501
-123.501
-123.499
-123.496
-76.2699
-76.2687
-76.2688
-76.2688
-76.2688
-76.2685
-68.6707
-68.6707
-68.6707
-68.6707
-68.6707
-68.6707
-68.67
-68.67
-68.67
-68.67
-68.67
-68.67
-68.67
-68.67
-68.67
-68.67
-68.67
-68.67
-68.67
-68.67
-68.67
-68.67
-68.67
-68.67
-68.67
-68.67
-68.67
-68.67
-68.67
-68.67
-68.67
-68.67
-68.67
-68.67
-68.67
-68.67
-68.67
-68.67
-68.67
-68.67
-68.67
-68.67
-68.67
-68.67
-68.67
-68.67
-68.67
-68.67
-68.67
-68.67
-68.67
-68.67
-68.67
-68.67
-68.67
-68.67
-68.67
-68.67
-68.67
-68.67
-68.67
-68.67
-68.67
-68.67
-68.67
-68.67
-68.67
-68.67
-68.67
-68.67
-68.67
-68.67
-68.67
-68.67
-68.67
-68.67
-68.67
-68.67
-68.67
-68.67
-68.67
-68.67
-68.67
-68.67
-68.67
-68.67
-68.67
-68.67
-68.67
-68.67
-68.67
-68.67
-68.67
-68.67
-68.67
-68.67
-68.67
-68.67
-68.67
-68.67
-68.67
-68.67
-68.67
-68.67
-68.67
-68.67
-68.67
-68.67
-68.67
-68.67
-68.67
-68.67
-68.67
-68.67
-68.67
-68.67
-68.67
-68.67
-68.67
-68.67
-68.67
-68.67
-68.67
-68.67
-68.67
-68.67
-68.67
-68.67
-68.67
-68.67
-68.67
-68.67
-68.67
-68.67
-68.67
-68.67
-68.67
-68.67
-68.67
-68.67
-68.67
-68.67
-68.67
-68.67
-68.67
-68.67
-68.67
-68.67
-68.67
-68.67
)
;
    }
}


// ************************************************************************* //
