/*--------------------------------*- C++ -*----------------------------------*\
| =========                 |                                                 |
| \\      /  F ield         | OpenFOAM: The Open Source CFD Toolbox           |
|  \\    /   O peration     | Version:  v1612+                                |
|   \\  /    A nd           | Web:      www.OpenFOAM.com                      |
|    \\/     M anipulation  |                                                 |
\*---------------------------------------------------------------------------*/
FoamFile
{
    version     2.0;
    format      ascii;
    class       surfaceScalarField;
    location    "8.5";
    object      alphaPhi;
}
// * * * * * * * * * * * * * * * * * * * * * * * * * * * * * * * * * * * * * //

dimensions      [0 3 -1 0 0 0 0];

internalField   nonuniform List<scalar> 
2916
(
-0.00420842
0.231772
-0.245015
0.00403914
0.21882
-0.246593
0.0196104
0.212063
-0.24854
0.00854617
0.238845
-0.244247
-0.0140585
0.253248
-0.245058
0.213005
-0.247526
0.000211462
0.400622
-0.138879
-0.00277711
0.389961
-0.137689
-0.009542
0.38527
-0.136067
-0.00531696
0.40175
-0.136423
0.00442571
0.412731
-0.137531
0.381943
-0.134559
0.00362633
0.490317
-0.0596685
-0.000709067
0.485446
-0.0576092
-0.00931738
0.483772
-0.0561054
-0.00433882
0.490289
-0.0599737
0.00857198
0.495641
-0.0620469
0.480802
-0.0568179
0.00225974
0.484131
0.00392814
-5.61833e-05
0.481749
0.00601413
-0.00445589
0.481864
0.00630799
-0.00172275
0.483677
0.00387981
0.00531911
0.485826
0.00277404
0.480677
0.00544542
5.0959e-05
0.460211
0.023869
-0.00023462
0.456023
0.0260127
-0.00140457
0.457409
0.0256266
-0.000897725
0.458702
0.0244693
0.000482002
0.460454
0.023994
0.456712
0.0244481
-0.000733868
0.445266
0.0156804
-0.000154531
0.439362
0.0160817
0.000337235
0.441003
0.0159148
-0.000675203
0.443539
0.0161758
-0.00258307
0.445698
0.016664
0.439807
0.0143227
0.000808339
0.361187
0.00698199
-0.000216531
0.357873
0.00599988
-0.000496886
0.359002
0.00601317
-0.000887816
0.360068
0.00717512
6.91849e-05
0.359016
0.00835928
0.359336
0.00521474
-0.000347242
0.279984
0.0591516
-0.000497486
0.280177
0.0551014
-0.000312166
0.280721
0.0554782
-0.000982736
0.279818
0.0582909
-0.000709671
0.276749
0.0610876
0.282141
0.053289
-0.00299992
0.131966
0.123578
0.000588603
0.13123
0.120355
0.00208377
0.132135
0.121463
0.000896977
0.131661
0.122984
-0.00272172
0.12877
0.123809
0.131793
0.121967
0.00176326
0.0240431
0.0684832
0.000606132
0.0152943
0.107564
-0.00136029
0.0165547
0.112899
0.00175692
0.0225403
0.0684748
0.00481274
0.0242898
0.0653339
0.0114663
0.120018
-0.000784666
0.0212962
0.00158045
0.00162821
0.00488847
0.00478566
0.00344131
0.00584353
0.00534039
0.00220452
0.0199908
0.0017819
-0.000266964
0.0277683
-0.00202996
-0.000556428
0.00737381
0.00691846
0.00827382
-0.0024887
0.00880439
-0.0115842
0.00916191
-0.0055259
0.00808162
0.00946621
0.00701129
0.00560036
-0.001606
0.186443
-2.4819e-05
-0.00603506
0.198318
-1.57382e-05
-0.0113485
0.201849
-1.42309e-05
-0.00604231
0.177014
-2.53757e-05
0.00591826
0.167001
-3.42803e-05
0.195743
-1.64155e-05
-0.0055596
0.330475
-1.60098e-05
0.00307383
0.329306
-6.42842e-06
0.015368
0.326662
-7.86427e-06
0.00648818
0.3327
-1.17732e-05
-0.00726894
0.344102
-1.87713e-05
0.323411
-9.02726e-06
-0.00213989
0.542668
-1.49128e-07
0.00199525
0.543126
-8.4161e-08
0.00730804
0.541177
-1.11118e-07
0.00465608
0.54588
-1.35694e-07
-0.00135826
0.556618
-0.00653081
0.536515
-4.13733e-05
0.000234442
0.797142
-0.0328935
0.000472444
0.798502
-0.0304717
0.000481275
0.799044
-0.0303519
0.000970967
0.797925
-0.0323766
0.00209705
0.801383
-0.0316304
0.793094
-0.0302651
0.00215284
1.01409
-0.0586024
0.000186225
1.01246
-0.0559215
-0.003141
1.01296
-0.0557938
-0.000831693
1.01449
-0.0582793
0.00311806
1.01733
-0.0580814
1.00946
-0.0583908
0.00235067
1.19474
-0.100133
0.000493711
1.19718
-0.100246
-0.00266703
1.1958
-0.0984828
-0.000593973
1.1967
-0.100866
0.00300926
1.19784
-0.0997878
1.19549
-0.102436
0.00435482
1.3337
-0.128265
0.000295967
1.34767
-0.12813
-0.00297433
1.34225
-0.127172
-0.00123329
1.33961
-0.127899
0.00389026
1.33762
-0.127728
1.34203
-0.128464
0.00457912
0.99091
-0.129251
-0.000130981
1.02242
-0.125245
-0.00538029
1.01342
-0.126222
-0.00135736
1.00501
-0.128661
0.00539303
0.997679
-0.127646
1.02152
-0.123391
0.00131468
0.379582
-0.0339383
3.86725e-05
0.745216
-0.039623
-0.00253678
0.80402
-0.0369031
-0.000147095
0.381903
-0.0368391
0.00113079
0.390126
-0.0362152
0.781809
-0.0321015
-0.00493123
0.523735
0.0093264
0.000814056
0.502995
0.00559745
0.00350926
0.495788
0.00688538
-0.00144887
0.523094
0.00913972
-0.00579093
0.532306
0.0088754
0.493299
0.00588575
-0.0129119
0.420664
-0.00108914
0.00193903
0.427244
-0.00200629
0.00926379
0.426664
-0.0023713
-0.00350829
0.420373
-0.00111019
-0.0125583
0.421553
0.000259755
0.416492
-0.00327608
0.0171353
-0.0406234
-0.00625603
-0.0264432
-0.035685
-0.0250624
-0.0085724
-0.0398222
0.0310034
-0.0376358
-0.0261855
1.06991e-07
2.36154e-07
-1.63932e-05
-3.81169e-08
3.13062e-07
-1.23542e-05
-3.05543e-07
3.39999e-07
-1.05932e-05
-2.04997e-07
1.14653e-07
-1.30675e-05
3.32712e-07
3.49027e-08
-1.92096e-05
5.72052e-07
-5.85981e-06
-4.63271e-09
1.52513e-07
-1.04852e-05
2.02184e-08
8.36052e-08
-4.97204e-06
8.23224e-08
1.08993e-07
-6.07199e-06
6.05928e-08
1.39762e-07
-5.82583e-06
-3.70611e-08
3.47275e-07
-6.46256e-06
2.86155e-07
-2.59429e-06
5.29674e-11
3.36225e-09
1.35825e-10
-3.2938e-11
2.42517e-09
3.11629e-10
-1.86156e-10
3.41398e-09
5.28437e-10
7.52957e-11
3.36833e-09
1.65325e-10
4.2131e-05
0.000167622
1.21724e-07
1.79881e-06
3.16817e-08
0.000176172
0.0443102
-7.9054e-11
-0.000210168
0.0447798
-1.84739e-11
-0.000295376
0.0447654
-1.40478e-11
0.00040352
0.0444912
-5.92396e-11
0.0023429
0.0435642
-1.31323e-08
0.0487542
-8.31273e-09
-0.000509431
0.201966
-1.0522e-11
-0.000767414
0.205617
-4.04296e-12
-5.07456e-05
0.205693
-2.44528e-12
-0.000259501
0.202709
-8.28621e-12
-0.00029712
0.199558
-5.86538e-10
0.214124
-3.87981e-10
-0.00346228
0.451651
-5.21022e-06
-0.000558913
0.451542
-4.12974e-06
0.00234217
0.450801
-3.68144e-06
-0.000761498
0.452029
-5.6064e-06
-0.00636096
0.451521
-8.30964e-06
0.454421
-2.85631e-06
-0.00503266
0.629055
-1.575e-05
-0.000136576
0.617054
-2.0217e-05
0.00623844
0.618731
-1.7797e-05
-0.00150387
0.627145
-1.83717e-05
-0.0124133
0.631721
-2.55603e-05
0.611331
-1.83927e-05
0.00538719
0.861088
-3.20076e-06
-4.99776e-06
0.849555
-4.73277e-06
-0.000230356
0.853217
-4.05103e-06
-0.000261966
0.854246
-4.2246e-06
-0.00206719
0.859757
-4.78485e-06
0.840788
-3.17763e-06
0.0103568
0.902668
-8.96026e-08
4.12598e-05
0.937993
-3.20662e-07
-0.00291467
0.919736
-1.69586e-07
0.00696824
0.911967
-3.43643e-07
0.0103738
0.936221
-6.7351e-07
0.915269
-8.40784e-08
-0.0113333
0.336719
0.0726124
0.000973981
0.414465
0.0277602
0.00879499
0.380389
0.0413956
0.00272112
0.341996
0.0721055
-0.00818784
0.383962
0.0653074
0.394017
0.0242491
-0.0136189
0.00606354
-0.0257922
0.000546141
0.0121613
-0.0173774
0.00957709
0.0099448
-0.0207511
-0.00185562
0.00639409
-0.0257051
-0.0111935
0.00903705
-0.0225622
0.0123563
-0.0164127
-0.00120036
0.0123056
-4.91235e-06
-0.00360204
0.0004993
-0.00370996
-0.00157138
0.012474
-0.00186757
0.0120485
-0.00376341
2.77407e-06
-1.77604e-05
-8.15038e-05
4.67284e-08
-5.50625e-06
-4.68173e-05
-3.61236e-06
-3.67738e-06
-3.16601e-05
-1.8178e-06
-9.68362e-06
-6.69393e-05
6.53762e-06
-1.37018e-05
-0.000180945
-1.47005e-06
-2.05036e-05
7.06476e-07
-1.64021e-09
-7.03385e-05
2.83662e-06
-5.07307e-10
-5.27914e-05
5.37952e-06
-5.83983e-10
-7.07126e-05
2.59304e-06
-1.30388e-09
-2.97378e-05
3.73959e-07
-1.14158e-07
-3.66559e-05
-2.1587e-08
-3.63366e-05
-2.06908e-12
3.71537e-11
-1.52777e-09
-1.35935e-12
1.08717e-11
-1.34213e-10
-7.35997e-14
1.24643e-11
-2.85965e-12
-5.83053e-10
3.02471e-11
-5.92777e-10
-1.42282e-09
1.34111e-08
-5.49076e-09
8.72267e-09
-8.15443e-12
-5.06586e-14
4.71561e-12
-3.9505e-11
-2.15751e-14
1.33979e-12
-3.44904e-12
-8.13465e-14
9.31009e-13
-8.30418e-13
-1.20666e-11
3.46425e-12
-1.88022e-11
-2.42637e-12
6.32573e-10
-3.78454e-10
4.17912e-10
-5.77343e-12
-8.72956e-15
1.84014e-12
-1.564e-12
-3.70076e-15
1.06607e-12
-5.55937e-13
-1.47767e-14
8.21442e-13
-3.84388e-13
-2.48195e-13
1.42928e-12
-9.33521e-13
6.21557e-13
5.0819e-11
-3.31676e-12
3.48144e-11
-6.18391e-13
-5.61801e-09
5.6836e-07
-5.77295e-06
-5.05329e-10
4.6486e-07
-4.59971e-06
2.67941e-09
4.1645e-07
-4.10107e-06
-7.86615e-10
6.0896e-07
-6.21189e-06
-3.74304e-09
9.35358e-07
-9.24226e-06
3.1422e-07
-3.17341e-06
-9.76346e-08
3.25951e-06
-1.8171e-05
-4.81276e-09
3.63202e-06
-2.33173e-05
5.92053e-08
3.34336e-06
-2.06404e-05
-2.77957e-08
3.59642e-06
-2.10887e-05
-9.96821e-08
4.60929e-06
-2.89405e-05
2.48233e-06
-2.05434e-05
1.18529e-08
1.75656e-06
-1.63805e-06
-2.48439e-09
2.04528e-06
-3.07634e-06
6.09243e-09
1.82582e-06
-2.49542e-06
-6.61389e-09
2.0143e-06
-2.54132e-06
-2.10881e-08
2.39554e-06
-2.43537e-06
1.50104e-06
-2.15925e-06
6.09325e-08
9.8033e-07
4.24517e-07
-6.20335e-09
1.23588e-06
3.60203e-07
-4.02003e-08
1.11748e-06
3.8129e-07
1.94294e-08
1.06446e-06
3.91412e-07
8.58421e-08
1.15865e-06
3.81642e-07
1.05218e-06
3.35599e-07
0.0006158
0.0325037
-0.00029986
-0.000242067
0.0389026
0.000821022
-0.000298556
0.0396341
0.000595047
0.00228093
0.0338918
0.000305167
0.00412671
0.0332119
-0.00018432
0.0401771
0.000557591
-0.0011408
-0.00723233
0.0013434
-8.89026e-05
-0.00257159
-0.000216796
0.000587449
-0.0043544
-9.38805e-06
0.000157437
-0.00659028
0.00173448
-0.000228314
-0.0067053
0.0019113
-0.000846024
-0.000453255
-0.00358728
0.00306606
8.58156e-05
0.00375971
0.00202698
0.00357635
-0.0013765
0.00291949
-0.00537286
0.00226076
0.00391726
0.00473753
0.0601474
-0.0649156
-0.0197522
0.041576
-0.0171252
0.0199245
0.0461923
-0.0858999
0.0193939
0.040393
-0.039891
-0.00242246
0.0210694
4.86322e-05
0.0495359
-0.0519884
0.0105183
0.108917
-0.0593266
-0.0134338
0.0689841
-0.00349835
0.0485377
0.0398147
-0.0556994
0.059033
0.0385742
-0.00869691
-0.000536189
0.0613147
0.0193106
0.105662
-0.0566831
0.045653
0.110538
-0.0473163
0.0449859
0.0700007
-0.000393391
0.051203
0.0287933
-0.00961446
0.0105533
0.0673687
0.0118584
-0.0327627
0.0933154
0.0113115
0.125413
-0.0525277
0.0875919
0.0554981
-0.0325878
0.0797955
0.0127851
0.0196871
0.01868
4.54237e-05
0.0485296
-0.00196125
0.0200873
0.0529925
-0.0325096
0.0796423
0.0157311
0.122909
-0.030017
0.030819
-0.0041789
-0.00413071
0.0100775
-0.0328468
0.035432
0.013267
-0.0298173
0.0427587
0.0113266
-0.0151551
0.0413344
-0.00209622
0.00381802
0.0456012
9.49367e-05
0.0519255
0.0257706
-0.0531174
0.0187803
0.029735
-0.0506637
0.0224636
0.00324277
-0.0418053
0.0149233
-0.0388226
-0.00859823
0.0194806
-0.0172918
-0.0489771
0.0240804
-0.0348121
0.0266591
0.00754961
-0.0745767
0.0136562
0.00961594
-0.0806187
0.00966117
0.00386829
-0.0534405
0.0114484
-0.00266488
-0.00350285
0.0145478
-0.0058137
-0.0287532
0.0134465
-0.0557486
0.00930061
0.00333799
-0.0816021
0.00312297
0.00408192
-0.0916007
-0.000359537
0.00282216
-0.0641574
0.00394287
0.000124876
-0.00556264
0.0067931
-0.00454726
-0.0337194
0.00815584
-0.059222
-0.000339934
-0.00956348
-0.0469466
0.000233742
0.00267976
-0.10301
-0.0111265
0.00128576
-0.0640247
-0.000627551
-0.000536649
-0.0145548
0.00555646
-0.00756794
-0.0270377
0.0028379
-0.0536592
-5.70987e-05
-0.00475899
-0.0314125
0.00217374
-0.0102521
-0.0430887
-0.00437211
-0.0194683
-0.0568419
-0.000248386
-0.00826015
-0.032612
0.000281421
-0.00785682
-0.019129
-0.00149087
-0.046796
-0.00133595
-0.000200907
-0.0159789
-0.0073532
-0.00522256
-0.0148322
0.000384032
-0.0173917
-0.026748
-0.0021491
-0.015814
-0.0300358
-0.0046676
0.00753348
-0.0236311
-0.0145662
-0.0241886
-0.00168977
-0.00117289
-0.00591437
-0.000483035
-0.00713231
-0.00705185
-0.0093915
-0.00292291
-0.0210632
0.00705796
-0.0203076
-0.00374655
-0.0265228
0.050624
-0.0890772
-0.0536923
0.0628609
-0.0528509
-0.0237809
0.0519006
-0.167812
0.0154957
0.0483387
-0.127493
0.00837659
0.0412113
-0.0331252
0.0517183
-0.0953408
-0.0451636
0.0965973
-0.0410181
-0.036273
0.109538
-0.0591137
-0.0159624
0.0676296
-0.076883
0.0266802
0.0671969
-0.0701999
0.026881
0.0978265
-0.0375304
0.120078
-0.0981978
-0.0381004
0.141665
-0.0345625
-0.0098296
0.13724
-0.05641
0.0123003
0.0845674
-0.0481188
-0.00481405
0.106851
-0.0107985
0.0153962
0.129922
-0.0410045
0.153873
-0.0709453
-0.00259612
0.167853
-0.0562106
0.0211454
0.166404
-0.0324371
0.0152242
0.0376424
0.0568621
-0.0334707
0.067776
0.0593821
-0.00951737
0.159774
-0.0373889
0.162881
-0.0485539
0.0443415
0.172864
-0.0536006
0.0246386
0.0570202
0.0239995
-0.014339
0.0261312
0.0549327
-0.0174378
0.0050076
0.0777914
-0.0119627
0.0145192
0.0743188
0.0357969
0.0328462
0.0310815
0.0206411
-0.0182142
0.00578348
0.00285968
0.0278349
-0.0169407
0.0150451
0.0109244
-0.0168075
-0.00464013
0.00449129
0.00429387
-0.0122421
0.0153338
-0.000567191
0.0254378
0.00773508
0.000559772
0.00055557
0.00188192
0.00339156
0.00293483
-0.00655825
0.000965994
9.96942e-05
-0.00119898
-0.0134058
0.00484002
0.00338908
-0.0124727
0.00110833
0.000813219
-0.000376983
0.00242457
-0.00597062
-2.60607e-06
0.000814793
0.000920145
8.82363e-05
8.39197e-05
0.000357934
-0.000435968
0.000718525
-0.00730271
0.00323188
0.000895292
-0.00319021
0.000136282
0.000419106
-7.1721e-06
0.00833851
-0.0115584
-0.000667308
0.000765162
6.94976e-05
-5.31703e-06
0.000116007
0.000165707
-1.73187e-05
0.000253041
-0.000748183
0.000100249
-4.16855e-05
-0.000121074
5.81604e-05
7.35398e-05
-3.74735e-05
0.00346293
-0.00449337
-6.92689e-05
9.79847e-05
-0.000997331
3.23477e-05
1.11589e-05
-8.01253e-06
5.28796e-06
-2.67394e-05
-4.58367e-05
-2.46447e-05
-0.0011034
-0.000268891
-0.000122866
-0.00162618
-0.000413462
-0.000690896
-0.00529621
-0.000206135
-7.75287e-05
-0.00481584
-9.77641e-07
-8.89702e-06
-0.00212257
-0.000112243
-3.08266e-06
-0.000514606
-0.00426626
0.000472089
-0.000516428
-0.0147846
-0.00183363
-0.000260694
0.00185411
-0.00931119
0.00024608
-0.0114502
0.000230807
-0.0155208
-4.34117e-06
-0.0220389
-0.00209621
-0.0187673
-0.00687183
-0.0491374
0.00943831
-6.75794e-09
-0.0392005
0.0146463
-6.35401e-08
-0.0349375
0.000369671
-6.16344e-06
-0.0124245
0.00577143
-6.32726e-07
0.0775282
0.0219489
-3.5521e-07
0.0176386
-5.70195e-07
-0.0293998
0.00866145
0.00010185
-0.00485929
0.0164796
-8.96965e-06
-0.0144165
0.00819452
-2.96367e-07
-0.00261287
0.0301542
-1.40509e-07
0.0797815
0.052795
-2.53014e-06
0.033476
-1.03735e-06
-0.0290714
0.0155866
-3.35683e-05
-0.0150764
0.0462914
-3.86488e-05
-0.0160715
0.0927668
-1.18527e-06
0.0600225
0.108075
-6.35329e-07
0.078259
0.148323
-1.01748e-05
0.0627811
-0.000566399
-0.0148755
0.0570982
-2.99066e-05
-0.0215066
0.148811
-0.00596526
0.0345434
0.132055
-0.0290214
0.0731826
0.15424
-0.0198593
0.0872692
0.166923
-0.0691132
0.116462
0.000637919
-0.0248921
0.0954381
-0.00541396
0.0197452
0.0968995
-0.0499481
0.00833372
0.00989053
0.0532298
-0.00170993
0.0489452
0.0695814
0.0206942
0.0913354
0.00316847
0.0875691
0.0118634
0.00283025
0.0616017
-0.0157483
0.0124574
0.051302
0.00326976
-0.00221536
0.00236898
0.0113936
-0.00192167
0.00126677
0.0145111
0.00430774
0.000294176
0.0177229
0.00188243
0.0269197
0.000666889
0.000766502
-0.000263806
-0.000333874
0.000663312
0.00661545
-0.00122989
0.000702394
0.00153888
-3.39533e-05
0.0002155
0.00144767
0.000307437
9.27372e-05
0.000764861
0.000311421
0.00117854
-0.000217728
0.000753923
9.67386e-05
-0.000269749
0.000163268
0.000441589
-0.00126538
0.000369668
5.37207e-05
-7.08919e-05
-0.000116543
0.000204721
2.59527e-06
-1.53268e-06
1.34664e-05
8.26926e-05
4.61868e-05
-1.53729e-05
8.31767e-05
1.61385e-06
-1.20248e-05
0.000116328
1.05021e-05
-1.50747e-05
0.000113122
3.17137e-05
-4.00926e-05
-6.89983e-07
4.06593e-06
-6.88823e-05
-2.31838e-05
5.48028e-06
4.32766e-05
0.000147723
-9.81476e-07
5.81483e-06
3.4858e-07
6.05897e-06
0.000126861
3.061e-06
5.23449e-06
0.00011267
4.68167e-06
2.61231e-06
-5.54646e-05
3.21997e-05
5.65011e-05
2.22678e-05
-2.72267e-05
8.29452e-05
-9.08669e-05
-0.000233036
2.52064e-05
5.28869e-06
0.000230023
-0.000716056
0.000641888
0.00090858
-0.00148948
0.000713392
0.00203037
-0.00263749
-0.00113609
0.00100295
-0.00483169
-0.00900318
1.9001e-05
0.000116756
0.00291256
-0.0111644
0.00765184
-0.0108667
0.00652875
-0.0141383
0.000363203
-0.0176016
-0.00463738
-0.0173027
-0.0101832
-1.30819e-08
1.33899e-08
-8.3842e-08
-1.19955e-07
7.47842e-09
-2.87418e-08
-3.24609e-08
3.41228e-09
-6.25765e-06
-1.41458e-08
5.91377e-10
-6.2417e-07
3.47231e-08
8.82849e-09
-4.66947e-07
2.35532e-08
-1.15078e-08
-2.01e-08
0.000118276
-1.6456e-05
-4.70696e-09
1.32765e-07
-9.11365e-06
-1.30323e-09
2.26276e-08
-2.91524e-07
5.45863e-09
5.25271e-09
-1.23547e-07
4.24631e-08
4.26028e-08
-2.57345e-06
7.83767e-08
-6.79809e-07
-5.6401e-08
0.00015111
-6.63977e-05
-1.11856e-08
5.59657e-07
-3.91076e-05
6.3788e-09
7.94541e-08
-1.23252e-06
3.23979e-08
4.50311e-08
-6.73664e-07
1.49222e-07
3.82596e-07
-1.05991e-05
0.00472232
3.77493e-05
-2.95808e-05
2.56085e-05
-2.36707e-05
-0.00635622
0.000498973
-0.000137015
-0.00238579
0.0307727
-1.09331e-05
0.0299325
0.1015
-1.87958e-06
0.00434091
0.0320541
-8.8985e-05
0.005172
0.000108613
-0.00537704
0.000287384
-0.000265641
-0.00444374
0.0437026
-0.00166076
0.0280108
0.0936953
-0.0148606
0.0374879
0.0887297
-0.00282484
0.00483146
0.0629302
-0.00644057
0.0195065
0.00024841
-0.0097855
0.00368367
-0.000545857
-0.00696465
0.0653161
-0.0128293
0.000691849
0.00632457
0.0281982
0.00661932
0.000837831
0.0288852
0.00435511
0.00177178
0.0157378
0.0120802
0.000611601
-0.00841964
0.00400997
0.000686676
-0.00446977
0.00126403
0.00732993
-0.000662266
0.000152194
0.00375299
-8.9162e-05
-6.53095e-05
0.00167248
2.41844e-05
0.000124589
0.00170072
-0.00043779
0.00283988
-0.000678599
-5.00741e-06
0.000661984
-0.000171991
0.000126713
0.000946572
-9.9291e-05
-1.182e-05
0.000133609
-1.45843e-05
2.60005e-06
4.66301e-05
-1.34335e-05
1.71414e-06
5.3513e-05
-5.06131e-06
9.07333e-05
-5.1511e-05
9.76861e-06
2.93588e-05
-1.00645e-05
2.15524e-05
6.51474e-05
-3.07318e-06
4.37337e-06
3.80803e-06
-2.8699e-06
8.91026e-07
2.16748e-06
-0.000180905
6.39691e-06
2.35175e-05
-1.5052e-05
9.73751e-05
-1.64495e-07
4.17303e-06
1.73637e-06
-5.04487e-08
1.76664e-05
4.94544e-06
-4.23879e-07
6.95733e-06
1.20112e-06
-9.51456e-06
3.94239e-05
1.82654e-06
-1.40784e-07
-2.78667e-05
-2.41628e-06
8.97708e-06
-4.22986e-06
1.00248e-06
1.07671e-05
-5.63035e-06
2.40953e-05
0.000619
1.51854e-05
4.89683e-05
0.000661442
3.21152e-05
0.00098572
-0.000276688
0.000102157
-5.31751e-06
-0.00783798
-0.000513278
0.000108971
-5.25188e-07
0.00282513
-0.0147602
0.00539162
-0.0129559
0.00699174
-0.0124495
0.00405787
-0.0138226
-0.00496293
-0.014998
-0.0150412
1.31023e-05
6.48468e-05
-0.000281766
5.10095e-06
8.90915e-05
-0.000179832
-7.83087e-06
8.85582e-05
-0.000157958
-9.45673e-06
7.33172e-05
-0.000154991
1.85679e-05
1.38169e-05
-4.86166e-05
0.000134454
-0.00015727
-1.10525e-05
0.000284964
-3.15424e-05
1.65242e-06
0.000180438
-4.86613e-05
2.0734e-05
0.000141516
-6.43087e-05
2.65434e-06
0.000293152
-2.75847e-05
-3.5352e-05
0.000263991
-3.85851e-05
0.000318518
-0.000108213
-4.67431e-05
-2.40484e-20
-2.41642e-06
-4.16325e-21
6.78174e-05
-3.95124e-19
3.96069e-05
-4.94497e-20
-1.90766e-05
-1.76287e-18
-2.53602e-21
-5.09647e-06
-0.000126403
-6.32743e-08
2.06475e-06
-7.6952e-05
-5.35076e-09
1.48615e-05
-8.43458e-05
-1.18021e-10
6.74435e-07
-2.6609e-05
-2.42909e-08
-1.45034e-05
-8.57069e-05
-1.34342e-07
-7.84215e-05
-4.2735e-10
-1.35919e-06
-5.34715e-21
6.73303e-08
-3.11503e-06
-8.50457e-22
3.01087e-09
3.94696e-06
-3.64197e-19
-6.60999e-10
4.71979e-07
-2.80536e-21
2.59175e-08
-4.99558e-06
-8.48653e-19
1.49782e-07
-4.16529e-22
-9.69082e-09
-3.48987e-24
-2.93921e-20
-8.12719e-22
-4.20447e-21
5.35482e-22
-7.6067e-19
2.34972e-23
-5.17431e-20
-6.20286e-24
-2.12281e-18
-2.95875e-21
3.13077e-11
-6.44736e-08
-2.38476e-10
-1.01523e-13
-5.4234e-09
-1.85966e-11
-9.41673e-11
-2.5688e-11
-2.59635e-13
-3.42607e-10
-2.45221e-08
-9.68227e-11
7.51158e-11
-1.39644e-07
-5.65535e-10
-3.58743e-10
1.0141e-12
2.53053e-09
-1.84858e-17
3.26719e-10
9.1234e-11
-3.29242e-18
2.4024e-11
-5.95335e-10
-5.97407e-17
-1.18042e-13
6.89785e-10
-3.44132e-17
1.10284e-10
1.00441e-08
-1.24423e-15
9.24469e-10
-9.18874e-19
-5.46661e-12
3.92115e-21
-1.85182e-17
2.06833e-22
-3.2794e-18
1.30849e-19
-4.19324e-18
9.89425e-21
-3.43426e-17
3.30256e-19
-1.24681e-15
-2.43746e-19
-5.09623e-15
-2.42022e-10
1.4873e-11
-2.8818e-15
-2.10302e-11
1.18965e-12
-1.96229e-13
-1.27855e-13
1.87606e-13
-1.5193e-12
-7.95975e-11
6.77887e-12
-2.07329e-15
-7.58224e-10
2.97211e-11
-1.40839e-12
2.69822e-13
3.89233e-12
-1.73628e-14
8.04574e-11
-1.40876e-16
-1.73938e-15
6.89736e-12
-3.22139e-13
-3.27806e-16
8.55246e-14
-5.48998e-13
-2.48619e-14
3.09755e-11
7.46116e-12
-7.87867e-13
1.59576e-10
-6.6291e-17
5.86278e-13
2.79739e-19
-1.67111e-14
-6.25361e-19
-2.37379e-15
6.83541e-19
-5.31553e-16
-3.35181e-17
-1.11221e-14
-1.2194e-19
-5.35542e-13
8.05772e-20
8.7462e-16
-6.3886e-12
2.23747e-11
-9.93442e-16
-1.22916e-12
3.8276e-12
-1.47425e-14
-5.64405e-13
2.01675e-12
-2.72536e-14
-3.47053e-12
1.12788e-11
2.5149e-14
-2.52607e-11
5.47646e-11
-5.28489e-13
3.45976e-12
8.69568e-14
-2.55754e-11
1.03152e-10
-2.92939e-17
-8.88932e-12
1.65891e-11
-5.25589e-14
-7.35337e-12
7.70019e-12
-3.3013e-14
-2.67719e-11
5.62019e-11
7.83672e-13
-3.03493e-10
4.38619e-10
-2.29702e-12
4.76575e-12
9.58879e-14
-2.56917e-11
-5.00977e-15
-8.79138e-12
-3.33101e-14
-7.3261e-12
-1.02435e-13
-2.67219e-11
4.00619e-12
-3.07901e-10
1.01463e-12
-6.59664e-08
-6.62894e-06
6.2244e-06
7.34572e-09
-5.72334e-06
5.72129e-06
6.87428e-08
-5.0418e-06
5.22996e-06
2.65829e-08
-7.18016e-06
6.62283e-06
-1.35961e-07
-1.1752e-05
9.21948e-06
-3.70572e-06
3.74034e-06
6.4685e-08
-1.43647e-07
-5.32929e-07
8.54645e-09
-6.7719e-08
7.03028e-08
-4.00966e-08
-5.83641e-08
3.12577e-07
1.12301e-07
-1.4871e-07
-7.10023e-07
3.47863e-07
-9.47343e-07
-2.51563e-06
-2.91944e-08
7.74494e-07
1.52706e-10
-1.43825e-07
-1.66708e-12
-6.75736e-08
-1.72582e-10
-5.82005e-08
2.87533e-11
-1.48938e-07
5.06847e-09
-9.52691e-07
-2.4126e-08
-9.63945e-07
-3.28634e-05
1.47692e-05
1.50089e-07
-3.28428e-05
1.31709e-05
1.55119e-06
-3.16146e-05
1.25749e-05
-1.68099e-07
-3.49222e-05
1.61611e-05
-4.50454e-06
-4.30752e-05
1.95506e-05
-2.2948e-05
8.42066e-06
9.10308e-07
-9.18723e-06
-5.87352e-06
5.8038e-07
-6.25955e-06
-5.14672e-06
9.68533e-07
-5.59809e-06
-5.04737e-06
4.65195e-07
-9.39065e-06
-5.80315e-06
-1.36573e-06
-1.93281e-05
-5.64579e-06
-2.92772e-06
-1.4111e-06
4.39831e-08
-9.37504e-06
1.72128e-09
-6.28493e-06
-2.26013e-08
-5.63196e-06
1.16944e-08
-9.57388e-06
5.4783e-07
-1.36555e-05
-2.40414e-06
1.46779e-07
-1.3797e-05
8.11049e-06
1.07996e-07
-1.25173e-05
1.06731e-05
3.63e-07
-1.16519e-05
9.21005e-06
-9.03384e-08
-1.94873e-05
1.21823e-05
-1.01006e-06
-9.56626e-06
1.0944e-05
-9.18678e-06
6.70333e-06
3.27963e-06
-1.51885e-05
1.97378e-06
5.07362e-07
-2.75293e-05
-8.13114e-08
9.08523e-07
-2.56729e-05
-3.49808e-07
7.51419e-07
-1.21108e-05
1.90298e-06
-3.7954e-06
-1.41133e-05
-6.23346e-07
-1.60064e-05
-1.33485e-07
2.28043e-06
-9.80539e-06
1.64039e-07
-7.19834e-06
-3.9904e-07
-7.22018e-06
7.95017e-07
-5.17527e-06
1.15356e-06
-1.31561e-05
-3.67688e-06
1.34131e-07
1.06277e-06
7.13413e-06
2.81976e-09
9.80553e-07
9.97665e-06
-7.10319e-08
9.64163e-07
8.50288e-06
1.74653e-08
1.1781e-06
1.11122e-05
1.21971e-07
1.21497e-06
9.85186e-06
7.04544e-07
6.33907e-06
1.81153e-06
6.37228e-05
-3.11875e-05
-3.59816e-08
1.68559e-05
2.65201e-06
-2.76927e-07
2.45101e-05
-1.46724e-06
3.5851e-07
4.53039e-05
-9.03595e-06
3.73869e-07
2.56749e-05
-4.22311e-06
1.06822e-05
9.88509e-07
1.93306e-06
-4.40281e-05
-1.52008e-07
-1.17429e-05
3.1319e-07
-1.9147e-05
6.80879e-07
-2.25872e-05
-4.99654e-07
-1.00087e-05
-3.43618e-06
0.000109588
4.90726e-05
-0.000452212
-2.388e-05
5.59417e-05
0.000907903
7.23262e-06
4.89084e-05
0.000522943
0.000390362
1.85103e-05
-8.55202e-05
0.000461976
-0.000153239
-9.36816e-05
1.70832e-05
0.00100847
-4.80188e-07
0.000224439
-0.000163449
-1.21929e-06
7.7118e-05
-9.25261e-06
1.141e-05
0.000108298
-5.66046e-05
3.14562e-05
0.0001497
-0.000134353
1.278e-05
6.77205e-05
-0.000191126
4.03539e-05
-1.04986e-07
-1.33269e-06
-6.23566e-05
-1.51798e-07
-4.07387e-05
3.06661e-06
-4.63007e-05
1.70839e-06
-7.67755e-05
-9.64031e-07
-9.66656e-05
-2.80317e-05
-0.000152208
0.00173211
-0.00210851
-4.34629e-05
0.00102305
-0.000562657
4.21085e-05
0.0011999
-0.00126052
9.38179e-05
0.00202653
-0.0021252
-1.89851e-05
0.00232559
-0.00218898
0.000470517
-0.000402737
-0.000134561
0.000444075
-0.000655094
-4.43305e-06
0.000433445
-0.000375573
5.95122e-05
0.000394433
-0.000544239
-4.29984e-05
0.000661454
-0.000836266
-0.000163511
0.000899071
-0.000929693
0.000299092
-0.000270444
-9.58227e-06
-5.92443e-07
4.07333e-07
-1.09457e-06
4.45472e-06
-1.14465e-06
-8.43161e-06
-8.63145e-07
-1.9585e-05
-1.25567e-06
-1.24654e-07
-0.00259982
0.00807074
-0.0152629
0.000498026
0.00953423
-0.0142934
-4.33157e-05
0.00868232
-0.0148295
-0.00254549
0.00877055
-0.015218
-0.0039836
0.00906896
-0.0153425
0.0102246
-0.014097
-0.0002229
1.04952e-06
0.000132685
5.50479e-05
3.24769e-06
0.000183114
-1.0722e-05
2.004e-06
0.000179091
-0.000230492
1.42824e-06
0.00013836
-0.000551419
4.71081e-07
0.000149109
5.28167e-06
0.000179909
-3.88928e-07
8.46109e-07
2.31394e-07
1.53371e-06
-3.4984e-08
1.12566e-06
-5.28747e-07
1.05857e-06
-2.53829e-06
1.2257e-06
2.61973e-06
0.00123464
-1.86225e-08
-0.00962943
0.0129002
0.000749155
-7.43835e-08
-0.00957753
0.0142355
-0.000415698
-5.79473e-06
-0.00904687
0.0139478
-0.000840028
-9.42877e-08
-0.0093431
0.0138863
-0.000776227
-1.8282e-08
-0.00965278
0.0138987
-3.51528e-09
-0.00958402
0.0130222
-2.99932e-11
-1.38392e-08
-5.43601e-14
-4.75388e-09
-1.19956e-08
-1.63932e-08
-7.62938e-14
-4.60395e-08
-2.60409e-10
-1.08627e-07
1.71514e-08
-5.71912e-06
-2.97995e-11
-8.4141e-09
4.19373e-10
-8.65984e-08
-3.39992e-12
-2.0347e-10
1.02521e-10
-1.82132e-08
-1.51394e-11
1.69396e-11
-3.52437e-09
-6.18963e-10
2.55367e-11
-1.32457e-08
-8.72314e-10
3.63731e-11
-1.61762e-08
3.5523e-09
2.42884e-10
-1.13294e-07
5.57225e-10
5.7336e-12
-3.36361e-08
2.99947e-12
8.51094e-13
1.02509e-10
4.55322e-14
-1.23377e-11
-0.000102259
-2.5755e-11
-0.00476844
-0.000181497
-9.21614e-11
-0.00480182
5.62446e-05
-1.7322e-08
-0.00481614
5.68633e-05
-4.39481e-10
-0.00483125
-6.19279e-05
-9.96416e-11
-0.00480328
-1.66331e-11
-0.00477697
-1.68013e-13
-2.5535e-11
-4.5328e-14
-5.70425e-11
-3.53632e-11
-5.87835e-25
-1.05772e-12
-2.26377e-10
-2.02322e-22
-1.43278e-13
-2.27631e-11
-1.95284e-20
-4.58454e-15
-8.4812e-13
3.92111e-14
-4.95974e-14
1.13068e-14
-7.06291e-14
1.18133e-28
8.92095e-13
1.08026e-28
1.73846e-11
6.07799e-29
2.77946e-13
1.4593e-28
5.4637e-15
4.1765e-28
1.78606e-28
1.88084e-07
-7.68236e-14
-4.49589e-05
2.97257e-05
-2.08785e-22
-0.000106886
5.60546e-05
-1.29468e-19
-0.000111663
2.75378e-05
-6.4371e-17
-8.63156e-05
-1.16175e-05
-3.91466e-14
-6.96551e-05
-1.12962e-14
-0.000108225
-1.52482e-25
6.92709e-28
1.19215e-30
-2.09526e-22
6.77661e-28
1.14782e-30
-1.2988e-19
7.32412e-28
7.7732e-31
-6.45204e-17
6.47815e-28
1.11941e-30
-1.00503e-17
1.10389e-27
7.69089e-31
4.29116e-28
3.29612e-31
-3.10007e-29
-1.33723e-29
-5.49246e-29
-1.27677e-29
-9.89686e-29
-1.9779e-29
-7.95487e-29
2.99641e-29
-5.73923e-29
1.05302e-28
8.65649e-29
-5.6555e-05
3.72498e-30
0.00426087
-6.0803e-05
4.22379e-30
0.00423804
-5.08227e-05
4.61722e-30
0.00423301
-6.23048e-05
1.31014e-29
0.00423979
-8.06361e-05
1.99353e-29
0.00422365
1.33234e-29
0.00420884
4.47217e-31
7.13266e-28
-3.85332e-31
6.67427e-31
8.00064e-28
-3.66978e-31
1.5188e-30
8.6966e-28
-4.72516e-31
1.76712e-30
8.2418e-28
-2.37066e-30
5.86803e-31
9.42701e-28
-4.1548e-30
6.24202e-28
-2.74875e-30
-1.17748e-29
-1.14891e-28
-3.64824e-29
-1.17178e-28
-5.96016e-29
-1.29614e-28
-6.26078e-29
-8.49315e-29
-3.81541e-29
-6.5142e-29
-2.99119e-29
-0.000105622
-2.45605e-07
0.00989162
-6.7066e-05
-4.72745e-07
0.00962904
-5.56709e-05
-4.6721e-07
0.00985474
-8.93688e-05
-2.65221e-07
0.00982973
-0.000137484
-3.34961e-07
0.00975205
-4.27672e-07
0.00941104
-2.35763e-10
-1.14787e-09
-2.44222e-07
-1.71305e-10
-2.2919e-09
-4.70518e-07
-7.03848e-11
-1.91291e-09
-4.65398e-07
-1.55262e-10
-1.44335e-09
-2.63693e-07
-1.02862e-10
-1.84059e-09
-3.33173e-07
-2.90332e-09
-4.24872e-07
1.01804e-12
-1.14889e-09
6.36178e-12
-2.29725e-09
-1.1107e-13
-1.90644e-09
-9.4305e-13
-1.44252e-09
-1.51678e-12
-1.84001e-09
-4.53099e-09
-0.00012653
-0.000133318
4.61506e-05
-0.000184183
0.000162238
-0.000179676
0.00010753
-0.00013926
-0.000170345
-0.000150104
-0.000181677
2.98301e-09
-8.4515e-07
2.94504e-08
-1.53119e-06
1.326e-07
-1.12599e-06
7.10478e-08
-1.0574e-06
2.13856e-08
-1.22574e-06
-2.13178e-06
-1.88812e-10
3.21598e-11
-2.20207e-09
-2.47464e-09
-4.35189e-09
3.24962e-07
-1.83838e-06
6.55955e-08
3.06576e-07
-1.92676e-07
1.04436e-07
2.73371e-06
-2.57252e-05
5.47028e-08
-3.12657e-09
-1.14484e-06
-5.29555e-09
-7.15539e-08
-1.72755e-06
6.49902e-10
-1.78965e-06
1.79592e-07
8.41782e-07
-6.45422e-17
-3.87914e-06
7.72854e-08
-3.24894e-08
-8.315e-09
2.56631e-06
-7.78523e-10
-1.12267e-08
-4.97109e-07
-1.95274e-10
-7.44278e-09
-1.45622e-06
-5.57349e-18
-9.68672e-07
-2.33512e-15
-1.86111e-06
1.37692e-19
-6.46799e-17
-7.66738e-11
2.28514e-10
-4.2553e-13
-5.97209e-09
-6.49565e-21
-1.957e-10
-5.58076e-18
7.82076e-22
-2.3407e-15
5.67288e-06
-5.14724e-05
2.00929e-05
8.28308e-08
-8.18721e-06
2.8472e-06
3.37126e-08
-1.8335e-07
2.43095e-08
2.33573e-09
-7.47456e-08
1.42407e-09
-3.92575e-07
-1.29376e-05
-8.02303e-07
-1.94648e-05
2.32654e-06
4.38324e-06
-1.5985e-13
-1.20137e-05
-4.49491e-08
-2.49593e-10
-9.92276e-07
-4.86259e-09
-1.11838e-07
-1.46667e-08
6.58087e-08
-2.56991e-08
-9.82577e-08
-3.48408e-06
-2.01862e-11
-5.06667e-06
-1.71048e-12
-1.00752e-05
2.72382e-16
-1.60187e-13
8.79658e-14
-2.11664e-11
-1.95326e-09
-2.22444e-08
-4.21739e-14
2.54816e-10
-4.06653e-15
-2.02243e-11
-1.71689e-12
2.92081e-05
-3.82299e-05
8.36419e-05
1.30506e-06
-2.57528e-05
8.70895e-06
-8.85533e-08
-3.21219e-07
5.51123e-07
-6.05306e-08
-7.46879e-07
1.31762e-07
-1.02677e-05
-1.57791e-05
3.3209e-07
-2.55465e-05
4.80222e-05