/*--------------------------------*- C++ -*----------------------------------*\
| =========                 |                                                 |
| \\      /  F ield         | OpenFOAM: The Open Source CFD Toolbox           |
|  \\    /   O peration     | Version:  v1612+                                |
|   \\  /    A nd           | Web:      www.OpenFOAM.com                      |
|    \\/     M anipulation  |                                                 |
\*---------------------------------------------------------------------------*/
FoamFile
{
    version     2.0;
    format      ascii;
    class       volScalarField;
    location    "8.5";
    object      p;
}
// * * * * * * * * * * * * * * * * * * * * * * * * * * * * * * * * * * * * * //

dimensions      [1 -1 -2 0 0 0 0];

internalField   nonuniform List<scalar> 
1116
(
9245.9
9241.25
9242.19
9233.21
9232.76
9232.54
9611.69
9581.96
9582.32
9610.19
9645.06
9579.04
10624.7
10612.3
10609.7
10618.3
10630.8
10605.3
12158.5
12159.2
12158.4
12156.9
12157.7
12156.8
13436.4
13437.6
13438.1
13437.8
13437.9
13440.4
14144.3
14143.9
14144.8
14147.3
14147.7
14147.8
14300.1
14296.2
14298.2
14302.5
14305.6
14297.3
13835.8
13840.2
13841.8
13838.5
13839.8
13847
12009.2
12040.5
12041.2
12022.9
12018.3
12049.1
9487.01
9504.98
9507.7
9498.87
9511.13
9529.39
7831.38
7856.76
7850.22
7839.12
7821.53
7877.21
6587.89
6630.63
6630.97
6585.78
6579.42
6603.38
2245.51
2263.96
2277.1
2236.76
2208.43
2272.03
2107.26
2055.16
2029.67
2106.58
2126.61
2035.69
2672.9
2623.5
2603.5
2677.46
2710.04
2614.57
3954.7
3943.81
3941.15
3956.54
3965.24
3937.86
5220.84
5220.05
5224.59
5221.35
5218.87
5229.47
6043.51
6045.02
6046.72
6047.01
6046.78
6057.47
6139.44
6146.81
6148.86
6139.15
6142.52
6153.18
5443.06
5480
5478.91
5446.6
5446.15
5495.42
4413.38
4446.73
4445.55
4419.86
4404.09
4486.08
3550.27
3544.57
3543.59
3556.07
3555.27
3552.13
2913.85
2950.1
2932.73
2925.59
2958.72
2952.08
2024.89
2016.79
2012.04
2059.16
2108.89
2042.02
-27.9544
-27.6517
-27.4982
-27.2888
-27.4039
-26.8327
-21.4568
-20.9147
-21.3284
-22.1717
-22.8967
-21.3026
20.6663
20.7346
20.5239
21.2198
21.1228
20.1464
126.899
126.363
125.558
127.458
128.149
124.784
415.084
415.655
417.208
416.138
414.431
422.601
839.46
845.874
845.853
845.115
838.641
859.363
956.679
965.468
966.457
958.655
957.939
972.437
977.682
966.29
977.993
965.53
965.044
978.05
1367.7
1336.3
1349.75
1354.72
1347.07
1356.15
1505.09
1463.36
1460.52
1545.41
1531.46
1453.29
912.712
932.1
920.263
932.555
958.931
928.182
753.616
758.843
758.873
760.979
767.801
765.975
-26.6967
-26.5539
-26.8845
-26.5517
-26.4977
-26.6938
-26.174
-26.0543
-26.0951
-26.3321
-26.326
-25.7968
-16.4166
-16.5524
-16.7001
-16.2623
-16.5358
-16.4399
-21.456
-21.3498
-21.5801
-21.826
-22.1069
-22.1666
-27.8157
-27.8753
-28.0215
-28.0295
-28.0935
-28.4921
-38.4932
-38.1019
-38.1611
-38.3949
-38.4804
-37.8854
-78.222
-76.6869
-77.0003
-76.828
-76.6491
-75.871
-124.941
-127.176
-126.754
-124.582
-124.919
-128.098
-20.8763
-25.1845
-23.9732
-20.4673
-21.375
-29.6375
195.281
175.637
181.954
200.286
196.394
164.839
297.095
297.733
298.52
300.878
299.535
295.161
465.104
484.168
480.333
469.402
461.595
481.424
2189.23
2170.48
2220.49
2155.41
2154.13
2187.29
2072.27
2035.42
2092.78
2044.97
2030.63
2132.8
1967.61
1903.38
2006.21
2023.54
1983.15
2044.04
1977.99
1930.36
1917.53
1989.95
1970.43
1991.05
1856.17
1826.77
1755.37
1737.16
1751.19
1749.11
1236.25
1172.7
1092.43
982.089
1085.6
1124.51
635.457
578.418
526.932
438.266
496.694
506.016
352.184
300.142
294.484
283.267
280.824
252.46
265.17
264.144
224.659
225.231
192.948
217.484
210.974
217.427
197.085
173.485
154.39
218.51
224.867
214.33
222.613
248.797
275.178
275.007
241.675
242.084
258.91
295.777
304.365
297.58
1102.43
1159.45
1152.11
1123.78
1119.65
1175.91
848.876
920.935
777.181
882.358
930.549
998.481
833.967
878.032
951.105
895.376
900.318
936.471
884.482
840.017
1058.25
1001.29
985.162
1025.23
779.668
738.341
734.224
773.8
866.327
854.702
381.942
341.107
322.975
336.707
375.754
321.772
124.339
87.3623
70.9929
106.565
98.1131
64.465
31.4126
22.1469
9.96824
44.2621
25.0653
16.4844
36.1866
19.7124
12.266
21.6445
11.1921
16.1795
34.8412
20.6726
20.9265
18.8169
20.8115
31.5024
33.6413
36.4831
37.7778
41.3099
52.4131
55.6521
36.4847
43.7918
52.3308
63.1592
62.5437
54.5681
163.47
236.839
176.389
253.395
364.576
356.83
53.1867
92.5298
57.0256
126.057
216.052
223.173
60.8612
104.919
130.89
242.206
284.452
224.548
122.111
193.966
408.541
397.44
320.345
290.986
194.166
258.783
260.994
268.085
219.723
240.079
95.1446
107.209
105.23
116.198
97.8885
69.928
11.8801
26.0001
29.0303
37.3679
31.885
29.8956
-2.80227
0.682969
3.61005
12.3516
16.0408
18.664
-2.50092
-2.25468
-5.01892
-2.69944
2.7242
6.28895
0.989838
1.92034
-1.67283
-3.63938
3.30011
1.57841
7.51351
6.85123
2.37473
0.869268
1.28355
-0.796105
-6.48746
-22.6602
-26.3408
-11.3156
-15.2907
-16.3057
-36.5602
-40.1962
-39.3704
-38.3187
-38.3141
-39.9398
-37.3981
-39.8688
-34.9581
-35.5988
-38.5731
-39.6363
-38.4681
-42.4908
-37.1946
-37.3859
-44.1661
-36.853
-37.3403
-41.7003
-28.3464
-0.256807
-55.0029
-44.7886
-40.9012
-36.9897
31.0529
21.3982
-20.1818
-34.3892
-71.3029
-71.4891
-30.1286
-14.9067
-25.4553
-26.6505
-44.3005
-30.5838
-10.6245
-3.95156
-4.40599
-0.965469
-16.7438
-14.4262
-10.492
-7.95904
-6.6721
-4.10713
-14.3454
-15.5944
-18.4892
-16.3864
-14.3458
-11.9347
-20.8624
-23.2671
-29.0682
-27.3061
-23.2953
-23.6729
-9.16246
-14.2574
-21.2458
-25.1467
-22.5159
-19.0874
-24.5462
-39.719
-51.7262
-54.7407
-69.2767
-39.1148
-37.2215
-37.1107
-37.3919
-36.6992
-36.7663
-36.731
-56.7891
-56.351
-56.3614
-56.3377
-56.4008
-56.4484
-72.6867
-72.4176
-72.19
-72.8
-72.7861
-73.9058
-36.3888
-36.4078
-36.7227
-36.8352
-37.0337
-36.9347
-55.4118
-55.3848
-55.3238
-55.2643
-55.2799
-55.0127
-74.7719
-74.6388
-74.2799
-74.5401
-74.9473
-74.1511
-30.9892
-30.7835
-30.8958
-30.8066
-30.77
-30.3819
-52.3478
-52.42
-52.5175
-52.3541
-52.3405
-52.4615
-69.2919
-69.3889
-69.3357
-69.3814
-69.3959
-69.4068
-35.6305
-35.318
-35.3196
-35.5226
-35.6531
-35.0168
-55.6253
-55.6378
-55.5941
-55.6309
-55.5977
-55.5362
-70.7076
-70.7605
-70.698
-70.7147
-70.6985
-70.6808
-44.1252
-43.8537
-43.9303
-43.9807
-44.0168
-43.7007
-62.1549
-62.1662
-62.1341
-62.1828
-62.0919
-62.0625
-73.3577
-73.446
-73.3661
-73.4132
-73.2579
-73.3519
-57.6428
-57.0694
-57.293
-57.3918
-57.7136
-56.8229
-73.0104
-72.9167
-73.0877
-73.2332
-73.3439
-73.0961
-77.0683
-77.3631
-77.3094
-77.1833
-76.6336
-77.5288
-106.821
-103.639
-104.338
-104.705
-105.748
-102.026
-109.816
-107.188
-107.405
-108.729
-110.207
-105.148
-82.0444
-82.9647
-82.9966
-82.4105
-81.655
-83.9446
-184.199
-181.601
-181.974
-182.236
-182.84
-180.657
-169.891
-168.812
-168.969
-170.562
-171.991
-166.981
-92.5858
-94.3146
-94.2641
-94.2595
-94.5941
-95.2082
-167.021
-168.595
-168.339
-167.893
-167.51
-168.36
-169.099
-170.161
-169.652
-170.759
-170.049
-166.161
-98.846
-100.056
-99.4285
-100.365
-100.633
-97.9473
-64.8503
-65.8332
-64.8164
-64.6253
-65.5474
-66.5914
-111.622
-114.389
-112.339
-112.953
-113.761
-112.925
-91.6111
-93.4599
-92.4163
-92.432
-92.7606
-92.7212
46.4648
45.7681
45.9262
50.7816
47.0115
45.0925
-60.0306
-57.1341
-58.6737
-59.9536
-63.1676
-57.2608
-81.6887
-81.5598
-81.8193
-82.3815
-83.6949
-82.4941
132.928
149.154
136.32
144.893
145.631
152.404
-61.1644
-56.3679
-58.3436
-61.5058
-61.2918
-55.0524
-74.0319
-73.3964
-73.9002
-74.4634
-74.5105
-73.6834
74.0378
72.3421
70.4579
71.7159
72.7189
72.1246
-49.1319
-49.5101
-49.6965
-49.0612
-48.644
-48.4656
-67.5107
-67.465
-67.0409
-66.9272
-66.9007
-66.8871
90.2429
89.1399
89.4274
88.9545
88.5874
88.7746
-50.6318
-50.5493
-50.2297
-49.9681
-49.6136
-49.4666
-66.422
-66.3783
-66.2076
-66.0961
-66.1667
-66.1769
94.1149
93.9682
93.7911
93.8148
93.7654
93.5576
-50.7746
-50.7404
-50.6287
-50.4706
-50.4812
-50.4679
-66.9005
-66.8685
-66.8083
-66.8024
-66.8152
-66.8132
92.3412
92.2818
92.0776
91.809
91.5702
91.6779
-52.5531
-52.5163
-52.4765
-52.4663
-52.4107
-52.3409
-66.6268
-66.5949
-66.5801
-66.5568
-66.5576
-66.5451
86.4855
87.0975
86.662
86.2244
86.0061
86.939
-52.8643
-52.7341
-52.6863
-52.7236
-52.6154
-52.4764
-66.8089
-66.744
-66.7794
-66.7537
-66.7541
-66.7407
85.6495
86.859
85.3815
86.3656
85.7172
88.8221
-55.3682
-55.1416
-55.1826
-55.2926
-55.2363
-54.7722
-68.528
-68.254
-68.411
-68.486
-68.4836
-68.315
-44.1474
-46.6897
-46.8426
-46.4745
-49.3436
-49.1707
-55.2761
-55.783
-55.9274
-55.6423
-57.1683
-56.3065
-67.7527
-68.2899
-68.0678
-68.0863
-68.4283
-67.9695
-46.8555
-48.2907
-47.484
-49.1591
-52.3382
-52.7974
-57.4444
-57.5936
-58.0713
-58.5647
-59.4632
-59.688
-69.341
-69.8222
-70.1799
-69.8165
-69.8833
-69.1703
-48.433
-52.1686
-50.9422
-52.2098
-59.584
-57.6585
-56.3431
-57.0856
-57.9641
-59.1088
-61.0299
-61.846
-67.9995
-68.8976
-68.8997
-68.6973
-68.2293
-67.4286
-55.5641
-60.198
-60.2045
-63.5981
-74.4237
-71.2602
-60.1634
-61.5448
-63.797
-68.7722
-69.3416
-67.4092
-67.7191
-68.7318
-68.5614
-67.4837
-66.0035
-65.2392
-77.6692
-82.1568
-71.9224
-74.8778
-91.203
-85.4886
-75.2235
-81.1431
-85.3722
-87.9418
-86.9451
-82.5138
-69.2368
-70.213
-70.8536
-69.3884
-66.7561
-65.7335
-104.194
-118.959
-125.641
-94.7596
-87.3802
-79.3774
-80.4865
-90.1446
-98.9536
-90.1477
-84.7367
-79.6376
-70.0737
-70.8433
-70.4919
-70.3023
-69.7504
-68.5698
-61.5599
-69.8955
-47.655
-39.0656
-37.5419
-38.137
-64.4781
-67.8456
-63.8261
-60.508
-60.8601
-58.6957
-68.2678
-69.4261
-69.2409
-67.9809
-67.2102
-66.4685
-31.3362
-32.8484
-29.1606
-26.8912
-26.1948
-26.7622
-47.997
-49.8945
-47.826
-46.9795
-47.7013
-49.2689
-64.3831
-64.9388
-64.1119
-63.5904
-63.5141
-63.7809
-26.3132
-28.4984
-32.1929
-33.0804
-32.6055
-32.6793
-45.3901
-46.8241
-49.213
-50.7162
-51.3897
-52.004
-63.1694
-63.3179
-63.0691
-62.4416
-62.1109
-62.0272
-29.6156
-31.8941
-37.3984
-40.5431
-39.8529
-37.0173
-47.9337
-48.7303
-50.6374
-51.855
-51.996
-51.0464
-64.6044
-64.4853
-63.9871
-62.7376
-62.2262
-62.2456
-25.4153
-26.6394
-30.2136
-35.7359
-36.6016
-32.5336
-53.8383
-53.4827
-52.9699
-51.8631
-50.6156
-50.0256
-63.8431
-64.0479
-64.4527
-61.7072
-60.7313
-60.7215
-10.4042
-12.2678
-16.8993
-20.8725
-29.3793
-30.7927
-55.5881
-55.8015
-54.6088
-53.6639
-53.9071
-53.7598
-66.3772
-65.7315
-64.3089
-64.6897
-65.0639
-65.1987
)
;

boundaryField
{
    seabed_topleft_surface
    {
        type            calculated;
        value           nonuniform List<scalar> 
72
(
12925.5
12920.6
12927
12908.2
12903.6
12918.1
13594.9
13564.2
13565
13592
13626.4
13561.8
15328.3
15316.1
15312.2
15322.5
15335.9
15307.8
16952.9
16953.7
16952.9
16951.4
16952.1
16951.3
18230.8
18232.1
18232.6
18232.3
18232.4
18234.9
18938.8
18938.4
18939.3
18941.7
18942.2
18942.3
18907.7
18899.9
18903.3
18908.5
18908
18906.5
17938.9
17937.6
17943.4
17935.3
17936.5
17951
15935.1
15957.5
15961.5
15946.6
15949.5
15969.9
13223.2
13230.5
13235.2
13237.2
13254.1
13251.3
11358.1
11373.8
11366.3
11368.9
11356.3
11390.1
9865.6
9920.77
9920.37
9860.93
9847.15
9895.42
)
;
    }
    seabed_topright_surface
    {
        type            calculated;
        value           nonuniform List<scalar> 
72
(
2659.91
2641.16
2691.16
2626.09
2614.85
2657.89
2542.95
2506.11
2563.53
2515.64
2501.3
2603.44
2438.3
2374.07
2449.65
2494.21
2453.82
2514.7
2448.62
2357.38
2090.13
2318.61
2379.32
2461.68
2282.65
2086.39
2069.57
2055.95
1967.72
1983.12
1486.69
1453.04
1406.77
1294.62
1394.71
1397.45
910.785
856.971
690.528
506.129
631.953
774.472
627.504
558.951
467.637
304.344
342.486
452.616
498.931
522.325
408.008
259.573
266.019
416.551
291.411
434.658
369.078
276.292
227.908
418.608
316.521
279.332
381.098
428.537
416.742
475.106
339.269
289.872
380.77
493.224
504.377
497.678
)
;
    }
    breakwater_top_surface
    {
        type            calculated;
        value           nonuniform List<scalar> 
36
(
209.838
207.526
204.123
205.241
205.625
204.566
234.751
232.255
232.075
230.392
229.511
230.056
240.728
240.445
239.999
239.854
239.659
239.358
236.218
236.044
235.629
235.154
234.661
234.797
220.683
221.734
220.958
219.762
218.862
220.973
218.491
220.068
218.297
218.598
217.297
221.542
)
;
    }
    breakwater_left_surface
    {
        type            calculated;
        value           nonuniform List<scalar> 
24
(
6599.11
6641.9
6642.23
6596.99
6590.61
6614.66
2027.98
2020.29
2015.53
2062.18
2111.78
2045.54
753.797
758.937
758.966
761.183
768.056
766.072
465.185
484.256
480.421
469.482
461.674
481.515
)
;
    }
    breakwater_right_surface
    {
        type            calculated;
        value           nonuniform List<scalar> 
24
(
242.009
242.248
259.327
296.453
305.05
298.265
36.6409
43.8666
52.3751
63.1792
62.5641
54.6965
-6.46369
-22.5963
-26.2447
-11.1873
-15.1689
-16.264
-24.4089
-39.5956
-51.5923
-54.6024
-69.1385
-38.9836
)
;
    }
    water_front_surface
    {
        type            calculated;
        value           nonuniform List<scalar> 
186
(
9245.9
9611.69
10624.7
12158.5
13436.4
14144.3
14300.1
13835.8
12009.2
9487.01
7831.38
6587.89
2245.51
2107.26
2672.9
3954.7
5220.84
6043.51
6139.44
5443.06
4413.38
3550.27
2913.85
2024.89
-27.9544
-21.4568
20.6663
126.899
415.084
839.46
956.679
977.682
1367.7
1505.09
912.712
753.616
-26.6967
-26.174
-16.4166
-21.456
-27.8157
-38.4932
-78.222
-124.941
-20.8763
195.281
297.095
465.104
2189.23
2072.27
1967.61
1977.99
1856.17
1236.25
635.457
352.184
265.17
210.974
224.867
241.675
1102.43
848.876
833.967
884.482
779.668
381.942
124.339
31.4126
36.1866
34.8412
33.6413
36.4847
163.47
53.1867
60.8612
122.111
194.166
95.1446
11.8801
-2.80227
-2.50092
0.989838
7.51351
-6.48746
-36.5602
-37.3981
-38.4681
-37.3403
-40.9012
-71.3029
-44.3005
-16.7438
-14.3454
-20.8624
-9.16246
-24.5462
-37.2215
-56.7891
-72.6867
-36.3888
-55.4118
-74.7719
-30.9892
-52.3478
-69.2919
-35.6305
-55.6253
-70.7076
-44.1252
-62.1549
-73.3577
-57.6428
-73.0104
-77.0683
-106.821
-109.816
-82.0444
-184.199
-169.891
-92.5858
-167.021
-169.099
-98.846
-64.8503
-111.622
-91.6111
46.4648
-60.0306
-81.6887
132.928
-61.1644
-74.0319
74.0378
-49.1319
-67.5107
90.2429
-50.6318
-66.422
94.1149
-50.7746
-66.9005
92.3412
-52.5531
-66.6268
86.4855
-52.8643
-66.8089
85.6495
-55.3682
-68.528
-44.1474
-55.2761
-67.7527
-46.8555
-57.4444
-69.341
-48.433
-56.3431
-67.9995
-55.5641
-60.1634
-67.7191
-77.6692
-75.2235
-69.2368
-104.194
-80.4865
-70.0737
-61.5599
-64.4781
-68.2678
-31.3362
-47.997
-64.3831
-26.3132
-45.3901
-63.1694
-29.6156
-47.9337
-64.6044
-25.4153
-53.8383
-63.8431
-10.4042
-55.5881
-66.3772
)
;
    }
    water_back_surface
    {
        type            calculated;
        value           nonuniform List<scalar> 
186
(
9232.54
9579.04
10605.3
12156.8
13440.4
14147.8
14297.3
13847
12049.1
9529.39
7877.21
6603.38
2272.03
2035.69
2614.57
3937.86
5229.47
6057.47
6153.18
5495.42
4486.08
3552.13
2952.08
2042.02
-26.8327
-21.3026
20.1464
124.784
422.601
859.363
972.437
978.05
1356.15
1453.29
928.182
765.975
-26.6938
-25.7968
-16.4399
-22.1666
-28.4921
-37.8854
-75.871
-128.098
-29.6375
164.839
295.161
481.424
2187.29
2132.8
2044.04
1991.05
1749.11
1124.51
506.016
252.46
217.484
218.51
275.007
297.58
1175.91
998.481
936.471
1025.23
854.702
321.772
64.465
16.4844
16.1795
31.5024
55.6521
54.5681
356.83
223.173
224.548
290.986
240.079
69.928
29.8956
18.664
6.28895
1.57841
-0.796105
-16.3057
-39.9398
-39.6363
-36.853
-44.7886
-34.3892
-26.6505
-0.965469
-4.10713
-11.9347
-23.6729
-19.0874
-39.1148
-36.731
-56.4484
-73.9058
-36.9347
-55.0127
-74.1511
-30.3819
-52.4615
-69.4068
-35.0168
-55.5362
-70.6808
-43.7007
-62.0625
-73.3519
-56.8229
-73.0961
-77.5288
-102.026
-105.148
-83.9446
-180.657
-166.981
-95.2082
-168.36
-166.161
-97.9473
-66.5914
-112.925
-92.7212
45.0925
-57.2608
-82.4941
152.404
-55.0524
-73.6834
72.1246
-48.4656
-66.8871
88.7746
-49.4666
-66.1769
93.5576
-50.4679
-66.8132
91.6779
-52.3409
-66.5451
86.939
-52.4764
-66.7407
88.8221
-54.7722
-68.315
-49.1707
-56.3065
-67.9695
-52.7974
-59.688
-69.1703
-57.6585
-61.846
-67.4286
-71.2602
-67.4092
-65.2392
-85.4886
-82.5138
-65.7335
-79.3774
-79.6376
-68.5698
-38.137
-58.6957
-66.4685
-26.7622
-49.2689
-63.7809
-32.6793
-52.004
-62.0272
-37.0173
-51.0464
-62.2456
-32.5336
-50.0256
-60.7215
-30.7927
-53.7598
-65.1987
)
;
    }
    water_left_surface
    {
        type            calculated;
        value           nonuniform List<scalar> 
42
(
9258.5
9253.85
9254.81
9245.8
9245.33
9245.16
2253.13
2271.64
2284.83
2244.34
2215.91
2279.74
-27.9382
-27.6355
-27.482
-27.2726
-27.3877
-26.8165
-26.6806
-26.5379
-26.8685
-26.5357
-26.4816
-26.6778
-37.2215
-37.1107
-37.3919
-36.6992
-36.7663
-36.731
-56.7891
-56.351
-56.3614
-56.3377
-56.4008
-56.4484
-72.6867
-72.4176
-72.19
-72.8
-72.7861
-73.9058
)
;
    }
    water_right_surface
    {
        type            calculated;
        value           nonuniform List<scalar> 
42
(
2190.85
2172.09
2222.1
2157.02
2155.71
2188.9
1104.01
1161.03
1153.69
1125.36
1121.23
1177.49
164.041
237.78
176.97
254.318
365.871
358.106
-36.5443
-40.1803
-39.3546
-38.3028
-38.2982
-39.924
-44.1474
-46.6897
-46.8426
-46.4745
-49.3436
-49.1707
-55.2761
-55.783
-55.9274
-55.6423
-57.1683
-56.3065
-67.7527
-68.2899
-68.0678
-68.0863
-68.4283
-67.9695
)
;
    }
    water_top_surface
    {
        type            calculated;
        value           nonuniform List<scalar> 
180
(
-86.5264
-80.7902
-77.5532
-85.7809
-85.8093
-85.757
-82.7886
-82.7426
-82.2428
-82.5828
-83.5438
-81.1154
-78.5425
-78.7973
-78.8181
-78.6336
-78.612
-78.7986
-79.8973
-80.0247
-79.9728
-79.9281
-79.9014
-79.8681
-82.5555
-82.9289
-82.8544
-82.6911
-82.5459
-82.8612
-85.9195
-86.6127
-86.6225
-86.3139
-85.7983
-86.9459
-86.9464
-89.2194
-89.2777
-87.2735
-84.632
-91.5728
-70.8758
-74.6563
-74.3565
-71.1563
-69.4256
-78.7856
-69.9727
-69.5458
-69.648
-69.8571
-69.1965
-69.1539
-69.8421
-69.4569
-69.5426
-69.7867
-69.2739
-69.1376
-70.0657
-70.0364
-69.836
-70.7875
-71.6061
-69.957
-68.9481
-68.8116
-68.9642
-68.8478
-68.8186
-68.6836
-68.6721
-68.7224
-68.7419
-68.6704
-68.67
-68.67
-68.8225
-68.8032
-68.7469
-68.7348
-68.7378
-68.7551
-68.8508
-68.861
-68.8383
-68.8257
-68.8191
-68.8121
-68.9613
-68.9686
-68.9558
-68.952
-68.9498
-68.9474
-68.6889
-68.6889
-68.6852
-68.6814
-68.678
-68.678
-68.8352
-68.8421
-68.8277
-68.8542
-68.8904
-68.8462
-70.7713
-72.7171
-68.8664
-71.4073
-74.3514
-71.6333
-74.6263
-74.9959
-75.7246
-76.0864
-76.1624
-74.1043
-72.4779
-74.0575
-74.0133
-75.2813
-74.8714
-72.5647
-71.9252
-74.1272
-75.0435
-75.1224
-72.5518
-71.1512
-69.408
-71.1677
-71.7898
-70.4145
-68.7066
-68.67
-68.6753
-68.7628
-68.6888
-68.6935
-68.7218
-68.672
-68.7176
-68.8329
-69.339
-68.9704
-68.683
-68.6751
-68.7414
-68.7369
-68.7447
-68.682
-68.6828
-68.6701
-68.7404
-68.7383
-68.7287
-68.689
-68.6701
-68.67
-69.3821
-69.2888
-68.9035
-68.6858
-68.67
-68.67
-69.3152
-69.5195
-69.4521
-68.7013
-68.67
-68.6701
-69.3643
-69.6755
-68.8236
-68.9049
-69.0437
-68.9752
)
;
    }
}


// ************************************************************************* //
