/*--------------------------------*- C++ -*----------------------------------*\
| =========                 |                                                 |
| \\      /  F ield         | OpenFOAM: The Open Source CFD Toolbox           |
|  \\    /   O peration     | Version:  v1612+                                |
|   \\  /    A nd           | Web:      www.OpenFOAM.com                      |
|    \\/     M anipulation  |                                                 |
\*---------------------------------------------------------------------------*/
FoamFile
{
    version     2.0;
    format      ascii;
    class       volScalarField;
    location    "8.5";
    object      p_rgh;
}
// * * * * * * * * * * * * * * * * * * * * * * * * * * * * * * * * * * * * * //

dimensions      [1 -1 -2 0 0 0 0];

internalField   nonuniform List<scalar> 
1116
(
12925.5
12920.6
12927
12908.2
12903.6
12918.1
13594.9
13564.2
13565
13592
13626.4
13561.8
15328.3
15316.1
15312.2
15322.5
15335.9
15307.8
16952.9
16953.7
16952.9
16951.4
16952.1
16951.3
18230.8
18232.1
18232.6
18232.3
18232.4
18234.9
18938.8
18938.4
18939.3
18941.7
18942.2
18942.3
18907.7
18899.9
18903.3
18908.5
18908
18906.5
17938.9
17937.6
17943.4
17935.3
17936.5
17951
15935.1
15957.5
15961.5
15946.6
15949.5
15969.9
13223.2
13230.5
13235.2
13237.2
13254.1
13251.3
11358.1
11373.8
11366.3
11368.9
11356.3
11390.1
9865.6
9920.77
9920.37
9860.93
9847.15
9895.42
9042.09
9115.82
9173.5
9003.83
8882.28
9151.6
8484.87
8255.39
8144.78
8486.95
8573.64
8174.17
10704.5
10543.7
10463.4
10726.5
10840.3
10504.7
15085.3
15099.4
15094.9
15093.4
15101.7
15110.7
18796.3
18823.1
18847.2
18790.5
18770
18856.5
20059.4
20055.3
20069.1
20058.2
20061.4
20074.2
20081.2
20093.3
20101.1
20079.6
20083.8
20092
17533
17707.7
17676.5
17586.4
17546.6
17760.8
10202.2
10184.4
10182.4
10266.3
10203.4
10148.4
7136.3
7054.4
7055.53
7142.82
7241.94
7055.87
6932.82
6863.94
6880.26
6931.88
6973.07
6775.72
4779.7
5138.48
5131.85
4752.37
4682.02
5176.08
-3.40945
-3.10896
-2.95511
-2.74488
-2.85423
-2.28305
3.08441
3.62655
3.21283
2.36953
1.64729
3.24289
45.2075
45.2758
45.0651
45.761
45.664
44.6876
806.757
763.47
761.814
803.429
821.761
759.791
2471.38
2465.24
2484
2468.84
2456.57
2536.9
4939.94
4976.73
4976.73
4973.17
4920.98
5086.2
5686.87
5682.09
5699.58
5688.9
5660.7
5738.84
6328.04
6206.17
6290.53
6234.68
6211.8
6289.86
8892.34
8690.07
8776.7
8817.44
8765.78
8811.62
7415.86
7574.05
7477.26
7446.41
7571.33
7541.64
2596.11
2742.07
2614.11
2633.24
2826.42
2662.1
1028.82
901.163
901.207
1070.04
1154.23
913.27
8.06824
8.11284
7.73869
8.14076
8.38166
7.80007
8.87611
8.65499
8.61668
8.35906
8.29494
8.72379
17.9343
17.7984
17.6508
18.0886
17.815
17.911
12.8948
13.001
12.7707
12.5248
12.244
12.1843
6.53519
6.47557
6.32938
6.32141
6.25734
5.85878
-4.14233
-3.75107
-3.81018
-4.044
-4.12957
-3.53452
-43.8698
-42.3349
-42.6485
-42.4758
-42.2961
-41.5194
-90.5865
-92.8213
-92.3993
-90.2274
-90.5638
-93.7437
13.4797
9.17149
10.3828
13.8885
12.9806
4.71806
749.135
512.584
593.9
697.765
663.694
493.773
373.993
397.517
396.371
378.235
381.208
405.24
641.136
674.736
671.04
642.277
633.03
678.9
2659.91
2641.16
2691.16
2626.09
2614.85
2657.89
2542.95
2506.11
2563.53
2515.64
2501.3
2603.44
2438.3
2374.07
2449.65
2494.21
2453.82
2514.7
2448.62
2357.38
2090.13
2318.61
2379.32
2461.68
2282.65
2086.39
2069.57
2055.95
1967.72
1983.12
1486.69
1453.04
1406.77
1294.62
1394.71
1397.45
910.785
856.971
690.528
506.129
631.953
774.472
627.504
558.951
467.637
304.344
342.486
452.616
498.931
522.325
408.008
259.573
266.019
416.551
291.411
434.658
369.078
276.292
227.908
418.608
316.521
279.332
381.098
428.537
416.742
475.106
339.269
289.872
380.77
493.224
504.377
497.678
2511.24
2568.23
2561.05
2532.48
2527.01
2584.61
2173.27
2329.73
2178.13
2291.08
2339.3
2407.07
2187.28
2286.84
2358.79
2303.77
2309.06
2345.13
2292.99
2241.29
1566.48
2203.87
2393.31
2433.8
2179.4
1742.22
1111.87
1301.46
1798.33
2005.69
1251.02
702.572
706.193
612.175
624.234
626.178
204.52
177.637
208.027
219.538
186.298
131.018
69.715
43.2423
45.004
106.753
72.1885
32.41
188.726
65.0245
27.2762
60.0184
34.0671
31.9499
186.128
35.4574
35.6869
38.0806
36.3945
75.7605
99.7055
66.4968
52.598
56.4918
68.1755
150.01
175.825
110.51
91.8175
81.0306
80.7954
169.048
1028.09
1663.45
1056.22
1653.43
2326.95
2291.38
387.7
653.809
206.139
906.325
1476
1509.94
350.53
717.91
820.667
1660.05
1987.06
982.89
626.244
1473.29
2674.12
2702.83
2663.81
1311.61
1114.81
1868.79
1363.7
1875.48
2392.41
1526.35
976.207
1275.55
177.232
219.438
389.09
593.031
186.687
149.889
59.2786
76.4357
57.4664
56.1472
22.1056
25.7857
34.5511
64.1474
41.1085
44.3495
22.0898
22.375
20.7358
21.9128
28.4332
36.242
25.5587
26.4998
22.8824
20.923
28.4319
35.2201
32.0739
48.1111
37.8069
69.8563
101.395
26.83
29.5494
74.1232
119.382
183.139
169.286
46.9672
-2.2083
-5.84425
-5.01858
-3.96689
-3.96209
-5.58769
-3.04618
-5.51693
-0.606252
-1.24701
-4.22132
-5.28413
-4.10828
-8.13866
-2.84272
-3.03412
-9.81416
91.3765
-2.63639
-7.34028
167.624
691.266
252.049
53.1309
-6.07261
225.427
1331.36
2027.22
974.725
269.666
10.5511
852.639
509.474
466.164
522.968
306.739
65.3205
391.8
24.9126
31.5492
30.9706
66.166
32.0383
20.6636
23.945
26.4912
28.0516
31.3723
20.0442
18.8121
15.8998
17.9868
22.2972
30.004
13.5114
11.1034
5.29789
7.05878
11.0786
10.913
25.2133
20.1183
13.1247
26.8481
66.5327
15.347
272.693
227.256
237.928
244.446
229.91
244.757
18.2114
12.4837
10.9106
17.3986
18.3948
12.2007
11.2063
4.37019
2.17377
11.0814
11.0208
5.69496
7.65927
2.60185
-0.176317
6.85374
6.89401
5.72575
11.9785
12.0424
11.7183
8.68099
8.76918
11.0869
0.732711
-0.672921
0.862644
-0.859511
1.12112
0.570509
-11.0069
-10.8738
-10.5149
-10.7751
-11.1823
-10.3861
13.1558
13.3615
13.2492
13.3384
13.375
13.7631
1.60719
1.53498
1.43753
1.60092
1.61453
1.49347
-5.52687
-5.62395
-5.57071
-5.61642
-5.63094
-5.64182
8.51447
8.82702
8.82539
8.62244
8.49191
9.12818
-1.67034
-1.68276
-1.63909
-1.67588
-1.64268
-1.58124
-6.94263
-6.99545
-6.93299
-6.94972
-6.93349
-6.91579
0.0197575
0.29131
0.214683
0.164343
0.128234
0.444342
-8.19992
-8.21124
-8.17913
-8.22775
-8.13692
-8.10749
-9.5927
-9.68098
-9.60114
-9.64815
-9.49287
-9.58689
-13.4427
-12.8804
-13.1088
-13.1873
-13.4775
-12.6474
-18.9666
-18.8862
-19.0664
-19.182
-19.2261
-19.0925
-13.3033
-13.5981
-13.5444
-13.4183
-12.8686
-13.7638
-62.4433
-59.2434
-59.9621
-60.3004
-61.2749
-57.7042
-55.2271
-52.6336
-52.8498
-54.1367
-55.6276
-50.9372
-18.2794
-19.1997
-19.2316
-18.6455
-17.7973
-20.1796
-139.961
-137.344
-137.729
-137.967
-138.583
-136.434
-115.26
-114.403
-114.551
-115.962
-117.457
-112.774
-28.3246
-30.2195
-30.2121
-30.003
-30.2829
-31.2393
-122.869
-124.444
-124.187
-123.742
-123.359
-124.209
-114.976
-116.161
-115.63
-116.692
-116.021
-112.152
-33.8714
-35.4779
-34.7553
-35.4975
-36.3795
-33.733
-20.6962
-21.6779
-20.6618
-20.4709
-21.3924
-22.4382
-57.4173
-60.395
-58.3178
-58.8483
-59.6716
-58.9289
-26.7577
-28.9642
-27.8411
-27.63
-28.4348
-28.522
100.894
96.1381
97.1397
106.549
104.529
93.9042
10.8155
7.22933
7.45741
12.8603
12.2508
2.916
-16.6277
-16.526
-16.9716
-16.6502
-17.2036
-17.534
708.605
674.426
694.467
718.497
719.466
654.655
41.5532
59.5771
46.0642
52.4405
60.6255
79.0921
-10.2669
-9.63141
-10.1352
-10.6984
-10.7455
-9.9184
1296.24
1289
1273.44
1273.44
1268.88
1264.1
4.82314
4.44487
4.25847
4.89375
5.31104
5.48936
-3.74568
-3.70001
-3.27589
-3.16178
-3.13575
-3.12205
1390.81
1377.18
1373.25
1361.89
1356.9
1360.3
3.3232
3.40572
3.72535
3.98686
4.34142
4.48845
-2.65705
-2.6133
-2.44258
-2.33109
-2.40166
-2.41191
1413.63
1412.26
1409.66
1408.17
1406.8
1405.76
3.18038
3.21455
3.32629
3.48443
3.47382
3.48709
-3.13547
-3.10347
-3.04334
-3.03744
-3.05024
-3.04816
1387.23
1386.14
1384.04
1381.91
1379.39
1379.75
1.40188
1.4387
1.47849
1.48867
1.54431
1.6141
-2.86176
-2.82989
-2.81512
-2.79181
-2.79263
-2.78007
1294.26
1298.83
1295.33
1288.06
1281.71
1293.24
1.09065
1.22085
1.26874
1.23144
1.33959
1.47858
-3.0439
-2.97901
-3.01441
-2.98869
-2.98909
-2.97567
1281.22
1285.74
1281.62
1276.45
1269.93
1283.3
-1.413
-1.18625
-1.22725
-1.33742
-1.28108
-0.816877
-4.76298
-4.48902
-4.64602
-4.72101
-4.71863
-4.54817
0.0130026
-2.54335
-2.52866
-2.32083
-5.19274
-5.01702
-1.21946
-1.82084
-0.843453
-1.65628
-3.1763
-2.21698
-3.98774
-4.52445
-4.30272
-4.32132
-4.66334
-4.20447
-2.22654
-4.01656
-3.33784
-5.01304
-8.15713
-8.60503
-2.22082
-3.46383
-4.11383
-4.60942
-5.22945
-4.86647
-5.57598
-6.05723
-6.4128
-6.05119
-6.11833
-5.40533
-2.94143
-7.48692
-6.79561
-8.05798
-15.2744
-13.4744
-1.09292
-2.7163
-4.00598
-5.14238
-6.67765
-6.84848
-4.23448
-5.13262
-5.12302
-4.9307
-4.4643
-3.66357
-6.42658
-16.0063
-16.0548
-19.4466
-30.2717
-27.1025
-6.17829
-6.45636
-9.82792
-14.8092
-15.3495
-13.4539
-3.95411
-4.96683
-4.79302
-3.6913
-2.23809
-1.47422
-19.6851
-37.8696
203.488
368.917
-29.4005
-41.1971
-19.3625
-8.22874
-31.4043
0.0257184
-32.9674
-28.5574
-5.47181
-6.44796
-7.08859
-5.62345
-2.93892
-1.96847
-22.2608
128.388
505.518
353.856
133.739
-11.9486
-21.2954
55.3064
180.043
95.2017
-30.6844
-25.6465
-6.30385
-6.99218
-6.70942
-6.51551
-5.93733
-4.80294
30.4212
200.92
103.3
44.2965
37.3281
19.3552
-1.81704
14.4717
54.5875
7.24225
3.02674
-3.7135
-4.45857
-5.50987
-4.85473
-3.93696
-3.43305
-2.69878
20.2802
32.1177
15.0628
17.2802
18.019
19.0356
6.29041
7.1689
6.60415
6.9888
6.35087
4.89361
-0.551836
-1.11165
-0.277524
0.185813
0.26273
-0.0158485
17.8613
15.6805
11.9716
11.0825
11.6979
11.9009
8.61594
7.17525
4.77812
3.26992
2.5654
1.95104
0.660934
0.510603
0.75043
1.34103
1.65421
1.73783
14.5547
12.2704
6.76462
3.61876
4.29257
7.12765
7.44882
5.72848
3.36561
2.12095
1.95906
2.90861
-0.1782
-0.145766
-0.00530495
1.04214
1.53878
1.51946
18.7592
17.54
13.9509
8.42713
7.58847
11.618
5.07617
2.92725
1.45838
2.15047
3.33998
3.94066
0.521009
0.505961
0.0385599
2.08682
3.03377
3.04358
380.541
342.611
273.21
319.141
326.327
354.234
-1.63306
-1.84642
0.119869
0.291125
0.0479627
0.195175
-2.54179
-1.8979
-0.403117
-0.913078
-1.29888
-1.43372
)
;

boundaryField
{
    seabed_topleft_surface
    {
        type            fixedFluxPressure;
        gradient        uniform 0;
        value           nonuniform List<scalar> 
72
(
12925.5
12920.6
12927
12908.2
12903.6
12918.1
13594.9
13564.2
13565
13592
13626.4
13561.8
15328.3
15316.1
15312.2
15322.5
15335.9
15307.8
16952.9
16953.7
16952.9
16951.4
16952.1
16951.3
18230.8
18232.1
18232.6
18232.3
18232.4
18234.9
18938.8
18938.4
18939.3
18941.7
18942.2
18942.3
18907.7
18899.9
18903.3
18908.5
18908
18906.5
17938.9
17937.6
17943.4
17935.3
17936.5
17951
15935.1
15957.5
15961.5
15946.6
15949.5
15969.9
13223.2
13230.5
13235.2
13237.2
13254.1
13251.3
11358.1
11373.8
11366.3
11368.9
11356.3
11390.1
9865.6
9920.77
9920.37
9860.93
9847.15
9895.42
)
;
    }
    seabed_topright_surface
    {
        type            fixedFluxPressure;
        gradient        uniform 0;
        value           nonuniform List<scalar> 
72
(
2659.91
2641.16
2691.16
2626.09
2614.85
2657.89
2542.95
2506.11
2563.53
2515.64
2501.3
2603.44
2438.3
2374.07
2449.65
2494.21
2453.82
2514.7
2448.62
2357.38
2090.13
2318.61
2379.32
2461.68
2282.65
2086.39
2069.57
2055.95
1967.72
1983.12
1486.69
1453.04
1406.77
1294.62
1394.71
1397.45
910.785
856.971
690.528
506.129
631.953
774.472
627.504
558.951
467.637
304.344
342.486
452.616
498.931
522.325
408.008
259.573
266.019
416.551
291.411
434.658
369.078
276.292
227.908
418.608
316.521
279.332
381.098
428.537
416.742
475.106
339.269
289.872
380.77
493.224
504.377
497.678
)
;
    }
    breakwater_top_surface
    {
        type            fixedFluxPressure;
        gradient        uniform 0;
        value           nonuniform List<scalar> 
36
(
1296.24
1289
1273.44
1273.44
1268.88
1264.1
1390.81
1377.18
1373.25
1361.89
1356.9
1360.3
1413.63
1412.26
1409.66
1408.17
1406.8
1405.76
1387.23
1386.14
1384.04
1381.91
1379.39
1379.75
1294.26
1298.83
1295.33
1288.06
1281.71
1293.24
1281.22
1285.74
1281.62
1276.45
1269.93
1283.3
)
;
    }
    breakwater_left_surface
    {
        type            fixedFluxPressure;
        gradient        uniform 0;
        value           nonuniform List<scalar> 
24
(
9865.6
9920.77
9920.37
9860.93
9847.15
9895.42
4779.7
5138.48
5131.85
4752.37
4682.02
5176.08
1028.82
901.163
901.207
1070.04
1154.23
913.27
641.136
674.736
671.04
642.277
633.03
678.9
)
;
    }
    breakwater_right_surface
    {
        type            fixedFluxPressure;
        gradient        uniform 0;
        value           nonuniform List<scalar> 
24
(
339.269
289.872
380.77
493.224
504.377
497.678
175.825
110.51
91.8175
81.0306
80.7954
169.048
29.5494
74.1232
119.382
183.139
169.286
46.9672
272.693
227.256
237.928
244.446
229.91
244.757
)
;
    }
    water_front_surface
    {
        type            fixedFluxPressure;
        gradient        uniform 0;
        value           nonuniform List<scalar> 
186
(
12925.5
13594.9
15328.3
16952.9
18230.8
18938.8
18907.7
17938.9
15935.1
13223.2
11358.1
9865.6
9042.09
8484.87
10704.5
15085.3
18796.3
20059.4
20081.2
17533
10202.2
7136.3
6932.82
4779.7
-3.40945
3.08441
45.2075
806.757
2471.38
4939.94
5686.87
6328.04
8892.34
7415.86
2596.11
1028.82
8.06824
8.87611
17.9343
12.8948
6.53519
-4.14233
-43.8698
-90.5865
13.4797
749.135
373.993
641.136
2659.91
2542.95
2438.3
2448.62
2282.65
1486.69
910.785
627.504
498.931
291.411
316.521
339.269
2511.24
2173.27
2187.28
2292.99
2179.4
1251.02
204.52
69.715
188.726
186.128
99.7055
175.825
1028.09
387.7
350.53
626.244
1114.81
976.207
186.687
22.1056
22.0898
25.5587
32.0739
29.5494
-2.2083
-3.04618
-4.10828
-2.63639
-6.07261
10.5511
65.3205
32.0383
20.0442
13.5114
25.2133
272.693
18.2114
11.2063
7.65927
11.9785
0.732711
-11.0069
13.1558
1.60719
-5.52687
8.51447
-1.67034
-6.94263
0.0197575
-8.19992
-9.5927
-13.4427
-18.9666
-13.3033
-62.4433
-55.2271
-18.2794
-139.961
-115.26
-28.3246
-122.869
-114.976
-33.8714
-20.6962
-57.4173
-26.7577
100.894
10.8155
-16.6277
708.605
41.5532
-10.2669
1296.24
4.82314
-3.74568
1390.81
3.3232
-2.65705
1413.63
3.18038
-3.13547
1387.23
1.40188
-2.86176
1294.26
1.09065
-3.0439
1281.22
-1.413
-4.76298
0.0130026
-1.21946
-3.98774
-2.22654
-2.22082
-5.57598
-2.94143
-1.09292
-4.23448
-6.42658
-6.17829
-3.95411
-19.6851
-19.3625
-5.47181
-22.2608
-21.2954
-6.30385
30.4212
-1.81704
-4.45857
20.2802
6.29041
-0.551836
17.8613
8.61594
0.660934
14.5547
7.44882
-0.1782
18.7592
5.07617
0.521009
380.541
-1.63306
-2.54179
)
;
    }
    water_back_surface
    {
        type            fixedFluxPressure;
        gradient        uniform 0;
        value           nonuniform List<scalar> 
186
(
12918.1
13561.8
15307.8
16951.3
18234.9
18942.3
18906.5
17951
15969.9
13251.3
11390.1
9895.42
9151.6
8174.17
10504.7
15110.7
18856.5
20074.2
20092
17760.8
10148.4
7055.87
6775.72
5176.08
-2.28305
3.24289
44.6876
759.791
2536.9
5086.2
5738.84
6289.86
8811.62
7541.64
2662.1
913.27
7.80007
8.72379
17.911
12.1843
5.85878
-3.53452
-41.5194
-93.7437
4.71806
493.773
405.24
678.9
2657.89
2603.44
2514.7
2461.68
1983.12
1397.45
774.472
452.616
416.551
418.608
475.106
497.678
2584.61
2407.07
2345.13
2433.8
2005.69
626.178
131.018
32.41
31.9499
75.7605
150.01
169.048
2291.38
1509.94
982.89
1311.61
1526.35
593.031
56.1472
44.3495
36.242
35.2201
26.83
46.9672
-5.58769
-5.28413
91.3765
53.1309
269.666
306.739
66.166
31.3723
30.004
10.913
15.347
244.757
12.2007
5.69496
5.72575
11.0869
0.570509
-10.3861
13.7631
1.49347
-5.64182
9.12818
-1.58124
-6.91579
0.444342
-8.10749
-9.58689
-12.6474
-19.0925
-13.7638
-57.7042
-50.9372
-20.1796
-136.434
-112.774
-31.2393
-124.209
-112.152
-33.733
-22.4382
-58.9289
-28.522
93.9042
2.916
-17.534
654.655
79.0921
-9.9184
1264.1
5.48936
-3.12205
1360.3
4.48845
-2.41191
1405.76
3.48709
-3.04816
1379.75
1.6141
-2.78007
1293.24
1.47858
-2.97567
1283.3
-0.816877
-4.54817
-5.01702
-2.21698
-4.20447
-8.60503
-4.86647
-5.40533
-13.4744
-6.84848
-3.66357
-27.1025
-13.4539
-1.47422
-41.1971
-28.5574
-1.96847
-11.9486
-25.6465
-4.80294
19.3552
-3.7135
-2.69878
19.0356
4.89361
-0.0158485
11.9009
1.95104
1.73783
7.12765
2.90861
1.51946
11.618
3.94066
3.04358
354.234
0.195175
-1.43372
)
;
    }
    water_left_surface
    {
        type            fixedFluxPressure;
        gradient        uniform 0;
        value           nonuniform List<scalar> 
42
(
12925.5
12920.6
12927
12908.2
12903.6
12918.1
9042.09
9115.82
9173.5
9003.83
8882.28
9151.6
-3.40945
-3.10896
-2.95511
-2.74488
-2.85423
-2.28305
8.06824
8.11284
7.73869
8.14076
8.38166
7.80007
18.2114
12.4837
10.9106
17.3986
18.3948
12.2007
11.2063
4.37019
2.17377
11.0814
11.0208
5.69496
7.65927
2.60185
-0.176317
6.85374
6.89401
5.72575
)
;
    }
    water_right_surface
    {
        type            fixedFluxPressure;
        gradient        uniform 0;
        value           nonuniform List<scalar> 
42
(
2659.91
2641.16
2691.16
2626.09
2614.85
2657.89
2511.24
2568.23
2561.05
2532.48
2527.01
2584.61
1028.09
1663.45
1056.22
1653.43
2326.95
2291.38
-2.2083
-5.84425
-5.01858
-3.96689
-3.96209
-5.58769
0.0130026
-2.54335
-2.52866
-2.32083
-5.19274
-5.01702
-1.21946
-1.82084
-0.843453
-1.65628
-3.1763
-2.21698
-3.98774
-4.52445
-4.30272
-4.32132
-4.66334
-4.20447
)
;
    }
    water_top_surface
    {
        type            totalPressure;
        rho             rho;
        psi             none;
        gamma           1;
        p0              uniform 0;
        value           nonuniform List<scalar> 
180
(
0
0
0
0
0
0
-14.1186
-14.0726
-13.5728
-13.9128
-14.8738
-12.4454
-9.87251
-10.1273
-10.1481
-9.96361
-9.94195
-10.1286
-11.2273
-11.3547
-11.3028
-11.2581
-11.2314
-11.1981
-13.8855
-14.2589
-14.1844
-14.0211
-13.8759
-14.1912
-17.2495
-17.9427
-17.9525
-17.6439
-17.1283
-18.2759
-18.2764
-20.5494
-20.6077
-18.6035
-15.962
-22.9028
-2.20585
-5.98628
-5.68647
-2.48635
-0.755585
-10.1156
0
0
0
0
0
0
0
0
0
0
0
0
0
0
0
0
0
0
-0.278084
-0.141621
-0.29424
-0.177834
-0.148608
-0.0136121
-0.00211318
-0.0523873
-0.0719366
0
0
0
-0.152526
-0.133198
-0.0768957
-0.0648138
-0.0678008
-0.0850831
-0.180785
-0.190977
-0.168347
-0.155678
-0.149077
-0.14206
-0.291348
-0.298619
-0.285828
-0.282037
-0.279804
-0.277396
-0.0189012
-0.0189114
-0.0151927
-0.0113793
-0.0079606
-0.00800515
-0.165247
-0.172129
-0.157712
-0.184168
-0.220424
-0.17618
-2.10134
-4.04713
-0.196391
-2.73726
-5.68138
-2.96333
-5.9563
-6.32588
-7.05456
-7.41644
-7.49242
-5.43434
-3.80793
-5.38745
-5.34328
-6.61134
-6.20142
-3.89465
-3.25519
-5.45721
-6.37346
-6.45235
-3.88175
-2.48116
-0.737966
-2.49773
-3.11976
-1.74445
-0.0366492
0
0
0
0
0
0
0
0
0
0
0
0
0
0
0
0
0
0
0
0
0
0
0
0
0
0
0
0
0
0
0
0
0
0
0
0
0
-0.694319
-1.00546
-0.153599
-0.234908
-0.373745
-0.305182
)
;
    }
}


// ************************************************************************* //
