/*--------------------------------*- C++ -*----------------------------------*\
| =========                 |                                                 |
| \\      /  F ield         | OpenFOAM: The Open Source CFD Toolbox           |
|  \\    /   O peration     | Version:  v1612+                                |
|   \\  /    A nd           | Web:      www.OpenFOAM.com                      |
|    \\/     M anipulation  |                                                 |
\*---------------------------------------------------------------------------*/
FoamFile
{
    version     2.0;
    format      ascii;
    class       surfaceScalarField;
    location    "8.4";
    object      alphaPhi;
}
// * * * * * * * * * * * * * * * * * * * * * * * * * * * * * * * * * * * * * //

dimensions      [0 3 -1 0 0 0 0];

internalField   nonuniform List<scalar> 
816
(
-2.79779e-06
-9.53161e-06
5.82618e-06
-1.30151e-05
-1.69494e-05
3.64744e-05
7.05968e-06
2.01483e-06
-1.19393e-05
6.32328e-07
-5.44723e-07
-9.06052e-06
1.75228e-06
2.41912e-06
4.20606e-06
-8.82806e-06
-9.99122e-06
5.64068e-06
-4.19591e-07
2.74864e-06
2.1986e-09
-3.40119e-09
-1.15118e-05
-1.33251e-09
1.67286e-09
5.46574e-09
-7.14582e-07
4.54296e-09
-2.5833e-09
-6.33701e-10
-4.44085e-06
3.71817e-10
6.94008e-09
-6.21112e-10
1.88173e-06
3.87193e-09
-3.71165e-09
3.92836e-09
-1.0442e-06
6.73745e-09
-3.03216e-09
1.15522e-09
6.88129e-07
1.57118e-09
4.99413e-09
3.04504e-09
4.07218e-08
7.40873e-09
-2.38996e-09
8.76452e-09
-2.59828e-06
2.52808e-09
-1.26857e-09
4.70406e-10
2.07697e-07
4.75209e-09
5.12899e-09
2.48101e-10
-4.56916e-06
2.68409e-09
-4.65366e-09
-7.48667e-09
-1.27411e-06
-1.87621e-11
-6.81077e-09
-8.50096e-06
-5.81761e-09
-2.55325e-09
1.62138e-05
9.60397e-07
-3.33049e-05
-3.99563e-06
1.16149e-05
3.3064e-05
-3.64373e-05
1.4099e-05
9.26127e-06
8.17168e-07
-4.948e-06
4.54489e-07
3.43726e-05
-4.80445e-06
2.35982e-05
2.01554e-06
-1.18712e-05
9.77434e-06
-1.58218e-05
9.36759e-06
-1.16348e-05
3.79888e-06
-2.41763e-05
7.32614e-06
2.45422e-05
9.38438e-06
-3.14933e-05
1.28821e-05
1.1943e-05
2.08724e-05
-8.59448e-06
-8.68948e-06
-6.61179e-07
1.06741e-05
-4.91445e-05
2.36184e-05
3.63939e-05
2.40153e-05
-3.48899e-05
1.11114e-05
3.91156e-07
-1.01332e-05
5.65364e-05
6.30347e-06
-3.0503e-05
-2.38361e-05
-3.14803e-06
5.47732e-06
-1.36266e-05
3.58235e-06
-1.63723e-05
-1.08303e-06
-2.09803e-05
-1.56952e-05
-1.1383e-05
5.51399e-07
-2.15604e-06
-1.13554e-06
-2.3188e-05
4.62816e-06
1.05999e-05
-2.99838e-06
-5.39594e-06
-7.38831e-06
-8.42455e-06
3.74752e-06
-1.23614e-05
-6.8288e-06
-1.41307e-05
-5.71793e-07
-1.53492e-05
-6.19943e-06
-9.41672e-06
-3.7331e-06
5.72422e-06
-4.86494e-06
-2.25816e-05
-1.1879e-05
-1.92405e-05
-1.51908e-05
-1.53728e-05
-6.80929e-06
6.11162e-06
2.45884e-05
-2.34526e-06
-1.17609e-05
-7.13515e-07
-1.67015e-06
-2.13499e-06
-5.48685e-06
3.24888e-06
-6.82518e-06
-5.72776e-06
4.08263e-06
8.46403e-07
-8.34604e-06
1.89006e-06
-4.54464e-06
1.4527e-06
1.28692e-06
5.08985e-07
-5.73459e-06
2.51973e-06
2.30165e-06
-7.43325e-06
1.55103e-06
-1.53025e-06
-5.70948e-06
-1.21118e-05
-7.43795e-06
-2.75469e-06
4.90392e-07
-1.4799e-06
-1.28561e-05
-4.28184e-07
4.13045e-06
-2.09524e-06
6.9912e-07
-2.41272e-06
-4.54955e-06
-2.04466e-06
2.25268e-06
-4.9091e-06
-8.13437e-06
-3.99443e-06
-4.65157e-07
-4.0343e-06
-6.09923e-06
-4.72273e-06
4.0797e-06
-2.11823e-06
-2.53377e-06
-7.23454e-06
-1.07694e-05
-6.77615e-06
-8.53795e-06
-3.57842e-06
-4.52484e-06
3.05174e-06
-8.628e-07
7.03399e-06
-1.09038e-06
-1.43333e-06
-4.64405e-06
2.84635e-09
-1.16634e-10
1.31917e-07
-5.70072e-10
4.3144e-09
-3.62749e-06
-7.86803e-10
2.17483e-09
7.60799e-10
1.5016e-09
6.13544e-09
-2.8433e-06
1.18324e-10
6.56582e-10
-9.87607e-07
-5.05839e-09
-3.24772e-09
-1.74169e-09
-2.47534e-06
-5.04476e-09
-4.8711e-09
3.06609e-07
-5.46211e-09
-8.77906e-09
-7.11757e-07
-5.39628e-09
-4.73752e-09
-1.29458e-06
-1.18657e-09
8.09433e-09
3.88565e-06
-9.84513e-09
-3.22284e-09
2.56788e-09
4.6611e-09
-3.10856e-09
-2.89399e-09
-2.90043e-06
-3.10993e-09
4.49714e-09
-2.07277e-06
-2.63235e-10
1.2694e-09
-3.28271e-07
-2.71918e-09
8.25389e-10
-4.1563e-07
-7.47052e-09
-7.55398e-09
-2.87102e-09
-1.13333e-06
-5.7775e-09
-8.90133e-09
6.92144e-11
-6.7883e-09
-8.43752e-09
-4.81659e-06
-6.86776e-09
-3.88994e-09
-5.42544e-06
-4.99782e-09
-7.86974e-07
-5.35558e-09
-5.65951e-09
-1.92477e-05
8.4839e-06
2.61533e-06
1.08092e-06
7.60134e-06
-2.99878e-05
-4.18728e-06
1.01328e-05
3.43748e-06
1.79348e-05
7.28182e-06
-2.32727e-06
1.10223e-05
2.15113e-05
6.14019e-05
-3.70325e-05
-3.73355e-05
4.50448e-07
7.57585e-05
-2.04772e-05
-2.11877e-05
7.03745e-05
-4.49362e-05
-5.38358e-05
9.26221e-05
-5.22304e-05
-3.18968e-05
-7.00015e-06
-6.16203e-06
3.92524e-05
-9.16311e-06
-2.67178e-05
-2.08528e-05
3.07483e-06
7.85328e-05
-1.43044e-05
-3.09458e-05
7.33168e-05
-3.64508e-05
1.09617e-05
-5.22375e-05
-4.19475e-06
2.48587e-06
4.92642e-05
-1.8242e-05
2.66702e-05
5.10846e-05
-4.67517e-05
-3.09231e-05
-2.83964e-06
6.56846e-05
6.208e-07
-2.81928e-05
6.70536e-05
-2.72962e-05
-1.80911e-05
1.23789e-05
-2.12741e-05
-4.82464e-06
-1.20086e-05
-9.24494e-06
5.78859e-05
-2.74601e-05
-3.45132e-05
6.74322e-06
-2.693e-06
1.36723e-06
-3.52097e-06
-9.50185e-06
-1.38029e-05
-1.01369e-06
-9.41276e-06
3.32047e-06
-1.13421e-05
-6.68595e-06
-6.38465e-07
-5.58578e-06
-1.11483e-05
2.90157e-05
2.00505e-05
1.67943e-05
1.4164e-06
3.40512e-05
5.95154e-06
1.22974e-05
3.12323e-05
2.52535e-05
2.77439e-05
4.12329e-05
2.75105e-05
1.46314e-05
-2.84016e-06
2.11635e-06
-1.62759e-05
-2.19881e-06
1.31635e-05
1.07789e-05
5.90956e-06
3.41642e-05
8.02141e-06
2.03653e-05
3.29179e-05
1.9736e-05
-4.42082e-06
-2.37367e-05
2.00057e-06
-1.53889e-06
2.24253e-05
1.20682e-05
-1.5636e-05
2.2747e-05
2.62022e-05
1.62199e-05
1.64586e-06
2.81913e-05
9.54692e-07
1.59077e-05
2.97056e-05
1.6283e-05
1.05316e-05
6.27993e-06
9.11679e-06
-7.01399e-07
-5.44278e-06
2.99188e-06
2.61111e-05
1.02585e-05
1.81242e-05
3.26812e-06
-1.36846e-06
1.28044e-06
-2.91125e-06
-5.91133e-06
-4.50271e-06
-1.66438e-06
-5.99131e-06
3.18318e-06
-7.2189e-06
-3.53773e-06
-7.96088e-07
-3.79864e-06
-5.32029e-06
9.91811e-06
1.11404e-05
9.71701e-06
8.32788e-07
1.2666e-05
2.37027e-06
6.85948e-06
1.02113e-05
1.28955e-05
1.48106e-05
1.36332e-05
1.50915e-05
7.72609e-06
-7.7638e-07
1.1237e-07
-8.42637e-06
1.43768e-06
6.92518e-06
5.56564e-06
3.84279e-06
9.79177e-06
3.94384e-06
1.18087e-05
1.06971e-05
1.02111e-05
-3.1635e-06
-5.56222e-06
8.69331e-07
-1.02201e-06
6.90975e-06
6.13925e-06
-8.4126e-06
6.66329e-06
1.41384e-05
9.31413e-06
7.52285e-07
8.868e-06
-6.48689e-07
8.36899e-06
9.26124e-06
9.23361e-06
5.23602e-06
2.88744e-06
5.64254e-06
-1.07169e-06
-1.71658e-06
1.12506e-06
6.95493e-06
5.74212e-06
1.09683e-05
-1.92868e-06
-2.85587e-06
1.77499e-06
-2.72723e-06
3.39757e-06
-7.56388e-07
-2.69377e-06
-5.16022e-06
3.20302e-07
2.4814e-06
-3.59354e-06
4.12058e-06
-6.95641e-06
3.12012e-06
-1.22204e-07
-6.72248e-06
-3.77661e-06
4.96608e-07
-2.0201e-07
-7.45788e-06
7.344e-07
-2.23645e-06
-1.13018e-06
-3.77311e-06
1.71128e-06
-3.01161e-06
-3.831e-06
4.74984e-07
-7.52269e-07
-2.44205e-06
1.10641e-06
-2.46697e-06
-2.06293e-06
-4.68808e-06
-4.15749e-06
-3.65049e-07
9.94034e-07
-8.70431e-07
-1.55106e-06
1.01327e-06
1.55739e-07
5.81787e-07
-1.015e-06
-4.4482e-06
-4.68815e-08
-2.51922e-06
-2.53486e-06
-2.68862e-06
-8.28567e-07
-1.68107e-06
4.16295e-06
4.76024e-06
1.82681e-06
1.70665e-06
4.24242e-06
5.5629e-06
8.15301e-06
5.94426e-06
3.71534e-06
6.37407e-07
-1.92738e-06
3.06178e-06
4.00675e-06
2.47798e-06
1.55647e-06
6.5815e-06
5.83364e-06
5.71562e-07
1.54073e-06
9.09567e-07
4.50182e-06
-3.78114e-06
6.60668e-06
4.75008e-06
-1.21585e-07
4.90267e-07
3.87344e-06
4.8896e-06
3.59153e-06
2.27945e-06
5.73429e-07
2.29629e-06
3.02442e-06
5.08097e-06
6.61933e-09
-1.12565e-08
2.29813e-06
6.2843e-09
5.60495e-07
4.8855e-09
2.53791e-06
1.0026e-09
1.13365e-10
1.51342e-09
-3.79505e-06
-4.65956e-09
-1.52336e-07
3.65255e-09
3.08147e-06
-4.72646e-10
1.3188e-06
-3.11819e-09
6.53895e-06
-8.84201e-10
-1.44209e-06
-2.87068e-09
-1.16153e-06
-1.03707e-09
2.01937e-07
8.73247e-10
2.13359e-06
9.93809e-10
1.81951e-07
1.20915e-09
3.59749e-06
4.31263e-09
1.24768e-06
1.98615e-09
-2.05682e-06
3.0916e-09
-1.22064e-06
1.55101e-11
-4.47735e-06
-4.9533e-09
-1.1268e-06
3.35102e-09
1.98008e-07
-1.96747e-09
-9.46723e-07
-2.03049e-09
-1.33472e-06
-4.26621e-09
-5.00987e-06
-6.91926e-09
2.29155e-06
-5.99829e-09
-1.56862e-06
-9.34976e-09
-1.69741e-06
-1.16478e-06
1.42004e-05
-2.63538e-05
-6.09454e-06
8.18784e-06
9.45039e-06
3.00515e-05
-1.64741e-05
2.8969e-06
5.07453e-05
-2.72909e-05
3.62516e-05
-4.66242e-05
-1.76794e-05
3.24449e-05
-6.76565e-05
1.817e-05
-1.80116e-05
-1.72358e-05
3.4811e-05
-1.05715e-05
-5.68637e-05
8.99067e-06
-7.52619e-05
1.56505e-05
-1.09435e-05
1.65447e-05
-1.6472e-05
-1.70011e-05
2.84569e-05
-3.87472e-06
-2.1591e-05
1.21136e-06
-1.44571e-05
2.14633e-06
-4.16027e-05
4.08555e-06
-9.53877e-06
-1.02775e-05
-1.43381e-05
-1.60649e-05
-4.12856e-05
3.3658e-05
-5.20024e-05
1.20146e-05
-6.72881e-06
-5.73319e-06
1.54782e-05
-2.58742e-06
-3.5664e-05
-1.08727e-05
-4.39662e-06
-1.80072e-05
-1.54425e-06
-1.94893e-05
-3.44623e-05
-4.69153e-05
-9.11736e-06
1.67252e-05
-3.43944e-06
-7.63522e-06
4.44685e-06
-1.79756e-05
-7.13104e-06
-2.4675e-06
2.39192e-05
1.21314e-05
1.60518e-05
2.12467e-05
-6.7655e-06
-1.70471e-05
-2.9346e-05
-8.91714e-06
-9.34006e-06
1.60435e-05
1.58373e-05
7.8953e-06
-2.34657e-05
-6.95149e-06
-3.29103e-05
-1.06211e-05
-5.14848e-06
-7.1718e-06
-6.77093e-06
8.23246e-06
1.30441e-05
6.97968e-06
-9.60396e-06
6.42933e-06
-5.899e-06
2.67957e-06
-1.81239e-05
9.52986e-07
-5.8108e-06
5.83706e-06
-7.16537e-06
8.56216e-06
-1.78351e-05
-1.91142e-05
-2.435e-05
-6.33196e-06
-3.2519e-06
2.17425e-06
7.9341e-06
-8.05012e-07
-1.64002e-05
6.13397e-06
-2.21491e-06
9.36825e-06
-1.80272e-06
9.19722e-06
-1.61707e-05
-2.09901e-05
-5.1485e-06
8.99435e-06
-1.55113e-06
-4.98498e-06
1.34297e-06
-1.04069e-05
-3.38863e-06
-1.41949e-06
7.70941e-06
7.50079e-06
3.33242e-06
1.16415e-05
2.41518e-07
-9.15122e-06
-8.57109e-06
-5.30763e-06
-3.4519e-06
8.72856e-06
4.18026e-06
5.3358e-06
-7.17581e-06
-4.05933e-06
-8.43886e-06
-6.36334e-06
-2.75598e-06
-4.7509e-06
-1.5262e-06
5.52894e-06
2.75974e-06
4.60556e-06
-3.13291e-06
3.885e-06
-1.2503e-06
1.93562e-06
-5.97251e-06
4.82812e-07
-3.49288e-06
3.41233e-06
-3.94093e-06
4.98669e-06
-5.22678e-06
-1.0878e-05
-8.5335e-06
-3.80418e-06
-1.04857e-06
2.14867e-06
1.32091e-06
-1.65421e-07
-4.85669e-06
2.79146e-06
4.57187e-07
4.76103e-06
-2.66766e-06
4.17957e-06
-4.63747e-06
-7.82806e-06
-3.83451e-06
5.29525e-06
-3.55141e-06
-7.00001e-06
-1.82843e-06
6.83569e-07
5.11186e-06
-3.44692e-06
-2.12586e-06
3.76659e-06
2.15432e-06
-3.43429e-07
-2.46818e-06
-9.75859e-07
1.76765e-06
2.64187e-06
2.95354e-06
2.81885e-06
8.51879e-07
1.37968e-06
2.78968e-06
-5.7309e-06
-2.055e-06
-2.64399e-07
-2.4399e-07
2.48232e-06
2.09381e-06
2.5203e-06
-3.34072e-09
3.31682e-09
-2.99793e-07
-2.4016e-09
-3.33683e-06
-2.6054e-09
1.20056e-07
-3.03972e-06
-1.89058e-06
2.26094e-05
-9.81556e-06
1.43009e-05
)
;

boundaryField
{
    top_fluid_surface
    {
        type            calculated;
        value           nonuniform List<scalar> 
64
(
1.02748e-10
0
0
0
0
0
0
0
0
2.49914e-09
1.14331e-08
0
0
0
4.34054e-09
0
1.15379e-08
1.22704e-08
1.06687e-08
1.18995e-08
0
0
1.17246e-08
1.33116e-08
0
8.89339e-09
1.22855e-08
1.2374e-08
1.2107e-08
5.06798e-09
0
6.25772e-09
0
0
0
5.19155e-09
3.16017e-10
4.39505e-10
0
2.92023e-10
0
0
0
0
0
0
0
0
0
0
7.742e-10
0
0
0
0
0
0
0
0
0
0
0
0
0
)
;
    }
    bottom_fluid_surface
    {
        type            calculated;
        value           uniform 0;
    }
    lateral_surface_1
    {
        type            calculated;
        value           uniform 0;
    }
    lateral_surface_2
    {
        type            calculated;
        value           uniform 0;
    }
    lateral_surface_3
    {
        type            calculated;
        value           uniform 0;
    }
    lateral_surface_4
    {
        type            calculated;
        value           uniform 0;
    }
}


// ************************************************************************* //
