/*--------------------------------*- C++ -*----------------------------------*\
| =========                 |                                                 |
| \\      /  F ield         | OpenFOAM: The Open Source CFD Toolbox           |
|  \\    /   O peration     | Version:  v1612+                                |
|   \\  /    A nd           | Web:      www.OpenFOAM.com                      |
|    \\/     M anipulation  |                                                 |
\*---------------------------------------------------------------------------*/
FoamFile
{
    version     2.0;
    format      ascii;
    class       surfaceScalarField;
    location    "8.4";
    object      phi;
}
// * * * * * * * * * * * * * * * * * * * * * * * * * * * * * * * * * * * * * //

dimensions      [0 3 -1 0 0 0 0];

internalField   nonuniform List<scalar> 
816
(
-2.81707e-06
-9.53685e-06
5.80728e-06
-1.30325e-05
-1.69812e-05
3.65831e-05
7.06338e-06
2.01129e-06
-1.19834e-05
5.99931e-07
-4.66718e-07
-9.09063e-06
1.71443e-06
2.44024e-06
4.14957e-06
-8.70866e-06
-1.00769e-05
5.58207e-06
-4.72565e-07
2.9124e-06
0.000115282
-0.000186265
-0.000181348
-6.71901e-05
8.14295e-05
0.000274363
-4.15787e-06
0.000228745
-0.000125119
-2.83064e-05
-5.55834e-06
1.94689e-05
0.000369801
-3.32383e-05
7.09856e-06
0.000216213
-0.000185669
0.000184078
-1.45911e-07
0.000320162
-0.000144222
4.93934e-05
2.73573e-06
8.04093e-05
0.00025272
0.000135691
1.16614e-06
0.000343483
-0.000111968
0.000413534
-1.74619e-06
0.000116191
-5.77184e-05
1.85767e-05
5.29601e-07
0.000234705
0.000264177
1.01878e-05
-4.65481e-06
0.000144508
-0.000233171
-0.000387879
-2.56201e-06
-5.84385e-06
-0.000331797
-8.83657e-06
-0.000252745
-0.000123432
1.62246e-05
8.53085e-07
-3.32655e-05
-3.88209e-06
1.16919e-05
3.30895e-05
-3.65382e-05
1.42998e-05
9.13821e-06
7.83432e-07
-4.98714e-06
4.62359e-07
3.43772e-05
-4.98196e-06
2.35423e-05
2.04673e-06
-1.19873e-05
9.89642e-06
-1.57154e-05
9.50592e-06
-1.16305e-05
3.72539e-06
-2.4169e-05
7.38375e-06
2.46611e-05
9.45515e-06
-3.13938e-05
1.30501e-05
1.18502e-05
2.1118e-05
-8.62783e-06
-8.74333e-06
-5.91788e-07
1.08135e-05
-4.93289e-05
2.35487e-05
3.64599e-05
2.4034e-05
-3.51203e-05
1.11099e-05
2.52803e-07
-1.06555e-05
5.64619e-05
6.19159e-06
-3.07016e-05
-2.36981e-05
-3.21379e-06
5.50317e-06
-1.36163e-05
3.55357e-06
-1.63847e-05
-1.03402e-06
-2.10345e-05
-1.57278e-05
-1.13717e-05
5.22588e-07
-2.17184e-06
-1.11778e-06
-2.32499e-05
4.58889e-06
1.06089e-05
-3.06189e-06
-5.39884e-06
-7.36619e-06
-8.4797e-06
3.7435e-06
-1.23411e-05
-6.82543e-06
-1.41389e-05
-5.29423e-07
-1.5327e-05
-6.2277e-06
-9.38303e-06
-3.75012e-06
5.67186e-06
-4.83214e-06
-2.26575e-05
-1.19723e-05
-1.92535e-05
-1.52398e-05
-1.55067e-05
-6.85222e-06
6.04297e-06
2.45881e-05
-2.37458e-06
-1.1759e-05
-6.90012e-07
-1.65794e-06
-2.14864e-06
-5.47477e-06
3.25414e-06
-6.83149e-06
-5.72997e-06
4.0777e-06
8.42214e-07
-8.37958e-06
1.88323e-06
-4.56814e-06
1.44178e-06
1.29414e-06
4.96706e-07
-5.77779e-06
2.49063e-06
2.28486e-06
-7.43461e-06
1.55432e-06
-1.51771e-06
-5.71292e-06
-1.21386e-05
-7.4413e-06
-2.76253e-06
4.6697e-07
-1.45735e-06
-1.28944e-05
-4.34031e-07
4.11671e-06
-2.12344e-06
7.02042e-07
-2.42414e-06
-4.58538e-06
-2.04e-06
2.2734e-06
-4.91429e-06
-8.1487e-06
-3.98867e-06
-4.37659e-07
-4.05739e-06
-6.09484e-06
-4.70253e-06
4.05968e-06
-2.12123e-06
-2.51086e-06
-7.2775e-06
-1.0772e-05
-6.80562e-06
-8.56859e-06
-3.59807e-06
-4.57484e-06
3.04318e-06
-8.74276e-07
7.03741e-06
-1.08174e-06
-1.43497e-06
-4.65306e-06
0.000136772
-7.97109e-06
2.03714e-06
-2.07002e-05
0.000226059
-5.47409e-06
-3.16903e-05
0.000124716
7.23081e-06
8.71898e-05
0.000312575
-8.32677e-06
3.79443e-06
4.04213e-05
-3.58832e-06
-0.000262824
-0.000160845
-0.000107139
-3.74554e-06
-0.000234055
-0.000304878
1.24468e-06
-0.000265575
-0.000453218
-2.711e-07
-0.000271108
-0.000232724
-2.84656e-06
-5.86235e-05
0.000430823
1.73068e-05
-0.00046212
-0.000161292
0.000149825
-2.50492e-06
-0.000143761
-0.000142211
-2.49461e-07
-0.000154231
0.000218581
-8.73689e-07
-1.2591e-05
7.6548e-05
2.00233e-07
-0.000147056
5.25589e-05
-5.50871e-07
-0.000371329
-0.0003773
-0.000176961
-1.21658e-06
-0.00027366
-0.000488378
4.67465e-06
-0.000340005
-0.000421121
-4.90238e-06
-0.000324922
-0.000204704
-4.6718e-06
-0.000231813
1.56966e-06
-0.000255202
-0.000272545
-1.89935e-05
8.53673e-06
2.61597e-06
1.19942e-06
7.72156e-06
-3.01193e-05
-4.10045e-06
1.00951e-05
3.41996e-06
1.80284e-05
7.41931e-06
-2.34189e-06
1.11152e-05
2.13802e-05
6.13882e-05
-3.72333e-05
-3.71783e-05
3.71211e-07
7.59464e-05
-2.06311e-05
-2.1276e-05
7.06371e-05
-4.50715e-05
-5.38913e-05
9.28995e-05
-5.22051e-05
-3.19695e-05
-7.07526e-06
-6.18294e-06
3.9434e-05
-9.24302e-06
-2.688e-05
-2.08661e-05
3.07011e-06
7.87877e-05
-1.43218e-05
-3.10484e-05
7.35196e-05
-3.63875e-05
1.10743e-05
-5.2165e-05
-4.15874e-06
2.56072e-06
4.941e-05
-1.82533e-05
2.67494e-05
5.12352e-05
-4.68498e-05
-3.10167e-05
-2.81812e-06
6.58462e-05
5.58468e-07
-2.83662e-05
6.70269e-05
-2.77612e-05
-1.8334e-05
1.24033e-05
-2.15172e-05
-4.86278e-06
-1.20276e-05
-9.32758e-06
5.80967e-05
-2.75102e-05
-3.45254e-05
6.79429e-06
-2.75107e-06
1.37073e-06
-3.48649e-06
-9.50913e-06
-1.38472e-05
-9.7302e-07
-9.43466e-06
3.33444e-06
-1.13089e-05
-6.67144e-06
-6.59102e-07
-5.5969e-06
-1.12515e-05
2.90236e-05
2.00734e-05
1.68673e-05
1.36396e-06
3.41167e-05
5.9581e-06
1.23101e-05
3.13455e-05
2.52731e-05
2.78228e-05
4.13356e-05
2.75579e-05
1.46669e-05
-2.85746e-06
2.11195e-06
-1.63361e-05
-2.20389e-06
1.31901e-05
1.08006e-05
5.9049e-06
3.42824e-05
8.08503e-06
2.0388e-05
3.29839e-05
1.98013e-05
-4.39931e-06
-2.37203e-05
1.99817e-06
-1.51096e-06
2.24783e-05
1.20641e-05
-1.56445e-05
2.28106e-05
2.62539e-05
1.62774e-05
1.66859e-06
2.82594e-05
1.00054e-06
1.5905e-05
2.97291e-05
1.62421e-05
1.05049e-05
6.2873e-06
9.1299e-06
-7.30744e-07
-5.46906e-06
3.00781e-06
2.61874e-05
1.02834e-05
1.81416e-05
3.28811e-06
-1.40219e-06
1.2842e-06
-2.89145e-06
-5.9242e-06
-4.51351e-06
-1.64652e-06
-5.9986e-06
3.18907e-06
-7.20766e-06
-3.53961e-06
-8.05758e-07
-3.80417e-06
-5.36554e-06
9.91594e-06
1.11603e-05
9.73067e-06
8.04489e-07
1.26855e-05
2.3549e-06
6.86238e-06
1.02475e-05
1.29133e-05
1.48309e-05
1.36687e-05
1.51066e-05
7.73419e-06
-7.77482e-07
1.12063e-07
-8.44266e-06
1.44101e-06
6.93527e-06
5.56582e-06
3.86588e-06
9.82167e-06
3.96999e-06
1.18335e-05
1.07178e-05
1.02355e-05
-3.15363e-06
-5.5513e-06
8.68288e-07
-1.00856e-06
6.92833e-06
6.13842e-06
-8.42014e-06
6.67847e-06
1.41579e-05
9.35466e-06
7.54239e-07
8.88558e-06
-6.25963e-07
8.3689e-06
9.27128e-06
9.23198e-06
5.23284e-06
2.89693e-06
5.63094e-06
-1.09889e-06
-1.71899e-06
1.11422e-06
6.98287e-06
5.73698e-06
1.09688e-05
-1.94217e-06
-2.85802e-06
1.78875e-06
-2.72432e-06
3.3927e-06
-7.46108e-07
-2.71439e-06
-5.18053e-06
3.1061e-07
2.50367e-06
-3.61782e-06
4.10903e-06
-6.96374e-06
3.12475e-06
-1.09872e-07
-6.74076e-06
-3.77108e-06
4.76307e-07
-1.8501e-07
-7.48449e-06
7.20666e-07
-2.25467e-06
-1.13794e-06
-3.79248e-06
1.72546e-06
-3.01694e-06
-3.84022e-06
4.96292e-07
-7.63594e-07
-2.42043e-06
1.09604e-06
-2.45674e-06
-2.08185e-06
-4.68078e-06
-4.1683e-06
-3.66623e-07
9.93686e-07
-8.75817e-07
-1.54881e-06
1.01115e-06
1.67904e-07
5.64414e-07
-1.0012e-06
-4.45424e-06
-3.76255e-08
-2.52923e-06
-2.52498e-06
-2.69696e-06
-8.22144e-07
-1.70748e-06
4.17935e-06
4.7671e-06
1.80746e-06
1.70007e-06
4.24169e-06
5.56893e-06
8.16397e-06
5.95022e-06
3.71864e-06
6.3776e-07
-1.93209e-06
3.0706e-06
4.00741e-06
2.49249e-06
1.56766e-06
6.59963e-06
5.84366e-06
5.84113e-07
1.54319e-06
9.19696e-07
4.50659e-06
-3.77901e-06
6.61065e-06
4.77423e-06
-1.22591e-07
5.06686e-07
3.87102e-06
4.89807e-06
3.58942e-06
2.27928e-06
5.63658e-07
2.29483e-06
3.02869e-06
5.08202e-06
0.000340356
-0.000481089
1.06241e-05
0.000332726
2.03672e-06
0.000254159
1.16525e-05
5.39366e-05
6.74288e-06
9.05645e-05
-4.83833e-06
-0.000217334
-1.73166e-08
0.000174265
1.38979e-05
-2.07396e-05
6.04491e-06
-0.000169655
3.4166e-05
-4.76075e-05
-1.9287e-07
-0.000146878
-1.83094e-06
-4.80257e-05
-1.3033e-06
4.11681e-05
7.18528e-06
5.57679e-05
7.01192e-07
5.35963e-05
1.64901e-05
0.000195338
5.49967e-06
9.49426e-05
-1.37378e-06
0.000145671
-6.09371e-07
2.06949e-06
-3.71185e-06
-0.00023134
-1.40939e-06
0.000155122
1.98009e-06
-8.80295e-05
-2.24783e-06
-0.00010594
-1.94911e-06
-0.00019241
-4.88101e-06
-0.000335704
1.04218e-05
-0.00029029
-2.63883e-06
-0.000391173
-2.05504e-06
-1.00199e-06
1.43401e-05
-2.66366e-05
-6.09772e-06
8.35907e-06
9.36588e-06
3.009e-05
-1.66639e-05
2.81847e-06
5.06197e-05
-2.73019e-05
3.63902e-05
-4.65263e-05
-1.7595e-05
3.2539e-05
-6.80095e-05
1.78789e-05
-1.81909e-05
-1.73313e-05
3.49018e-05
-1.04007e-05
-5.6792e-05
8.89317e-06
-7.5359e-05
1.56502e-05
-1.09367e-05
1.63615e-05
-1.65694e-05
-1.67279e-05
2.87253e-05
-3.86736e-06
-2.16855e-05
1.23291e-06
-1.46067e-05
2.14871e-06
-4.17407e-05
4.1511e-06
-9.47123e-06
-1.02845e-05
-1.43175e-05
-1.63464e-05
-4.14582e-05
3.39024e-05
-5.18887e-05
1.20388e-05
-6.88723e-06
-5.87671e-06
1.52625e-05
-2.64278e-06
-3.55972e-05
-1.09263e-05
-4.37068e-06
-1.7976e-05
-1.50044e-06
-1.96491e-05
-3.44903e-05
-4.68535e-05
-9.06793e-06
1.66823e-05
-3.40854e-06
-7.59636e-06
4.41502e-06
-1.79964e-05
-7.19075e-06
-2.5137e-06
2.38871e-05
1.2165e-05
1.60901e-05
2.13652e-05
-6.76568e-06
-1.71214e-05
-2.9477e-05
-9.04748e-06
-9.39356e-06
1.59912e-05
1.59129e-05
7.922e-06
-2.34634e-05
-6.94953e-06
-3.2942e-05
-1.06174e-05
-5.13597e-06
-7.24831e-06
-6.75371e-06
8.34007e-06
1.31191e-05
7.0082e-06
-9.60475e-06
6.41812e-06
-5.94806e-06
2.65848e-06
-1.81933e-05
9.73247e-07
-5.7806e-06
5.87318e-06
-7.18012e-06
8.5328e-06
-1.79062e-05
-1.90729e-05
-2.43272e-05
-6.30879e-06
-3.3035e-06
2.1149e-06
7.85108e-06
-8.31302e-07
-1.641e-05
6.11672e-06
-2.16569e-06
9.35963e-06
-1.75766e-06
9.18049e-06
-1.61675e-05
-2.0971e-05
-5.12088e-06
8.98675e-06
-1.54192e-06
-4.96918e-06
1.33383e-06
-1.0416e-05
-3.40757e-06
-1.43247e-06
7.69547e-06
7.5161e-06
3.33143e-06
1.16863e-05
2.31855e-07
-9.20268e-06
-8.62462e-06
-5.36645e-06
-3.47262e-06
8.71764e-06
4.19759e-06
5.34429e-06
-7.17201e-06
-4.0674e-06
-8.44411e-06
-6.37399e-06
-2.7527e-06
-4.7712e-06
-1.52054e-06
5.55876e-06
2.78026e-06
4.63105e-06
-3.1326e-06
3.90189e-06
-1.26844e-06
1.93009e-06
-5.9916e-06
4.97502e-07
-3.48094e-06
3.42727e-06
-3.94093e-06
5.00024e-06
-5.24121e-06
-1.08615e-05
-8.54631e-06
-3.79886e-06
-1.06312e-06
2.11484e-06
1.29697e-06
-2.06578e-07
-4.86207e-06
2.78118e-06
4.66923e-07
4.76445e-06
-2.65632e-06
4.17695e-06
-4.63031e-06
-7.82312e-06
-3.81209e-06
5.28443e-06
-3.54452e-06
-7.00769e-06
-1.83966e-06
6.81153e-07
5.12887e-06
-3.47635e-06
-2.15779e-06
3.752e-06
2.15242e-06
-3.43967e-07
-2.46754e-06
-9.80874e-07
1.7711e-06
2.65197e-06
2.96536e-06
2.82945e-06
8.69503e-07
1.38213e-06
2.80319e-06
-5.72136e-06
-2.05031e-06
-2.78323e-07
-2.61057e-07
2.4753e-06
2.08821e-06
2.51614e-06
-0.000152775
0.000164546
-2.9646e-06
-0.000109336
-3.69761e-06
-0.000119999
6.01076e-08
-2.07233e-06
-2.03687e-06
2.25693e-05
-9.86319e-06
1.40306e-05
)
;

boundaryField
{
    top_fluid_surface
    {
        type            calculated;
        value           nonuniform List<scalar> 
64
(
1.66715e-05
-0.000199522
-5.97708e-05
-4.85922e-05
-0.000391879
-0.000222689
-0.000346218
-0.000313573
-0.000128252
0.000128068
0.000702631
-5.62162e-05
-0.000374258
-7.3955e-05
0.000248371
-0.000146387
0.000744418
0.000787127
0.00066086
0.000735715
-4.65609e-05
-0.000108418
0.000739487
0.000823017
-0.000224577
0.000511295
0.000763782
0.000773398
0.000756939
0.000276211
-8.28949e-05
0.000329037
-0.000149295
-2.32235e-05
-1.57699e-06
0.00029223
1.83336e-05
2.32704e-05
-0.000426719
1.64199e-05
-0.000196566
-0.000358287
-0.000175647
-0.000142774
-0.000512003
-1.87427e-05
-0.000221482
-0.000313866
-5.31652e-05
-7.00425e-05
3.33548e-05
-0.000140095
-0.000392649
-9.98905e-05
-0.000279102
-0.000173071
-0.000236925
-0.000252883
-0.000183861
-0.000855884
-0.000210839
-0.000335805
-4.36605e-05
-0.00046259
)
;
    }
    bottom_fluid_surface
    {
        type            calculated;
        value           uniform 0;
    }
    lateral_surface_1
    {
        type            calculated;
        value           uniform 0;
    }
    lateral_surface_2
    {
        type            calculated;
        value           uniform 0;
    }
    lateral_surface_3
    {
        type            calculated;
        value           uniform 0;
    }
    lateral_surface_4
    {
        type            calculated;
        value           uniform 0;
    }
}


// ************************************************************************* //
