/*--------------------------------*- C++ -*----------------------------------*\
| =========                 |                                                 |
| \\      /  F ield         | OpenFOAM: The Open Source CFD Toolbox           |
|  \\    /   O peration     | Version:  v1612+                                |
|   \\  /    A nd           | Web:      www.OpenFOAM.com                      |
|    \\/     M anipulation  |                                                 |
\*---------------------------------------------------------------------------*/
FoamFile
{
    version     2.0;
    format      ascii;
    class       volScalarField;
    location    "2.35";
    object      alpha.water;
}
// * * * * * * * * * * * * * * * * * * * * * * * * * * * * * * * * * * * * * //

dimensions      [0 0 0 0 0 0 0];

internalField   nonuniform List<scalar> 
320
(
1
1
1
1
6.71389e-06
7.59559e-06
7.1379e-06
5.24992e-06
4.60507e-06
6.21338e-06
5.30559e-06
4.9159e-06
6.91591e-06
5.96959e-06
6.11324e-06
4.08865e-06
0.999988
0.999993
0.999993
0.999992
0.999996
0.999991
0.999993
0.999991
0.999986
0.999992
0.999995
0.999993
1
1
1
1
1
1
1
1
1
1
1
1
1
1
1
1
1
1
1
1
1
1
1
1
1
1
1
1
3.93207e-06
6.53743e-06
6.88714e-06
6.64468e-06
5.84422e-06
5.13707e-06
4.37004e-06
4.3814e-06
5.92204e-06
7.17459e-06
5.48783e-06
5.4471e-06
5.71525e-06
4.97816e-06
6.59398e-06
6.27602e-06
4.80151e-06
3.99286e-06
4.08463e-06
5.93131e-06
0.999997
0.999989
0.999996
0.999996
0.999998
0.999996
0.999993
1
0.999998
0.999991
0.999992
0.999997
0.999989
0.999994
0.999994
0.999995
0.999994
0.999996
0.999994
0.999994
1
1
1
1
1
1
1
1
1
1
1
1
1
1
1
1
1
1
1
1
1
1
1
1
1
1
1
1
1
1
1
1
1
1
1
1
1
1
1
1
1
1
1
1
1
1
1
1
1
1
1
1
1
1
1
1
1
1
1
1
1
1
1
1
1
1
1
1
1
1
1
1
1
1
1
1
6.39767e-06
4.87919e-06
8.19687e-06
5.49883e-06
4.93292e-06
6.46993e-06
5.86613e-06
5.40974e-06
4.80916e-06
6.44298e-06
8.68842e-06
8.10346e-06
6.0783e-06
7.15271e-06
8.03108e-06
6.23533e-06
6.24332e-06
6.43032e-06
5.26104e-06
5.63224e-06
7.41846e-06
6.55023e-06
5.11273e-06
5.68233e-06
5.36636e-06
6.62805e-06
7.19163e-06
6.76861e-06
0.999995
0.999997
0.999995
0.999998
0.999996
0.999991
0.999991
0.99999
0.999994
0.999993
0.99999
0.999993
0.999999
0.999996
0.999992
0.999996
0.999996
0.999995
0.999992
0.999993
0.999992
0.999996
0.999997
0.999992
0.999992
0.999996
0.999993
0.999996
1
1
1
1
1
1
1
1
1
1
1
1
1
1
1
1
1
1
1
1
1
1
1
1
1
1
1
1
1
1
1
1
1
1
1
1
1
1
1
1
1
1
1
1
1
1
1
1
1
1
1
1
1
1
1
1
1
1
1
1
1
1
1
1
1
1
1
1
1
1
1
1
1
1
1
1
1
1
1
1
1
1
1
1
7.88867e-06
6.54126e-06
5.45565e-06
4.79776e-06
0.999996
0.999998
0.999998
0.999995
)
;

boundaryField
{
    top_fluid_surface
    {
        type            inletOutlet;
        inletValue      uniform 0;
        value           nonuniform List<scalar> 
64
(
0
0
0
5.24992e-06
4.60507e-06
0
5.30559e-06
4.9159e-06
6.91591e-06
0
0
4.08865e-06
3.93207e-06
0
0
0
5.84422e-06
5.13707e-06
4.37004e-06
4.3814e-06
5.92204e-06
0
5.48783e-06
5.4471e-06
5.71525e-06
4.97816e-06
0
0
4.80151e-06
3.99286e-06
4.08463e-06
5.93131e-06
0
4.87919e-06
0
5.49883e-06
4.93292e-06
6.46993e-06
0
0
4.80916e-06
0
0
0
6.0783e-06
0
0
0
0
0
5.26104e-06
5.63224e-06
0
6.55023e-06
5.11273e-06
0
5.36636e-06
0
0
0
0
0
5.45565e-06
4.79776e-06
)
;
    }
    bottom_fluid_surface
    {
        type            zeroGradient;
    }
    lateral_surface_1
    {
        type            zeroGradient;
    }
    lateral_surface_2
    {
        type            zeroGradient;
    }
    lateral_surface_3
    {
        type            zeroGradient;
    }
    lateral_surface_4
    {
        type            zeroGradient;
    }
}


// ************************************************************************* //
