/*--------------------------------*- C++ -*----------------------------------*\
| =========                 |                                                 |
| \\      /  F ield         | OpenFOAM: The Open Source CFD Toolbox           |
|  \\    /   O peration     | Version:  v1612+                                |
|   \\  /    A nd           | Web:      www.OpenFOAM.com                      |
|    \\/     M anipulation  |                                                 |
\*---------------------------------------------------------------------------*/
FoamFile
{
    version     2.0;
    format      ascii;
    class       volScalarField;
    location    "2.35";
    object      p;
}
// * * * * * * * * * * * * * * * * * * * * * * * * * * * * * * * * * * * * * //

dimensions      [1 -1 -2 0 0 0 0];

internalField   nonuniform List<scalar> 
320
(
14724.8
14724.8
14724.8
14724.8
4.93437
4.93496
4.93498
4.93392
4.93356
4.9344
4.93249
4.93318
4.93286
4.93693
4.93474
4.93348
4914.82
4914.86
4914.85
4914.78
4914.79
4914.83
4914.79
4914.78
4914.74
4914.86
4914.85
4914.77
14724.8
14724.8
14724.8
14724.8
14724.8
14724.8
14724.8
14724.8
14724.8
14724.8
14724.8
14724.8
24534.8
24534.8
24534.8
24534.8
24534.8
24534.8
24534.8
24534.8
24534.8
24534.8
24534.8
24534.8
24534.8
24534.8
24534.8
24534.8
4.93362
4.93437
4.9344
4.93502
4.93544
4.93443
4.93368
4.93409
4.93545
4.93576
4.9335
4.93309
4.93425
4.93463
4.93479
4.93429
4.93364
4.93291
4.93408
4.93461
4914.79
4914.82
4914.86
4914.86
4914.82
4914.8
4914.78
4914.81
4914.82
4914.84
4914.79
4914.81
4914.81
4914.79
4914.85
4914.85
4914.79
4914.78
4914.78
4914.8
14724.8
14724.8
14724.8
14724.8
14724.8
14724.8
14724.8
14724.8
14724.8
14724.8
14724.8
14724.8
14724.8
14724.8
14724.8
14724.8
14724.8
14724.8
14724.8
14724.8
24534.8
24534.8
24534.8
24534.8
24534.8
24534.8
24534.8
24534.8
24534.8
24534.8
24534.8
24534.8
24534.8
24534.8
24534.8
24534.8
24534.8
24534.8
24534.8
24534.8
34344.8
34344.8
34344.8
34344.8
34344.8
34344.8
34344.8
34344.8
34344.8
34344.8
34344.8
34344.8
34344.8
34344.8
34344.8
34344.8
34344.8
34344.8
34344.8
34344.8
34344.8
34344.8
34344.8
34344.8
34344.8
34344.8
34344.8
34344.8
34344.8
34344.8
34344.8
34344.8
34344.8
34344.8
34344.8
34344.8
4.93349
4.93306
4.9339
4.93336
4.93387
4.93199
4.93482
4.93769
4.93223
4.93329
4.93492
4.93705
4.93669
4.9356
4.93517
4.93416
4.93448
4.93511
4.93359
4.93652
4.93669
4.93562
4.93368
4.93324
4.93303
4.93385
4.93497
4.93376
4914.85
4914.81
4914.88
4914.82
4914.8
4914.76
4914.82
4914.85
4914.79
4914.84
4914.86
4914.86
4914.83
4914.87
4914.86
4914.86
4914.85
4914.85
4914.82
4914.8
4914.84
4914.82
4914.8
4914.83
4914.79
4914.85
4914.85
4914.86
14724.8
14724.8
14724.8
14724.8
14724.8
14724.8
14724.8
14724.8
14724.8
14724.8
14724.8
14724.8
14724.8
14724.8
14724.8
14724.8
14724.8
14724.8
14724.8
14724.8
14724.8
14724.8
14724.8
14724.8
14724.8
14724.8
14724.8
14724.8
24534.8
24534.8
24534.8
24534.8
24534.8
24534.8
24534.8
24534.8
24534.8
24534.8
24534.8
24534.8
24534.8
24534.8
24534.8
24534.8
24534.8
24534.8
24534.8
24534.8
24534.8
24534.8
24534.8
24534.8
24534.8
24534.8
24534.8
24534.8
34344.8
34344.8
34344.8
34344.8
34344.8
34344.8
34344.8
34344.8
34344.8
34344.8
34344.8
34344.8
34344.8
34344.8
34344.8
34344.8
34344.8
34344.8
34344.8
34344.8
34344.8
34344.8
34344.8
34344.8
34344.8
34344.8
34344.8
34344.8
4.93466
4.93484
4.93324
4.93285
4914.87
4914.87
4914.82
4914.8
)
;

boundaryField
{
    top_fluid_surface
    {
        type            calculated;
        value           nonuniform List<scalar> 
64
(
-2.42196e-09
-9.89349e-09
-3.96612e-09
0
0
-5.11245e-10
0
0
-2.26302e-08
0
-5.1175e-11
0
0
-2.55654e-09
-5.095e-09
-5.41892e-10
0
0
0
0
0
-3.56619e-09
0
0
0
0
-1.657e-09
-6.19551e-10
0
0
0
0
-3.4713e-09
0
-3.02825e-08
0
0
-2.02887e-08
0
0
0
-5.98648e-09
-3.49421e-08
-8.94372e-09
0
-4.8256e-09
-2.09566e-08
-1.45144e-09
-5.15297e-11
-5.89668e-10
0
0
-2.34665e-09
-3.72095e-12
0
-2.30949e-09
0
-2.02798e-09
-4.69954e-09
-4.77568e-09
-1.34653e-08
-3.98171e-10
0
0
)
;
    }
    bottom_fluid_surface
    {
        type            calculated;
        value           nonuniform List<scalar> 
64
(
39249.8
39249.8
39249.8
39249.8
39249.8
39249.8
39249.8
39249.8
39249.8
39249.8
39249.8
39249.8
39249.8
39249.8
39249.8
39249.8
39249.8
39249.8
39249.8
39249.8
39249.8
39249.8
39249.8
39249.8
39249.8
39249.8
39249.8
39249.8
39249.8
39249.8
39249.8
39249.8
39249.8
39249.8
39249.8
39249.8
39249.8
39249.8
39249.8
39249.8
39249.8
39249.8
39249.8
39249.8
39249.8
39249.8
39249.8
39249.8
39249.8
39249.8
39249.8
39249.8
39249.8
39249.8
39249.8
39249.8
39249.8
39249.8
39249.8
39249.8
39249.8
39249.8
39249.8
39249.8
)
;
    }
    lateral_surface_1
    {
        type            calculated;
        value           nonuniform List<scalar> 
40
(
4.93349
4.93306
4.9339
4.93336
4.93387
4.93199
4.93482
4.93376
4914.85
4914.81
4914.88
4914.82
4914.8
4914.76
4914.82
4914.86
14724.8
14724.8
14724.8
14724.8
14724.8
14724.8
14724.8
14724.8
24534.8
24534.8
24534.8
24534.8
24534.8
24534.8
24534.8
24534.8
34344.8
34344.8
34344.8
34344.8
34344.8
34344.8
34344.8
34344.8
)
;
    }
    lateral_surface_2
    {
        type            calculated;
        value           nonuniform List<scalar> 
40
(
4.9356
4.93517
4.93416
4.93448
4.93511
4.93359
4.93652
4.93669
4914.87
4914.86
4914.86
4914.85
4914.85
4914.82
4914.8
4914.84
14724.8
14724.8
14724.8
14724.8
14724.8
14724.8
14724.8
14724.8
24534.8
24534.8
24534.8
24534.8
24534.8
24534.8
24534.8
24534.8
34344.8
34344.8
34344.8
34344.8
34344.8
34344.8
34344.8
34344.8
)
;
    }
    lateral_surface_3
    {
        type            calculated;
        value           nonuniform List<scalar> 
40
(
4.93482
4.93769
4.93223
4.93329
4.93492
4.93705
4.93669
4.9356
4914.82
4914.85
4914.79
4914.84
4914.86
4914.86
4914.83
4914.87
14724.8
14724.8
14724.8
14724.8
14724.8
14724.8
14724.8
14724.8
24534.8
24534.8
24534.8
24534.8
24534.8
24534.8
24534.8
24534.8
34344.8
34344.8
34344.8
34344.8
34344.8
34344.8
34344.8
34344.8
)
;
    }
    lateral_surface_4
    {
        type            calculated;
        value           nonuniform List<scalar> 
40
(
4.93669
4.93562
4.93368
4.93324
4.93303
4.93385
4.93497
4.93376
4914.84
4914.82
4914.8
4914.83
4914.79
4914.85
4914.85
4914.86
14724.8
14724.8
14724.8
14724.8
14724.8
14724.8
14724.8
14724.8
24534.8
24534.8
24534.8
24534.8
24534.8
24534.8
24534.8
24534.8
34344.8
34344.8
34344.8
34344.8
34344.8
34344.8
34344.8
34344.8
)
;
    }
}


// ************************************************************************* //
