/*--------------------------------*- C++ -*----------------------------------*\
| =========                 |                                                 |
| \\      /  F ield         | OpenFOAM: The Open Source CFD Toolbox           |
|  \\    /   O peration     | Version:  v1612+                                |
|   \\  /    A nd           | Web:      www.OpenFOAM.com                      |
|    \\/     M anipulation  |                                                 |
\*---------------------------------------------------------------------------*/
FoamFile
{
    version     2.0;
    format      ascii;
    class       volVectorField;
    location    "2.35";
    object      U;
}
// * * * * * * * * * * * * * * * * * * * * * * * * * * * * * * * * * * * * * //

dimensions      [0 1 -1 0 0 0 0];

internalField   nonuniform List<vector> 
320
(
(-4.48207e-06 -2.75393e-06 1.96147e-06)
(-1.59088e-06 -3.09918e-06 -2.08159e-06)
(-3.22553e-06 1.14864e-06 -5.19118e-06)
(-6.20578e-08 1.96304e-06 -7.34564e-06)
(-0.000286953 4.7137e-05 -6.95983e-05)
(2.39597e-05 2.89737e-05 -0.000140666)
(0.000156471 2.33973e-05 -8.90631e-05)
(6.3001e-05 0.000126136 5.34657e-05)
(-3.27125e-05 -5.56736e-05 0.000118379)
(-7.55072e-05 -8.8586e-05 -3.19764e-05)
(-0.000216801 -6.65334e-05 -1.31715e-06)
(-3.83711e-05 -2.69327e-05 8.38923e-05)
(-3.47404e-05 5.68781e-05 -0.000212014)
(-0.000170403 -5.68325e-05 0.000149322)
(-0.000333833 -0.000137537 1.01168e-05)
(-0.000307926 -0.000141265 0.000183963)
(-4.20939e-06 6.52303e-06 9.21244e-06)
(4.5461e-06 3.71521e-06 1.16266e-05)
(4.25909e-06 -5.67704e-06 3.13577e-06)
(-5.20877e-06 -1.77619e-06 -6.69231e-06)
(6.79733e-06 -3.00332e-06 -4.28316e-06)
(1.06849e-05 -3.07223e-07 2.81428e-06)
(-2.96732e-06 1.98988e-06 -1.84751e-06)
(1.54785e-06 -4.06911e-06 -3.05636e-06)
(-3.21006e-06 -2.22083e-06 8.38032e-06)
(-4.28557e-06 -8.07357e-06 3.44475e-06)
(-3.1959e-07 -2.02093e-06 6.26435e-06)
(-5.89495e-06 -2.37278e-06 -6.5107e-06)
(1.16383e-06 -2.80233e-08 7.54638e-06)
(-2.39791e-06 2.26387e-07 9.8345e-06)
(-2.68271e-06 -6.85288e-07 3.27798e-06)
(-1.12359e-06 -4.1811e-07 -6.01849e-06)
(-7.11455e-08 2.73504e-06 -3.17177e-06)
(-6.16897e-07 -7.63208e-07 1.06401e-06)
(-4.47974e-09 1.9466e-06 -2.96961e-06)
(-3.64813e-06 1.9989e-06 -2.07226e-06)
(-1.10466e-06 1.08147e-06 5.13788e-06)
(-1.3315e-06 1.12933e-06 4.18805e-06)
(1.05934e-08 1.29021e-06 6.93242e-06)
(1.41005e-06 3.42791e-06 -2.4816e-06)
(-2.71584e-06 -1.29142e-06 -4.00025e-07)
(-1.77432e-06 -2.18575e-06 -1.26291e-06)
(-1.99824e-06 3.76539e-08 -8.71592e-07)
(-5.57643e-07 6.45912e-07 -1.59572e-06)
(1.36778e-06 9.20993e-07 1.64608e-06)
(-1.34654e-06 3.84001e-07 9.81692e-07)
(-2.23889e-06 -7.55058e-07 1.03006e-07)
(-1.76419e-06 -5.0252e-07 -1.01836e-06)
(1.99381e-08 1.82238e-06 -4.58303e-07)
(3.49039e-08 -5.35493e-07 4.76836e-07)
(1.04108e-08 1.35953e-06 -2.90638e-07)
(-2.00114e-06 9.71074e-07 1.28466e-07)
(-1.45632e-06 6.64631e-07 2.00401e-06)
(-6.97669e-07 -6.87925e-08 4.30482e-07)
(4.8678e-07 1.18027e-06 1.48331e-06)
(9.01328e-07 2.76209e-06 -3.50855e-07)
(-0.000174137 7.67278e-05 0.000193889)
(-0.000230479 0.00017588 -7.15059e-05)
(3.90711e-05 -8.79677e-05 -0.000100946)
(6.45866e-05 -8.74188e-05 -3.29209e-05)
(3.91094e-05 3.22558e-05 6.0386e-05)
(0.000135464 2.75836e-05 0.00010543)
(-6.57962e-05 -4.49093e-05 0.000135658)
(-0.00028158 -0.00017325 0.00016623)
(-0.00016896 -0.000264417 6.29702e-05)
(-0.000108198 -0.000299101 -8.44535e-05)
(-0.000230444 -6.70252e-05 3.49078e-05)
(-8.60215e-05 -0.00010447 2.17014e-05)
(-0.000128503 -0.000107452 0.000174409)
(-4.19788e-05 -2.75584e-05 0.000109656)
(7.7445e-05 -1.83563e-05 -5.75674e-05)
(-7.81924e-05 -0.000154936 -3.52009e-05)
(-1.39315e-06 -0.000122835 0.000122259)
(-2.81064e-05 3.736e-05 0.000178572)
(0.00015558 0.000207684 0.000196111)
(0.000250911 0.00029016 2.62657e-05)
(-3.59286e-06 4.09887e-06 -1.06085e-05)
(-2.00861e-06 1.6622e-06 -1.90087e-06)
(6.32661e-06 9.26664e-07 -2.11435e-06)
(2.50798e-06 -2.85372e-07 -1.63487e-06)
(-7.63554e-06 9.64671e-06 -6.10769e-06)
(-3.52846e-06 -4.00199e-06 -5.23488e-06)
(-5.43947e-06 4.2096e-07 -9.79466e-06)
(-3.00045e-06 5.28868e-06 -1.29404e-05)
(6.95675e-06 -4.8003e-06 -6.67898e-06)
(8.75775e-06 -1.10201e-05 1.38985e-05)
(6.88322e-09 -1.30244e-07 -4.98357e-06)
(4.17227e-06 3.93187e-06 -5.36625e-06)
(-9.51266e-08 -1.61241e-06 2.15943e-06)
(-6.88232e-06 -2.35219e-06 1.73539e-06)
(-5.0378e-06 1.24416e-06 2.18194e-06)
(-6.32016e-06 -1.47276e-06 2.22127e-06)
(9.66241e-06 -3.01884e-06 -2.47866e-06)
(7.39396e-06 7.50302e-07 -1.13907e-05)
(3.64514e-06 3.24986e-06 -4.32403e-06)
(5.75876e-06 6.77047e-06 5.98567e-06)
(-2.71432e-06 1.61832e-06 -6.97202e-06)
(-1.2804e-06 2.31621e-06 -2.81882e-06)
(-9.33575e-07 3.65782e-06 -1.80482e-06)
(1.15043e-07 1.99192e-06 1.12167e-07)
(2.84753e-06 -1.6713e-07 -2.2996e-06)
(-1.58606e-06 -1.01216e-06 -1.54485e-06)
(1.27143e-06 -4.87573e-07 -7.04861e-06)
(3.08989e-06 2.46968e-06 -9.00267e-06)
(1.76504e-06 5.27027e-06 -1.82583e-06)
(2.22663e-07 3.16859e-06 1.26781e-05)
(3.25251e-06 -1.95437e-06 -4.39223e-06)
(-2.82417e-06 7.87985e-07 -4.08073e-06)
(-2.36039e-06 1.83978e-06 7.22967e-07)
(-1.37895e-06 -1.151e-06 2.06445e-06)
(-1.15744e-06 2.29602e-06 1.78656e-06)
(2.53002e-06 2.04643e-06 1.60677e-06)
(3.83859e-08 2.2639e-06 -5.66675e-07)
(-3.52439e-07 -1.24359e-08 -7.35161e-06)
(-2.2644e-06 -2.75306e-06 -1.75047e-06)
(-5.31417e-06 4.96342e-07 5.14427e-06)
(-2.0933e-06 8.723e-07 -9.25065e-07)
(-3.37761e-07 1.75898e-06 -1.13158e-07)
(-9.82682e-08 2.64301e-06 -1.24817e-06)
(-3.75308e-07 1.70575e-06 -4.87597e-07)
(1.19163e-06 2.86158e-07 -9.73935e-07)
(-1.41714e-06 -1.00489e-06 -8.24116e-07)
(6.29008e-07 7.30764e-08 -1.63722e-06)
(2.44044e-06 2.445e-06 -1.78086e-06)
(1.71642e-06 3.49983e-06 -7.11198e-07)
(7.71534e-07 2.43172e-06 1.94063e-06)
(2.16024e-06 -6.85721e-07 -1.21634e-06)
(-2.06421e-06 9.20952e-07 -7.25793e-07)
(-1.30334e-06 1.78769e-06 3.39357e-07)
(-1.6416e-06 -2.7341e-07 6.78376e-07)
(-1.38528e-06 1.49756e-06 6.23312e-07)
(7.80439e-07 1.915e-06 2.97845e-07)
(1.16365e-07 1.98075e-06 -2.41317e-07)
(-6.70683e-08 3.07572e-07 -9.69929e-07)
(-1.96213e-06 -1.65909e-06 -4.29784e-08)
(-3.72881e-06 1.51439e-07 1.20331e-06)
(-1.77012e-06 -2.74037e-07 1.8535e-07)
(-8.77469e-07 -5.06552e-07 -1.47073e-07)
(-1.13114e-06 6.27739e-07 -3.53355e-07)
(-6.1188e-07 7.53563e-07 -6.96324e-07)
(-7.56653e-08 3.60153e-07 6.80288e-07)
(-9.90444e-07 4.0608e-07 9.69342e-07)
(-9.40888e-07 -6.52912e-08 2.5018e-07)
(-9.07177e-07 1.04528e-07 -6.8052e-07)
(-1.16908e-07 1.04287e-06 -3.83415e-07)
(-2.765e-07 -2.4358e-07 -1.10036e-08)
(-4.62336e-07 8.45828e-07 -3.91686e-07)
(-1.43933e-06 5.83027e-07 -4.18322e-07)
(-8.87587e-07 7.33213e-07 2.06306e-07)
(-6.1309e-07 4.22776e-07 1.47516e-07)
(-4.99184e-07 5.48922e-07 8.0009e-07)
(-2.89302e-08 1.30381e-06 -5.27023e-07)
(-1.25244e-06 8.12975e-07 -8.17529e-07)
(-8.72392e-07 9.86224e-07 -4.65184e-07)
(-4.52024e-07 1.25638e-06 -2.23708e-07)
(-1.57448e-07 7.97833e-07 -3.89487e-08)
(6.32383e-07 2.9049e-07 -4.35728e-07)
(-4.51143e-07 -3.43649e-07 -3.59564e-07)
(2.24658e-07 3.17428e-07 -1.10175e-06)
(7.1138e-07 1.38424e-06 -6.85183e-07)
(5.27434e-07 1.46293e-06 -1.32761e-07)
(3.53217e-07 1.15922e-06 1.29574e-06)
(5.0019e-07 -2.19577e-07 -8.05211e-07)
(-1.43849e-06 6.29743e-07 -3.10014e-07)
(-1.01852e-06 8.55397e-07 -8.53669e-08)
(-1.09734e-06 2.59086e-07 1.05623e-08)
(-8.56029e-07 1.07229e-06 4.68806e-07)
(2.63662e-08 1.06728e-06 1.30527e-07)
(-4.16126e-07 1.01614e-06 -3.33042e-07)
(-3.44964e-07 3.10124e-07 -8.55967e-07)
(-9.62814e-07 -3.93099e-07 -4.14966e-07)
(-1.83307e-06 3.89679e-07 3.03724e-07)
(0.000231138 0.000145811 -8.33223e-05)
(-0.000193498 7.92825e-05 7.61171e-05)
(-0.000122086 0.000165121 -0.000246099)
(0.000287923 -2.90761e-05 2.29608e-05)
(3.62016e-05 -8.34527e-05 0.000106442)
(6.51048e-06 -1.26536e-06 -0.00020079)
(-0.000101713 -5.08075e-05 2.24965e-07)
(-0.000151473 4.07145e-05 0.000200398)
(-9.28276e-05 -8.11997e-05 5.02025e-05)
(-0.000260342 -0.000289892 -0.000109421)
(-0.000337581 -0.000158081 -0.000264356)
(-0.000245972 8.4088e-05 -0.000133744)
(1.00428e-05 -5.32351e-05 6.69882e-05)
(-6.04196e-07 -0.000178491 -9.82405e-05)
(-0.000154702 -0.000168032 -0.000204727)
(-0.000269673 -0.000132001 -5.38784e-05)
(-0.000176117 -0.000128761 -1.01518e-05)
(-0.000115281 -4.18806e-05 -3.43415e-05)
(-0.000123917 -0.000141945 0.000193978)
(2.80636e-05 4.02766e-05 9.38186e-05)
(9.72731e-05 -9.22379e-05 -6.85077e-05)
(-3.53473e-05 -0.000133759 2.7191e-06)
(-1.83813e-05 -2.19977e-05 7.82926e-05)
(9.74845e-05 -6.72661e-06 -6.7963e-05)
(9.74547e-05 1.90251e-05 1.51068e-05)
(7.92746e-05 0.000137709 -6.36863e-05)
(2.79321e-05 0.000153026 -9.69489e-05)
(-5.82187e-05 5.98912e-05 -9.77311e-05)
(4.22996e-06 5.56985e-06 -1.88039e-06)
(-7.8647e-07 3.99054e-06 -5.61706e-06)
(-1.0375e-06 2.76324e-06 1.43966e-06)
(6.49339e-06 3.01954e-06 -6.18901e-06)
(-4.46054e-06 2.59676e-06 -8.37135e-06)
(-6.90092e-06 9.98872e-06 -1.89238e-06)
(-1.72075e-06 1.86224e-06 8.49789e-06)
(-9.84726e-06 3.08759e-06 9.50487e-06)
(-8.2804e-06 -3.48112e-06 -9.49866e-06)
(-9.32602e-06 -1.24862e-06 -5.71383e-07)
(-9.94915e-06 9.39241e-06 1.90191e-05)
(-5.2219e-06 1.14507e-05 1.20527e-05)
(6.3019e-06 -1.7666e-06 -1.01452e-05)
(4.03202e-06 -7.28278e-06 -3.9517e-06)
(5.32006e-06 -5.01254e-06 1.20978e-05)
(-4.268e-06 -3.84505e-06 -5.66828e-06)
(-1.48516e-06 -7.37853e-07 -6.89977e-07)
(7.83201e-06 1.8124e-06 6.28344e-06)
(-6.06661e-06 -8.66503e-06 -1.07413e-06)
(-1.23649e-05 9.96346e-07 3.67374e-06)
(-2.53725e-06 -1.33792e-06 1.07814e-05)
(-4.87136e-06 3.69261e-06 1.83532e-06)
(-8.84259e-08 1.24792e-05 -8.10111e-06)
(9.08087e-06 5.64058e-06 -2.39889e-06)
(8.57121e-06 -8.03806e-06 5.95259e-06)
(2.92252e-07 -4.00778e-06 4.6037e-06)
(1.31366e-06 4.68299e-06 1.3215e-05)
(-1.79458e-06 2.46127e-06 3.90188e-06)
(-3.42128e-06 1.91608e-06 -3.68976e-06)
(-4.09833e-07 7.18931e-07 -4.35546e-06)
(-8.75574e-07 -3.88364e-07 -2.08922e-06)
(-2.07364e-06 3.14102e-07 -5.61305e-06)
(1.14215e-06 7.51569e-07 -6.10709e-06)
(3.21854e-06 -7.13057e-07 -2.55801e-06)
(2.4992e-06 3.80544e-07 5.2661e-06)
(3.5928e-06 -2.81271e-06 6.66222e-06)
(-1.46264e-07 -2.26134e-06 -8.24308e-06)
(2.34356e-06 4.25783e-06 -4.09389e-06)
(4.59898e-06 3.22883e-06 1.32104e-05)
(3.10265e-06 -3.63031e-06 1.08969e-05)
(-4.30165e-06 -2.99926e-06 -5.32966e-06)
(-3.06523e-06 5.33876e-07 -3.74079e-06)
(7.20224e-07 -7.02529e-07 6.73178e-06)
(1.76381e-06 3.63162e-08 -6.43664e-06)
(-3.79863e-06 7.86226e-07 -8.27427e-07)
(-1.70921e-06 1.01072e-06 3.95418e-06)
(-1.56088e-06 1.35015e-07 -3.33058e-06)
(-3.10482e-06 1.19269e-06 4.28253e-06)
(-1.47615e-06 2.0824e-06 1.08616e-05)
(-5.86427e-07 4.48382e-06 4.31274e-06)
(7.11572e-07 2.27734e-06 -6.38875e-06)
(-3.55566e-07 -1.75306e-06 -4.8573e-06)
(-3.30537e-06 -1.01263e-06 3.38889e-06)
(-1.35575e-06 -1.53397e-06 4.01001e-06)
(-2.08636e-06 4.61585e-07 1.01063e-05)
(-1.39055e-06 2.6119e-06 1.75553e-06)
(-2.67588e-06 9.56661e-07 -2.998e-07)
(-7.06214e-07 2.05654e-07 -1.44266e-06)
(-4.02929e-07 -4.30422e-07 6.62562e-08)
(-1.29331e-06 2.70821e-07 -1.56755e-06)
(1.17962e-07 7.64621e-07 -1.12785e-06)
(1.73622e-06 -2.22445e-07 -4.39826e-07)
(1.42467e-06 2.20025e-07 1.38897e-06)
(1.86714e-06 -1.44762e-06 1.72889e-06)
(-3.09098e-07 -1.31768e-06 -1.10948e-06)
(1.55435e-06 3.35505e-06 -1.60741e-07)
(2.97287e-06 2.90979e-06 1.80625e-06)
(2.01914e-06 -2.20439e-06 1.64145e-06)
(-2.73135e-06 -1.61139e-06 -1.34381e-06)
(-2.02397e-06 4.97713e-07 -9.1179e-07)
(7.9075e-07 -2.09663e-07 1.17271e-06)
(1.54568e-06 4.78496e-07 -1.34767e-06)
(-2.463e-06 4.04895e-07 -1.66912e-07)
(-8.06775e-07 8.7729e-07 9.82359e-07)
(-1.16619e-06 -9.16689e-08 5.21109e-07)
(-2.66084e-06 4.01875e-07 1.44461e-06)
(-1.10747e-06 1.18389e-06 2.40137e-06)
(-3.25458e-07 3.16787e-06 9.64489e-07)
(5.62833e-07 2.16628e-06 -5.43189e-07)
(-7.41803e-08 -9.16299e-07 -1.27624e-07)
(-2.33421e-06 -8.98221e-07 1.20959e-06)
(-1.27998e-06 -8.99664e-07 7.74557e-07)
(-1.57479e-06 1.58544e-07 2.41043e-06)
(-1.27287e-06 1.25858e-06 5.31073e-07)
(-1.50313e-06 4.23914e-07 -2.407e-07)
(-6.25473e-07 3.62544e-07 -7.32958e-07)
(-5.19075e-07 -2.03048e-07 -2.17469e-07)
(-8.02053e-07 9.22722e-09 -4.84133e-07)
(2.50063e-08 1.46981e-07 -6.7452e-07)
(6.77962e-07 -1.73227e-07 -3.94952e-07)
(6.57915e-07 1.01401e-07 3.58989e-07)
(9.32543e-07 -3.31273e-07 5.07504e-07)
(3.61516e-08 -4.73017e-07 -7.57997e-07)
(8.03175e-07 1.26705e-06 -3.84192e-07)
(9.85773e-07 1.34565e-06 1.28512e-06)
(7.64584e-07 -6.01741e-07 1.12447e-06)
(-1.07889e-06 -4.61229e-07 -3.76582e-07)
(-8.55867e-07 1.78768e-07 -1.17065e-08)
(2.85781e-07 -4.42569e-08 1.09357e-06)
(2.52979e-07 2.46204e-07 -5.18318e-07)
(-1.53731e-06 2.02953e-07 -1.09737e-07)
(-1.06867e-06 3.45027e-07 4.4492e-07)
(-1.10449e-06 2.53103e-07 -3.53823e-07)
(-1.22609e-06 3.52169e-07 5.12494e-07)
(-5.41635e-07 6.23159e-07 1.08589e-06)
(-2.70644e-07 1.51154e-06 5.37354e-07)
(-1.02391e-07 1.17312e-06 -5.52025e-07)
(-1.64807e-07 5.14453e-08 -4.62583e-07)
(-1.06709e-06 2.23443e-09 3.72173e-07)
(-4.72697e-07 -1.84301e-07 3.73295e-07)
(-8.58291e-07 2.72658e-07 1.02669e-06)
(-5.89719e-07 6.92486e-07 4.84729e-07)
(-6.11009e-05 0.000174012 -0.000164105)
(1.52187e-05 0.000143972 -2.82195e-05)
(-5.41395e-06 0.000176506 2.10183e-05)
(-2.42716e-05 -3.4737e-05 6.2257e-05)
(4.08011e-06 2.35948e-06 1.68481e-06)
(-5.87319e-06 -2.11685e-06 -5.90511e-06)
(-4.30541e-06 -5.90927e-06 -6.23524e-06)
(4.10325e-07 -1.06048e-05 -8.31464e-06)
)
;

boundaryField
{
    top_fluid_surface
    {
        type            pressureInletOutletVelocity;
        value           nonuniform List<vector> 
64
(
(0 0 -6.95983e-05)
(0 0 -0.000140666)
(0 0 -8.90631e-05)
(6.3001e-05 0.000126136 5.34657e-05)
(-3.27125e-05 -5.56736e-05 0.000118379)
(0 0 -3.19764e-05)
(-0.000216801 -6.65334e-05 -1.31715e-06)
(-3.83711e-05 -2.69327e-05 8.38923e-05)
(0 0 -0.000212014)
(-0.000170403 -5.68325e-05 0.000149322)
(0 0 1.01168e-05)
(-0.000307926 -0.000141265 0.000183963)
(-0.000174137 7.67278e-05 0.000193889)
(0 0 -7.15059e-05)
(0 0 -0.000100946)
(0 0 -3.29209e-05)
(3.91094e-05 3.22558e-05 6.0386e-05)
(0.000135464 2.75836e-05 0.00010543)
(-6.57962e-05 -4.49093e-05 0.000135658)
(-0.00028158 -0.00017325 0.00016623)
(-0.00016896 -0.000264417 6.29702e-05)
(0 0 -8.44535e-05)
(-0.000230444 -6.70252e-05 3.49078e-05)
(-8.60215e-05 -0.00010447 2.17014e-05)
(-0.000128503 -0.000107452 0.000174409)
(-4.19788e-05 -2.75584e-05 0.000109656)
(0 0 -5.75674e-05)
(0 0 -3.52009e-05)
(-1.39315e-06 -0.000122835 0.000122259)
(-2.81064e-05 3.736e-05 0.000178572)
(0.00015558 0.000207684 0.000196111)
(0.000250911 0.00029016 2.62657e-05)
(0 0 -8.33223e-05)
(-0.000193498 7.92825e-05 7.61171e-05)
(0 0 -0.000246099)
(0.000287923 -2.90761e-05 2.29608e-05)
(3.62016e-05 -8.34527e-05 0.000106442)
(0 0 -0.00020079)
(-0.000101713 -5.08075e-05 2.24965e-07)
(-0.000151473 4.07145e-05 0.000200398)
(-9.28276e-05 -8.11997e-05 5.02025e-05)
(0 0 -0.000109421)
(0 0 -0.000264356)
(0 0 -0.000133744)
(1.00428e-05 -5.32351e-05 6.69882e-05)
(0 0 -9.82405e-05)
(0 0 -0.000204727)
(0 0 -5.38784e-05)
(0 0 -1.01518e-05)
(0 0 -3.43415e-05)
(-0.000123917 -0.000141945 0.000193978)
(2.80636e-05 4.02766e-05 9.38186e-05)
(0 0 -6.85077e-05)
(0 0 2.7191e-06)
(-1.83813e-05 -2.19977e-05 7.82926e-05)
(0 0 -6.7963e-05)
(9.74547e-05 1.90251e-05 1.51068e-05)
(0 0 -6.36863e-05)
(0 0 -9.69489e-05)
(0 0 -9.77311e-05)
(0 0 -0.000164105)
(0 0 -2.82195e-05)
(-5.41395e-06 0.000176506 2.10183e-05)
(-2.42716e-05 -3.4737e-05 6.2257e-05)
)
;
    }
    bottom_fluid_surface
    {
        type            noSlip;
    }
    lateral_surface_1
    {
        type            noSlip;
    }
    lateral_surface_2
    {
        type            noSlip;
    }
    lateral_surface_3
    {
        type            noSlip;
    }
    lateral_surface_4
    {
        type            noSlip;
    }
}


// ************************************************************************* //
