/*--------------------------------*- C++ -*----------------------------------*\
| =========                 |                                                 |
| \\      /  F ield         | OpenFOAM: The Open Source CFD Toolbox           |
|  \\    /   O peration     | Version:  v1612+                                |
|   \\  /    A nd           | Web:      www.OpenFOAM.com                      |
|    \\/     M anipulation  |                                                 |
\*---------------------------------------------------------------------------*/
FoamFile
{
    version     2.0;
    format      ascii;
    class       surfaceScalarField;
    location    "1";
    object      alphaPhi;
}
// * * * * * * * * * * * * * * * * * * * * * * * * * * * * * * * * * * * * * //

dimensions      [0 3 -1 0 0 0 0];

internalField   nonuniform List<scalar> 
816
(
-4.23403e-07
1.40098e-07
-1.8183e-07
-5.72992e-07
-1.006e-06
2.04672e-06
-8.73625e-07
5.34451e-07
-8.16398e-07
-9.05317e-07
1.63136e-06
-4.86722e-07
-7.92604e-08
-1.72128e-06
-2.6825e-06
5.10232e-06
-6.41402e-07
-7.07504e-07
-1.40333e-06
1.38084e-06
1.66371e-10
6.60135e-11
-1.0804e-05
-2.55335e-10
1.88182e-10
3.80934e-10
-8.69455e-06
-9.99608e-12
-1.38566e-11
-2.04872e-10
-6.12497e-06
-4.40945e-11
6.42403e-11
-2.71158e-11
1.73961e-06
2.53337e-10
-1.76439e-10
1.10424e-10
4.31592e-07
8.39914e-11
-1.28287e-10
-3.68507e-10
2.686e-06
1.07681e-10
6.27147e-11
-1.82053e-10
1.24944e-06
-1.50204e-11
7.01246e-11
-5.18579e-11
-1.52712e-06
9.36898e-11
-2.4186e-11
6.54075e-11
1.89172e-13
-2.60153e-10
-1.76843e-10
-5.90324e-11
-5.89737e-06
-1.3422e-10
1.15614e-11
1.30277e-10
-3.36513e-06
-1.10267e-10
2.3313e-10
-5.41406e-07
-6.73963e-11
-5.03254e-12
8.86921e-07
-3.84633e-06
-7.38229e-06
-6.43339e-06
2.96732e-06
-1.65676e-06
-7.33061e-06
-4.23185e-06
-3.11652e-07
-4.20667e-06
-1.50155e-06
-2.9142e-07
-3.31518e-06
-2.59116e-06
2.52593e-06
-1.40111e-06
5.23911e-06
-4.51205e-07
-7.42924e-07
-6.96872e-07
2.02249e-06
7.608e-07
1.19104e-06
3.96733e-06
1.76806e-06
9.13575e-07
2.22554e-06
-2.28783e-06
3.43689e-06
-1.00974e-06
-2.31923e-06
-2.5086e-06
5.11717e-06
3.18668e-06
-1.88758e-06
-1.3086e-06
-1.53352e-06
9.93117e-07
-1.28742e-06
-7.34405e-06
2.86771e-06
-4.62431e-08
-3.82018e-06
-6.14184e-06
5.45548e-06
6.72804e-07
-2.71981e-06
-2.8736e-06
2.1843e-07
-1.88175e-06
-3.78841e-06
-2.12521e-06
-1.3225e-06
-3.6496e-06
-1.60819e-06
-6.20965e-07
-6.01095e-07
-4.02894e-07
-1.20591e-06
1.99364e-07
1.00155e-06
-1.24796e-07
1.26113e-07
-7.72703e-07
-5.35047e-07
-8.64087e-08
1.13967e-06
7.1294e-07
-4.42373e-07
6.72703e-07
1.09252e-06
-3.0879e-07
-1.16844e-07
-1.61281e-06
9.90397e-09
6.34831e-08
-4.62341e-07
2.12747e-07
-1.81441e-06
1.03021e-07
-6.19754e-07
-2.43318e-06
-2.36004e-07
-2.41251e-06
-1.64924e-06
2.54197e-07
-1.19447e-06
-5.24186e-07
-2.88865e-07
6.08565e-08
-1.3374e-07
-3.71327e-07
-2.80009e-07
-4.95535e-07
2.32724e-07
-6.45857e-07
-2.99172e-07
-1.11652e-08
-3.65456e-07
-1.31701e-06
-9.33531e-07
-5.33021e-07
-9.39784e-07
-4.30239e-07
2.28399e-07
-1.58302e-06
-1.46115e-06
-1.12331e-06
-9.17134e-07
-1.18333e-06
-1.09364e-06
-3.39725e-07
-1.69767e-07
-7.77011e-07
-2.38028e-07
-8.27507e-08
-1.77479e-07
2.80721e-07
-5.21951e-07
-6.18688e-07
-2.25954e-07
2.36466e-07
5.09561e-07
-2.58818e-07
1.42946e-07
5.95397e-07
-4.8312e-07
3.04667e-07
-4.82421e-07
-3.58995e-07
-5.21444e-07
3.27497e-07
1.37933e-07
-1.20244e-06
-2.07801e-07
2.59287e-07
-1.65372e-06
-2.05099e-07
-3.45927e-07
-1.51871e-06
-6.61966e-07
-8.57033e-07
-7.38142e-07
-9.0976e-08
4.41859e-11
-9.4822e-11
-2.77772e-06
-8.15462e-11
3.6274e-10
2.13013e-06
-3.04523e-10
3.01185e-10
-4.23085e-06
-7.83436e-11
1.93861e-10
-6.10142e-06
-1.04664e-10
5.76762e-11
-4.41412e-06
-3.23204e-10
-4.53949e-12
-7.23371e-11
-2.38198e-06
-1.23409e-10
-3.23664e-11
1.03732e-06
-1.00401e-10
-9.04829e-11
-6.63894e-06
-1.18029e-10
-3.24322e-10
-7.00855e-06
-2.07833e-11
9.05984e-11
-1.6713e-06
2.28367e-11
-2.16454e-10
-3.80316e-11
-2.01676e-06
-1.92206e-10
-1.41428e-10
-1.25273e-06
-2.94804e-10
-3.67168e-10
-4.61889e-06
-1.1564e-11
-1.6334e-10
2.38277e-06
-7.79135e-11
1.06235e-10
9.6683e-07
-1.71968e-10
-1.83051e-10
2.02453e-11
-2.03449e-06
-3.78265e-10
-6.32892e-12
3.09224e-06
-6.30029e-11
5.65551e-12
1.68564e-06
-9.26835e-11
-2.01622e-10
4.23258e-12
-3.63455e-11
2.33092e-06
-1.39824e-10
-8.47441e-11
1.22822e-06
-4.17049e-06
2.66944e-07
-4.88802e-06
3.52215e-06
2.31539e-06
-3.1565e-06
1.90405e-06
-2.19652e-07
-6.66198e-06
5.76064e-07
-4.35383e-07
-4.79755e-06
-5.69136e-07
-1.05614e-06
-3.03734e-06
-2.02001e-07
-1.08802e-06
3.18851e-07
-5.44148e-06
6.19587e-07
1.09055e-06
-2.83303e-06
-1.80063e-07
5.37508e-07
-4.78777e-06
-5.28844e-06
-4.4329e-07
2.98601e-06
4.26651e-07
-4.05764e-06
-7.65749e-07
-5.61219e-06
-8.91782e-07
8.72686e-07
2.19855e-07
-4.94709e-07
3.94206e-07
-4.62528e-06
-1.1635e-06
-4.5281e-06
-3.76889e-06
2.73314e-06
6.09591e-07
3.84096e-06
2.20527e-07
2.2375e-06
-3.01947e-06
2.92832e-06
-2.78363e-06
-7.61607e-07
-1.60306e-06
1.79077e-07
4.16742e-06
-2.54513e-06
3.47663e-08
3.73536e-06
-3.38754e-06
-2.97681e-06
1.44061e-06
1.51264e-06
3.09533e-06
-7.20058e-07
-1.76345e-07
1.86971e-07
-2.79182e-08
1.55693e-08
-1.10507e-06
6.48658e-07
1.17835e-06
-1.45676e-06
5.53051e-07
-1.22066e-07
-1.61741e-06
1.11651e-06
-2.21403e-07
-1.18405e-06
-6.10515e-07
-5.9627e-07
1.42295e-07
1.12183e-06
-5.34657e-07
2.04034e-07
-1.18221e-06
8.30826e-08
5.58655e-07
-2.08906e-07
5.19362e-07
2.41149e-07
-6.87002e-07
-3.10369e-07
-3.27058e-07
1.43554e-06
1.59088e-07
-2.25037e-06
-8.74578e-07
-1.39539e-06
2.45549e-07
5.79698e-07
-2.23829e-07
9.20736e-07
3.67013e-07
-9.43632e-07
-1.2016e-06
-2.02301e-06
-3.60941e-07
-1.17125e-06
9.47438e-08
6.94669e-07
4.02933e-07
1.02863e-06
-6.65435e-07
2.8361e-07
-5.8225e-07
8.38704e-08
-1.68817e-06
8.53184e-08
2.00482e-06
-9.39342e-07
8.72732e-07
1.71194e-06
-4.16263e-07
-5.26867e-07
1.11025e-06
1.20277e-06
1.724e-06
-4.50503e-07
1.27339e-06
3.14881e-07
-4.2457e-07
1.8975e-08
-7.44197e-07
5.78811e-07
3.48045e-07
-9.08106e-07
3.73438e-07
-2.78863e-08
-1.08056e-06
6.97474e-07
-6.35036e-08
-6.55465e-07
-5.65128e-07
-2.64498e-07
2.5555e-07
6.54167e-07
-4.57458e-07
-1.23377e-08
-6.79732e-07
-3.15923e-08
1.54018e-07
-2.01856e-07
2.76048e-07
2.77935e-08
-6.91115e-07
-2.75571e-07
-1.02715e-07
8.68184e-07
-1.0131e-07
-5.32393e-07
-7.01953e-07
-1.17768e-06
7.32937e-08
7.31036e-08
9.87285e-08
6.949e-07
-2.53829e-08
-6.90932e-07
-4.88944e-07
-6.79928e-07
-5.11063e-07
-5.31261e-07
-1.53476e-07
4.21751e-07
1.88202e-07
3.49451e-07
-4.47356e-07
3.93096e-07
-2.25042e-07
1.07517e-07
-8.24727e-07
9.00684e-08
6.26766e-07
-5.89708e-07
2.58095e-07
5.8097e-07
-5.60954e-07
-3.4255e-07
2.49862e-07
7.14835e-07
5.62737e-07
-2.03898e-07
5.92138e-07
-1.88569e-08
4.28065e-08
-4.61052e-08
-2.6132e-07
-2.18255e-07
1.03061e-07
-2.02185e-07
1.35142e-08
-1.96351e-07
-7.04518e-07
-2.09839e-07
-4.08184e-07
1.68948e-07
-6.94238e-07
-6.50231e-07
-2.93014e-07
-5.30102e-07
-2.23651e-07
-5.27406e-08
-2.54229e-07
-8.03789e-08
-5.31294e-08
-2.2994e-07
-2.60405e-07
6.02944e-08
1.17844e-07
-2.40665e-07
1.91928e-07
-2.05313e-07
-3.4849e-07
-1.60749e-07
1.26594e-07
4.9037e-08
-7.24901e-07
9.3666e-08
-8.64058e-07
-1.07041e-07
-7.23973e-07
-4.62661e-07
-4.39655e-07
2.30499e-07
-2.92473e-07
-3.87086e-07
3.6169e-07
-4.46904e-07
2.63462e-07
-4.65994e-07
4.21409e-07
-2.75513e-07
-2.72409e-07
8.64542e-08
3.37983e-07
-2.89858e-07
-2.4303e-07
-9.7867e-08
-7.26189e-08
-2.08141e-08
-2.86617e-07
-2.26603e-07
2.46817e-07
1.00132e-07
-3.19667e-07
-5.26206e-07
1.20589e-07
-1.56048e-07
2.59609e-07
-3.50957e-07
-3.44246e-07
-2.25152e-07
-5.08452e-07
6.06017e-08
1.06397e-07
-2.15822e-07
-6.05213e-08
-1.46997e-08
-5.00682e-07
8.91268e-08
-3.43751e-07
1.78517e-07
-2.38531e-07
-2.14248e-07
1.95525e-07
-1.69393e-07
2.16058e-07
1.39193e-10
-3.63993e-10
1.59307e-06
-6.03128e-12
1.07837e-11
4.20615e-10
1.95753e-06
2.13667e-10
2.68102e-06
1.50927e-10
2.44186e-06
2.73921e-10
7.13263e-07
-1.14185e-10
-1.07666e-05
-6.59092e-11
-2.93778e-06
-2.91705e-10
4.4012e-06
3.21524e-11
3.419e-06
4.86303e-11
1.96148e-06
7.64755e-11
-1.27778e-05
-1.63109e-10
-5.88478e-06
-9.51182e-11
3.08061e-06
-1.09626e-10
2.68043e-06
-5.77101e-11
-2.24172e-06
-2.1881e-11
3.04727e-06
-2.28696e-10
-5.03869e-07
-2.42801e-10
-7.17844e-06
-2.16287e-10
6.70752e-07
1.70016e-11
2.44459e-06
1.73426e-10
-7.98525e-06
2.51188e-10
1.94574e-11
6.47184e-11
2.28708e-11
5.7612e-11
2.21921e-06
-1.45748e-10
-8.2534e-06
-5.14365e-10
-3.56503e-06
-2.72096e-06
7.66826e-08
2.08182e-06
3.39014e-06
3.46444e-07
3.45918e-06
1.12353e-06
3.64666e-06
1.24108e-06
3.68402e-06
2.22708e-06
4.115e-06
3.36476e-06
-9.16748e-07
-1.78365e-06
-5.24972e-06
-5.14098e-06
-4.59693e-06
-2.24906e-06
4.93654e-06
1.50261e-06
3.28621e-06
3.9516e-06
1.67292e-06
-2.22048e-06
-7.26828e-06
-5.11075e-06
2.18902e-06
8.52499e-07
4.50902e-06
1.80773e-06
3.13447e-06
-6.23938e-07
-5.89434e-07
2.59257e-06
4.18556e-06
1.38835e-06
-2.61481e-06
-2.8199e-06
-5.0445e-06
-1.29254e-06
4.54413e-06
2.63208e-06
2.65329e-06
-3.11231e-06
-3.73148e-06
-3.02955e-06
4.39956e-06
1.35195e-06
5.18757e-06
4.3459e-06
2.62143e-06
3.21e-07
-5.48261e-06
-1.30491e-06
-3.19502e-06
-2.87199e-06
-4.84539e-07
1.5697e-06
1.85243e-06
5.22427e-08
1.81375e-06
4.51153e-07
1.78677e-06
7.34804e-07
1.77749e-06
1.83994e-06
1.8186e-06
1.92624e-06
-8.79606e-07
-1.22653e-06
-2.09943e-06
-2.32571e-06
-2.37876e-06
-7.31789e-07
2.15741e-06
9.3664e-07
1.42499e-06
8.33069e-07
1.10201e-06
-1.65947e-06
-3.33013e-06
-1.63906e-06
1.30132e-06
7.06107e-07
2.15989e-06
5.66003e-07
1.89018e-06
3.59337e-07
-5.93723e-07
1.65376e-06
1.95777e-06
-3.92513e-07
-9.26745e-07
-2.43318e-06
-2.30982e-06
-7.3823e-07
2.16943e-06
3.1904e-07
1.58102e-06
-1.05451e-06
-2.08863e-06
-3.09591e-07
1.9654e-06
1.51146e-06
2.42678e-06
2.23383e-06
1.47907e-06
3.17264e-07
-2.36739e-06
-5.21026e-07
-1.08533e-06
-1.81124e-06
-2.59389e-07
1.27893e-06
6.40117e-07
2.02496e-07
5.98767e-07
4.45183e-07
6.27629e-07
6.27071e-07
5.07551e-07
1.24312e-06
5.40937e-07
8.72327e-07
-2.62929e-07
-5.1479e-07
-7.38119e-07
-1.45681e-06
-7.90169e-07
-5.8326e-07
5.8476e-07
2.91528e-07
3.64648e-07
3.97973e-07
3.24738e-07
-1.18413e-06
-8.61884e-07
-9.86192e-07
4.43671e-07
4.73447e-07
7.02769e-07
6.1236e-07
5.86368e-07
1.53224e-07
-1.40849e-08
8.57932e-07
5.75093e-07
-1.88811e-07
-3.9993e-07
-1.47403e-06
-6.03758e-07
-4.6871e-07
7.21978e-07
5.86961e-07
5.09579e-07
-7.49395e-07
-3.81863e-07
-3.18304e-07
7.09574e-07
7.41674e-07
7.76542e-07
1.23584e-06
4.18789e-07
2.72814e-07
-6.95696e-07
9.52165e-08
-3.20423e-07
-4.40447e-07
-1.48632e-08
4.82433e-07
1.87189e-07
3.61756e-07
3.97238e-07
6.59326e-07
4.83456e-07
-2.58263e-07
-7.06364e-07
-3.56111e-07
-5.27355e-08
-5.36936e-09
-6.19401e-07
-4.75415e-07
2.35352e-07
3.10847e-07
1.53604e-07
3.85312e-07
-2.44929e-07
-8.02359e-07
-3.00933e-07
2.06109e-07
-2.42113e-07
-3.2042e-08
3.9807e-07
5.73346e-07
6.81116e-08
-4.03914e-08
2.09934e-10
7.40187e-11
-1.39631e-05
-2.93225e-11
-1.04627e-05
-3.43229e-12
-1.13597e-05
2.93853e-07
-1.35705e-06
-1.48763e-06
-4.83174e-06
-3.28304e-06
)
;

boundaryField
{
    top_fluid_surface
    {
        type            calculated;
        value           nonuniform List<scalar> 
64
(
0
0
2.42251e-10
0
0
1.01087e-10
0
0
1.71534e-10
2.18951e-10
0
1.87929e-10
7.61665e-11
0
0
1.36557e-10
2.43278e-10
2.21852e-10
1.63553e-10
1.95107e-10
2.30581e-10
0
2.03988e-10
1.88643e-10
1.56015e-10
0
0
1.18841e-10
0
0
1.58866e-10
0
0
2.22128e-11
0
0
0
0
2.51844e-10
0
0
0
0
9.93012e-12
1.74577e-10
0
0
0
0
1.16067e-10
0
0
0
0
0
2.23772e-12
0
1.77994e-10
6.50267e-11
0
1.66842e-10
1.23108e-11
1.04998e-10
0
)
;
    }
    bottom_fluid_surface
    {
        type            calculated;
        value           uniform 0;
    }
    lateral_surface_1
    {
        type            calculated;
        value           uniform 0;
    }
    lateral_surface_2
    {
        type            calculated;
        value           uniform 0;
    }
    lateral_surface_3
    {
        type            calculated;
        value           uniform 0;
    }
    lateral_surface_4
    {
        type            calculated;
        value           uniform 0;
    }
}


// ************************************************************************* //
