/*--------------------------------*- C++ -*----------------------------------*\
| =========                 |                                                 |
| \\      /  F ield         | OpenFOAM: The Open Source CFD Toolbox           |
|  \\    /   O peration     | Version:  v1612+                                |
|   \\  /    A nd           | Web:      www.OpenFOAM.com                      |
|    \\/     M anipulation  |                                                 |
\*---------------------------------------------------------------------------*/
FoamFile
{
    version     2.0;
    format      ascii;
    class       volScalarField;
    location    "1";
    object      alpha.water;
}
// * * * * * * * * * * * * * * * * * * * * * * * * * * * * * * * * * * * * * //

dimensions      [0 0 0 0 0 0 0];

internalField   nonuniform List<scalar> 
320
(
1
1
1
1
2.5128e-06
2.82163e-06
1.415e-06
2.6777e-06
2.31883e-06
1.6622e-06
3.16002e-06
2.63049e-06
1.48153e-06
1.66876e-06
2.87973e-06
1.49545e-06
0.999997
0.999997
0.999997
0.999999
0.999998
0.999994
0.999998
0.999998
0.999994
0.999998
0.999999
1
1
1
1
1
1
1
1
1
1
1
1
1
1
1
1
1
1
1
1
1
1
1
1
1
1
1
1
1
2.07116e-06
2.67223e-06
2.24634e-06
1.98044e-06
1.3018e-06
1.13793e-06
1.63165e-06
1.57999e-06
1.57999e-06
2.60118e-06
1.22175e-06
1.26764e-06
1.76852e-06
2.71189e-06
2.21225e-06
1.78824e-06
2.02103e-06
2.13653e-06
1.48528e-06
2.15321e-06
1
0.999998
1
1
0.999999
0.999999
1
1
0.999999
0.999997
0.999998
0.999997
0.999995
0.999997
1
0.999997
0.999998
1
0.999997
0.999997
1
1
1
1
1
1
1
1
1
1
1
1
1
1
1
1
1
1
1
1
1
1
1
1
1
1
1
1
1
1
1
1
1
1
1
1
1
1
1
1
1
1
1
1
1
1
1
1
1
1
1
1
1
1
1
1
1
1
1
1
1
1
1
1
1
1
1
1
1
1
1
1
1
1
1
1
2.13836e-06
1.87499e-06
3.17522e-06
2.02633e-06
2.08675e-06
2.83036e-06
1.62758e-06
2.43541e-06
2.06812e-06
3.23152e-06
2.44433e-06
2.65866e-06
1.66418e-06
2.36897e-06
2.31937e-06
2.66451e-06
2.54915e-06
1.70079e-06
2.56259e-06
2.71998e-06
2.79566e-06
3.01834e-06
2.96884e-06
1.84669e-06
2.16121e-06
1.87454e-06
2.04131e-06
3.52321e-06
0.999997
0.999998
0.999998
0.999998
1
0.999998
0.999994
0.999998
0.999999
0.999997
0.999995
0.999997
0.999999
0.999998
0.999996
0.999998
0.999998
0.999994
0.999996
0.999998
0.999997
0.999999
1
0.999999
0.999996
0.999996
0.999994
0.999997
1
1
1
1
1
1
1
1
1
1
1
1
1
1
1
1
1
1
1
1
1
1
1
1
1
1
1
1
1
1
1
1
1
1
1
1
1
1
1
1
1
1
1
1
1
1
1
1
1
1
1
1
1
1
1
1
1
1
1
1
1
1
1
1
1
1
1
1
1
1
1
1
1
1
1
1
1
1
1
1
1
1
1
1
2.45014e-06
2.5256e-06
2.43527e-06
2.51351e-06
1
1
0.999998
0.999999
)
;

boundaryField
{
    top_fluid_surface
    {
        type            inletOutlet;
        inletValue      uniform 0;
        value           nonuniform List<scalar> 
64
(
0
0
1.415e-06
0
0
1.6622e-06
0
0
1.48153e-06
1.66876e-06
0
1.49545e-06
2.07116e-06
0
0
1.98044e-06
1.3018e-06
1.13793e-06
1.63165e-06
1.57999e-06
1.57999e-06
0
1.22175e-06
1.26764e-06
1.76852e-06
0
0
1.78824e-06
0
0
1.48528e-06
0
0
1.87499e-06
0
0
0
0
1.62758e-06
0
0
0
0
2.65866e-06
1.66418e-06
0
0
0
0
1.70079e-06
0
0
0
0
0
1.84669e-06
0
1.87454e-06
2.04131e-06
0
2.45014e-06
2.5256e-06
2.43527e-06
0
)
;
    }
    bottom_fluid_surface
    {
        type            zeroGradient;
    }
    lateral_surface_1
    {
        type            zeroGradient;
    }
    lateral_surface_2
    {
        type            zeroGradient;
    }
    lateral_surface_3
    {
        type            zeroGradient;
    }
    lateral_surface_4
    {
        type            zeroGradient;
    }
}


// ************************************************************************* //
