/*--------------------------------*- C++ -*----------------------------------*\
| =========                 |                                                 |
| \\      /  F ield         | OpenFOAM: The Open Source CFD Toolbox           |
|  \\    /   O peration     | Version:  v1612+                                |
|   \\  /    A nd           | Web:      www.OpenFOAM.com                      |
|    \\/     M anipulation  |                                                 |
\*---------------------------------------------------------------------------*/
FoamFile
{
    version     2.0;
    format      ascii;
    class       volScalarField;
    location    "1";
    object      p;
}
// * * * * * * * * * * * * * * * * * * * * * * * * * * * * * * * * * * * * * //

dimensions      [1 -1 -2 0 0 0 0];

internalField   nonuniform List<scalar> 
320
(
14724.8
14724.8
14724.8
14724.8
4.91601
4.91734
4.91564
4.91602
4.91537
4.91521
4.91768
4.9158
4.91528
4.91594
4.91654
4.91576
4914.82
4914.82
4914.77
4914.83
4914.82
4914.76
4914.8
4914.83
4914.76
4914.78
4914.83
4914.79
14724.8
14724.8
14724.8
14724.8
14724.8
14724.8
14724.8
14724.8
14724.8
14724.8
14724.8
14724.8
24534.8
24534.8
24534.8
24534.8
24534.8
24534.8
24534.8
24534.8
24534.8
24534.8
24534.8
24534.8
24534.8
24534.8
24534.8
24534.8
4.91586
4.91613
4.91563
4.91605
4.91573
4.9152
4.91527
4.91526
4.91585
4.91582
4.9149
4.91467
4.91559
4.91552
4.916
4.9157
4.91489
4.9152
4.91526
4.91512
4914.79
4914.83
4914.8
4914.79
4914.78
4914.77
4914.79
4914.79
4914.78
4914.82
4914.77
4914.77
4914.77
4914.82
4914.83
4914.78
4914.82
4914.83
4914.77
4914.81
14724.8
14724.8
14724.8
14724.8
14724.8
14724.8
14724.8
14724.8
14724.8
14724.8
14724.8
14724.8
14724.8
14724.8
14724.8
14724.8
14724.8
14724.8
14724.8
14724.8
24534.8
24534.8
24534.8
24534.8
24534.8
24534.8
24534.8
24534.8
24534.8
24534.8
24534.8
24534.8
24534.8
24534.8
24534.8
24534.8
24534.8
24534.8
24534.8
24534.8
34344.8
34344.8
34344.8
34344.8
34344.8
34344.8
34344.8
34344.8
34344.8
34344.8
34344.8
34344.8
34344.8
34344.8
34344.8
34344.8
34344.8
34344.8
34344.8
34344.8
34344.8
34344.8
34344.8
34344.8
34344.8
34344.8
34344.8
34344.8
34344.8
34344.8
34344.8
34344.8
34344.8
34344.8
34344.8
34344.8
4.91502
4.91505
4.91619
4.91511
4.91514
4.91549
4.91635
4.91606
4.91393
4.91671
4.91339
4.91703
4.91599
4.91617
4.91629
4.91572
4.91474
4.91532
4.91653
4.91614
4.9169
4.9188
4.91599
4.91485
4.91502
4.91598
4.91567
4.91589
4914.82
4914.78
4914.84
4914.82
4914.83
4914.83
4914.76
4914.82
4914.82
4914.83
4914.81
4914.78
4914.79
4914.82
4914.82
4914.83
4914.83
4914.76
4914.81
4914.83
4914.82
4914.84
4914.85
4914.82
4914.81
4914.77
4914.77
4914.84
14724.8
14724.8
14724.8
14724.8
14724.8
14724.8
14724.8
14724.8
14724.8
14724.8
14724.8
14724.8
14724.8
14724.8
14724.8
14724.8
14724.8
14724.8
14724.8
14724.8
14724.8
14724.8
14724.8
14724.8
14724.8
14724.8
14724.8
14724.8
24534.8
24534.8
24534.8
24534.8
24534.8
24534.8
24534.8
24534.8
24534.8
24534.8
24534.8
24534.8
24534.8
24534.8
24534.8
24534.8
24534.8
24534.8
24534.8
24534.8
24534.8
24534.8
24534.8
24534.8
24534.8
24534.8
24534.8
24534.8
34344.8
34344.8
34344.8
34344.8
34344.8
34344.8
34344.8
34344.8
34344.8
34344.8
34344.8
34344.8
34344.8
34344.8
34344.8
34344.8
34344.8
34344.8
34344.8
34344.8
34344.8
34344.8
34344.8
34344.8
34344.8
34344.8
34344.8
34344.8
4.91813
4.91675
4.91706
4.9156
4914.8
4914.8
4914.79
4914.83
)
;

boundaryField
{
    top_fluid_surface
    {
        type            calculated;
        value           nonuniform List<scalar> 
64
(
-2.70855e-11
-1.34655e-10
0
-1.5819e-09
-3.25243e-10
0
-2.81245e-08
-8.37427e-10
0
0
-1.10568e-09
0
0
-1.60935e-09
-1.51921e-08
0
0
0
0
0
0
-7.11872e-10
0
0
0
-2.93294e-09
-1.61651e-12
0
-4.63164e-10
-1.92228e-10
0
-4.63274e-10
-2.14488e-10
0
-5.23719e-09
-2.52335e-10
-3.13952e-10
-2.87596e-09
0
-1.63255e-10
-1.67377e-09
-5.86308e-09
-3.96106e-09
-7.16037e-12
0
-6.48954e-10
-2.70101e-10
-9.05748e-10
-3.15525e-09
0
-7.10753e-11
-1.39832e-09
-1.47149e-09
-7.66915e-12
-3.54783e-09
0
-4.32201e-10
0
0
-7.77351e-09
0
0
0
-7.50464e-10
)
;
    }
    bottom_fluid_surface
    {
        type            calculated;
        value           nonuniform List<scalar> 
64
(
39249.8
39249.8
39249.8
39249.8
39249.8
39249.8
39249.8
39249.8
39249.8
39249.8
39249.8
39249.8
39249.8
39249.8
39249.8
39249.8
39249.8
39249.8
39249.8
39249.8
39249.8
39249.8
39249.8
39249.8
39249.8
39249.8
39249.8
39249.8
39249.8
39249.8
39249.8
39249.8
39249.8
39249.8
39249.8
39249.8
39249.8
39249.8
39249.8
39249.8
39249.8
39249.8
39249.8
39249.8
39249.8
39249.8
39249.8
39249.8
39249.8
39249.8
39249.8
39249.8
39249.8
39249.8
39249.8
39249.8
39249.8
39249.8
39249.8
39249.8
39249.8
39249.8
39249.8
39249.8
)
;
    }
    lateral_surface_1
    {
        type            calculated;
        value           nonuniform List<scalar> 
40
(
4.91502
4.91505
4.91619
4.91511
4.91514
4.91549
4.91635
4.91589
4914.82
4914.78
4914.84
4914.82
4914.83
4914.83
4914.76
4914.84
14724.8
14724.8
14724.8
14724.8
14724.8
14724.8
14724.8
14724.8
24534.8
24534.8
24534.8
24534.8
24534.8
24534.8
24534.8
24534.8
34344.8
34344.8
34344.8
34344.8
34344.8
34344.8
34344.8
34344.8
)
;
    }
    lateral_surface_2
    {
        type            calculated;
        value           nonuniform List<scalar> 
40
(
4.91617
4.91629
4.91572
4.91474
4.91532
4.91653
4.91614
4.9169
4914.82
4914.82
4914.83
4914.83
4914.76
4914.81
4914.83
4914.82
14724.8
14724.8
14724.8
14724.8
14724.8
14724.8
14724.8
14724.8
24534.8
24534.8
24534.8
24534.8
24534.8
24534.8
24534.8
24534.8
34344.8
34344.8
34344.8
34344.8
34344.8
34344.8
34344.8
34344.8
)
;
    }
    lateral_surface_3
    {
        type            calculated;
        value           nonuniform List<scalar> 
40
(
4.91635
4.91606
4.91393
4.91671
4.91339
4.91703
4.91599
4.91617
4914.76
4914.82
4914.82
4914.83
4914.81
4914.78
4914.79
4914.82
14724.8
14724.8
14724.8
14724.8
14724.8
14724.8
14724.8
14724.8
24534.8
24534.8
24534.8
24534.8
24534.8
24534.8
24534.8
24534.8
34344.8
34344.8
34344.8
34344.8
34344.8
34344.8
34344.8
34344.8
)
;
    }
    lateral_surface_4
    {
        type            calculated;
        value           nonuniform List<scalar> 
40
(
4.9169
4.9188
4.91599
4.91485
4.91502
4.91598
4.91567
4.91589
4914.82
4914.84
4914.85
4914.82
4914.81
4914.77
4914.77
4914.84
14724.8
14724.8
14724.8
14724.8
14724.8
14724.8
14724.8
14724.8
24534.8
24534.8
24534.8
24534.8
24534.8
24534.8
24534.8
24534.8
34344.8
34344.8
34344.8
34344.8
34344.8
34344.8
34344.8
34344.8
)
;
    }
}


// ************************************************************************* //
