/*--------------------------------*- C++ -*----------------------------------*\
| =========                 |                                                 |
| \\      /  F ield         | OpenFOAM: The Open Source CFD Toolbox           |
|  \\    /   O peration     | Version:  v1612+                                |
|   \\  /    A nd           | Web:      www.OpenFOAM.com                      |
|    \\/     M anipulation  |                                                 |
\*---------------------------------------------------------------------------*/
FoamFile
{
    version     2.0;
    format      ascii;
    class       volScalarField;
    location    "1";
    object      p_rgh;
}
// * * * * * * * * * * * * * * * * * * * * * * * * * * * * * * * * * * * * * //

dimensions      [1 -1 -2 0 0 0 0];

internalField   nonuniform List<scalar> 
320
(
-9800.2
-9800.2
-9800.21
-9800.21
-0.00130342
-0.00148795
0.00370842
-0.00210399
-0.00098777
0.00206247
-0.00280194
-0.00208695
0.00302325
0.00276374
-0.00257268
0.00343282
-9800.13
-9800.13
-9800.19
-9800.15
-9800.15
-9800.16
-9800.18
-9800.15
-9800.15
-9800.2
-9800.15
-9800.21
-9800.2
-9800.2
-9800.21
-9800.2
-9800.21
-9800.22
-9800.21
-9800.2
-9800.22
-9800.21
-9800.2
-9800.21
-9800.2
-9800.2
-9800.21
-9800.21
-9800.21
-9800.21
-9800.21
-9800.2
-9800.21
-9800.22
-9800.21
-9800.21
-9800.21
-9800.21
-9800.2
-9800.21
0.000713236
-0.00196005
-0.000373257
0.00134846
0.00435371
0.00461981
0.00227494
0.00251991
0.00311147
-0.00192138
0.00391371
0.00345952
0.00192307
-0.00277288
0.000155412
0.0019366
-1.18623e-05
-0.00026911
0.00298599
-0.000432665
-9800.2
-9800.14
-9800.21
-9800.21
-9800.21
-9800.21
-9800.21
-9800.21
-9800.2
-9800.13
-9800.2
-9800.18
-9800.16
-9800.13
-9800.17
-9800.18
-9800.15
-9800.17
-9800.19
-9800.14
-9800.21
-9800.19
-9800.2
-9800.2
-9800.21
-9800.21
-9800.21
-9800.21
-9800.21
-9800.21
-9800.22
-9800.22
-9800.22
-9800.21
-9800.2
-9800.21
-9800.2
-9800.2
-9800.21
-9800.2
-9800.21
-9800.2
-9800.2
-9800.2
-9800.21
-9800.21
-9800.21
-9800.21
-9800.22
-9800.21
-9800.22
-9800.22
-9800.22
-9800.21
-9800.2
-9800.21
-9800.21
-9800.2
-9800.21
-9800.2
-9800.2
-9800.21
-9800.21
-9800.21
-9800.21
-9800.21
-9800.21
-9800.21
-9800.21
-9800.22
-9800.21
-9800.21
-9800.21
-9800.21
-9800.2
-9800.21
-9800.21
-9800.2
-9800.2
-9800.2
-9800.21
-9800.21
-9800.21
-9800.21
-9800.22
-9800.22
-9800.22
-9800.22
-9800.22
-9800.21
-9800.21
-9800.21
-9800.21
-9800.2
-9800.21
-9800.2
-0.000460456
0.000859475
-0.00436974
0.00017882
-8.11527e-05
-0.00338153
0.00337116
-0.00087088
-0.00120369
-0.00412397
-0.00358948
-0.00100073
0.00283109
-0.000438876
-7.42197e-05
-0.00233848
-0.0027508
0.00198936
-0.00102897
-0.00219315
-0.00180271
-0.000986265
-0.0035622
0.000803668
-0.000572322
0.00179466
0.000663349
-0.00637093
-9800.14
-9800.18
-9800.13
-9800.15
-9800.17
-9800.14
-9800.16
-9800.15
-9800.17
-9800.13
-9800.12
-9800.17
-9800.2
-9800.15
-9800.12
-9800.15
-9800.14
-9800.15
-9800.13
-9800.14
-9800.13
-9800.14
-9800.16
-9800.16
-9800.13
-9800.17
-9800.15
-9800.12
-9800.2
-9800.21
-9800.2
-9800.2
-9800.2
-9800.2
-9800.22
-9800.2
-9800.2
-9800.21
-9800.21
-9800.22
-9800.21
-9800.21
-9800.21
-9800.21
-9800.21
-9800.22
-9800.21
-9800.2
-9800.2
-9800.19
-9800.19
-9800.2
-9800.21
-9800.22
-9800.22
-9800.2
-9800.2
-9800.2
-9800.2
-9800.2
-9800.2
-9800.21
-9800.21
-9800.21
-9800.21
-9800.21
-9800.21
-9800.22
-9800.21
-9800.21
-9800.21
-9800.21
-9800.21
-9800.22
-9800.21
-9800.2
-9800.2
-9800.2
-9800.2
-9800.2
-9800.2
-9800.21
-9800.21
-9800.2
-9800.2
-9800.2
-9800.2
-9800.2
-9800.2
-9800.21
-9800.21
-9800.21
-9800.21
-9800.21
-9800.21
-9800.22
-9800.21
-9800.21
-9800.21
-9800.22
-9800.21
-9800.22
-9800.21
-9800.21
-9800.2
-9800.2
-9800.2
-9800.21
-9800.2
-9800.21
-9800.21
-9800.2
0.00112485
-0.000628975
0.000122327
-0.00171208
-9800.21
-9800.2
-9800.18
-9800.15
)
;

boundaryField
{
    top_fluid_surface
    {
        type            totalPressure;
        rho             rho;
        psi             none;
        gamma           1;
        p0              uniform 0;
        value           nonuniform List<scalar> 
64
(
-2.70855e-11
-1.34655e-10
0
-1.5819e-09
-3.25243e-10
0
-2.81245e-08
-8.37427e-10
0
0
-1.10568e-09
0
0
-1.60935e-09
-1.51921e-08
0
0
0
0
0
0
-7.11872e-10
0
0
0
-2.93294e-09
-1.61651e-12
0
-4.63164e-10
-1.92228e-10
0
-4.63274e-10
-2.14488e-10
0
-5.23719e-09
-2.52335e-10
-3.13952e-10
-2.87596e-09
0
-1.63255e-10
-1.67377e-09
-5.86308e-09
-3.96106e-09
-7.16037e-12
0
-6.48954e-10
-2.70101e-10
-9.05748e-10
-3.15525e-09
0
-7.10753e-11
-1.39832e-09
-1.47149e-09
-7.66915e-12
-3.54783e-09
0
-4.32201e-10
0
0
-7.77351e-09
0
0
0
-7.50464e-10
)
;
    }
    bottom_fluid_surface
    {
        type            fixedFluxPressure;
        gradient        uniform 0;
        value           nonuniform List<scalar> 
64
(
-9800.2
-9800.21
-9800.21
-9800.21
-9800.21
-9800.21
-9800.21
-9800.21
-9800.21
-9800.22
-9800.21
-9800.21
-9800.21
-9800.21
-9800.2
-9800.21
-9800.21
-9800.2
-9800.2
-9800.2
-9800.21
-9800.21
-9800.21
-9800.21
-9800.22
-9800.22
-9800.22
-9800.22
-9800.22
-9800.21
-9800.21
-9800.21
-9800.21
-9800.2
-9800.21
-9800.2
-9800.2
-9800.2
-9800.2
-9800.2
-9800.2
-9800.21
-9800.21
-9800.21
-9800.21
-9800.21
-9800.21
-9800.22
-9800.21
-9800.21
-9800.21
-9800.22
-9800.21
-9800.22
-9800.21
-9800.21
-9800.2
-9800.2
-9800.2
-9800.21
-9800.2
-9800.21
-9800.21
-9800.2
)
;
    }
    lateral_surface_1
    {
        type            fixedFluxPressure;
        gradient        uniform 0;
        value           nonuniform List<scalar> 
40
(
-0.000460456
0.000859475
-0.00436974
0.00017882
-8.11527e-05
-0.00338153
0.00337116
-0.00637093
-9800.14
-9800.18
-9800.13
-9800.15
-9800.17
-9800.14
-9800.16
-9800.12
-9800.2
-9800.21
-9800.2
-9800.2
-9800.2
-9800.2
-9800.22
-9800.2
-9800.2
-9800.2
-9800.2
-9800.2
-9800.2
-9800.21
-9800.21
-9800.2
-9800.2
-9800.2
-9800.2
-9800.2
-9800.2
-9800.21
-9800.21
-9800.2
)
;
    }
    lateral_surface_2
    {
        type            fixedFluxPressure;
        gradient        uniform 0;
        value           nonuniform List<scalar> 
40
(
-0.000438876
-7.42197e-05
-0.00233848
-0.0027508
0.00198936
-0.00102897
-0.00219315
-0.00180271
-9800.15
-9800.12
-9800.15
-9800.14
-9800.15
-9800.13
-9800.14
-9800.13
-9800.21
-9800.21
-9800.21
-9800.21
-9800.22
-9800.21
-9800.2
-9800.2
-9800.21
-9800.21
-9800.21
-9800.21
-9800.22
-9800.21
-9800.2
-9800.2
-9800.21
-9800.21
-9800.22
-9800.21
-9800.22
-9800.21
-9800.21
-9800.2
)
;
    }
    lateral_surface_3
    {
        type            fixedFluxPressure;
        gradient        uniform 0;
        value           nonuniform List<scalar> 
40
(
0.00337116
-0.00087088
-0.00120369
-0.00412397
-0.00358948
-0.00100073
0.00283109
-0.000438876
-9800.16
-9800.15
-9800.17
-9800.13
-9800.12
-9800.17
-9800.2
-9800.15
-9800.22
-9800.2
-9800.2
-9800.21
-9800.21
-9800.22
-9800.21
-9800.21
-9800.21
-9800.21
-9800.21
-9800.21
-9800.21
-9800.22
-9800.21
-9800.21
-9800.21
-9800.21
-9800.21
-9800.21
-9800.21
-9800.22
-9800.21
-9800.21
)
;
    }
    lateral_surface_4
    {
        type            fixedFluxPressure;
        gradient        uniform 0;
        value           nonuniform List<scalar> 
40
(
-0.00180271
-0.000986265
-0.0035622
0.000803668
-0.000572322
0.00179466
0.000663349
-0.00637093
-9800.13
-9800.14
-9800.16
-9800.16
-9800.13
-9800.17
-9800.15
-9800.12
-9800.2
-9800.19
-9800.19
-9800.2
-9800.21
-9800.22
-9800.22
-9800.2
-9800.2
-9800.2
-9800.2
-9800.2
-9800.2
-9800.21
-9800.21
-9800.2
-9800.2
-9800.2
-9800.2
-9800.21
-9800.2
-9800.21
-9800.21
-9800.2
)
;
    }
}


// ************************************************************************* //
