/*--------------------------------*- C++ -*----------------------------------*\
| =========                 |                                                 |
| \\      /  F ield         | OpenFOAM: The Open Source CFD Toolbox           |
|  \\    /   O peration     | Version:  v1612+                                |
|   \\  /    A nd           | Web:      www.OpenFOAM.com                      |
|    \\/     M anipulation  |                                                 |
\*---------------------------------------------------------------------------*/
FoamFile
{
    version     2.0;
    format      ascii;
    class       surfaceScalarField;
    location    "1";
    object      phi;
}
// * * * * * * * * * * * * * * * * * * * * * * * * * * * * * * * * * * * * * //

dimensions      [0 3 -1 0 0 0 0];

internalField   nonuniform List<scalar> 
816
(
-4.10857e-07
2.10836e-07
-2.20739e-07
-5.91259e-07
-9.95114e-07
2.02465e-06
-8.38195e-07
5.02155e-07
-7.72482e-07
-8.76249e-07
1.59677e-06
-5.12946e-07
-3.81946e-08
-1.70886e-06
-2.70905e-06
5.11621e-06
-6.37331e-07
-6.32001e-07
-1.32857e-06
1.24067e-06
4.57269e-05
3.02035e-05
-1.48787e-05
-0.000101837
5.31676e-05
0.000149286
-6.02054e-06
7.37408e-07
-6.2262e-07
-7.40171e-05
-4.49745e-06
-2.24655e-05
4.92221e-05
-7.38536e-06
8.72029e-06
9.63045e-05
-7.62675e-05
5.48591e-05
1.68252e-06
3.81634e-05
-5.31166e-05
-0.000138042
1.14391e-05
5.90243e-05
3.90589e-05
-4.16437e-05
0.000190636
6.03553e-06
2.49179e-05
-3.05292e-05
1.29078e-06
3.68108e-05
-2.22759e-05
3.77265e-05
-1.12728e-06
-9.6364e-05
-0.00010183
-2.25559e-05
-4.81661e-06
-5.47945e-05
3.84201e-06
4.7259e-05
-2.15639e-06
-4.12196e-05
6.50966e-05
-4.26981e-06
-2.85171e-05
1.52362e-06
8.32288e-07
-3.49023e-06
-7.25872e-06
-6.44773e-06
3.1992e-06
-1.2888e-06
-7.1545e-06
-3.9748e-06
-2.01131e-07
-4.46976e-06
-1.67104e-06
-3.57508e-07
-3.3945e-06
-2.56679e-06
2.67297e-06
-1.40756e-06
5.29235e-06
-3.09308e-07
-6.46754e-07
-5.75587e-07
1.97568e-06
4.23078e-07
1.00526e-06
3.80418e-06
1.64276e-06
8.09906e-07
2.19404e-06
-2.14241e-06
3.09756e-06
-6.39835e-07
-2.1654e-06
-2.32535e-06
5.12617e-06
3.08529e-06
-2.20883e-06
-1.63564e-06
-1.65388e-06
8.31876e-07
-1.34642e-06
-7.53099e-06
2.81277e-06
3.93788e-08
-3.65918e-06
-6.11217e-06
5.63138e-06
6.42411e-07
-2.70042e-06
-2.74372e-06
2.17041e-07
-1.79816e-06
-3.75681e-06
-2.1168e-06
-1.23356e-06
-3.62796e-06
-1.56932e-06
-6.28513e-07
-6.70108e-07
-4.20885e-07
-1.21067e-06
2.70122e-07
1.08394e-06
-1.1093e-07
2.36179e-07
-6.92612e-07
-5.09508e-07
-1.59534e-07
1.04389e-06
7.06977e-07
-4.66669e-07
5.97007e-07
1.097e-06
-2.68575e-07
-8.29721e-08
-1.54151e-06
8.23451e-08
-7.64114e-09
-6.03569e-07
1.85196e-07
-1.89848e-06
3.42454e-08
-6.6311e-07
-2.48574e-06
-2.24676e-07
-2.33924e-06
-1.61678e-06
2.298e-07
-1.15436e-06
-4.75799e-07
-2.8089e-07
9.95043e-08
-1.48312e-07
-3.85879e-07
-2.63894e-07
-4.77557e-07
2.17466e-07
-6.306e-07
-2.85234e-07
-2.5689e-08
-3.20208e-07
-1.33777e-06
-9.47873e-07
-5.37372e-07
-8.96536e-07
-4.20173e-07
2.38002e-07
-1.57349e-06
-1.49812e-06
-1.11478e-06
-8.96731e-07
-1.20223e-06
-1.0892e-06
-3.42529e-07
-1.97787e-07
-7.73953e-07
-2.53311e-07
-5.82552e-08
-1.60721e-07
3.02051e-07
-4.53074e-07
-6.06328e-07
-2.16499e-07
2.09198e-07
5.20527e-07
-2.48751e-07
1.14126e-07
5.81055e-07
-4.60771e-07
3.04633e-07
-4.65341e-07
-3.27709e-07
-5.02461e-07
3.04179e-07
1.2457e-07
-1.23906e-06
-2.39074e-07
2.2671e-07
-1.70265e-06
-2.18842e-07
-3.48094e-07
-1.52279e-06
-6.36749e-07
-8.63267e-07
-7.24385e-07
-9.75409e-08
2.025e-05
-3.65991e-05
-3.2978e-06
-3.92755e-05
0.000137774
6.28219e-06
-9.41101e-05
0.000141971
0.000171594
-3.29195e-05
0.000108612
-2.46635e-06
-4.35134e-05
4.73236e-05
-4.21342e-06
-0.000111264
-2.55426e-06
-4.22893e-05
-8.84984e-08
-4.54836e-05
-2.19189e-05
7.78066e-06
-4.01899e-05
-6.18647e-05
-3.41982e-07
-2.94032e-05
-0.000123285
-1.54304e-06
-1.73045e-05
4.12213e-05
-1.49798e-06
5.43525e-06
-9.94568e-05
-2.71141e-05
1.66456e-07
-7.75353e-05
-0.000106956
1.94125e-07
-0.000113029
-0.000133206
-4.37024e-06
-2.93952e-06
-7.94567e-05
1.00175e-05
-3.89946e-05
5.61e-05
9.2894e-07
-6.3691e-05
-8.6713e-05
1.91968e-05
-6.63602e-06
-0.000128785
-3.19048e-06
1.42718e-05
-3.37311e-05
9.67993e-07
7.43519e-06
-3.94422e-05
-8.935e-05
2.00227e-06
-2.3912e-05
1.02913e-05
-6.50121e-05
-4.52137e-05
1.20079e-06
-4.01991e-06
2.83847e-07
-4.7002e-06
3.61027e-06
2.38384e-06
-3.25246e-06
2.03622e-06
-2.15989e-07
-6.77311e-06
5.80795e-07
-4.48763e-07
-5.03147e-06
-4.20571e-07
-1.13675e-06
-3.34154e-06
-3.66058e-07
-1.13488e-06
2.70037e-07
-5.71237e-06
6.03051e-07
1.05645e-06
-2.99038e-06
-2.22526e-07
5.4556e-07
-4.78785e-06
-5.50511e-06
-4.97225e-07
2.95604e-06
6.86968e-07
-3.89277e-06
-6.9017e-07
-5.60816e-06
-6.96709e-07
8.21846e-07
-4.52106e-08
-5.92616e-07
3.2294e-07
-4.87879e-06
-1.55577e-06
-4.71111e-06
-3.54239e-06
2.44076e-06
6.82468e-07
3.61449e-06
3.89732e-07
2.45421e-06
-3.01875e-06
2.91194e-06
-2.91082e-06
-9.44659e-07
-2.0959e-06
1.58272e-07
4.2165e-06
-2.65948e-06
1.83752e-07
3.8707e-06
-3.30036e-06
-3.05103e-06
1.31574e-06
1.53434e-06
3.06786e-06
-8.17823e-07
2.4112e-09
1.63529e-07
1.5567e-08
3.65174e-09
-1.06002e-06
6.55352e-07
1.24111e-06
-1.45354e-06
5.91676e-07
-1.05901e-07
-1.6133e-06
1.14717e-06
-2.24148e-07
-1.20859e-06
-5.91231e-07
-6.30162e-07
1.26782e-07
1.08213e-06
-5.19153e-07
1.34793e-07
-1.21429e-06
1.05069e-07
5.62133e-07
-2.16146e-07
5.31907e-07
2.35084e-07
-6.81268e-07
-3.418e-07
-3.47901e-07
1.41904e-06
2.02351e-07
-2.19171e-06
-8.71538e-07
-1.38822e-06
2.74788e-07
5.39407e-07
-2.77281e-07
9.15566e-07
2.66241e-07
-9.5539e-07
-1.30408e-06
-2.11565e-06
-3.0558e-07
-1.2787e-06
1.26357e-07
6.49004e-07
4.66969e-07
1.11883e-06
-6.71307e-07
2.3395e-07
-5.96566e-07
-1.34454e-08
-1.78304e-06
9.92943e-08
2.04818e-06
-9.71248e-07
9.17629e-07
1.78851e-06
-3.76524e-07
-5.31898e-07
1.04499e-06
1.2224e-06
1.73007e-06
-4.63572e-07
1.33188e-06
2.98899e-07
-3.95139e-07
1.01568e-08
-7.51559e-07
5.91005e-07
3.74657e-07
-9.26918e-07
4.05379e-07
-2.09472e-08
-1.09897e-06
7.34187e-07
-6.05241e-08
-6.88175e-07
-5.39787e-07
-2.76034e-07
2.31085e-07
6.60732e-07
-4.50714e-07
-2.32521e-08
-7.10143e-07
-1.47291e-08
1.43868e-07
-2.00711e-07
2.93581e-07
2.58076e-08
-7.01689e-07
-2.8979e-07
-1.03656e-07
8.70391e-07
-5.72334e-08
-5.09772e-07
-7.2751e-07
-1.19126e-06
8.76807e-08
6.60473e-08
8.31974e-08
6.64384e-07
-3.46694e-08
-7.17603e-07
-5.76485e-07
-7.13092e-07
-4.90297e-07
-5.81655e-07
-1.35632e-07
4.21816e-07
2.24301e-07
3.84402e-07
-4.75777e-07
3.75463e-07
-2.56351e-07
9.77774e-08
-9.04386e-07
7.74237e-08
6.36401e-07
-6.194e-07
2.80859e-07
6.04554e-07
-5.47905e-07
-3.52781e-07
2.27241e-07
7.3845e-07
5.65213e-07
-2.16229e-07
6.37364e-07
-5.97324e-09
7.58586e-08
-6.56466e-08
-2.68132e-07
-1.99059e-07
8.43192e-08
-1.84396e-07
1.47063e-08
-1.56863e-07
-7.2013e-07
-2.04964e-07
-3.76556e-07
1.73718e-07
-6.88647e-07
-6.71402e-07
-2.83898e-07
-5.43981e-07
-2.08608e-07
-7.26401e-08
-2.49195e-07
-5.41158e-08
-4.13414e-08
-1.84845e-07
-2.54225e-07
4.01849e-08
1.27416e-07
-2.27465e-07
1.73833e-07
-1.84703e-07
-3.45965e-07
-1.39118e-07
1.08144e-07
5.67136e-08
-7.46337e-07
7.95879e-08
-8.83673e-07
-1.09588e-07
-7.22084e-07
-4.67044e-07
-4.32724e-07
2.22369e-07
-2.79976e-07
-3.92232e-07
3.71124e-07
-4.55188e-07
2.80358e-07
-4.73246e-07
4.43031e-07
-2.87885e-07
-2.57729e-07
7.43014e-08
3.4903e-07
-2.7158e-07
-2.43554e-07
-7.64526e-08
-6.19389e-08
2.12659e-09
-2.88354e-07
-2.21304e-07
2.51235e-07
1.15203e-07
-3.3204e-07
-5.30404e-07
1.14506e-07
-1.67334e-07
2.43787e-07
-3.50677e-07
-3.88312e-07
-2.11808e-07
-5.46236e-07
6.72777e-08
1.11483e-07
-2.28212e-07
-8.2771e-08
-2.66164e-08
-5.34484e-07
8.00929e-08
-3.5953e-07
1.83067e-07
-2.30651e-07
-2.24388e-07
2.04274e-07
-1.77735e-07
2.35031e-07
6.33398e-05
-0.000109139
6.06081e-06
-3.33819e-06
2.76436e-06
0.000137348
5.07035e-06
0.000104952
1.22572e-05
6.75739e-05
1.19976e-05
8.74122e-05
3.77009e-06
-3.88299e-05
-4.87018e-06
-3.18655e-05
4.66827e-06
-0.000101773
2.38857e-05
2.08139e-05
2.76392e-05
3.03954e-06
1.92504e-05
2.29743e-05
-1.27738e-05
-6.1878e-05
-5.6774e-06
-4.1829e-05
1.46025e-05
-3.05586e-05
2.63839e-07
-1.5282e-05
-3.45985e-06
-1.86771e-05
1.39517e-05
-9.70555e-05
-2.79223e-06
-8.92001e-05
-2.43778e-06
-7.67609e-05
9.38832e-07
-1.00046e-05
1.00767e-05
8.24603e-05
-2.09646e-05
9.4958e-05
4.3974e-06
3.59646e-05
-0.000157262
1.69228e-05
8.28691e-06
-7.45419e-05
-7.17953e-06
-0.000145927
-4.11894e-06
-1.45963e-06
1.17867e-07
1.92605e-06
3.40895e-06
3.78288e-07
3.23427e-06
1.07619e-06
3.75831e-06
1.24152e-06
3.72446e-06
2.35184e-06
4.23756e-06
3.78194e-06
-8.33828e-07
-2.31577e-06
-5.54054e-06
-5.08493e-06
-4.40431e-06
-2.34634e-06
5.03784e-06
1.7059e-06
3.41867e-06
4.05913e-06
1.61038e-06
-2.20625e-06
-7.32173e-06
-5.3764e-06
2.14617e-06
8.41318e-07
4.64667e-06
1.68546e-06
3.16371e-06
-3.97446e-07
-4.70784e-07
2.88116e-06
4.28884e-06
1.07679e-06
-2.92119e-06
-2.89292e-06
-4.93636e-06
-1.2528e-06
4.63504e-06
2.49453e-06
2.70699e-06
-3.12454e-06
-3.50388e-06
-2.91509e-06
4.621e-06
1.54019e-06
5.2808e-06
4.59795e-06
2.57133e-06
2.6441e-07
-5.65734e-06
-1.75484e-06
-3.46265e-06
-2.7675e-06
-4.57882e-07
1.54305e-06
1.85227e-06
3.92807e-08
1.76525e-06
4.34493e-07
1.85194e-06
7.47661e-07
1.81295e-06
1.89161e-06
1.88952e-06
1.98746e-06
-8.16279e-07
-1.33311e-06
-2.22856e-06
-2.30727e-06
-2.34379e-06
-7.31928e-07
2.2498e-06
1.0055e-06
1.48519e-06
8.56223e-07
1.10137e-06
-1.67137e-06
-3.37667e-06
-1.6894e-06
1.29472e-06
7.24615e-07
2.23315e-06
5.79524e-07
1.94087e-06
3.8168e-07
-4.96802e-07
1.68674e-06
2.0319e-06
-4.94433e-07
-1.04778e-06
-2.48407e-06
-2.30442e-06
-7.65111e-07
2.25356e-06
2.89524e-07
1.6311e-06
-1.02043e-06
-1.98478e-06
-2.64249e-07
2.09713e-06
1.56737e-06
2.49304e-06
2.29142e-06
1.47567e-06
3.18298e-07
-2.46961e-06
-6.02827e-07
-1.21139e-06
-1.78154e-06
-2.65947e-07
1.28435e-06
6.40485e-07
1.8957e-07
5.8787e-07
4.46649e-07
6.47614e-07
6.41892e-07
5.17187e-07
1.28347e-06
5.58225e-07
9.36549e-07
-2.56895e-07
-5.564e-07
-7.73057e-07
-1.47018e-06
-7.93583e-07
-5.83211e-07
5.92861e-07
3.30584e-07
3.76222e-07
4.28113e-07
3.27178e-07
-1.20608e-06
-8.5986e-07
-1.00113e-06
4.60527e-07
4.92189e-07
7.2486e-07
6.15036e-07
6.03755e-07
1.62415e-07
6.39328e-09
8.83213e-07
5.91149e-07
-2.45242e-07
-4.26962e-07
-1.55517e-06
-5.94292e-07
-4.88192e-07
7.64382e-07
5.86504e-07
5.33358e-07
-7.5143e-07
-3.40921e-07
-3.07812e-07
7.45008e-07
7.73263e-07
7.93142e-07
1.28237e-06
4.18689e-07
2.74088e-07
-7.26076e-07
6.5184e-08
-3.58434e-07
-4.31098e-07
-1.92979e-08
4.8639e-07
1.81157e-07
3.66766e-07
4.05997e-07
6.79125e-07
5.11001e-07
-2.66392e-07
-7.01751e-07
-3.42783e-07
-2.27689e-08
1.70878e-08
-6.23447e-07
-4.79234e-07
2.44163e-07
3.10481e-07
1.53661e-07
3.8663e-07
-2.78669e-07
-8.53816e-07
-3.22085e-07
2.08315e-07
-2.42083e-07
-2.79208e-08
4.04555e-07
5.8829e-07
6.40525e-08
-6.25297e-08
9.64163e-05
4.0067e-05
-9.27171e-06
-6.96742e-06
-5.79391e-06
6.20717e-06
-9.94446e-06
3.3497e-06
-1.35496e-06
-1.4741e-06
-4.92548e-06
-3.51881e-06
)
;

boundaryField
{
    top_fluid_surface
    {
        type            calculated;
        value           nonuniform List<scalar> 
64
(
-3.81908e-05
-3.88461e-05
0.000167003
-9.69419e-05
-4.64264e-05
6.14633e-05
-9.54277e-05
-7.66878e-05
0.000117529
0.000128049
-9.42759e-05
0.000132722
3.65892e-05
-0.000102264
-3.56004e-06
6.74808e-05
0.000185747
0.0001927
9.1974e-05
0.000119341
0.000142297
-7.40954e-05
0.000164546
0.000145648
8.68232e-05
-0.00013328
-3.19294e-06
7.4263e-05
-3.01148e-05
-2.39205e-05
0.000111311
-3.90902e-05
-3.07385e-05
2.12958e-05
-0.000196852
-1.96569e-05
-2.48738e-05
-0.000142615
0.000153603
-2.28545e-05
-6.4882e-05
-0.000164137
-0.000140518
-4.00736e-06
0.00011607
-4.05115e-05
-4.77273e-05
-9.09203e-05
-0.000133796
7.35167e-05
-2.35036e-05
-0.000107306
-9.04219e-05
-4.59843e-05
-0.000162652
8.20045e-06
-4.13868e-05
9.18265e-05
3.27062e-05
-0.000248244
7.22571e-05
4.12384e-07
4.04396e-05
-6.91524e-05
)
;
    }
    bottom_fluid_surface
    {
        type            calculated;
        value           uniform 0;
    }
    lateral_surface_1
    {
        type            calculated;
        value           uniform 0;
    }
    lateral_surface_2
    {
        type            calculated;
        value           uniform 0;
    }
    lateral_surface_3
    {
        type            calculated;
        value           uniform 0;
    }
    lateral_surface_4
    {
        type            calculated;
        value           uniform 0;
    }
}


// ************************************************************************* //
