/*--------------------------------*- C++ -*----------------------------------*\
| =========                 |                                                 |
| \\      /  F ield         | OpenFOAM: The Open Source CFD Toolbox           |
|  \\    /   O peration     | Version:  v1612+                                |
|   \\  /    A nd           | Web:      www.OpenFOAM.com                      |
|    \\/     M anipulation  |                                                 |
\*---------------------------------------------------------------------------*/
FoamFile
{
    version     2.0;
    format      ascii;
    class       volVectorField;
    location    "1";
    object      U;
}
// * * * * * * * * * * * * * * * * * * * * * * * * * * * * * * * * * * * * * //

dimensions      [0 1 -1 0 0 0 0];

internalField   nonuniform List<vector> 
320
(
(-2.49793e-07 -1.94733e-07 2.26591e-06)
(-7.37203e-07 -1.13735e-06 1.8617e-06)
(3.43678e-07 3.49143e-07 5.09679e-06)
(-1.0717e-06 -7.81703e-07 1.94315e-06)
(-2.45575e-05 8.33656e-05 -7.36009e-06)
(0.000122121 -9.65891e-06 -1.64107e-05)
(0.000126666 -4.84194e-05 8.7729e-05)
(0.000112104 -5.98585e-05 -5.62477e-05)
(9.34728e-05 3.23847e-05 -2.55046e-05)
(0.000126782 8.77364e-05 2.0066e-05)
(8.05012e-05 2.96067e-05 -0.000237169)
(2.27791e-05 3.08743e-05 -4.0925e-05)
(4.47448e-05 -0.00012203 5.91627e-05)
(3.98083e-05 3.70342e-05 6.86083e-05)
(6.14763e-05 -8.53109e-06 -4.70251e-05)
(-3.36053e-05 -5.40963e-05 7.12743e-05)
(2.66438e-06 6.10982e-06 6.23692e-06)
(-1.19761e-06 1.70308e-06 5.96424e-06)
(-2.62252e-06 -3.33926e-06 7.45138e-07)
(-3.08301e-06 -3.12136e-06 -2.04054e-06)
(3.32056e-07 -2.72816e-06 1.08725e-06)
(2.58735e-06 1.46848e-06 -1.31699e-06)
(-3.77898e-06 -1.86077e-06 -2.18727e-06)
(1.20521e-06 -3.37606e-06 2.4553e-06)
(1.53377e-06 -4.10421e-06 1.75446e-06)
(6.80828e-06 -3.41837e-06 5.72038e-07)
(6.64158e-06 6.36436e-07 3.96015e-06)
(4.84031e-06 6.43373e-08 -1.21492e-06)
(1.47904e-06 8.59557e-07 7.11451e-06)
(-1.09111e-06 3.54858e-07 6.97547e-06)
(-1.44338e-06 -6.2806e-07 1.56608e-06)
(-4.45254e-07 -1.75315e-07 -2.17209e-06)
(-4.60496e-07 5.75981e-07 8.10905e-07)
(6.66091e-07 -2.98195e-07 -1.69215e-06)
(-5.10372e-07 -2.63892e-07 -1.96661e-06)
(-7.69643e-07 -1.51308e-07 2.7281e-06)
(1.20346e-06 1.93716e-07 1.28108e-06)
(2.74948e-06 -2.61844e-07 1.43974e-06)
(1.46992e-06 -1.99201e-09 4.32245e-06)
(1.96994e-06 7.62303e-07 -4.65481e-07)
(-1.98643e-07 -1.52547e-07 1.15624e-07)
(-5.22504e-07 -5.9264e-07 1.65378e-07)
(5.60946e-07 1.68585e-07 1.04979e-06)
(-5.48464e-07 -6.28775e-07 2.88971e-07)
(1.23125e-06 6.78871e-07 1.20722e-06)
(-6.91437e-07 3.59065e-07 1.14177e-06)
(-1.07203e-06 -3.69658e-07 2.44752e-07)
(-4.41652e-07 -9.57359e-09 -4.53315e-07)
(-6.47024e-07 -2.11748e-07 1.66621e-07)
(2.82127e-07 -6.55987e-07 1.16401e-07)
(-9.02837e-07 -7.4785e-07 -4.30802e-07)
(-6.63218e-08 -4.59008e-07 4.09898e-07)
(1.23467e-06 8.07024e-08 3.90783e-07)
(1.87357e-06 -7.61097e-07 2.12031e-07)
(1.15353e-06 7.76673e-08 4.90027e-07)
(1.65663e-06 8.79606e-07 1.61472e-07)
(1.2628e-06 8.67059e-05 2.19034e-05)
(4.93298e-05 0.000127481 -5.67336e-05)
(0.000186472 2.55091e-05 -0.000174311)
(0.000131675 7.11931e-05 3.61954e-05)
(4.90358e-05 0.000102533 9.70558e-05)
(-1.63433e-05 -2.91399e-05 9.69599e-05)
(3.50579e-05 -3.59684e-05 3.89506e-05)
(9.35822e-07 -1.94011e-05 6.05671e-05)
(2.173e-05 -8.35484e-05 7.28732e-05)
(-4.14628e-05 -0.000149831 -3.77325e-05)
(-1.96359e-05 -2.66535e-05 8.29554e-05)
(6.93957e-05 -5.82866e-05 7.31563e-05)
(0.000132754 3.86548e-05 4.60616e-05)
(0.000121568 -5.22282e-05 -7.6589e-05)
(6.13417e-05 -5.4997e-05 -1.79806e-06)
(0.000137054 -5.09861e-05 4.34192e-05)
(6.2821e-05 2.31157e-05 -3.04356e-05)
(4.46368e-05 -2.36359e-05 -1.96075e-05)
(3.85544e-05 2.31078e-05 5.46537e-05)
(8.65279e-05 0.000134486 -3.04393e-05)
(2.59881e-06 4.08547e-06 -6.21155e-07)
(1.0459e-06 5.58743e-06 -1.46866e-06)
(4.33286e-06 6.45119e-06 -6.30226e-08)
(5.34059e-07 3.59212e-06 6.31076e-08)
(1.31301e-08 1.51537e-06 1.98224e-07)
(-4.78217e-06 -1.91405e-06 -8.85904e-07)
(-1.23978e-06 1.92423e-07 -1.43728e-06)
(-2.28405e-06 7.72536e-07 -1.06166e-06)
(5.69974e-06 -1.55492e-06 -2.57571e-07)
(-1.21041e-06 -7.27201e-06 4.26418e-06)
(6.37894e-07 1.73186e-06 -1.56626e-06)
(1.73362e-07 -3.72462e-06 -8.46188e-07)
(1.50916e-06 -3.26984e-06 3.63531e-06)
(5.03362e-07 2.32634e-06 -2.45547e-07)
(-4.0338e-06 -2.95748e-06 -1.97376e-06)
(1.01156e-06 2.92886e-06 8.60746e-07)
(5.84179e-06 1.04269e-06 -3.43354e-06)
(5.65729e-06 -1.61571e-06 -2.97381e-06)
(1.93676e-07 2.06709e-06 -1.8442e-06)
(3.09275e-06 2.0321e-06 -2.25994e-06)
(4.23997e-07 1.09367e-06 1.10551e-08)
(1.57653e-07 2.66668e-06 -2.38196e-06)
(7.50413e-07 2.40685e-06 3.1462e-07)
(6.48028e-07 1.19839e-06 5.92185e-07)
(1.33514e-06 -4.67912e-07 1.3892e-06)
(-1.17378e-06 -7.38415e-07 -5.77788e-08)
(6.16523e-08 -1.54455e-07 -9.14285e-07)
(-7.27508e-07 3.2965e-07 -3.06736e-07)
(1.2378e-06 6.83066e-07 8.51493e-07)
(-7.0794e-07 -1.19116e-06 3.91103e-06)
(4.8646e-07 -3.53223e-07 -7.21361e-07)
(-1.21859e-06 -4.68417e-07 -3.07838e-07)
(-1.13915e-07 6.26639e-08 4.0349e-06)
(2.18754e-06 4.29394e-07 -6.49524e-07)
(4.11799e-07 -1.04432e-06 -2.06855e-06)
(1.98939e-06 4.10647e-07 3.34398e-07)
(1.77964e-06 6.15568e-07 -3.87517e-06)
(1.40094e-06 -9.74269e-07 -3.42863e-06)
(-9.01245e-07 -1.86367e-07 -1.662e-06)
(-6.23668e-07 8.02298e-07 -3.22706e-06)
(5.80435e-07 6.79063e-07 -2.23216e-08)
(3.21898e-07 1.66663e-06 -5.05755e-07)
(5.26025e-07 1.63711e-06 -6.24278e-08)
(4.50164e-07 6.04074e-07 -1.53449e-08)
(8.09207e-07 -5.87651e-07 2.3656e-07)
(-6.82504e-07 -5.32751e-07 2.45264e-08)
(-6.05618e-08 -1.67632e-07 -2.12121e-07)
(-7.85647e-07 9.50032e-08 -2.71184e-08)
(9.93685e-07 4.20779e-07 9.3926e-08)
(-3.45039e-07 -1.00392e-06 5.68293e-07)
(5.21606e-07 6.31959e-08 2.63808e-08)
(-7.45444e-07 -5.62445e-07 1.71495e-07)
(-2.67607e-07 -5.13389e-07 9.98739e-07)
(1.1144e-06 3.30651e-07 2.66592e-07)
(8.53617e-08 -5.86326e-07 -5.21113e-07)
(1.01016e-06 3.00167e-07 -1.20635e-07)
(1.18458e-06 8.74423e-08 -7.77979e-07)
(1.3943e-06 -3.69486e-07 -7.7715e-07)
(-3.36261e-07 1.05779e-07 -9.99129e-08)
(-1.40902e-07 3.12902e-07 -6.10733e-07)
(6.92145e-08 -3.79556e-08 2.92427e-07)
(-1.18167e-07 -2.65083e-07 2.9516e-07)
(3.08273e-07 6.89768e-08 5.64606e-07)
(-2.4343e-07 -2.79801e-07 3.92379e-07)
(5.44179e-07 2.84354e-07 6.77424e-07)
(-1.76198e-07 1.96254e-07 7.11099e-07)
(-3.51508e-07 -1.46127e-07 1.36999e-07)
(-1.3283e-07 -1.05187e-07 -9.68308e-08)
(-2.53315e-07 -8.465e-08 2.21349e-07)
(1.08592e-07 -2.63087e-07 -2.72465e-07)
(-2.71794e-07 -2.58221e-07 -1.11288e-07)
(2.93173e-08 -1.88962e-07 3.88016e-07)
(7.06235e-07 9.40634e-08 -2.1651e-09)
(9.7732e-07 -2.39904e-07 1.23839e-07)
(6.02476e-07 -2.91766e-08 5.57991e-07)
(7.76338e-07 3.72243e-07 -2.53885e-09)
(3.81961e-07 3.92812e-07 -1.70283e-08)
(2.45204e-07 7.33798e-07 -1.40223e-07)
(3.12313e-07 6.92242e-07 9.12027e-08)
(3.44605e-07 2.31657e-07 1.05303e-07)
(4.33946e-07 -2.7111e-07 1.96144e-07)
(-2.30864e-07 -2.81181e-07 -2.25214e-08)
(-9.57262e-09 -1.6689e-07 -5.47898e-08)
(-3.13446e-07 -3.83794e-08 -5.83614e-08)
(2.51464e-07 4.53686e-08 4.21518e-08)
(-2.33073e-07 -5.41723e-07 2.92374e-07)
(5.02744e-08 -2.39727e-07 -2.258e-07)
(-3.17555e-07 -2.92931e-07 -1.55162e-07)
(-4.40112e-08 -2.44872e-07 2.42354e-07)
(6.77618e-07 4.02832e-08 8.27105e-08)
(3.48491e-07 -3.02246e-07 -1.95781e-07)
(6.60819e-07 1.10741e-07 -1.54161e-07)
(6.59297e-07 -3.47829e-08 -3.6573e-07)
(5.97951e-07 -2.38938e-07 -2.84414e-07)
(2.48216e-09 6.38389e-08 -2.71564e-07)
(-1.66546e-08 2.13792e-07 -3.7325e-07)
(0.000138327 9.13032e-06 -2.07117e-05)
(-2.66299e-05 1.87595e-05 9.37309e-06)
(3.65873e-05 3.69219e-05 -0.000102344)
(0.000178571 3.14891e-05 -2.24648e-05)
(4.95839e-05 4.48005e-05 -2.5058e-05)
(9.87739e-05 0.000113408 -7.58414e-05)
(6.94267e-05 -5.11156e-06 7.97231e-05)
(-4.92494e-05 -4.41423e-05 -1.80696e-05)
(-7.71363e-05 -6.23126e-05 -5.78579e-05)
(-8.24356e-05 -4.25925e-05 -0.000108287)
(-8.37179e-05 1.90803e-05 -8.90063e-05)
(-4.40152e-05 4.53522e-05 3.77926e-06)
(4.50076e-05 -3.9606e-05 6.49259e-05)
(6.60776e-05 -4.65566e-05 -3.60265e-05)
(8.74683e-06 -6.7625e-05 -2.32423e-05)
(3.53226e-05 -9.67151e-05 -4.25617e-05)
(1.53814e-05 -0.000122569 -7.94387e-05)
(1.6744e-05 -4.28026e-05 3.86032e-05)
(0.000138485 -6.70461e-06 -1.19227e-05)
(7.74298e-05 -5.95585e-05 -5.28833e-05)
(3.30523e-05 -2.28285e-05 -5.42492e-05)
(6.97134e-05 7.22081e-06 -3.91641e-06)
(9.52237e-05 -0.000120354 -8.42357e-05)
(2.85268e-07 -5.54525e-05 0.000166385)
(1.67173e-05 -3.28146e-05 -2.94007e-05)
(-9.05758e-06 -1.2141e-05 5.08885e-05)
(-1.84933e-05 0.000186575 1.91954e-05)
(4.28082e-05 7.03942e-05 -0.000124688)
(-1.58389e-06 1.09558e-07 -2.65198e-06)
(1.28495e-06 4.53082e-06 -2.87833e-06)
(2.9863e-07 1.42346e-06 -2.48422e-06)
(7.97736e-07 5.27809e-06 -2.95161e-06)
(2.31337e-06 4.9587e-06 -3.35244e-06)
(3.5801e-06 3.49885e-06 1.37514e-06)
(1.86167e-06 1.39178e-06 4.2038e-06)
(-2.45368e-07 -4.76999e-06 3.876e-06)
(-4.42377e-06 -4.59219e-06 -4.00018e-06)
(-2.92346e-06 -6.23256e-07 -2.95063e-06)
(-5.23954e-06 4.2114e-06 -9.9677e-07)
(5.15387e-07 2.54202e-06 6.33197e-06)
(-1.14244e-06 -6.5018e-06 -2.37852e-06)
(1.28577e-06 -2.63955e-06 -3.83888e-06)
(-2.53392e-06 -5.0678e-06 -1.83533e-06)
(-9.6036e-07 -1.31606e-06 9.33723e-07)
(1.22265e-06 -3.46952e-06 -2.96655e-06)
(-4.84569e-06 -2.36542e-06 2.16533e-06)
(1.22126e-06 2.88537e-06 4.12783e-06)
(3.73796e-06 -3.08338e-06 -3.55345e-06)
(-6.92378e-07 -4.8864e-06 -2.12738e-06)
(-2.49537e-06 -4.00039e-07 3.62686e-06)
(1.86506e-06 5.77135e-06 -3.23148e-06)
(3.47152e-07 1.22747e-06 -4.12735e-06)
(2.04991e-06 -5.01171e-06 -1.98263e-06)
(-3.04868e-06 -2.50028e-06 4.60025e-06)
(-2.51746e-06 2.30786e-06 2.78505e-06)
(-2.77278e-06 -1.45785e-07 3.87181e-06)
(-1.34984e-06 3.46256e-07 -3.39587e-06)
(1.05577e-07 9.22881e-07 -3.16834e-06)
(1.65852e-07 6.64672e-07 -3.55683e-06)
(3.7717e-07 9.14679e-07 -3.48847e-06)
(1.43137e-06 1.03789e-06 -3.69652e-06)
(2.38283e-06 1.31335e-07 1.00527e-06)
(1.01594e-06 -9.79065e-09 4.5355e-06)
(8.74819e-07 -2.35823e-06 4.26601e-06)
(-8.74361e-07 -1.90155e-06 -4.48916e-06)
(-2.88309e-07 2.70958e-07 -2.93856e-06)
(-4.48952e-07 1.75213e-06 -2.00785e-06)
(1.13417e-06 -2.78621e-07 6.56158e-06)
(-1.41065e-06 -2.71911e-06 -2.24522e-06)
(-3.93818e-07 -5.12438e-07 -4.29469e-06)
(-1.1281e-06 -1.52927e-06 -3.69024e-06)
(-5.66164e-08 -9.22872e-08 6.28285e-07)
(-9.26249e-07 -9.86195e-07 -4.13358e-06)
(-1.66747e-06 -3.84621e-07 2.10718e-06)
(2.31047e-06 5.67341e-07 4.50654e-06)
(2.08461e-06 -5.07541e-07 -4.27243e-06)
(-2.89388e-07 -1.10548e-06 -2.90644e-06)
(-8.87319e-07 3.34165e-07 3.9503e-06)
(1.08909e-06 1.56157e-06 -4.07862e-06)
(2.63596e-07 -8.50301e-07 -4.76409e-06)
(-3.76784e-07 -2.68288e-06 -2.75931e-06)
(-1.44502e-06 -1.26229e-06 4.80462e-06)
(-1.45271e-06 6.45086e-07 2.54245e-06)
(-1.60226e-06 1.96709e-07 2.91967e-06)
(-1.02297e-06 2.39333e-07 -7.4225e-07)
(3.02903e-07 6.51829e-07 -6.68709e-07)
(2.73203e-07 5.16864e-07 -8.26637e-07)
(3.71119e-07 7.00523e-07 -6.43679e-07)
(1.15273e-06 6.71769e-07 -7.45858e-07)
(1.26073e-06 -2.04288e-09 1.77608e-07)
(2.98359e-07 2.20249e-07 9.64549e-07)
(5.20651e-07 -1.33916e-06 8.764e-07)
(-4.53148e-07 -1.23943e-06 -7.30368e-07)
(-1.86025e-07 -1.12716e-07 -4.68177e-07)
(-3.98233e-07 8.42499e-07 -3.05408e-07)
(5.6147e-07 -2.15379e-07 1.06564e-06)
(-1.03439e-06 -1.7943e-06 -4.5099e-07)
(-2.28914e-07 -3.03731e-07 -7.87134e-07)
(-8.63817e-07 -1.10921e-06 -6.10914e-07)
(-1.59349e-07 2.15046e-07 -3.50843e-08)
(-3.26252e-07 -4.28254e-07 -6.29151e-07)
(-9.59418e-07 -2.04145e-07 6.52166e-07)
(1.30761e-06 2.63557e-07 7.48408e-07)
(1.33171e-06 -3.97355e-07 -8.89955e-07)
(-1.33511e-07 -9.82789e-07 -6.06654e-07)
(-7.18945e-07 9.09924e-09 1.82765e-07)
(4.61914e-07 1.17992e-06 -9.56009e-07)
(1.60805e-07 -3.76952e-07 -9.65348e-07)
(-2.47965e-09 -1.44317e-06 -4.29626e-07)
(-9.12879e-07 -6.55598e-07 9.82253e-07)
(-7.63856e-07 -7.64445e-09 5.24409e-07)
(-1.23343e-06 -2.30236e-07 3.69078e-07)
(-3.32952e-07 2.18991e-07 -3.97235e-07)
(2.56332e-07 3.46502e-07 -3.52443e-07)
(2.44748e-07 3.4462e-07 -3.05231e-07)
(3.25942e-07 3.46957e-07 -2.67765e-07)
(6.11844e-07 3.30991e-07 -2.47869e-07)
(6.60964e-07 7.97186e-08 2.71676e-07)
(2.22619e-07 1.03972e-07 3.4309e-07)
(2.46872e-07 -6.60172e-07 4.72617e-07)
(-1.66443e-07 -5.89645e-07 -3.31842e-07)
(-6.15916e-08 -1.87769e-07 -1.94217e-07)
(-1.87323e-07 1.76386e-07 -2.78372e-07)
(1.53174e-07 -1.82714e-07 4.47949e-07)
(-4.15406e-07 -8.7057e-07 -3.35092e-07)
(-1.75673e-07 -1.49201e-07 -4.71789e-07)
(-3.79379e-07 -3.88934e-07 -4.42461e-07)
(-1.402e-07 -2.89582e-09 1.41367e-08)
(-2.66649e-07 -1.9846e-07 -3.86891e-07)
(-3.03897e-07 -5.38016e-08 8.69811e-08)
(7.63609e-07 6.1426e-08 2.72826e-07)
(7.33379e-07 -1.39793e-07 -4.53235e-07)
(-3.97201e-09 -3.23462e-07 -3.24063e-07)
(-1.87641e-07 -3.22768e-08 3.39231e-07)
(2.65997e-07 4.0487e-07 -3.57574e-07)
(1.06488e-07 -3.02772e-07 -4.36052e-07)
(-1.9923e-09 -6.85992e-07 -2.98983e-07)
(-3.40565e-07 -2.42362e-07 2.91948e-07)
(-3.08193e-07 5.73783e-08 8.39975e-08)
(-4.96979e-07 3.0205e-08 3.55046e-07)
(9.37356e-05 4.97351e-05 4.68429e-05)
(5.47055e-05 -2.97979e-06 3.17458e-06)
(-1.90024e-05 6.53976e-06 3.18284e-05)
(1.25283e-05 -3.40379e-05 -3.87418e-05)
(2.68463e-06 3.52219e-07 1.16389e-06)
(-5.11619e-06 -2.76205e-06 1.0062e-06)
(-7.34132e-07 -4.06537e-06 3.87214e-06)
(-4.67116e-06 -4.8977e-06 1.4639e-06)
)
;

boundaryField
{
    top_fluid_surface
    {
        type            pressureInletOutletVelocity;
        value           nonuniform List<vector> 
64
(
(0 0 -7.36009e-06)
(0 0 -1.64107e-05)
(0.000126666 -4.84194e-05 8.7729e-05)
(0 0 -5.62477e-05)
(0 0 -2.55046e-05)
(0.000126782 8.77364e-05 2.0066e-05)
(0 0 -0.000237169)
(0 0 -4.0925e-05)
(4.47448e-05 -0.00012203 5.91627e-05)
(3.98083e-05 3.70342e-05 6.86083e-05)
(0 0 -4.70251e-05)
(-3.36053e-05 -5.40963e-05 7.12743e-05)
(1.2628e-06 8.67059e-05 2.19034e-05)
(0 0 -5.67336e-05)
(0 0 -0.000174311)
(0.000131675 7.11931e-05 3.61954e-05)
(4.90358e-05 0.000102533 9.70558e-05)
(-1.63433e-05 -2.91399e-05 9.69599e-05)
(3.50579e-05 -3.59684e-05 3.89506e-05)
(9.35822e-07 -1.94011e-05 6.05671e-05)
(2.173e-05 -8.35484e-05 7.28732e-05)
(0 0 -3.77325e-05)
(-1.96359e-05 -2.66535e-05 8.29554e-05)
(6.93957e-05 -5.82866e-05 7.31563e-05)
(0.000132754 3.86548e-05 4.60616e-05)
(0 0 -7.6589e-05)
(0 0 -1.79806e-06)
(0.000137054 -5.09861e-05 4.34192e-05)
(0 0 -3.04356e-05)
(0 0 -1.96075e-05)
(3.85544e-05 2.31078e-05 5.46537e-05)
(0 0 -3.04393e-05)
(0 0 -2.07117e-05)
(-2.66299e-05 1.87595e-05 9.37309e-06)
(0 0 -0.000102344)
(0 0 -2.24648e-05)
(0 0 -2.5058e-05)
(0 0 -7.58414e-05)
(6.94267e-05 -5.11156e-06 7.97231e-05)
(0 0 -1.80696e-05)
(0 0 -5.78579e-05)
(0 0 -0.000108287)
(0 0 -8.90063e-05)
(0 0 3.77926e-06)
(4.50076e-05 -3.9606e-05 6.49259e-05)
(0 0 -3.60265e-05)
(0 0 -2.32423e-05)
(0 0 -4.25617e-05)
(0 0 -7.94387e-05)
(1.6744e-05 -4.28026e-05 3.86032e-05)
(0 0 -1.19227e-05)
(0 0 -5.28833e-05)
(0 0 -5.42492e-05)
(0 0 -3.91641e-06)
(0 0 -8.42357e-05)
(2.85268e-07 -5.54525e-05 0.000166385)
(0 0 -2.94007e-05)
(-9.05758e-06 -1.2141e-05 5.08885e-05)
(-1.84933e-05 0.000186575 1.91954e-05)
(0 0 -0.000124688)
(9.37356e-05 4.97351e-05 4.68429e-05)
(5.47055e-05 -2.97979e-06 3.17458e-06)
(-1.90024e-05 6.53976e-06 3.18284e-05)
(0 0 -3.87418e-05)
)
;
    }
    bottom_fluid_surface
    {
        type            noSlip;
    }
    lateral_surface_1
    {
        type            noSlip;
    }
    lateral_surface_2
    {
        type            noSlip;
    }
    lateral_surface_3
    {
        type            noSlip;
    }
    lateral_surface_4
    {
        type            noSlip;
    }
}


// ************************************************************************* //
