/*--------------------------------*- C++ -*----------------------------------*\
| =========                 |                                                 |
| \\      /  F ield         | OpenFOAM: The Open Source CFD Toolbox           |
|  \\    /   O peration     | Version:  v1612+                                |
|   \\  /    A nd           | Web:      www.OpenFOAM.com                      |
|    \\/     M anipulation  |                                                 |
\*---------------------------------------------------------------------------*/
FoamFile
{
    version     2.0;
    format      ascii;
    class       surfaceScalarField;
    location    "9.1";
    object      alphaPhi;
}
// * * * * * * * * * * * * * * * * * * * * * * * * * * * * * * * * * * * * * //

dimensions      [0 3 -1 0 0 0 0];

internalField   nonuniform List<scalar> 
2916
(
-0.00407057
0.0325608
-0.0224821
0.00534127
0.0143276
-0.0192115
0.0220501
0.00827032
-0.0205474
0.0102823
0.0443291
-0.0255632
-0.0179855
0.0607238
-0.0248083
0.0105497
-0.0234948
0.00569433
0.0134113
0.0101636
0.0025658
0.00359213
0.00978559
-0.00738275
0.000544002
0.0122043
-0.000498873
0.0146673
0.016722
0.00137986
0.0230668
0.0262739
-0.00336224
0.0103554
0.00260711
0.0242973
-0.0105689
-0.000364654
0.0188497
-0.010262
-0.00847398
0.0167381
-0.00687632
-0.00434231
0.0227566
-0.00937761
0.00165459
0.0274505
-0.00719006
0.00981938
-0.0101532
-0.00019398
0.0711903
-0.02754
-0.00139237
0.0676393
-0.0286856
-0.00515696
0.0667453
-0.0273391
-0.00454888
0.0703008
-0.0289415
-6.91383e-08
0.0736188
-0.0313358
0.0614467
-0.0326673
-0.00185153
0.160425
-0.067966
-0.00103204
0.156334
-0.0700871
-0.000726664
0.156533
-0.0706674
-0.00223247
0.159554
-0.0683559
-0.00274326
0.162685
-0.0691681
0.153635
-0.0755055
-0.00127375
0.262771
-0.0817141
-0.000433986
0.257901
-0.0830518
0.000970731
0.25874
-0.0842674
-0.000728441
0.261604
-0.0810181
-0.00294565
0.264752
-0.0805201
0.256373
-0.086344
0.000761189
0.358521
-0.0771572
-0.000473945
0.355207
-0.076726
-0.000200328
0.35582
-0.0780211
-0.000762269
0.358052
-0.0765555
-0.000964968
0.359225
-0.0749399
0.353898
-0.079159
0.00170108
0.3551
-0.0717378
-0.000903473
0.356024
-0.0719989
-0.00158746
0.356329
-0.0732501
-0.00126283
0.355172
-0.0713212
-0.000707792
0.35088
-0.0665452
0.357545
-0.0769268
-0.00289957
0.256699
0.0201775
-0.000899719
0.254241
0.0181776
-0.000252184
0.255083
0.0189863
-0.00250848
0.256465
0.0193079
-0.00493189
0.254846
0.0194849
0.25471
0.0162053
-0.00542121
0.163957
0.123876
-0.000845649
0.150569
0.124778
0.000436692
0.152361
0.126659
-0.000950795
0.164762
0.120095
-0.00340633
0.166964
0.116613
0.147676
0.128323
0.000244576
-0.0899491
0.185576
0.000992545
-0.106946
0.190413
0.000228408
-0.105214
0.190607
0.00150488
-0.08883
0.185341
0.00164587
-0.0808813
0.183232
-0.110091
0.191387
0.0139561
-0.114356
-0.000299696
-0.0986106
-0.00380568
-0.110036
0.00836247
-0.111047
0.0138284
-0.0926906
-0.103689
0.0055038
0.0313612
-0.000178187
-0.00603291
0.0440967
-7.51127e-05
-0.023096
0.0457576
-5.70516e-05
-0.0101262
0.0200144
-0.000101316
0.0151895
0.00962239
-0.000164538
0.0419269
-5.35157e-05
0.0022055
0.0804228
-2.378e-05
0.00312371
0.0916484
-2.19005e-06
0.00754584
0.0912518
-4.48664e-06
0.00418687
0.0776203
-2.53845e-06
-0.00344192
0.0762674
-3.54879e-06
0.0891003
-3.16666e-06
0.00129488
0.141425
-1.22895e-06
0.00413259
0.14978
-1.40563e-07
0.0119551
0.147232
-2.30624e-07
0.00687962
0.144997
-1.58019e-07
-0.00416552
0.150137
-2.15074e-07
0.14928
-1.77168e-07
-0.00106755
0.289062
-1.24305e-07
0.0014321
0.294284
-1.46592e-08
0.00521987
0.292119
-2.39498e-08
0.00207453
0.293803
-1.59831e-08
-0.000408828
0.300417
-2.15728e-08
0.297922
-1.89975e-08
-0.00414644
0.518215
-1.7647e-08
-0.00047425
0.522041
-2.05534e-09
0.00192888
0.521201
-3.39787e-09
-0.000839632
0.520013
-2.20398e-09
-0.000624486
0.522697
-4.01556e-09
0.526286
-3.16016e-09
-0.00446259
0.732691
-3.25698e-09
-0.00167045
0.734679
2.27691e-10
0.000653815
0.73461
1.50339e-10
-0.000852939
0.732057
2.93112e-10
-0.000354876
0.732785
-1.10778e-08
0.73401
-9.10618e-10
-0.000604159
0.905982
4.86912e-09
-0.00257039
0.907545
5.57041e-09
-0.00167098
0.906732
5.03098e-09
-0.0012321
0.905857
5.4872e-09
0.000522353
0.906347
4.51599e-09
0.90402
5.6362e-09
0.00144354
1.00295
5.09184e-08
-0.00263979
1.01241
2.40375e-08
-0.00293094
1.00849
2.72535e-08
-0.000998952
1.00882
4.57575e-08
0.00261801
1.01153
3.51516e-08
1.00755
3.27429e-08
0.00134721
1.07646
-0.000345164
-0.00115431
1.08801
-0.000589073
-0.00107471
1.08207
-0.000520332
-0.000743426
1.08273
-0.000889233
-0.00273663
1.08803
-0.000857492
1.07608
-0.000768371
0.0010382
0.589506
0.225361
0.000274451
0.611154
0.23563
0.0011757
0.599163
0.233143
-0.00282566
0.609269
0.227775
-0.0150178
0.624073
0.230141
0.58822
0.228029
0.0111182
0.21929
0.0510388
0.00197231
0.212692
0.0640883
-0.00130764
0.212665
0.0600431
0.00137392
0.226209
0.0545658
-0.0083868
0.227125
0.0587163
0.204369
0.059063
0.00604969
0.128241
-0.00217128
0.13263
-0.0107763
0.129424
0.00424474
0.127475
0.0267466
0.129686
0.135425
1.13934e-07
4.39606e-06
-0.000182056
-2.09939e-08
2.26374e-06
-7.69966e-05
-3.16766e-07
1.81341e-06
-5.83247e-05
-1.9112e-07
2.7002e-06
-0.000104097
6.48645e-07
3.52018e-06
-0.00016864
1.72703e-06
-5.44127e-05
5.64816e-09
1.37526e-06
-2.07225e-05
9.8156e-10
1.57347e-07
-4.27784e-10
6.82637e-10
2.58974e-07
-2.91593e-06
1.53026e-09
1.76744e-07
-5.00441e-09
1.47921e-08
2.40613e-07
-2.67062e-07
1.98537e-07
-1.61116e-06
5.15872e-10
1.45796e-07
-5.69521e-15
2.24379e-10
1.70762e-08
4.37471e-14
3.93854e-10
2.81805e-08
2.36218e-14
3.83028e-10
1.87348e-08
3.8958e-14
8.59881e-10
2.50636e-08
-1.39596e-12
2.22286e-08
-6.58288e-14
1.82233e-10
2.13129e-08
-5.15821e-12
2.7413e-11
2.56946e-09
2.32175e-12
4.72761e-11
4.20947e-09
1.4227e-12
4.69777e-11
2.7501e-09
1.93241e-12
1.06863e-10
3.65049e-09
-2.51763e-10
3.42753e-09
-9.74261e-11
2.54063e-11
3.82481e-09
-2.21778e-10
3.02163e-12
4.57109e-10
7.93977e-11
4.19206e-12
7.56972e-10
5.34542e-11
4.59391e-12
4.82388e-10
6.33304e-11
1.92205e-11
1.06994e-09
-1.40554e-09
8.15862e-10
-5.63671e-10
4.32996e-13
7.56467e-10
-1.89074e-10
-1.00865e-11
-8.42705e-09
1.09507e-09
2.50115e-12
-5.5644e-09
8.46795e-10
-9.59382e-13
-1.09644e-08
1.0517e-09
3.67559e-12
2.60108e-09
-1.26135e-08
2.23119e-10
-3.14199e-10
6.23198e-10
-1.86383e-07
-1.99888e-08
7.14856e-10
-2.18125e-07
-2.28389e-08
1.41808e-09
-1.95662e-07
-2.03743e-08
9.20954e-10
-2.08565e-07
-2.23737e-08
2.62447e-09
-1.72498e-07
-1.82857e-08
-2.21526e-07
-2.32506e-08
2.85736e-09
-1.81213e-06
-9.38859e-07
5.70766e-09
-8.78829e-07
-4.2853e-07
7.15068e-09
-9.85333e-07
-4.82436e-07
2.67058e-09
-1.59875e-06
-8.18991e-07
1.87016e-08
-1.25552e-06
-6.22197e-07
-1.17678e-06
-5.85352e-07
-0.000303103
0.109434
0.00387812
-0.000149369
0.102963
0.00351751
0.000271887
0.104179
0.00357483
2.1829e-05
0.109324
0.00357787
-0.000693972
0.104466
0.00355603
0.105837
0.00369173
-0.0016532
0.35051
0.0164648
-0.000468058
0.357355
0.0152518
0.00228033
0.355432
0.0154597
-0.00139445
0.356914
0.0104941
-0.00607116
0.358598
0.0156802
0.356052
0.0155053
0.028722
0.438846
0.0149536
0.000385101
0.432641
0.0924383
-0.0109363
0.420234
0.0426794
0.00298586
0.443868
0.013017
-0.00174314
0.449326
0.0479662
0.411264
0.0564396
0.00143238
0.592464
-0.000576352
0.572974
-0.0112763
0.579782
-0.00219449
0.587121
0.0238213
0.573596
0.575852
1.96865e-06
-2.52222e-05
-0.000155834
1.85227e-06
-7.49244e-09
-8.03413e-05
3.02711e-06
-6.09855e-06
-6.49631e-05
2.03477e-06
-8.19604e-08
-0.000123111
2.31788e-06
-4.69439e-06
-0.000149131
-5.24236e-06
-5.41704e-05
-1.98731e-11
-4.50459e-14
-2.48131e-05
-1.23912e-09
5.93813e-15
-6.70098e-09
8.65175e-08
3.50059e-15
-3.80539e-14
8.42926e-11
4.33932e-15
-5.31602e-10
-5.77664e-09
-1.92752e-12
-4.95559e-06
-7.0045e-13
-3.77721e-15
2.71837e-17
-2.96966e-14
-2.10716e-14
1.87854e-17
2.47264e-13
-3.32576e-15
7.61557e-16
1.39324e-13
-2.96787e-15
-7.38749e-16
2.18277e-13
-3.20551e-14
4.60534e-15
-2.33902e-12
-9.89811e-13
-3.4987e-13
-4.41838e-13
1.68976e-14
-1.87846e-12
-3.32634e-12
1.73965e-14
1.05973e-11
-5.20842e-13
2.77422e-14
6.85807e-12
-4.64961e-13
-2.87639e-13
9.43827e-12
-5.13998e-12
-7.66386e-17
-1.3006e-10
-1.24465e-10
-4.06528e-11
-5.71533e-11
8.61373e-13
-5.03158e-11
-1.74202e-10
8.48738e-13
2.95812e-10
-3.38144e-11
1.73982e-12
2.11147e-10
-3.02205e-11
-3.28538e-11
3.26191e-10
-3.32862e-10
-3.91106e-12
-4.88875e-09
-2.76129e-09
-5.74997e-11
-3.61949e-09
2.45673e-11
2.037e-09
-4.46164e-09
2.38984e-11
-1.52528e-10
-7.85244e-10
6.60659e-11
-1.5237e-10
-7.41274e-10
-4.88691e-10
-1.03098e-10
-6.28326e-09
-8.92202e-12
3.88444e-10
-2.15424e-07
3.7573e-09
-4.13792e-09
1.59688e-09
-3.77541e-08
-1.23522e-08
4.80157e-10
-3.84522e-08
-1.59714e-08
9.85004e-10
-3.79424e-08
-1.60754e-08
8.66437e-11
-3.66053e-08
-1.18802e-08
8.06496e-10
-2.80638e-08
-1.0025e-08
-4.84276e-08
-1.53436e-08
4.82211e-09
-2.57645e-07
-1.81757e-07
3.01988e-10
-1.24019e-07
-7.24185e-08
-3.14806e-09
-1.41176e-07
-8.51433e-08
-5.22593e-10
-2.22036e-07
-1.51305e-07
-6.13625e-10
-1.63915e-07
-1.05447e-07
-1.70917e-07
-1.06375e-07
-1.33619e-05
0.0037614
0.000130382
1.04491e-07
0.00342194
8.78064e-05
2.9094e-05
0.00345609
0.000101225
1.27362e-05
0.0034738
0.000120009
2.97005e-05
0.00345465
9.77635e-05
0.00363793
9.41099e-05
0.000102763
0.0185776
0.000942002
0.000284573
0.0170723
0.000809289
0.000339479
0.0173735
0.000836049
7.10227e-05
0.0127987
0.000863256
5.00755e-05
0.0177819
0.000788666
0.0178347
0.000738539
0.00439754
0.218005
0.0028477
0.000368551
0.109589
0.00423401
-0.00096901
0.159704
0.00374922
0.000699355
0.204829
0.00413296
0.00109226
0.160971
0.00443548
0.147287
0.00346489
0.00672706
0.410374
-0.0108273
0.297457
-0.00968285
0.346358
0.00254363
0.411665
0.0124543
0.394525
0.330983
0.00682396
0.0428068
-0.0499026
-0.0093207
0.0424684
-0.0266873
-0.0160806
0.0409295
-0.0343349
-0.0342952
0.0411519
-0.0229596
-0.0379346
0.0268306
-0.0373546
0.0293349
-0.0686594
0.00738352
0.0810449
-0.0459867
-0.010181
0.0748734
-0.015619
-0.000704232
0.0570662
-0.025636
-1.87946e-05
0.0445414
-0.00402739
-0.0283375
0.0547521
-0.000727272
0.0685763
-0.0681149
0.0121752
0.0963937
-0.0283445
-0.00542205
0.104224
-0.0123199
0.0148681
0.0597338
-0.0229101
0.0151454
0.0429402
0.00128216
-0.0285166
0.086289
0.011766
0.0920338
-0.0520739
0.0404697
0.0929642
-0.03824
0.0362858
0.0972656
0.0100098
0.0111685
0.0120004
0.0166832
-0.0117143
0.0512022
0.0144962
-0.0375245
0.114441
-0.00242764
0.112505
-0.0581373
0.0518962
0.0844506
-0.044597
0.0605385
0.0651803
0.0223899
-0.00348061
0.00518417
0.0254813
-0.0382644
0.0219277
0.0178134
-0.0405559
0.133139
-0.0165237
0.135712
-0.0636109
0.0550749
0.0704688
-0.0422905
0.043998
0.0133419
0.0126257
0.0258992
0.00104302
0.0279249
-0.0119598
0.0237148
0.0168666
-0.056813
0.0766364
-0.0196925
0.129693
-0.0507676
0.0599062
0.00688646
-0.0544045
0.113293
-0.0202832
-0.0205171
0.0271817
-0.0323103
0.0116342
-0.00628439
0.0192879
0.034338
-0.0354041
0.00421582
0.0175617
0.0135713
-0.0176617
0.0125344
0.0050626
-0.0132261
0.0180885
-0.0310931
-0.0226976
0.0148142
-0.0466428
-0.00506398
-0.00043611
0.0149461
0.0172583
-0.0156547
0.0110656
0.0175945
-0.0100868
0.00307085
-0.00593401
-0.000580926
0.00813934
-0.0233561
-0.00481532
0.00205749
-0.00630005
-0.0564901
4.59135e-05
0.000286401
-0.00132961
0.0111805
0.000821867
-0.00040723
0.0123701
-0.023951
0.0114183
-0.000412819
-0.00390916
0.00747917
-0.0205374
-0.000910241
0.00801872
-0.0384777
-0.0319513
0.00177774
-0.00402817
-0.0218776
0.00471189
0.00384348
-0.0138219
0.00602027
-0.0274197
0.00656529
-0.0011686
-0.00625403
0.00567014
-0.00328644
-0.00209198
0.00402959
-0.0159272
-0.0149204
-0.000454008
-0.0117967
-0.018644
-0.00126117
0.00850235
-0.0220038
-0.00702666
-0.0159498
-0.000501761
-0.000372046
-0.00372531
-0.000661644
0.000174234
-0.00652384
-0.0051948
-0.00856587
-0.0102964
-0.00112672
-0.0142186
-0.00156388
0.00577252
0.0253386
-1.58478e-07
-0.0110478
0.0184274
-5.18567e-08
-0.0547874
0.00193384
2.85194e-06
-0.0542327
0.0127089
-8.10807e-07
-0.0158935
0.020078
-4.21305e-07
0.01953
-2.11075e-07
-0.0088654
0.0463005
-3.18176e-06
-0.0249537
0.0371319
-0.000226793
-0.0659027
0.0164236
0.000236312
-0.0572665
0.0256345
-2.02296e-07
-0.0020657
0.0345686
-8.48015e-07
0.037487
-5.15709e-07
-0.0282229
0.0681346
0.000238443
-0.0450593
0.0653359
-8.55617e-06
-0.0417792
0.0403701
-0.00161478
-0.026807
0.0401652
-4.58188e-09
0.00535218
0.0488351
-5.60335e-08
0.0755678
-8.02497e-05
-0.0469564
0.129178
-0.00956384
-0.0407907
0.0828096
0.000164206
-0.0259686
0.0380402
0.00187377
0.00804309
0.11063
-2.56879e-08
0.0273113
0.07352
-1.6567e-07
0.112441
-1.58419e-05
-0.0600275
0.159353
-0.0161403
-0.0377034
0.146396
-0.00658714
-0.0139221
0.0451366
0.00801104
0.00197184
0.11472
-0.0314587
0.0530129
0.166139
-0.0153798
0.146478
-0.00271893
-0.0335262
0.164873
-0.0156142
-0.0319934
0.195873
-0.034615
-0.0257565
0.063147
0.0105559
-0.0312296
0.0928497
-0.0156252
0.00364919
0.144371
-0.0955915
0.150231
-0.0751459
0.0270441
0.124767
-0.0428452
0.0297427
0.212485
-0.0418716
-0.0306838
0.0739011
0.0259242
-0.0320762
0.00731059
0.0380076
-0.0290362
0.0869122
-0.0271697
0.117148
-0.109358
0.0748389
0.00384789
-0.0294433
0.0572878
0.0557469
-0.0631379
0.00206697
0.039287
0.0358048
-0.0100977
0.00926984
0.0199605
-0.0102143
-0.00434771
0.0358899
-0.00679789
-0.00123292
0.01318
-0.00141973
-0.0085873
0.032666
-0.000681683
0.00179786
0.0192637
0.00234792
0.00892861
0.00135286
0.00893514
0.0219976
0.00343338
5.23399e-07
0.010541
0.00262834
0.00688015
0.00574303
0.00195302
0.0013628
0.0104417
-0.00583344
0.00720892
0.00301332
-0.000411917
-0.00176771
0.00155176
-0.000336822
-0.00066589
0.000958872
-0.000604197
0.000318531
0.00195275
0.000605621
0.00117735
-0.000356149
0.000205711
0.0010285
-0.0037787
0.00235544
-5.20525e-05
-0.00122592
-0.000112508
-0.000162597
-0.000704262
-0.00228983
9.17283e-05
-0.000934934
-0.00826896
-1.51257e-06
-0.000265998
0.00176862
-0.00309871
0.000579777
-0.00247613
0.000937654
-0.00490913
0.000123822
-0.0115068
-0.000302159
-0.0172252
-0.00412096
1.35791e-10
2.99879e-09
-1.97469e-07
5.43248e-09
4.67631e-09
-9.58113e-08
-8.83889e-09
-6.16336e-06
9.00556e-06
-1.35897e-08
1.34448e-09
-8.16807e-07
-2.81704e-09
1.97e-09
-4.45971e-07
7.00276e-09
-2.4272e-07
-2.66615e-06
7.73615e-08
-6.3064e-07
-0.000230435
2.66349e-06
-1.70898e-06
-5.87619e-09
-1.52602e-06
1.23873e-06
-5.65413e-09
5.04674e-10
-2.04596e-07
2.1837e-09
8.68741e-09
-8.65028e-07
2.16147e-08
-5.43627e-07
-1.64932e-07
0.00475452
5.6347e-06
-5.24978e-06
2.96412e-07
-1.83849e-07
-3.22366e-09
-0.00162006
-1.49333e-06
6.14534e-10
-6.90653e-10
-1.01429e-08
3.91609e-09
4.99834e-09
-5.85392e-08
1.03247e-06
-8.12591e-05
-0.00321849
0.00414268
0.000112405
-0.00595738
0.00382548
-2.40215e-07
-2.18388e-09
0.00189055
-5.08618e-06
4.10548e-09
2.13868e-09
-3.76998e-08
5.58096e-09
8.5008e-09
-1.74131e-07
1.43172e-09
-1.48142e-05
-0.0155637
0.00303296
3.59652e-05
-0.0308284
0.0301866
-7.0844e-05
-0.00219489
0.0418489
-1.50084e-05
0.018167
0.0430177
-5.42133e-07
0.00058544
0.00220299
-1.27478e-06
-0.00213057
-2.90163e-06
-0.0135988
0.00307447
-1.94257e-05
-0.0963209
0.0913686
-0.000152057
-0.0266982
0.131952
-6.93607e-06
0.0428594
0.125591
-3.61294e-07
0.0337409
0.124802
-2.63815e-08
0.177485
-4.06133e-06
-0.0517152
0.0297711
-0.000138428
-0.0586751
0.199452
-0.0173963
-0.0384583
0.116675
0.000644563
-0.00457548
0.0404937
-0.00307458
0.0635865
0.131138
-0.064821
0.213176
-0.0633677
-0.0307089
0.0549985
-0.00228326
-0.0398652
0.114075
-0.0400866
-0.0236702
0.016249
0.0275049
-0.00103415
-0.000945555
0.021631
-0.000120017
0.00710733
0.0306151
0.0712495
-0.0222535
0.00430838
0.0315802
-0.0158653
0.0224011
0.0051114
0.00370323
-0.000171246
0.00282245
0.00639152
9.08314e-05
0.00234664
0.00514301
0.000307178
0.0001226
0.00725794
0.00331479
0.00991109
0.00545354
0.00442787
-0.00431809
0.000617435
-0.000762197
0.004974
9.71503e-05
2.13024e-05
0.00116064
-1.12913e-05
-0.00014129
0.000779184
-0.000283988
-0.000435771
0.000342244
6.3035e-05
0.00173861
0.000984368
0.0006761
0.000307183
0.000795731
0.000293476
9.70806e-05
0.00127805
-0.00135357
0.00059029
3.42221e-05
-0.00419968
0.00176132
-0.00049421
-0.00405441
-0.00357134
-0.000425287
0.00110401
0.00252523
-0.00678337
0.00848364
-0.00698645
0.00815102
-0.00644739
0.00465006
-0.0121348
-0.00312998
-0.0144522
-0.00881187
-1.82143e-08
4.36317e-08
-8.24678e-07
-2.30511e-07
2.25644e-08
-1.52386e-07
8.99525e-06
-1.29409e-07
-4.90104e-07
3.79931e-07
-6.07936e-08
-1.34178e-06
-5.52413e-09
-2.14554e-08
-1.94635e-07
1.54169e-08
-5.80054e-07
-3.25534e-07
1.79128e-06
-7.25585e-06
7.08363e-08
1.17608e-06
-3.24462e-06
1.071e-06
9.77127e-07
-8.8838e-07
1.17027e-07
1.29632e-08
-8.59832e-08
2.22713e-07
1.02558e-07
-2.26582e-06
4.92578e-06
-6.13066e-06
-5.08939e-07
1.0665e-05
-3.1691e-06
-1.52326e-08
4.37709e-06
-3.43927e-06
2.83956e-09
7.67468e-08
-6.16592e-07
1.50827e-08
7.18975e-09
-1.96748e-08
2.60867e-06
3.71508e-08
-2.58781e-06
0.000141675
-1.86674e-06
7.14353e-06
0.00011827
-2.33069e-07
1.02326e-06
1.47751e-05
-4.43182e-06
4.32664e-09
1.56353e-07
-4.17694e-06
2.25646e-08
2.64562e-08
-1.34137e-07
-4.36325e-07
4.79922e-07
-1.48565e-06
6.33569e-06
1.53422e-05
3.97842e-05
8.85713e-05
2.70899e-05
6.97234e-07
3.06635e-06
-1.99873e-05
2.15933e-07
3.49151e-07
-1.47424e-05
1.73567e-08
2.5613e-08
-3.84204e-07
1.15699e-08
5.53444e-08
-8.75315e-07
4.57954e-06
-1.18697e-06
2.70915e-05
6.227e-05
-1.86647e-05
5.56528e-07
5.54209e-06
-0.000127868
1.77478e-07
1.08149e-06
-7.2909e-06
3.1759e-08
7.42244e-08
-2.94824e-07
1.18127e-08
1.89742e-08
-4.12308e-08
4.77805e-07
-1.42839e-09
-2.88024e-05
0.000334198
-5.95587e-05
-0.0190529
0.00170635
-7.1551e-05
-0.00294124
0.0580103
-0.0191061
0.0152111
0.0625156
-0.0297485
0.00324073
0.0338249
-0.00647566
0.0362535
-0.000399839
-4.24097e-05
0.0067295
-0.000501193
-0.0240214
0.0266324
-0.00622325
-0.0126505
0.0246186
0.0123832
-0.000242806
0.00142988
0.0259906
0.0210313
0.0239244
0.00229393
0.0845037
-0.00310321
-0.0196069
0.0284512
-0.00683043
-0.0131262
0.0314846
0.000544623
-0.00186364
0.000693555
0.00390685
0.000253277
0.000278574
0.00277878
0.00614855
0.000724821
0.0121311
0.00895993
0.0125696
-0.00705662
0.00836789
-0.000428428
-0.00129403
0.0040028
0.0108396
-0.000174668
0.000106789
0.000551186
-0.000115124
0.000105193
0.00049401
-0.000621764
0.000369887
0.000606758
0.000867081
0.00297559
0.000433666
0.00370172
0.000311442
0.000335246
0.00365409
0.000467342
6.13008e-05
0.000798144
0.00013608
-0.000163497
2.2653e-05
0.000372833
-0.000224578
-0.00535288
0.000449908
0.00126687
0.000307504
0.00615253
-0.00725107
0.0114057
-0.00609695
0.0129177
-0.0066571
0.00720178
-0.00967133
-0.00323997
-0.0126601
-0.0136369
1.15525e-05
-0.00011619
-5.69646e-06
3.61909e-06
-5.05585e-05
-1.42193e-07
-1.3545e-05
-5.02793e-05
-3.28147e-13
-1.297e-05
-8.80249e-05
-1.14355e-08
-2.20003e-06
-0.000113888
-7.47455e-06
-1.97563e-05
-3.83945e-14
-2.76823e-05
-4.32674e-05
1.99494e-17
-4.02105e-06
-5.87314e-05
-4.58133e-17
3.18074e-05
-4.70521e-05
-2.67411e-17
2.47975e-05
-4.3658e-05
-2.62905e-16
1.52388e-07
-5.01096e-05
-3.88843e-15
-1.3396e-05
-3.83669e-15
-4.50314e-05
9.11395e-21
-4.02681e-07
-3.32179e-21
5.5182e-05
-1.70761e-19
4.77954e-05
-4.99681e-21
1.15811e-05
-7.23862e-22
-9.08364e-19
1.48894e-07
1.54776e-16
-4.17767e-13
-1.61965e-16
-2.34261e-18
-6.56764e-14
-3.66185e-13
-1.35534e-18
-1.72504e-16
-1.19669e-08
-1.33045e-17
-6.14235e-13
-7.05718e-17
-2.08504e-16
-1.93797e-11
-1.85501e-16
-4.14798e-14
-7.34505e-21
8.64557e-20
-1.13019e-16
-1.02629e-20
-1.76655e-22
-4.81528e-17
1.2568e-20
-9.0252e-21
-2.8103e-17
1.27837e-19
-2.66617e-22
-2.76325e-16
-4.76773e-18
-6.32992e-21
-4.09204e-15
-4.72974e-20
-4.02685e-15
-1.53029e-24
4.69346e-20
-3.64774e-23
-3.4635e-21
1.54479e-22
-1.79977e-19
3.3176e-24
-5.11227e-21
-4.94407e-22
-1.69289e-20
-9.56156e-19
2.7446e-16
-2.42275e-15
-4.34713e-13
1.79243e-17
-1.1178e-15
-6.7638e-14
-8.70225e-19
-7.00969e-16
-2.40726e-15
1.27209e-16
-5.87395e-15
-6.40551e-13
2.98966e-15
-8.4239e-14
-2.03529e-11
-8.73662e-14
-3.88399e-13
8.4768e-18
6.60393e-19
-2.54934e-15
3.29601e-18
-5.15975e-20
-8.3455e-16
5.10902e-18
-2.74042e-18
-7.26703e-16
7.30482e-17
-7.0275e-20
-6.22678e-15
4.49849e-16
-2.29059e-19
-8.87459e-14
-2.15337e-17
-9.0903e-14
-6.42116e-22
-4.01113e-18
2.67526e-23
-3.43246e-20
8.1949e-21
-1.97212e-18
4.72006e-23
-6.99021e-19
-2.02264e-20
-1.51561e-18
-1.51578e-19
-8.99661e-16
-5.59041e-13
-3.21331e-12
-2.33785e-15
-2.33913e-13
-3.38044e-13
-1.78111e-15
-1.51631e-13
-2.92663e-13
-1.65521e-12
-1.39968e-12
-2.26532e-12
-1.91591e-12
-1.71562e-11
-1.26582e-10
-1.06054e-11
-9.64326e-11
9.7169e-16
-1.47657e-16
-5.4796e-13
-4.41985e-17
-5.50799e-19
-2.32406e-13
1.27813e-16
-6.01401e-17
-1.52611e-13
1.17753e-15
-1.84579e-17
-1.42348e-12
-8.07615e-14
-4.13682e-16
-1.7856e-11
-4.0499e-17
-1.07826e-11
-9.97679e-22
-5.55831e-16
-6.69074e-20
-7.7791e-19
-6.48675e-22
-2.68464e-16
-2.93154e-20
-1.21597e-16
-1.15345e-20
-4.48433e-16
-6.08187e-19
-2.44688e-13
-7.82809e-11
-1.04068e-10
-8.70021e-14
-1.33573e-11
-5.73633e-11
-2.60568e-13
-9.84317e-12
-4.23564e-11
-4.67412e-11
-9.28704e-11
-8.16251e-10
-9.23976e-11
-2.84508e-09
-8.96266e-11
-2.61149e-09
-1.16161e-08
5.83429e-14
-5.22149e-14
-7.66065e-11
-1.34313e-14
-1.94397e-16
-1.3494e-11
-2.17961e-14
-6.77833e-15
-9.98954e-12
-3.51532e-12
-3.0187e-14
-9.06862e-11
-1.54085e-11
-1.37148e-13
-2.85091e-09
-1.83996e-16
-5.14209e-09
-5.03816e-21
-5.29263e-14
-6.84391e-18
-1.98385e-16
-8.25368e-19
-7.06119e-15
-1.1287e-17
-3.03387e-14
-3.03595e-20
-1.37609e-13
-1.84636e-16
-1.72393e-11
-2.64371e-09
-4.63569e-08
-5.22153e-12
-1.69352e-09
-5.57724e-09
2.4453e-11
-6.23321e-10
-5.88976e-09
-8.59378e-10
-9.73711e-09
-2.82925e-08
-1.6969e-10
-2.1604e-07
-1.10286e-06
-4.95379e-08
-1.17319e-08
-3.76235e-11
-2.19777e-11
-2.67288e-09
-4.34305e-12
-5.31779e-14
-1.42613e-08
-8.19352e-13
-5.08713e-12
-6.37582e-10
-1.47798e-09
-1.04361e-11
6.59506e-09
-1.05955e-09
-3.76315e-11
-3.25319e-08
-4.96551e-14
-2.9255e-08
1.2444e-15
-2.20151e-11
-2.52495e-15
-4.96071e-14
-4.60261e-17
-5.09669e-12
5.45759e-17
-1.04665e-11
-4.28038e-18
-3.77621e-11
-4.98441e-14
1.13009e-09
-2.09686e-07
7.90058e-09
9.6936e-11
-4.79357e-08
7.36955e-10
5.0559e-11
-5.15027e-08
2.80001e-10
1.07431e-09
-1.28356e-07
5.22861e-09
3.20608e-08
-2.44932e-07
1.6119e-07
-3.90092e-08
2.79508e-09
-1.18434e-09
-1.34852e-08
1.41172e-07
2.53161e-11
-1.48546e-11
1.09502e-08
1.47568e-10
-3.79725e-09
2.42626e-08
-1.0577e-09
-2.67943e-09
4.87116e-08
-3.71787e-09
-9.81572e-09
6.26958e-08
-1.48251e-11
2.65695e-09
3.14669e-12
-1.35103e-08
-1.61814e-13
-1.15957e-11
3.0835e-13
-3.80282e-09
-2.09105e-12
-2.6875e-09
4.02846e-14
-9.85561e-09
-1.48347e-11
1.45311e-11
-8.40818e-10
-1.06703e-08
-9.66494e-12
-5.5706e-08
-7.23082e-11
9.04451e-11
-9.52304e-08
2.92793e-08
-3.44605e-09
-2.24868e-08
-4.51662e-09
2.24154e-09
-8.54483e-08
2.00821e-06
-1.03277e-11
-1.64694e-08
-3.30946e-07
-1.73208e-07
2.26927e-06
-1.8167e-08
-9.5333e-10
3.79995e-07
1.23196e-07
-2.30165e-07
4.55683e-07
-2.28221e-07
-8.62647e-08
1.33034e-06
-1.58152e-09
-1.78105e-07
9.98502e-07
-2.26512e-10
1.29161e-09
1.27813e-09
-9.76903e-07
-8.18918e-09
8.50238e-09
-1.19606e-09
-7.09859e-07
1.47192e-09
-3.51381e-07
1.01641e-08
-6.87152e-07
9.92267e-09
-5.85514e-06
3.85933e-06
0.000132533
-1.73305e-06
-5.45339e-06
8.91471e-05
-4.71685e-07
2.01597e-06
9.81451e-05
-3.62464e-06
4.42694e-06
0.000118751
-3.65068e-06
2.59048e-06
9.92231e-05
-8.20844e-06
9.86578e-05
-1.44995e-06
-2.80275e-07
7.26752e-06
2.19697e-07
-1.90085e-06
7.31372e-06
7.45403e-08
9.08171e-07
2.94352e-06
-5.61596e-07
2.51924e-06
5.11492e-06
-8.50382e-07
1.58562e-06
4.21979e-06
-9.08435e-07
3.4237e-06
-4.2172e-06
-2.13227e-06
3.86007e-07
2.08342e-07
2.20577e-06
-1.62364e-06
-5.05382e-06
1.00459e-07
-3.32058e-06
-1.10275e-06
1.22588e-07
2.95655e-05
2.79007e-05
0.000971091
-1.01797e-05
6.41987e-06
0.000890381
-1.56998e-05
2.64562e-05
0.000863946
-3.8675e-07
2.79458e-05
0.000895682
1.10561e-05
1.88013e-05
0.000815593
-8.77591e-07
0.00080558
2.98253e-06
7.50239e-06
2.15675e-05
-4.25665e-07
-1.96891e-08
3.05117e-05
-1.61911e-06
1.28761e-05
1.65733e-05
1.29428e-06
5.04131e-06
2.3489e-05
1.31643e-06
2.492e-06
1.98415e-05
-1.99311e-06
1.5139e-05
-8.16178e-07
-3.70961e-06
3.6302e-07
-3.44754e-06
5.79125e-07
-1.1217e-05
-1.07979e-07
-4.05072e-06
-1.44108e-06
-7.05654e-06
-1.63101e-06
9.84683e-05
0.000136929
0.00364178
-4.0208e-05
0.000475228
0.00465243
-5.56118e-05
0.00033263
0.00448039
1.60216e-05
0.000292103
0.00481159
9.61749e-05
0.000415103
0.00489221
0.000341218
0.00424979
1.1493e-05
7.87596e-05
-0.000225161
-8.61428e-06
0.000204804
5.92733e-05
-4.54446e-06
0.000111094
-1.48149e-05
1.14552e-05
0.000125756
-5.16742e-05
9.25692e-06
0.000182958
-2.4345e-05
0.000131963
-1.51448e-06
-4.56126e-06
-8.78158e-05
-3.8829e-07
-0.000100386
1.93753e-06
-8.98618e-05
-2.59113e-07
-9.54872e-05
-5.60426e-06
-9.88151e-05
-9.28981e-05
-0.00015893
0.00132798
0.0448048
-0.00188748
0.00259844
0.0408176
-0.00332912
0.00190988
0.0396878
-0.00027203
0.00142927
0.0517545
0.00448337
0.00169684
0.0558228
0.00194319
0.0367321
-0.000461293
0.000248673
0.00139566
3.83053e-05
0.000395756
0.00158309
0.000309604
0.000271814
0.00156123
-0.000153807
0.000312317
0.00168223
-0.0004459
0.000336147
0.00175022
0.000287283
0.00144984
-1.73655e-06
5.20826e-05
-6.04034e-07
7.35772e-05
-7.66401e-07
6.45424e-05
-7.77151e-07
6.55612e-05
3.02783e-06
6.40418e-05
6.33586e-05
0.000465429
-0.000273063
-0.00674205
0.00845033
0.00112241
-0.000321395
-0.00665842
0.00850174
0.000407349
-2.03771e-05
-0.00673939
0.0102302
-0.000823484
-2.37115e-05
-0.00721276
0.011701
-0.00179641
-0.000345743
-0.00818743
0.0126441
-1.18457e-05
-0.00662932
0.0081633
1.93201e-06
-1.01848e-06
6.69e-07
-0.00027471
4.35932e-06
-2.28404e-06
-2.1636e-10
-0.000321571
1.92231e-07
-4.88342e-06
-1.39903e-09
-1.13606e-05
6.38958e-08
-2.91233e-06
-2.06446e-09
-2.07098e-05
-5.92311e-09
-2.02771e-06
1.27344e-06
-0.000344911
-7.10399e-08
1.64886e-07
-1.19701e-05
2.79957e-09
2.48417e-08
-1.06941e-06
6.26188e-07
-9.46179e-10
-2.82669e-06
2.81311e-06
7.94316e-07
-2.70626e-05
7.82301e-07
1.83831e-06
-3.93503e-05
2.7394e-08
9.4215e-07
-1.88989e-05
1.82184e-08
-9.27432e-08
0.000161649
-6.74785e-07
-0.00344773
0.000183191
-2.15324e-08
-0.0036126
0.000218875
-1.05079e-07
-0.00389073
6.19141e-05
-1.63902e-07
-0.00385905
-0.000211523
-1.32216e-06
-0.00354385
-1.56181e-07
-0.0033568
1.26507e-09
-5.85253e-10
-2.91885e-08
1.89266e-10
-1.01e-09
-4.89784e-08
-4.32601e-10
-6.58132e-08
-6.93093e-08
-9.99082e-09
-1.1967e-07
-7.20783e-08
-1.37342e-09
-4.40177e-08
-3.79281e-08
-4.40466e-10
-9.53118e-09
-2.14228e-10
-8.44402e-11
-2.43057e-08
-1.2048e-10
-7.67165e-08
-1.73831e-10
-1.39568e-08
1.67332e-08
1.56051e-09
9.4077e-09
2.55343e-10
7.60003e-05
-3.6747e-06
-0.000680558
0.000169922
-4.79742e-06
-0.000840915
4.54136e-05
-5.37796e-06
-0.000786352
-8.87949e-05
-5.98396e-06
-0.000785162
-5.87244e-05
-5.36394e-06
-0.000743014
-3.06508e-06
-0.000727775
2.78909e-09
1.60167e-09
-3.73231e-06
2.76485e-09
1.11591e-09
-4.87225e-06
-8.19681e-09
1.07929e-09
-5.46281e-06
-1.89583e-08
4.37596e-10
-6.07013e-06
-8.95097e-09
1.37258e-09
-5.43485e-06
4.84729e-09
-3.1067e-06
-6.68738e-11
-2.28512e-08
-1.53062e-10
-2.33537e-08
-5.43654e-10
-2.38683e-08
-1.23466e-10
-6.01156e-09
-8.67516e-12
-8.18262e-09
-1.36106e-08
9.10927e-06
-0.000207417
0.000817008
7.7923e-05
-0.000231681
0.000387651
3.57305e-05
-0.000241204
0.000638807
-9.9804e-06
-0.000261674
0.000516619
-2.79049e-05
-0.000257052
0.000437161
-0.000192727
0.000593752
-3.03822e-07
-3.24701e-07
-0.00021106
-2.50032e-07
-3.85503e-07
-0.000236854
-1.98361e-07
-4.08252e-07
-0.000246932
-3.74888e-07
-5.10528e-07
-0.000267744
-2.26036e-07
-5.64081e-07
-0.000262791
-2.89142e-07
-0.000196195
-2.58055e-09
-3.8693e-07
-3.31185e-09
-4.54034e-07
-4.45804e-09
-4.78165e-07
-2.43198e-09
-5.7006e-07
-2.83335e-10
-6.24554e-07
-3.3913e-07
-0.000100877
0.00148188
-0.000380602
0.00012436
0.00157201
-0.00110231
-0.000244226
0.00145674
-0.000582293
-0.000117108
0.00183669
-0.000533633
0.000423016
0.00202946
-0.000674132
0.00125651
-0.00051081
-9.99953e-06
-1.35143e-05
-0.00203734
-3.60003e-06
-1.59473e-05
-0.00229148
-2.044e-05
-1.50651e-05
-0.00222447
-1.38795e-05
-1.56788e-05
-0.0024791
1.77357e-05
-1.64326e-05
-0.00256009
-1.40169e-05
-0.00200241
-2.24056e-07
-1.63647e-05
-1.53883e-07
-1.94994e-05
-1.21946e-07
-1.85973e-05
-1.53991e-08
-1.99303e-05
1.36898e-07
-2.10528e-05
-1.67743e-05
-0.000911369
0.0116179
9.0478e-05
0.0104692
0.000267146
0.0105116
-0.000272427
0.0125321
-0.000383807
0.0130281
0.010084
-8.85735e-05
4.57663e-06
-5.4934e-06
-3.88799e-06
-0.000125658
3.66532e-09
-0.000114588
4.3932e-06
0.000137418
1.08371e-05
-3.93669e-06
-2.8514e-06
-3.06881e-07
-9.53595e-08
-5.09719e-07
9.69176e-07
4.37948e-08
-7.72321e-07
-4.06813e-07
-7.98715e-07
-2.83058e-07
8.62059e-08
3.22942e-06
-5.74844e-06
6.41172e-07
2.06142e-07
-6.18072e-07
4.58871e-07
-6.08699e-08
-3.21071e-07
7.1474e-08
-9.17494e-07
6.7835e-08
1.84111e-07
-0
1.87527e-08
-2.58952e-08
-5.19507e-106
2.12796e-08
1.21051e-07
-5.89074e-138
-1.55067e-09
-1.69426e-08
-6.39054e-118
2.77848e-08
-1.0004e-07
-7.02862e-120
4.53056e-08
-4.53202e-123
8.77343e-08
0
0
-8.15176e-141
6.87244e-109
7.93666e-141
3.49738e-141
1.70067e-120
7.90369e-121
4.22898e-123
8.86344e-123
5.09353e-126
1.10425e-08
-3.10906e-06
1.54628e-06
-3.80505e-08
-1.08751e-06
1.04576e-07
4.24547e-09
-7.35949e-09
-8.58353e-09
2.731e-07
-1.39163e-08
1.68931e-09
3.30657e-07
-2.38193e-06
1.57527e-07
-4.07656e-06
8.70737e-07
2.14523e-07
-3.98714e-300
-3.15547e-07
1.93797e-09
-7.17154e-109
-1.39448e-08
-4.56382e-11
-3.2749e-09
-2.79265e-11
8.04447e-09
-2.02574e-10
3.53362e-10
-1.2726e-07
-2.89452e-12
3.29528e-08
-2.2138e-16
-1.75901e-07
3.30009e-303
4.19378e-303
2.40939e-112
1.08701e-111
9.72947e-11
1.29541e-10
2.89748e-12
1.09801e-11
2.21482e-16
2.73171e-15
1.02374e-19
1.40157e-07
-4.14146e-06
1.80819e-06
6.02489e-08
-1.3613e-06
1.51865e-06
2.57089e-09