/*--------------------------------*- C++ -*----------------------------------*\
| =========                 |                                                 |
| \\      /  F ield         | OpenFOAM: The Open Source CFD Toolbox           |
|  \\    /   O peration     | Version:  v1612+                                |
|   \\  /    A nd           | Web:      www.OpenFOAM.com                      |
|    \\/     M anipulation  |                                                 |
\*---------------------------------------------------------------------------*/
FoamFile
{
    version     2.0;
    format      ascii;
    class       volScalarField;
    location    "9.1";
    object      p;
}
// * * * * * * * * * * * * * * * * * * * * * * * * * * * * * * * * * * * * * //

dimensions      [1 -1 -2 0 0 0 0];

internalField   nonuniform List<scalar> 
1116
(
6349.05
6355.67
6366.46
6364.67
6369.62
6381.48
6645.36
6631.68
6637.9
6657.97
6661.04
6689.18
8231.88
8263.5
8244.86
8215.68
8178.06
8196.42
9701.89
9715.83
9715.93
9699.94
9690.87
9722.7
10796.2
10799.8
10801.3
10794.4
10793.3
10802.7
11416.2
11415.2
11414.9
11412.7
11411.8
11410.5
11780.6
11779.5
11779.2
11775.8
11775.1
11773.1
12215.6
12210.1
12209.3
12209.5
12207.5
12204
12715.2
12713.2
12711.4
12712.1
12710
12710.3
13027.3
13042.9
13034.7
13028.3
13029.8
13036.3
11464.8
11490.8
11471.1
11454.2
11460.3
11466.5
12646.7
12619.4
12625.3
12625.8
12613.5
12610.5
1083.6
1076.23
1074.6
1093.13
1102.51
1080.58
1272.21
1286.32
1284.6
1265.28
1254.89
1284.56
1765.06
1796.88
1803.76
1764.88
1746.35
1800.77
2491.46
2513.81
2519.23
2495.13
2485.34
2519.86
3114.16
3121.45
3120.28
3117.93
3119.5
3129.71
3495.49
3502.41
3499.81
3494.11
3491.85
3500.98
3650.18
3649.43
3649.97
3645.43
3645.49
3640.11
3966.32
3947.68
3952.36
3955.16
3957.07
3944.35
4367.39
4356.83
4359.59
4362.18
4353.71
4359.03
4922.5
4961.71
4946.56
4923.66
4925.88
4957.84
4335.5
4324.64
4279.03
4254.94
4241.53
4295.1
7499.14
7445.61
7460.73
7453.23
7424.57
7429.9
-34.2639
-34.2261
-34.4397
-34.4552
-34.2302
-34.6323
-43.8482
-43.572
-43.6277
-44.1883
-44.0329
-44.0841
-70.1569
-70.0594
-70.1845
-70.3245
-70.5401
-70.5119
-117.001
-117.449
-117.47
-117.309
-117.348
-117.687
-186.483
-186.666
-186.529
-186.306
-186.008
-185.853
-228.824
-228.6
-228.484
-227.959
-228.481
-226.279
-136.849
-136.962
-137.139
-136.601
-137.925
-135.74
125.355
124.588
124.532
125.118
123.632
125.085
465.148
461.43
462.116
461.715
460.264
464.246
724.965
750.084
747.067
696.326
736.798
739.399
1105.29
1109.18
911.671
868.027
869.985
940.846
4864.08
4752.65
4760.78
4756.9
4729.5
4676.64
-34.4964
-34.3132
-34.2935
-34.39
-34.4132
-34.4506
-39.5177
-39.4436
-39.5193
-39.5289
-39.3852
-39.9261
-51.34
-51.2066
-51.4578
-51.4278
-51.4473
-52.0074
-77.0293
-77.1727
-77.284
-77.2289
-77.228
-78.0219
-117.449
-117.565
-117.596
-117.446
-117.41
-117.818
-159.578
-159.711
-159.729
-159.421
-159.157
-159.508
-142.119
-142.091
-142.326
-142.481
-143.235
-142.515
-22.243
-21.6725
-21.7384
-21.8444
-21.7776
-22.1227
48.1903
47.9657
47.7852
47.086
47.5597
46.8553
66.5449
65.4535
62.427
60.2398
61.0477
59.5432
129.956
138.186
126.051
122.608
124.775
121.698
1293.51
887.055
969.801
1094.68
941.88
945.891
1189.31
1162.41
1128.23
1106.7
1130.31
1167.14
1174.44
1146.05
1075.87
1083.17
1094.25
1144.9
1155.58
1129.87
1097.2
1094.29
1087.55
1154.28
1172.79
1107.96
1115.26
1162.96
1071.36
1187.12
1204.49
1166.69
1173.92
1250.06
1204.01
1304.3
1239.78
1226.2
1268.94
1352.07
1375.23
1425.58
1217.21
1193.74
1198.16
1161.68
1197.1
1278.24
931.361
984.823
861.321
781.293
845.562
911.608
607.277
634.787
595.002
593.212
600.964
607.469
400.815
388.514
387.81
428.858
415.007
416.663
294.304
284.03
280.573
332.414
346.25
308.671
272.744
258.616
267.063
306.723
327.438
309.55
345.462
296.136
215.568
233.379
293.924
314.749
306.844
262.179
214.487
242.069
252.739
229.74
319.159
306.623
294.648
270.656
260.438
267.995
388.841
314.259
320.998
362.947
270.967
341.988
446.125
348.211
404.685
462.432
377.758
449.963
452.233
298.085
375.485
411.162
472.719
634.393
487.758
228.634
304.388
417.599
472.687
576.758
413.636
283.694
297.995
402.078
443.298
441.266
358.045
334.352
293.511
327.985
320.693
328.671
253.456
227.896
173.046
179.967
169.279
169.045
165.436
154.754
143.339
156.47
154.541
147.185
137.079
139.479
137.063
149.439
157.085
156.037
-23.3593
-23.0283
-24.4254
-26.9941
-25.3637
-22.4624
-20.3046
-20.2691
-21.1021
-22.9703
-22.1104
-20.6217
-10.1479
-13.5026
-13.535
-14.5792
-15.1245
-15.3381
1.23845
-7.07689
-9.35901
-10.2699
-9.53173
-5.63139
5.67173
-8.16028
28.1991
11.7545
-7.10475
-6.18167
24.0774
34.5579
214.557
215.434
69.6029
103.191
45.7714
67.1384
95.232
137.837
162.04
282.139
63.3855
45.42
76.7174
151.215
146.513
186.875
121.528
58.7481
74.5525
113.501
135.059
152.579
107.793
82.3859
80.7049
90.7857
90.0964
101.541
92.9945
79.6504
79.1402
85.8043
92.09
93.0013
85.5806
76.1897
69.4392
76.2882
85.1028
88.8863
-32.279
-31.6275
-32.1193
-33.7874
-33.1207
-31.934
-32.5616
-31.3959
-32.1961
-33.5589
-32.9077
-32.0041
-34.3506
-34.4499
-33.807
-32.6992
-31.9536
-31.1473
-37.8815
-41.7268
-37.1259
-34.957
-35.1644
-33.3999
-43.3083
-50.7928
-40.0545
-39.3049
-41.8502
-42.6416
-43.1756
-52.486
-37.6319
-39.0284
-46.1709
-48.8955
-34.3958
-38.2515
16.3133
15.1804
-24.3707
-35.3509
-25.3728
-28.0104
4.37975
25.6376
-7.90562
-11.4823
-7.58032
-27.3077
-1.47455
19.6402
24.9759
11.1442
20.6847
-3.90307
7.74572
19.0775
22.8437
29.7059
46.1884
27.9452
20.3134
19.6526
21.888
32.9213
44.2781
18.3358
-3.0823
-9.90483
-5.86428
13.4772
-56.9231
-57.103
-57.3293
-57.0252
-56.8768
-57.2618
-64.0614
-63.5444
-63.5085
-64.3417
-64.7017
-64.8105
-73.619
-73.0349
-73.1916
-74.1563
-74.2505
-74.3704
-62.092
-62.1697
-62.234
-62.1272
-62.0902
-62.1469
-70.4742
-70.5803
-70.599
-70.5038
-70.4994
-70.4243
-80.745
-80.5143
-80.3674
-80.8065
-81.1211
-80.9165
-70.8195
-70.7827
-70.8244
-70.8417
-70.8951
-70.9284
-73.4761
-73.477
-73.4942
-73.5847
-73.6422
-73.689
-77.4171
-77.4363
-77.4484
-77.5137
-77.5465
-77.5673
-87.0856
-87.1023
-87.1532
-87.0691
-87.1082
-87.1917
-82.6654
-82.6686
-82.6817
-82.6686
-82.7115
-82.6824
-79.2142
-79.2135
-79.2002
-79.2092
-79.2288
-79.186
-101.94
-101.92
-101.955
-101.839
-101.834
-101.906
-88.5594
-88.5342
-88.541
-88.5274
-88.5343
-88.5012
-78.1008
-78.0985
-78.0834
-78.0772
-78.0659
-78.0435
-105.821
-105.688
-105.717
-105.601
-105.526
-105.55
-88.2859
-88.1824
-88.2002
-88.1962
-88.1302
-88.0547
-74.7418
-74.716
-74.6752
-74.6799
-74.6519
-74.6055
-73.2087
-73.2747
-73.3612
-72.5522
-72.8471
-73.3037
-74.7456
-75.0772
-75.2409
-75.063
-75.3312
-74.9012
-68.9918
-68.9126
-68.83
-68.9459
-68.8088
-68.6816
-22.7202
-22.1978
-22.0957
-21.4095
-21.8338
-22.628
-42.515
-42.0141
-43.0294
-43.1735
-43.2393
-42.4522
-58.2727
-58.2345
-58.0219
-58.1595
-58.2378
-58.319
7.50605
7.38551
6.86428
7.50347
7.48552
7.00768
-36.2102
-36.2869
-37.2558
-36.6768
-37.2292
-36.349
-65.546
-64.6869
-65.5244
-65.5355
-65.1635
-63.4657
20.3732
15.956
17.6354
19.3398
17.8831
16.2226
-23.8943
-28.6095
-26.6562
-24.9565
-26.7725
-28.2911
-58.4167
-58.1087
-58.8129
-58.8148
-58.7943
-57.8072
31.9992
29.0237
36.233
39.4306
39.7977
36.056
-14.2014
-17.2267
-15.1334
-14.2443
-14.1726
-15.3435
-55.51
-55.5683
-55.5836
-55.7859
-55.9681
-55.8089
175.971
118.69
144.448
183.917
174.152
136.845
-51.8549
-48.3208
-49.3873
-51.5232
-51.6149
-49.8894
-61.223
-60.6914
-60.559
-61.147
-60.993
-60.9727
48.178
52.0079
47.9618
43.8611
36.7104
39.088
-49.8656
-50.4532
-51.7695
-53.5776
-53.8957
-51.2036
-65.62
-66.1308
-67.3319
-67.6215
-65.9659
-64.8287
58.5121
57.8028
56.1671
54.8599
54.2193
56.676
-48.022
-48.3563
-48.9446
-49.7701
-49.5814
-49.0105
-64.397
-64.4865
-64.385
-64.0375
-63.5369
-63.3827
63.8836
63.8666
63.155
62.9824
63.3467
63.6459
-47.8955
-48.0279
-48.2938
-48.5664
-48.4016
-48.0783
-63.1233
-63.1104
-63.009
-62.6017
-62.2963
-62.1941
75.1572
75.6849
74.8709
74.5574
74.7313
75.8258
-47.0459
-47.1606
-47.3035
-47.3078
-47.1603
-46.9805
-61.2933
-61.1993
-61.1256
-61.0266
-60.9279
-60.8944
107.368
107.214
105.447
112.661
115.77
104.083
-44.7415
-44.6861
-44.9328
-44.3746
-44.1314
-44.8343
-60.0556
-59.8536
-59.8469
-59.9085
-59.8602
-59.7834
169.927
175.759
173.286
167.692
165.165
175.306
-36.0474
-35.6425
-36.5244
-34.7817
-34.1134
-37.0951
-59.3165
-58.8993
-58.9882
-59.1323
-59.0374
-59.0526
-42.5946
-42.0532
-40.6592
-40.8408
-41.4509
-42.1344
-53.9105
-53.8986
-53.325
-53.6869
-53.7944
-53.8555
-64.9149
-65.0684
-64.7085
-64.9996
-65.2105
-65.1839
-43.5034
-42.76
-42.1723
-42.4982
-42.6617
-43.0184
-54.6564
-54.557
-54.5881
-54.6389
-54.66
-54.6261
-65.7843
-65.9138
-65.827
-65.8918
-66.0604
-65.9973
-45.2949
-43.9602
-42.528
-42.7119
-43.1025
-43.7303
-55.1534
-55.0104
-54.9241
-54.9865
-55.1218
-55.3014
-66.0955
-66.3894
-66.2544
-66.415
-66.526
-66.4158
-45.6417
-45.3733
-44.8617
-44.4471
-45.2997
-45.3539
-54.7685
-55.0069
-55.5795
-55.9674
-56.4304
-56.1995
-66.7297
-67.2663
-67.3645
-67.4705
-67.4477
-67.0114
-45.2631
-48.0838
-48.8257
-48.5348
-50.5906
-49.6191
-53.2169
-54.4619
-55.9878
-56.8594
-57.6796
-56.6671
-67.74
-68.5238
-68.8521
-68.7427
-68.4501
-67.6851
-45.9653
-51.7329
-51.271
-52.1977
-56.8093
-59.0453
-53.7597
-55.3059
-57.361
-59.4255
-60.67
-60.5478
-68.5263
-69.5408
-70.1955
-69.7015
-69.2851
-68.669
-51.1389
-57.6392
-54.4218
-55.0499
-64.4698
-65.1362
-63.0955
-66.5288
-72.5203
-74.0123
-73.5809
-71.6
-71.9642
-73.8998
-76.9941
-74.9519
-72.8607
-71.851
-54.9695
-65.4212
-70.8042
-77.3284
-80.5234
-63.3483
-77.3751
-80.4957
-99.6204
-86.1916
-83.7245
-81.4262
-75.6608
-76.4749
-80.2389
-77.525
-77.3084
-77.4672
-40.7627
-64.4391
-44.1566
-32.9836
-44.9482
-57.0448
-63.7662
-79.1305
-75.5141
-69.2619
-70.0579
-73.1946
-74.6312
-77.8377
-83.2355
-81.5212
-77.6495
-75.4064
-9.09613
-35.0362
-26.9964
-23.1044
-23.7588
-26.9001
-40.3314
-51.0877
-50.8213
-50.9846
-51.1801
-55.9318
-68
-70.0184
-71.2219
-71.9136
-71.3736
-71.3907
10.5221
-3.36078
-7.43141
-7.03646
-11.1249
-7.72113
-36.7619
-42.1861
-44.4904
-44.6331
-44.9418
-47.0788
-67.1787
-68.327
-70.4472
-71.3942
-69.5872
-67.7321
20.1816
11.8927
-0.434876
-10.0629
-16.6588
3.32334
-44.8927
-48.4308
-54.8776
-58.0983
-58.3146
-55.4096
-64.7317
-65.7337
-67.6529
-68.1636
-66.506
-64.9403
)
;

boundaryField
{
    seabed_topleft_surface
    {
        type            calculated;
        value           nonuniform List<scalar> 
72
(
9993.36
10005.8
10024.3
10000.9
9995.29
10039.2
10515.3
10505.9
10517.2
10528.1
10529.4
10570.3
12798.9
12837.1
12820.6
12783.3
12741
12773.2
14457.9
14471.8
14471.9
14456
14446.9
14478.6
15552.7
15556.3
15557.8
15551
15549.9
15559.1
16172.8
16171.9
16171.7
16169.5
16168.5
16167.2
16537.3
16536.2
16536
16532.6
16531.9
16529.9
16831.2
16826.7
16827
16823.5
16814.1
16827.1
16722.5
16709.5
16713
16715.5
16714
16712.1
16846
16853.7
16849.6
16839.4
16849.7
16854.8
15229.9
15248.2
15232.6
15218.8
15223.9
15224
15997.1
15960.4
15968.1
15975.5
15955.9
15950.5
)
;
    }
    seabed_topright_surface
    {
        type            calculated;
        value           nonuniform List<scalar> 
72
(
1672.47
1646.19
1611.97
1591.05
1613.26
1649.3
1658.23
1630.25
1560.21
1567.61
1577.91
1628.87
1639.76
1614.29
1581.64
1578.74
1572.04
1638.73
1657.17
1592.42
1564.13
1647.43
1555.81
1671.48
1688.95
1651.21
1466.06
1577.03
1688.37
1788.43
1724.13
1611.01
1522.53
1682.31
1850.42
1909.46
1575.94
1667.47
1592.87
1312.12
1362.69
1540.03
1203.31
1326.21
1120.58
831.107
893.198
1142.92
715.211
776.069
760.494
639.67
647.212
791.095
452.644
440.746
553.112
490.917
463.826
587.447
356.202
305.668
373.729
473.265
463.859
475.237
334.642
281.285
353.647
452.557
480.422
462.73
)
;
    }
    breakwater_top_surface
    {
        type            calculated;
        value           nonuniform List<scalar> 
36
(
153.216
157.128
153.31
147.966
138.821
137.279
167.671
167.121
164.241
160.49
156.533
161.918
175.704
175.452
174.264
173.976
174.452
174.82
187.968
188.395
187.437
187.136
187.222
187.885
225.271
225.084
223.274
230.386
233.327
221.64
310.86
311.999
309.1
312.238
311.975
310.147
)
;
    }
    breakwater_left_surface
    {
        type            calculated;
        value           nonuniform List<scalar> 
24
(
12658.2
12630.8
12636.7
12637.2
12624.9
12621.9
7508.07
7454.19
7469.49
7462.1
7433.13
7438.63
4872.84
4761.28
4769.38
4765.59
4738.07
4685.2
1300.35
893.197
976.194
1101.47
948.532
952.171
)
;
    }
    breakwater_right_surface
    {
        type            calculated;
        value           nonuniform List<scalar> 
24
(
272.956
258.693
267.36
307.222
327.962
310.075
137.196
139.542
137.098
149.463
157.113
156.066
85.6098
76.2407
69.4884
76.389
85.2239
88.9587
44.3969
18.4527
-2.98111
-9.76086
-5.71981
13.6207
)
;
    }
    water_front_surface
    {
        type            calculated;
        value           nonuniform List<scalar> 
186
(
6349.05
6645.36
8231.88
9701.89
10796.2
11416.2
11780.6
12215.6
12715.2
13027.3
11464.8
12646.7
1083.6
1272.21
1765.06
2491.46
3114.16
3495.49
3650.18
3966.32
4367.39
4922.5
4335.5
7499.14
-34.2639
-43.8482
-70.1569
-117.001
-186.483
-228.824
-136.849
125.355
465.148
724.965
1105.29
4864.08
-34.4964
-39.5177
-51.34
-77.0293
-117.449
-159.578
-142.119
-22.243
48.1903
66.5449
129.956
1293.51
1189.31
1174.44
1155.58
1172.79
1204.49
1239.78
1217.21
931.361
607.277
400.815
294.304
272.744
345.462
306.844
319.159
388.841
446.125
452.233
487.758
413.636
358.045
253.456
165.436
137.079
-23.3593
-20.3046
-10.1479
1.23845
5.67173
24.0774
45.7714
63.3855
121.528
107.793
92.9945
85.5806
-32.279
-32.5616
-34.3506
-37.8815
-43.3083
-43.1756
-34.3958
-25.3728
-7.58032
20.6847
46.1884
44.2781
-56.9231
-64.0614
-73.619
-62.092
-70.4742
-80.745
-70.8195
-73.4761
-77.4171
-87.0856
-82.6654
-79.2142
-101.94
-88.5594
-78.1008
-105.821
-88.2859
-74.7418
-73.2087
-74.7456
-68.9918
-22.7202
-42.515
-58.2727
7.50605
-36.2102
-65.546
20.3732
-23.8943
-58.4167
31.9992
-14.2014
-55.51
175.971
-51.8549
-61.223
48.178
-49.8656
-65.62
58.5121
-48.022
-64.397
63.8836
-47.8955
-63.1233
75.1572
-47.0459
-61.2933
107.368
-44.7415
-60.0556
169.927
-36.0474
-59.3165
-42.5946
-53.9105
-64.9149
-43.5034
-54.6564
-65.7843
-45.2949
-55.1534
-66.0955
-45.6417
-54.7685
-66.7297
-45.2631
-53.2169
-67.74
-45.9653
-53.7597
-68.5263
-51.1389
-63.0955
-71.9642
-54.9695
-77.3751
-75.6608
-40.7627
-63.7662
-74.6312
-9.09613
-40.3314
-68
10.5221
-36.7619
-67.1787
20.1816
-44.8927
-64.7317
)
;
    }
    water_back_surface
    {
        type            calculated;
        value           nonuniform List<scalar> 
186
(
6381.48
6689.18
8196.42
9722.7
10802.7
11410.5
11773.1
12204
12710.3
13036.3
11466.5
12610.5
1080.58
1284.56
1800.77
2519.86
3129.71
3500.98
3640.11
3944.35
4359.03
4957.84
4295.1
7429.9
-34.6323
-44.0841
-70.5119
-117.687
-185.853
-226.279
-135.74
125.085
464.246
739.399
940.846
4676.64
-34.4506
-39.9261
-52.0074
-78.0219
-117.818
-159.508
-142.515
-22.1227
46.8553
59.5432
121.698
945.891
1167.14
1144.9
1154.28
1187.12
1304.3
1425.58
1278.24
911.608
607.469
416.663
308.671
309.55
314.749
229.74
267.995
341.988
449.963
634.393
576.758
441.266
328.671
169.045
147.185
156.037
-22.4624
-20.6217
-15.3381
-5.63139
-6.18167
103.191
282.139
186.875
152.579
101.541
93.0013
88.8863
-31.934
-32.0041
-31.1473
-33.3999
-42.6416
-48.8955
-35.3509
-11.4823
11.1442
29.7059
32.9213
13.4772
-57.2618
-64.8105
-74.3704
-62.1469
-70.4243
-80.9165
-70.9284
-73.689
-77.5673
-87.1917
-82.6824
-79.186
-101.906
-88.5012
-78.0435
-105.55
-88.0547
-74.6055
-73.3037
-74.9012
-68.6816
-22.628
-42.4522
-58.319
7.00768
-36.349
-63.4657
16.2226
-28.2911
-57.8072
36.056
-15.3435
-55.8089
136.845
-49.8894
-60.9727
39.088
-51.2036
-64.8287
56.676
-49.0105
-63.3827
63.6459
-48.0783
-62.1941
75.8258
-46.9805
-60.8944
104.083
-44.8343
-59.7834
175.306
-37.0951
-59.0526
-42.1344
-53.8555
-65.1839
-43.0184
-54.6261
-65.9973
-43.7303
-55.3014
-66.4158
-45.3539
-56.1995
-67.0114
-49.6191
-56.6671
-67.6851
-59.0453
-60.5478
-68.669
-65.1362
-71.6
-71.851
-63.3483
-81.4262
-77.4672
-57.0448
-73.1946
-75.4064
-26.9001
-55.9318
-71.3907
-7.72113
-47.0788
-67.7321
3.32334
-55.4096
-64.9403
)
;
    }
    water_left_surface
    {
        type            calculated;
        value           nonuniform List<scalar> 
42
(
6361.53
6368.17
6378.98
6377.13
6382.04
6394.01
1087.23
1079.83
1078.2
1096.8
1106.2
1084.2
-34.2477
-34.2099
-34.4235
-34.439
-34.214
-34.6161
-34.479
-34.2966
-34.2771
-34.3731
-34.396
-34.4341
-56.9231
-57.103
-57.3293
-57.0252
-56.8768
-57.2618
-64.0614
-63.5444
-63.5085
-64.3417
-64.7017
-64.8105
-73.619
-73.0349
-73.1916
-74.1563
-74.2505
-74.3704
)
;
    }
    water_right_surface
    {
        type            calculated;
        value           nonuniform List<scalar> 
42
(
1190.96
1164.07
1129.89
1108.36
1131.96
1168.79
346.708
297.146
216.264
234.202
294.997
315.865
-23.3431
-23.0121
-24.4092
-26.9779
-25.3475
-22.4462
-32.2631
-31.6116
-32.1035
-33.7715
-33.1048
-31.9181
-42.5946
-42.0532
-40.6592
-40.8408
-41.4509
-42.1344
-53.9105
-53.8986
-53.325
-53.6869
-53.7944
-53.8555
-64.9149
-65.0684
-64.7085
-64.9996
-65.2105
-65.1839
)
;
    }
    water_top_surface
    {
        type            calculated;
        value           nonuniform List<scalar> 
180
(
-78.1843
-69.3705
-70.1359
-77.8398
-77.9241
-77.5029
-84.2263
-83.9238
-83.6812
-84.1634
-84.5804
-84.0245
-79.115
-79.1775
-79.2007
-79.1798
-79.1999
-79.2542
-79.2226
-79.2584
-79.254
-79.2207
-79.2978
-79.1568
-76.9569
-77.0186
-77.0016
-76.9754
-76.9794
-76.9528
-74.5338
-74.54
-74.4815
-74.5228
-74.5204
-74.3873
-72.66
-72.7674
-72.641
-72.7332
-72.6702
-72.4704
-68.7756
-71.6899
-71.1848
-69.6343
-69.2778
-71.4806
-69.3837
-69.8577
-69.1676
-69.1771
-69.1275
-70.3548
-69.3654
-69.0064
-69.1254
-69.283
-69.1932
-69.0117
-70.0705
-70.0564
-69.6879
-70.1965
-70.2269
-69.7582
-70.2571
-70.1621
-69.8794
-70.2853
-70.2798
-69.9393
-68.6702
-68.6702
-69.4119
-69.5921
-68.9108
-68.6701
-68.6701
-68.6701
-68.6915
-68.7091
-68.6814
-68.6701
-68.6701
-68.6701
-68.6701
-68.6701
-68.6701
-68.6701
-68.6701
-68.6701
-68.6701
-68.6702
-68.6701
-68.6701
-68.6738
-68.6745
-68.6745
-68.6754
-68.6756
-68.6734
-68.9102
-68.9343
-68.9301
-68.9885
-69.0101
-68.8909
-70.1907
-70.5435
-69.4259
-70.4326
-71.0613
-70.6612
-71.5449
-71.7893
-71.9892
-72.0942
-72.1177
-71.7635
-71.1381
-71.5987
-71.8795
-72.2777
-72.3095
-72.0279
-70.9359
-71.6036
-72.4984
-73.135
-72.8824
-72.2332
-70.8934
-72.2587
-73.5233
-74.1642
-73.4282
-72.2389
-72.017
-75.5368
-77.2609
-76.6924
-74.6817
-72.3444
-73.0488
-80.1376
-86.475
-78.826
-72.9428
-70.3217
-71.1092
-75.4294
-104.712
-70.3245
-68.8411
-68.7235
-68.6821
-72.6963
-116.563
-86.3145
-74.0773
-68.7509
-73.7259
-82.6707
-70.017
-68.9639
-69.4431
-69.2286
-73.9004
-73.5809
-68.8938
-68.8334
-68.8194
-69.5717
-68.676
-68.693
-68.856
-68.8194
-68.7874
-68.768
)
;
    }
}


// ************************************************************************* //
