/*--------------------------------*- C++ -*----------------------------------*\
| =========                 |                                                 |
| \\      /  F ield         | OpenFOAM: The Open Source CFD Toolbox           |
|  \\    /   O peration     | Version:  v1612+                                |
|   \\  /    A nd           | Web:      www.OpenFOAM.com                      |
|    \\/     M anipulation  |                                                 |
\*---------------------------------------------------------------------------*/
FoamFile
{
    version     2.0;
    format      ascii;
    class       volScalarField;
    location    "9.1";
    object      p_rgh;
}
// * * * * * * * * * * * * * * * * * * * * * * * * * * * * * * * * * * * * * //

dimensions      [1 -1 -2 0 0 0 0];

internalField   nonuniform List<scalar> 
1116
(
9993.36
10005.8
10024.3
10000.9
9995.29
10039.2
10515.3
10505.9
10517.2
10528.1
10529.4
10570.3
12798.9
12837.1
12820.6
12783.3
12741
12773.2
14457.9
14471.8
14471.9
14456
14446.9
14478.6
15552.7
15556.3
15557.8
15551
15549.9
15559.1
16172.8
16171.9
16171.7
16169.5
16168.5
16167.2
16537.3
16536.2
16536
16532.6
16531.9
16529.9
16831.2
16826.7
16827
16823.5
16814.1
16827.1
16722.5
16709.5
16713
16715.5
16714
16712.1
16846
16853.7
16849.6
16839.4
16849.7
16854.8
15229.9
15248.2
15232.6
15218.8
15223.9
15224
15997.1
15960.4
15968.1
15975.5
15955.9
15950.5
4321.19
4286.32
4281.03
4360.66
4390.27
4308.73
5013.62
5074.47
5075.7
4987.45
4925.4
5092.63
7011.09
7138.61
7177.06
6998.97
6911.77
7185.25
10047.2
10146.6
10175.3
10060.4
10014.6
10207
12731.8
12770.8
12767.8
12748.4
12747.1
12825.1
14422.1
14447.9
14437.4
14418.3
14409.3
14441.3
14984.3
14976.6
14979.5
14964.9
14968.5
14937.1
15948.8
15873.2
15890.9
15904.7
15914.2
15858.6
16807.5
16796.9
16798.9
16800.5
16790.9
16794.8
15873.2
16040.9
15963.7
15960.5
16037.1
15958.8
10376.3
10616.2
10479.7
10375.4
10471.4
10485.8
15469.6
15099.7
15269
15364.9
15056.9
15220.9
-9.71778
-9.68441
-9.89758
-9.91342
-9.68809
-10.0905
-19.3068
-19.0308
-19.0864
-19.6471
-19.4917
-19.5429
-45.6157
-45.5182
-45.6433
-45.7833
-45.9989
-45.9707
-92.46
-92.9079
-92.9287
-92.7675
-92.8065
-93.1456
-161.942
-162.125
-161.988
-161.764
-161.467
-161.312
-204.283
-204.058
-203.943
-203.418
-203.94
-201.738
-112.309
-112.422
-112.598
-112.061
-113.384
-111.2
149.89
149.126
149.07
149.654
148.169
149.622
688.016
640.64
648.606
682.634
651.069
659.972
2962.8
3082.62
3048.62
2948.16
2975.53
3077.72
4849.49
4693
4673.05
4602.58
4388.12
4894.76
18133.6
17847.1
17794.3
17928.7
17725.6
17645.4
3.02105
1.58925
1.26191
2.08916
2.78411
1.08231
-4.94599
-5.09273
-5.14372
-5.17808
-5.03428
-5.56182
-16.9892
-16.8557
-17.1069
-17.077
-17.0964
-17.6565
-42.6784
-42.8218
-42.9331
-42.8781
-42.8772
-43.671
-83.0984
-83.2142
-83.2454
-83.0954
-83.0596
-83.4672
-125.227
-125.361
-125.378
-125.071
-124.806
-125.157
-107.77
-107.741
-107.976
-108.131
-108.885
-108.166
12.1048
12.6769
12.6108
12.5038
12.5712
12.2262
82.5204
82.3023
82.1161
81.4186
81.8908
81.1889
104.075
103.23
100.106
97.6991
98.6366
97.1288
510.833
180.286
168.85
233.419
167.219
163.884
16088.8
14178
14805.3
15803.1
15336.9
14535.3
1672.47
1646.19
1611.97
1591.05
1613.26
1649.3
1658.23
1630.25
1560.21
1567.61
1577.91
1628.87
1639.76
1614.29
1581.64
1578.74
1572.04
1638.73
1657.17
1592.42
1564.13
1647.43
1555.81
1671.48
1688.95
1651.21
1466.06
1577.03
1688.37
1788.43
1724.13
1611.01
1522.53
1682.31
1850.42
1909.46
1575.94
1667.47
1592.87
1312.12
1362.69
1540.03
1203.31
1326.21
1120.58
831.107
893.198
1142.92
715.211
776.069
760.494
639.67
647.212
791.095
452.644
440.746
553.112
490.917
463.826
587.447
356.202
305.668
373.729
473.265
463.859
475.237
334.642
281.285
353.647
452.557
480.422
462.73
1457.03
1196.4
836.305
967.546
1250.85
1310.06
1306.75
1090.57
855.231
1031.34
1085.54
924.334
1167.89
1305.75
1243.01
1115.02
1095.42
1097.46
1641.91
1252.07
1197.02
1453.17
1076.3
1418.83
1896.74
1443.8
1149.31
1811.23
1539.94
1802.04
1901.95
1720.08
1128.85
1782.08
1906.75
2082.38
1930.68
1655.7
1104.27
948.714
1679.07
2014.25
1098.46
1501.92
923.04
502.082
690.743
960.961
491.95
467.759
538.417
484.639
400.638
414.481
340.671
334.453
242.968
242.553
207.153
222.324
230.742
215.013
165.049
178.284
176.313
176.52
240.605
195.823
167.945
171.194
181.978
181.369
1.18248
1.51346
0.116201
-2.45266
-0.822171
2.07933
4.23721
4.27249
3.43934
1.57114
2.43102
3.91993
151.635
11.0428
11.0064
9.96219
9.41691
9.20333
141.243
89.3335
132.243
14.2715
15.0097
18.9101
103.404
336.859
510.5
334.372
17.4367
18.36
53.5541
683.273
1677.09
1697.44
652.182
984.423
227.648
1289.47
1546.12
1368.14
1839.6
2599.75
402.173
1811.64
589.322
275.802
867.232
1962.93
688.62
958.738
231.624
234.649
182.633
348.547
335.54
141.708
106.995
118.373
117.967
131.003
127.865
113.638
110.312
161.839
181.581
129.767
129.788
153.536
143.953
229.111
268.618
198.638
2.07778
2.72695
2.2343
0.633446
1.2335
2.42142
1.82939
2.9809
2.15588
0.796911
1.45834
2.35569
0.0333781
-0.0444719
0.544171
1.65203
2.39766
7.25181
-3.51789
-7.37437
-2.77462
-0.605675
-0.805565
1.86126
-8.93586
-16.4383
-5.70306
-4.95361
-7.49901
-8.29015
-8.78496
-18.1323
-3.28065
-4.67725
-11.8197
-14.5444
1.70792
-3.86083
697.942
952.335
263.26
128.961
15.4217
120.197
674.262
517.883
506.559
1106.65
310.819
394.073
55.66
57.979
129.501
671.191
292.817
195.437
42.9157
56.0395
60.5231
72.749
92.8161
63.115
54.993
59.8503
113.563
69.3426
301.436
271.392
215.912
301.65
306.778
323.917
-6.64083
-7.77793
-8.12088
-6.965
-6.80347
-9.48521
-2.6123
-5.72408
-6.24393
-3.15249
-3.49255
-7.82047
-1.01928
-4.35761
-7.31406
-1.87651
-1.89236
-2.40347
-17.5087
-18.0247
-18.089
-17.9822
-17.8701
-18.0019
-16.5192
-16.6253
-16.644
-16.5488
-16.5444
-16.4693
-16.98
-16.7493
-16.6024
-17.0415
-17.3561
-17.1515
-26.6745
-26.6377
-26.6794
-26.6967
-26.7501
-26.7834
-19.5211
-19.522
-19.5392
-19.6297
-19.6872
-19.734
-13.6521
-13.6713
-13.6834
-13.7487
-13.7815
-13.8023
-42.9406
-42.9573
-43.0082
-42.9241
-42.9632
-43.0467
-28.7104
-28.7136
-28.7267
-28.7136
-28.7565
-28.7274
-15.4492
-15.4485
-15.4352
-15.4442
-15.4638
-15.421
-57.795
-57.7748
-57.8102
-57.6944
-57.6888
-57.7612
-34.6044
-34.5792
-34.586
-34.5724
-34.5793
-34.5462
-14.3358
-14.3335
-14.3184
-14.3122
-14.3009
-14.2785
-61.6759
-61.5427
-61.572
-61.4555
-61.3752
-61.4051
-34.3309
-34.2274
-34.2452
-34.241
-34.1707
-34.098
-10.9768
-10.951
-10.9102
-10.9149
-10.8869
-10.8405
-29.0622
-29.1296
-29.216
-28.4063
-28.6711
-29.1584
-20.7723
-21.1185
-21.2815
-21.0985
-21.3581
-20.9432
-5.22676
-5.1476
-5.06499
-5.18088
-5.04378
-4.91664
21.4245
21.9472
22.0493
22.7354
22.312
21.5166
11.4946
11.9474
10.9424
10.816
10.7498
11.5028
5.5043
5.53047
5.74792
5.60699
5.5325
5.44604
51.6506
51.5297
51.009
51.6481
51.631
51.1523
17.7975
17.7604
16.7135
17.3051
16.7559
17.6246
-1.11836
-0.795247
-1.29736
-1.29957
-0.973645
0.354366
64.8091
60.4192
62.0618
63.748
62.305
60.6462
30.1381
25.4414
27.3297
29.0481
27.2284
25.7052
5.99402
5.96868
5.37497
5.51951
5.45655
6.27501
78.6523
75.8258
82.5857
85.9481
86.6783
82.34
43.0287
41.5332
42.271
43.6204
45.0256
41.9814
9.55548
9.48411
9.12668
9.39657
9.24263
8.96658
2990.91
2098.17
2391.7
3075.29
3037.33
2242.04
5.54207
9.25094
7.5086
5.77107
6.13107
6.94659
4.01577
4.45913
4.32896
4.11785
4.26679
3.97094
993.524
998.09
996.093
980.808
955.711
922.81
4.09011
3.502
2.18572
0.377787
0.0606527
2.75163
-1.85482
-2.36271
-2.87797
-3.00019
-1.97736
-1.0636
1040.94
1041.66
1028.83
1005.53
975.038
1003.86
5.93312
5.5988
5.01058
4.18513
4.37383
4.94463
-0.631875
-0.721399
-0.599989
-0.236149
0.238659
0.382358
1070.26
1068.13
1063.14
1061.92
1063.29
1064.21
6.05965
5.92723
5.66128
5.38882
5.55352
5.8768
0.641799
0.654771
0.756137
1.16344
1.46877
1.57095
1090.45
1090.07
1087.97
1087.76
1087.15
1084.36
6.91212
6.79786
6.65498
6.65149
6.79906
6.97703
2.47181
2.56585
2.63957
2.73861
2.83727
2.87067
1168.5
1168.04
1165.89
1172.19
1173.78
1162.1
32.694
34.4514
33.6666
40.8353
42.7809
30.0132
3.71297
3.91557
3.92228
3.86153
3.90995
3.98484
1438.32
1401.92
1395.62
1468.61
1486.46
1388.87
160.852
156.485
152.637
177.396
181.566
150.213
4.67149
5.11117
5.01829
4.92845
5.04344
4.91755
1.60093
2.09911
3.8918
3.45226
2.69992
2.05165
0.0910933
0.0696668
1.02906
0.280736
0.17437
0.159476
-1.14993
-1.30342
-0.943479
-1.23464
-1.44549
-1.41891
0.960999
1.46876
1.97523
1.64739
1.5491
1.30773
-0.56966
-0.585577
-0.632987
-0.683613
-0.64764
-0.51455
-2.01928
-2.14876
-2.06188
-2.12684
-2.29543
-2.23228
-0.952714
0.313061
1.63214
1.43354
1.10967
0.437955
-1.07016
-1.04654
-0.968936
-1.03111
-1.12184
-1.27136
-2.33047
-2.62437
-2.48809
-2.64988
-2.76096
-2.65075
-1.4967
-1.16208
-0.65232
-0.298695
-1.10699
-1.14028
-0.813458
-1.05191
-1.62396
-2.00815
-2.47537
-2.24452
-2.96471
-3.50131
-3.59948
-3.7046
-3.68272
-3.24637
-1.1181
-3.45975
-4.52797
-4.38906
-6.43141
-5.46958
0.73812
-0.384771
-1.97025
-2.89967
-3.71034
-2.71207
-3.97503
-4.75885
-5.0871
-4.97441
-4.66615
-3.92014
1.80857
-5.68835
-7.12403
-8.05213
-12.6641
-14.9002
0.44072
1.31727
-3.12727
-5.46603
-6.7075
-6.59276
-4.76128
-5.77577
-6.43054
-5.91983
-5.43725
-4.90356
4.41527
-12.3126
24.6953
66.1592
-13.8276
-20.991
-0.727634
4.99704
-18.5653
-20.0573
-19.6258
-17.645
-8.19918
-10.1348
-13.2291
-11.1869
-9.09444
-8.07314
91.8712
167.477
492.635
502.619
393.569
349.19
22.8464
93.2811
207.34
145.489
111.407
-27.471
-11.8958
-12.7099
16.9935
-13.3368
-13.5434
-13.6525
367.559
300.122
54.2976
107.884
167.662
368.074
207.971
161.885
50.7299
90.94
111.447
19.8412
-10.855
-10.334
25.0015
-1.37201
-8.86343
-11.5663
321.402
148.053
17.5711
21.4605
24.2781
57.0241
175.337
94.3973
3.42365
3.84982
8.08601
5.31231
0.459804
6.74724
-6.20614
-7.87568
-6.89074
-7.10698
68.1234
41.2067
36.9508
37.2563
34.1181
38.1469
30.0651
16.4198
9.64519
9.45019
9.14668
9.65122
1.44309
-0.00187632
-6.47432
-7.47756
-5.68351
-3.12978
353.279
303.504
278.695
284.037
376.938
315.544
34.8693
50.918
90.9873
81.7748
35.0972
-1.22818
-0.96114
-1.94731
-3.7152
-4.25988
-2.63201
-1.08428
)
;

boundaryField
{
    seabed_topleft_surface
    {
        type            fixedFluxPressure;
        gradient        uniform 0;
        value           nonuniform List<scalar> 
72
(
9993.36
10005.8
10024.3
10000.9
9995.29
10039.2
10515.3
10505.9
10517.2
10528.1
10529.4
10570.3
12798.9
12837.1
12820.6
12783.3
12741
12773.2
14457.9
14471.8
14471.9
14456
14446.9
14478.6
15552.7
15556.3
15557.8
15551
15549.9
15559.1
16172.8
16171.9
16171.7
16169.5
16168.5
16167.2
16537.3
16536.2
16536
16532.6
16531.9
16529.9
16831.2
16826.7
16827
16823.5
16814.1
16827.1
16722.5
16709.5
16713
16715.5
16714
16712.1
16846
16853.7
16849.6
16839.4
16849.7
16854.8
15229.9
15248.2
15232.6
15218.8
15223.9
15224
15997.1
15960.4
15968.1
15975.5
15955.9
15950.5
)
;
    }
    seabed_topright_surface
    {
        type            fixedFluxPressure;
        gradient        uniform 0;
        value           nonuniform List<scalar> 
72
(
1672.47
1646.19
1611.97
1591.05
1613.26
1649.3
1658.23
1630.25
1560.21
1567.61
1577.91
1628.87
1639.76
1614.29
1581.64
1578.74
1572.04
1638.73
1657.17
1592.42
1564.13
1647.43
1555.81
1671.48
1688.95
1651.21
1466.06
1577.03
1688.37
1788.43
1724.13
1611.01
1522.53
1682.31
1850.42
1909.46
1575.94
1667.47
1592.87
1312.12
1362.69
1540.03
1203.31
1326.21
1120.58
831.107
893.198
1142.92
715.211
776.069
760.494
639.67
647.212
791.095
452.644
440.746
553.112
490.917
463.826
587.447
356.202
305.668
373.729
473.265
463.859
475.237
334.642
281.285
353.647
452.557
480.422
462.73
)
;
    }
    breakwater_top_surface
    {
        type            fixedFluxPressure;
        gradient        uniform 0;
        value           nonuniform List<scalar> 
36
(
993.524
998.09
996.093
980.808
955.711
922.81
1040.94
1041.66
1028.83
1005.53
975.038
1003.86
1070.26
1068.13
1063.14
1061.92
1063.29
1064.21
1090.45
1090.07
1087.97
1087.76
1087.15
1084.36
1168.5
1168.04
1165.89
1172.19
1173.78
1162.1
1438.32
1401.92
1395.62
1468.61
1486.46
1388.87
)
;
    }
    breakwater_left_surface
    {
        type            fixedFluxPressure;
        gradient        uniform 0;
        value           nonuniform List<scalar> 
24
(
15997.1
15960.4
15968.1
15975.5
15955.9
15950.5
15469.6
15099.7
15269
15364.9
15056.9
15220.9
18133.6
17847.1
17794.3
17928.7
17725.6
17645.4
16088.8
14178
14805.3
15803.1
15336.9
14535.3
)
;
    }
    breakwater_right_surface
    {
        type            fixedFluxPressure;
        gradient        uniform 0;
        value           nonuniform List<scalar> 
24
(
334.642
281.285
353.647
452.557
480.422
462.73
240.605
195.823
167.945
171.194
181.978
181.369
129.788
153.536
143.953
229.111
268.618
198.638
301.436
271.392
215.912
301.65
306.778
323.917
)
;
    }
    water_front_surface
    {
        type            fixedFluxPressure;
        gradient        uniform 0;
        value           nonuniform List<scalar> 
186
(
9993.36
10515.3
12798.9
14457.9
15552.7
16172.8
16537.3
16831.2
16722.5
16846
15229.9
15997.1
4321.19
5013.62
7011.09
10047.2
12731.8
14422.1
14984.3
15948.8
16807.5
15873.2
10376.3
15469.6
-9.71778
-19.3068
-45.6157
-92.46
-161.942
-204.283
-112.309
149.89
688.016
2962.8
4849.49
18133.6
3.02105
-4.94599
-16.9892
-42.6784
-83.0984
-125.227
-107.77
12.1048
82.5204
104.075
510.833
16088.8
1672.47
1658.23
1639.76
1657.17
1688.95
1724.13
1575.94
1203.31
715.211
452.644
356.202
334.642
1457.03
1306.75
1167.89
1641.91
1896.74
1901.95
1930.68
1098.46
491.95
340.671
230.742
240.605
1.18248
4.23721
151.635
141.243
103.404
53.5541
227.648
402.173
688.62
335.54
127.865
129.788
2.07778
1.82939
0.0333781
-3.51789
-8.93586
-8.78496
1.70792
15.4217
310.819
292.817
92.8161
301.436
-6.64083
-2.6123
-1.01928
-17.5087
-16.5192
-16.98
-26.6745
-19.5211
-13.6521
-42.9406
-28.7104
-15.4492
-57.795
-34.6044
-14.3358
-61.6759
-34.3309
-10.9768
-29.0622
-20.7723
-5.22676
21.4245
11.4946
5.5043
51.6506
17.7975
-1.11836
64.8091
30.1381
5.99402
78.6523
43.0287
9.55548
2990.91
5.54207
4.01577
993.524
4.09011
-1.85482
1040.94
5.93312
-0.631875
1070.26
6.05965
0.641799
1090.45
6.91212
2.47181
1168.5
32.694
3.71297
1438.32
160.852
4.67149
1.60093
0.0910933
-1.14993
0.960999
-0.56966
-2.01928
-0.952714
-1.07016
-2.33047
-1.4967
-0.813458
-2.96471
-1.1181
0.73812
-3.97503
1.80857
0.44072
-4.76128
4.41527
-0.727634
-8.19918
91.8712
22.8464
-11.8958
367.559
207.971
-10.855
321.402
175.337
0.459804
68.1234
30.0651
1.44309
353.279
34.8693
-0.96114
)
;
    }
    water_back_surface
    {
        type            fixedFluxPressure;
        gradient        uniform 0;
        value           nonuniform List<scalar> 
186
(
10039.2
10570.3
12773.2
14478.6
15559.1
16167.2
16529.9
16827.1
16712.1
16854.8
15224
15950.5
4308.73
5092.63
7185.25
10207
12825.1
14441.3
14937.1
15858.6
16794.8
15958.8
10485.8
15220.9
-10.0905
-19.5429
-45.9707
-93.1456
-161.312
-201.738
-111.2
149.622
659.972
3077.72
4894.76
17645.4
1.08231
-5.56182
-17.6565
-43.671
-83.4672
-125.157
-108.166
12.2262
81.1889
97.1288
163.884
14535.3
1649.3
1628.87
1638.73
1671.48
1788.43
1909.46
1540.03
1142.92
791.095
587.447
475.237
462.73
1310.06
924.334
1097.46
1418.83
1802.04
2082.38
2014.25
960.961
414.481
222.324
176.52
181.369
2.07933
3.91993
9.20333
18.9101
18.36
984.423
2599.75
1962.93
348.547
131.003
129.767
198.638
2.42142
2.35569
7.25181
1.86126
-8.29015
-14.5444
128.961
1106.65
671.191
72.749
69.3426
323.917
-9.48521
-7.82047
-2.40347
-18.0019
-16.4693
-17.1515
-26.7834
-19.734
-13.8023
-43.0467
-28.7274
-15.421
-57.7612
-34.5462
-14.2785
-61.4051
-34.098
-10.8405
-29.1584
-20.9432
-4.91664
21.5166
11.5028
5.44604
51.1523
17.6246
0.354366
60.6462
25.7052
6.27501
82.34
41.9814
8.96658
2242.04
6.94659
3.97094
922.81
2.75163
-1.0636
1003.86
4.94463
0.382358
1064.21
5.8768
1.57095
1084.36
6.97703
2.87067
1162.1
30.0132
3.98484
1388.87
150.213
4.91755
2.05165
0.159476
-1.41891
1.30773
-0.51455
-2.23228
0.437955
-1.27136
-2.65075
-1.14028
-2.24452
-3.24637
-5.46958
-2.71207
-3.92014
-14.9002
-6.59276
-4.90356
-20.991
-17.645
-8.07314
349.19
-27.471
-13.6525
368.074
19.8412
-11.5663
57.0241
5.31231
-7.10698
38.1469
9.65122
-3.12978
315.544
-1.22818
-1.08428
)
;
    }
    water_left_surface
    {
        type            fixedFluxPressure;
        gradient        uniform 0;
        value           nonuniform List<scalar> 
42
(
9993.36
10005.8
10024.3
10000.9
9995.29
10039.2
4321.19
4286.32
4281.03
4360.66
4390.27
4308.73
-9.71778
-9.68441
-9.89758
-9.91342
-9.68809
-10.0905
3.02105
1.58925
1.26191
2.08916
2.78411
1.08231
-6.64083
-7.77793
-8.12088
-6.965
-6.80347
-9.48521
-2.6123
-5.72408
-6.24393
-3.15249
-3.49255
-7.82047
-1.01928
-4.35761
-7.31406
-1.87651
-1.89236
-2.40347
)
;
    }
    water_right_surface
    {
        type            fixedFluxPressure;
        gradient        uniform 0;
        value           nonuniform List<scalar> 
42
(
1672.47
1646.19
1611.97
1591.05
1613.26
1649.3
1457.03
1196.4
836.305
967.546
1250.85
1310.06
1.18248
1.51346
0.116201
-2.45266
-0.822171
2.07933
2.07778
2.72695
2.2343
0.633446
1.2335
2.42142
1.60093
2.09911
3.8918
3.45226
2.69992
2.05165
0.0910933
0.0696668
1.02906
0.280736
0.17437
0.159476
-1.14993
-1.30342
-0.943479
-1.23464
-1.44549
-1.41891
)
;
    }
    water_top_surface
    {
        type            totalPressure;
        rho             rho;
        psi             none;
        gamma           1;
        p0              uniform 0;
        value           nonuniform List<scalar> 
180
(
0
-0.700488
-1.46593
0
0
0
-15.5563
-15.2538
-15.0112
-15.4934
-15.9104
-15.3545
-10.445
-10.5075
-10.5307
-10.5098
-10.5299
-10.5842
-10.5526
-10.5884
-10.584
-10.5507
-10.6278
-10.4868
-8.28688
-8.34857
-8.33162
-8.30543
-8.30939
-8.28277
-5.86382
-5.86999
-5.81147
-5.85282
-5.85037
-5.71733
-3.98998
-4.09736
-3.97098
-4.06323
-4.00023
-3.8004
-0.105604
-3.01993
-2.51481
-0.964287
-0.607822
-2.81055
0
-1.18769
0
0
0
-1.68485
0
0
0
0
0
0
0
0
0
0
0
0
0
0
0
0
0
0
0
-0.000216801
0
0
0
0
0
0
0
0
0
0
0
0
0
0
0
0
0
0
0
0
0
0
0
0
0
0
0
0
0
0
0
0
0
0
-1.52068
-1.8735
-0.755934
-1.76257
-2.39127
-1.99124
-2.87487
-3.11931
-3.3192
-3.4242
-3.44766
-3.09355
-2.46807
-2.92874
-3.20948
-3.60766
-3.63954
-3.35787
-2.26593
-2.9336
-3.82837
-4.465
-4.21244
-3.56317
-2.22341
-3.58872
-4.85335
-5.49417
-4.75824
-3.56893
-3.34697
-6.86685
-8.59093
-8.02237
-6.01166
-3.67441
-4.37879
-11.4676
-17.805
-10.156
-4.27284
-1.65171
-2.43922
-6.7594
0
-1.65452
-0.171079
0
0
0
0
0
0
0
0
0
0
0
0
0
0
0
0
0
0
0
0
0
0
0
0
0
)
;
    }
}


// ************************************************************************* //
