/*--------------------------------*- C++ -*----------------------------------*\
| =========                 |                                                 |
| \\      /  F ield         | OpenFOAM: The Open Source CFD Toolbox           |
|  \\    /   O peration     | Version:  v1612+                                |
|   \\  /    A nd           | Web:      www.OpenFOAM.com                      |
|    \\/     M anipulation  |                                                 |
\*---------------------------------------------------------------------------*/
FoamFile
{
    version     2.0;
    format      ascii;
    class       surfaceScalarField;
    location    "9.1";
    object      phi;
}
// * * * * * * * * * * * * * * * * * * * * * * * * * * * * * * * * * * * * * //

dimensions      [0 3 -1 0 0 0 0];

internalField   nonuniform List<scalar> 
2916
(
-0.00572361
0.038023
-0.0322993
0.00692103
0.0143871
-0.0270318
0.0298341
0.00617894
-0.029092
0.0137956
0.0530917
-0.0370532
-0.0246847
0.0742381
-0.0357578
0.00894441
-0.0336291
0.00758336
0.0090649
0.0213747
0.00291693
-0.00112491
0.0201785
-0.00955958
-0.00599621
0.0246516
-0.000923505
0.0106999
0.0337557
0.00105704
0.02033
0.0519275
-0.0118006
0.021802
0.00241777
0.018507
-0.0118599
9.81664e-05
0.0127416
-0.0115469
-0.0086951
0.0104504
-0.00765334
-0.00424255
0.0167619
-0.0105145
0.00237298
0.0215656
-0.00785115
0.0028359
-0.0122635
-0.000378776
0.065877
-0.0469913
-0.00144552
0.0621482
-0.04834
-0.00515931
0.0612177
-0.0470535
-0.00467197
0.0649036
-0.0486291
-0.000286083
0.0682546
-0.0510749
0.0554921
-0.0529422
-0.001991
0.158371
-0.0905032
-0.00110053
0.154004
-0.0927467
-0.000716543
0.154153
-0.0933195
-0.00234401
0.157473
-0.0909415
-0.00302324
0.160757
-0.0918226
0.150896
-0.0984276
-0.00131412
0.265041
-0.105356
-0.00043745
0.259914
-0.106786
0.00103129
0.260695
-0.108011
-0.000720833
0.263851
-0.104627
-0.00304011
0.267203
-0.104127
0.25807
-0.110214
0.000800041
0.364928
-0.100687
-0.000446216
0.36142
-0.10026
-0.000146155
0.362032
-0.101637
-0.000720566
0.364453
-0.100027
-0.000951569
0.365726
-0.0982926
0.359998
-0.10288
0.00191303
0.434588
-0.0715732
-0.000908831
0.435862
-0.0716204
-0.001676
0.435684
-0.0728852
-0.00129911
0.435147
-0.0710715
-0.000637613
0.431552
-0.0664877
0.435737
-0.076376
-0.00346034
0.410551
0.027498
-0.00106666
0.408686
0.0247828
-0.000309601
0.40907
0.0258573
-0.00306297
0.411571
0.0263298
-0.00599626
0.407816
0.0266697
0.408041
0.0217
-0.00711609
0.224251
0.193416
-0.00105307
0.207909
0.194714
0.000707443
0.209589
0.197721
-0.00129215
0.226068
0.187503
-0.00450957
0.229957
0.181076
0.203439
0.200092
8.51167e-05
-0.128589
0.352755
0.00160948
-0.152888
0.359272
0.000640091
-0.150212
0.36077
0.00190803
-0.127093
0.351892
0.00206341
-0.116158
0.34596
-0.157078
0.362581
0.0209401
-0.149529
-0.000175542
-0.131773
-0.00554965
-0.144838
0.0124965
-0.145139
0.0206115
-0.124274
-0.136467
0.0255017
0.12456
-0.182361
-0.0281208
0.177055
-0.150465
-0.106904
0.18376
-0.134068
-0.0460759
0.0772242
-0.175106
0.0695243
0.0347435
-0.186101
0.167018
-0.131122
0.0082143
0.23379
-0.0960698
0.012086
0.261125
-0.0677631
0.0302601
0.259
-0.0687625
0.0167356
0.227704
-0.1032
-0.0141992
0.228882
-0.111277
0.252057
-0.077437
0.00281761
0.277396
-0.0582834
0.0113054
0.290029
-0.0489386
0.034894
0.28337
-0.0556121
0.0200331
0.284519
-0.0524683
-0.0132565
0.297319
-0.0429979
0.286915
-0.0603771
-0.00262046
0.429949
-0.196924
0.00276246
0.436144
-0.199837
0.0109069
0.432596
-0.204424
0.00434445
0.43645
-0.193998
-0.00138664
0.446752
-0.194777
0.439937
-0.207351
-0.006362
0.67762
-0.331812
-0.000672614
0.68239
-0.344683
0.00301811
0.681956
-0.34637
-0.00130709
0.679878
-0.330045
-0.000971386
0.683161
-0.328568
0.687901
-0.347364
-0.00610913
0.913394
-0.33502
-0.00217177
0.916641
-0.344974
0.00102081
0.916653
-0.345901
-0.00117625
0.91372
-0.336272
-0.000597406
0.914418
-0.335963
0.918486
-0.341396
-0.000891749
1.1002
-0.286605
-0.00331506
1.10457
-0.285764
-0.00209914
1.10298
-0.289176
-0.00157344
1.10186
-0.288695
0.000678223
1.10152
-0.287649
1.1036
-0.287318
0.00198483
1.22712
-0.200474
-0.00330087
1.24023
-0.201992
-0.00372927
1.23522
-0.204699
-0.00119776
1.23222
-0.20396
0.00334194
1.23474
-0.204245
1.23439
-0.203818
0.00171776
1.26965
-0.0167499
-0.00145842
1.28503
-0.0168485
-0.00130991
1.27779
-0.0168566
-0.000855575
1.28012
-0.0220275
-0.00299544
1.28603
-0.0224782
1.27234
-0.0192448
0.000796199
0.987766
0.474504
0.000366428
1.00336
0.476813
0.00212977
0.993374
0.480368
-0.00404051
1.00671
0.467081
-0.02002
1.02025
0.462831
0.979108
0.4733
0.0253849
0.485481
0.829655
0.00673159
0.476972
0.904318
-0.00114568
0.471944
0.890078
0.00291649
0.502003
0.852542
-0.0216705
0.514097
0.876705
0.454714
0.865304
0.0130149
0.322936
-0.00348764
0.361702
-0.0198269
0.343445
0.00886649
0.32817
0.0507114
0.347978
0.368958
0.0371288
1.42131
-1.6408
-0.0147077
1.54007
-1.6387
-0.155243
1.59498
-1.58851
-0.0661342
1.37162
-1.63584
0.230181
1.25959
-1.74201
1.63001
-1.53095
0.013007
3.62045
-2.30822
0.021863
3.73675
-2.27329
0.0086694
3.76675
-2.22734
0.0296027
3.5794
-2.3319
0.211433
3.47947
-2.51298
3.85224
-2.08823
0.0185135
6.21036
-2.6667
0.0782291
6.35083
-2.72273
0.0834636
6.38798
-2.68207
0.120527
6.20367
-2.71381
0.203385
6.09753
-2.74392
6.55509
-2.55985
0.0724329
9.07026
-3.12925
0.092768
9.26173
-3.13108
0.0993177
9.28611
-3.10911
0.147722
9.09754
-3.13627
0.251969
8.97752
-3.17901
9.54355
-2.94384
0.0760674
11.7153
-3.05289
0.0778361
11.9526
-3.03729
0.0667158
11.9705
-3.01968
0.111685
11.7671
-3.04454
0.20892
11.6401
-3.08835
12.2809
-2.87579
0.0176644
12.9243
-1.56172
0.0255401
13.1556
-1.55589
0.00851537
13.1898
-1.54816
0.0155377
12.9806
-1.55687
0.0393981
12.8856
-1.60533
13.4507
-1.47183
-0.0230911
11.6503
1.01049
-0.032119
11.874
1.00491
-0.065307
11.9308
1.00305
-0.0500491
11.6624
1.01434
-0.129931
11.674
1.00376
12.0128
1.02063
-0.0113852
7.69116
3.77004
-0.0448157
8.01179
3.69362
-0.0449367
8.01784
3.70837
-0.020142
7.70089
3.73271
-0.132575
7.88411
3.69812
7.94535
3.7311
-0.041115
3.72861
3.98692
-0.0233024
3.89628
4.08085
0.0350825
3.86608
4.07652
-0.000511669
3.74282
3.97164
-0.0990362
3.91407
4.04609
3.76982
4.05726
-0.0261942
1.86783
2.36148
-0.00455947
1.9143
2.43716
0.0365097
1.88073
2.42465
-0.0234456
1.91446
2.3554
-0.0657693
1.9892
2.43002
1.82562
2.35173
0.17301
1.17349
1.35098
0.0270081
1.16184
1.80277
-0.0570493
1.13664
1.71822
0.0125112
1.19057
1.50687
-0.0203403
1.2113
1.68745
1.0949
1.57568
0.00585828
1.49057
0.00128397
1.52812
-0.0215066
1.50288
-0.00321058
1.50044
0.0468113
1.50926
1.51067
0.0379333
-0.527463
-1.15127
0.0741935
-0.591788
-1.08317
0.0515053
-0.564513
-1.0013
0.0218866
-0.506232
-1.09998
0.0415105
-0.497111
-1.26451
-0.574557
-0.914882
-0.021129
-0.284346
-2.53021
0.016653
-0.344611
-2.55825
0.0978244
-0.372367
-2.50066
0.0542632
-0.278731
-2.51584
-0.0119381
-0.243104
-2.70079
-0.350567
-2.32416
4.87701e-05
-0.296028
-2.65507
-0.000681295
-0.298554
-2.76806
-0.0519734
-0.27072
-2.73243
-0.010734
-0.31779
-2.71599
0.080345
-0.342776
-2.73532
-0.159179
-2.67089
-0.020943
-0.373786
-3.03055
-0.0365463
-0.351053
-3.06297
-0.0449561
-0.33426
-3.03716
-0.0461204
-0.395122
-3.05777
-0.000455692
-0.449861
-3.11759
-0.189943
-2.91353
-0.0303941
-0.356731
-3.03955
-0.0452844
-0.333325
-3.04013
-0.0793624
-0.305034
-3.01483
-0.0778284
-0.383517
-3.05768
-0.0210203
-0.476396
-3.11862
-0.188963
-2.89778
-0.0259869
0.205857
-2.09832
-0.0359115
0.213642
-2.09294
-0.0825667
0.264829
-2.07137
-0.0568589
0.163342
-2.12944
-0.0116175
0.0470096
-2.17398
0.3502
-2.02261
-0.0408963
1.08967
0.167577
-0.0119249
1.03757
0.152012
-0.0197466
1.10507
0.170634
0.00282849
1.0114
0.143698
-0.0304703
0.929391
0.154673
1.17121
0.169156
-0.114389
2.8469
2.1272
-0.00931698
2.85218
1.77394
0.0573453
2.89601
1.85077
0.00525927
2.78242
2.01378
0.00693815
2.7484
1.87744
2.96125
1.94799
-0.0372517
3.44349
3.42758
0.00578746
3.65259
3.2374
0.0708631
3.62007
3.28738
0.019655
3.50778
3.29749
0.0527118
3.56725
3.19418
3.70399
3.36722
0.00116167
2.41439
3.38941
0.106603
2.58315
3.40116
0.137934
2.65316
3.36023
0.00857376
2.6447
3.34784
-0.00327197
2.67778
3.33134
2.73534
3.3171
0.238492
1.26534
2.26154
0.122325
1.1423
3.3598
-0.063553
1.21583
3.34143
0.0590199
1.30965
2.71934
0.15454
1.26559
3.00413
1.21684
3.24872
0.0248539
2.73105
-0.0207586
2.71603
-0.0307075
2.72866
0.00983109
2.76956
0.0349774
2.7497
2.76249
0.0739642
0.434037
-0.508001
-0.0914183
0.42886
-0.263477
-0.168811
0.413625
-0.336233
-0.357884
0.41692
-0.227847
-0.383753
0.269042
-0.243173
0.296186
-0.679938
0.0798513
0.813301
-0.459115
-0.10012
0.754559
-0.145728
-0.0117158
0.59677
-0.271549
-0.00996045
0.456621
-0.0414561
-0.289389
0.557696
-0.00922569
0.686881
-0.680084
0.124381
0.977716
-0.288796
-0.0548128
1.06243
-0.128675
0.151458
0.673514
-0.283015
0.152867
0.438403
0.0168082
-0.293421
0.873469
0.130515
0.922877
-0.529417
0.427819
0.951462
-0.401565
0.37033
1.01376
0.106153
0.125471
0.340556
0.577817
-0.119632
0.532297
0.151209
-0.384379
1.16701
-0.0287961
1.14324
-0.604745
0.538553
0.874095
-0.461186
0.634777
0.68374
0.233799
-0.0757238
0.0989179
0.952139
-0.404947
0.519744
0.341777
-0.425863
1.39173
-0.203803
1.41143
-0.694054
0.568269
0.74669
-0.440864
0.816297
0.230675
0.205036
0.357467
0.0172808
0.540467
-0.385518
1.05222
0.210511
-0.584961
1.75095
-0.159779
1.36828
-0.541807
0.737564
0.493125
-0.483999
1.38134
-0.211168
-0.201935
1.66973
-0.436071
0.164966
-0.162294
2.03486
0.849376
-1.01503
2.31715
0.286528
0.655221
-0.301966
0.193563
0.527985
-0.228423
0.683666
-0.329591
-0.37168
1.31074
-0.955556
-0.107587
-0.0773401
1.65912
1.76382
-0.828475
1.71701
1.35128
-0.195722
0.0224678
-0.371422
0.506704
0.392704
-0.616774
-0.136794
0.0525547
-0.344555
-1.21798
-0.00979179
0.00415522
-0.0700311
1.38044
0.00734706
0.00983833
1.70398
-0.655393
0.467018
-0.223626
-0.226974
0.957304
-1.1797
-0.0815966
0.900874
-1.31251
-1.19641
0.111241
-0.407893
-1.52773
0.553073
0.141405
-1.4448
0.905339
-0.856806
0.342819
-0.265253
-0.543311
0.58159
-1.27558
-0.418065
1.34679
-1.61248
-0.809179
-0.0503273
-0.750883
-1.09326
-1.29606
0.248543
-1.07648
-1.36775
-0.594738
-0.0135248
-0.0675163
-0.475795
-0.858181
0.372599
-0.827794
-0.839566
-0.399627
-1.52143
-0.0390705
-1.43703
-0.633809
0.134278
0.368865
-1.01114
-0.176531
0.294328
-0.246996
-1.41056
0.0397091
0.858086
-1.32242
0.241247
-0.557226
-0.293682
0.330467
-1.60238
0.325926
-1.29955
-0.100499
0.707222
-0.696974
-0.454058
0.593773
-0.0916138
-1.44952
0.290273
0.473354
-1.1003
0.402162
-0.551594
-0.0321686
0.624532
-1.37142
0.712563
-1.09889
-0.490294
0.85364
0.0550808
-0.653853
0.865243
-0.236585
-0.623832
0.586625
-0.609388
-0.449382
0.504488
-0.259967
0.0970422
0.756646
-0.548023
0.914901
-0.634712
-0.486091
1.13264
-0.194471
-0.593978
1.06201
0.0172771
-0.368597
0.727217
0.211844
0.112404
0.990511
-0.815816
0.416509
0.941615
-0.517871
1.03903
-0.312369
-0.48328
1.51213
-0.357394
-0.503876
1.41118
-0.0947802
-0.313929
0.922291
0.567118
0.0355733
1.49445
-0.511664
0.597545
1.57671
-1.40087
1.43529
-0.492765
-0.286788
1.88884
-0.530786
-0.340494
2.01006
-0.340136
-0.620496
1.26999
0.472767
-0.61099
1.84351
-0.148058
0.0630626
2.09941
-1.35652
2.10402
-1.14748
0.416596
1.99053
-1.00229
0.324463
2.52764
-0.627379
-0.54013
1.57869
0.72086
-1.04707
2.42208
0.777749
-0.535279
2.26494
-0.390799
2.19377
-0.926991
1.10632
1.54799
-0.892196
1.5744
2.27468
-0.586807
0.197418
1.71263
1.13546
-0.971866
2.38742
2.96776
-0.466638
1.70813
1.40287
1.82696
-0.0773615
1.31091
1.06989
-0.440112
2.86809
0.693893
0.076165
1.79652
1.24267
1.53174
1.28055
1.23691
3.04692
0.802015
0.109098
3.78155
1.88648
1.20951
1.16682
0.640131
0.220246
2.04524
-0.985839
1.70219
1.22281
-0.483951
2.66029
0.721957
-0.635751
2.92659
0.594904
-1.21773
2.35922
1.1007
1.72351
0.605895
-0.0531691
0.668996
0.568487
-1.1065
1.50486
-0.098617
-1.17757
1.3104
-0.279288
-1.1039
-0.64724
0.210984
-1.18361
-1.89214
0.031042
1.26712
0.685481
-1.21445
1.39067
-1.43909
1.00288
-1.62935
0.227167
-1.84961
-0.427748
-1.96573
-1.03051
0.00565776
0.10662
-1.12342
0.232028
0.187023
-0.660388
-0.352821
-0.0192786
1.46221
-0.651699
0.0478719
-0.30622
-0.120007
0.0855901
-2.21966
0.285517
-1.70507
-0.61412
0.573626
-0.549858
-0.628131
0.620413
-0.510989
-0.475909
-0.0846549
0.386512
-0.207996
0.0464887
-0.818121
0.0843726
0.339761
-1.91796
0.814355
-1.54336
-0.167076
0.787858
0.00792603
-0.138507
0.45987
-0.104611
-0.316973
-0.344201
-0.171373
0.0828854
-0.0509121
-0.562423
0.378169
0.504307
-1.00785
1.02511
-0.467296
-1.03392
0.945741
0.681564
-1.14651
0.482228
0.107512
-0.214782
0.105719
-1.1698
0.410085
0.196673
-1.68827
0.412859
0.678627
-0.694963
0.0136573
1.11194
-2.13957
1.19715
1.53076
-1.9119
1.199
-1.03922
-0.0851673
1.11932
-2.27322
1.60317
1.06983
-3.07316
1.76631
0.947376
-1.83276
-0.113435
1.40064
-3.31575
1.79625
2.18586
-2.23535
1.9813
-2.20285
-0.428001
2.14521
-2.36047
1.12461
2.1903
-2.82114
1.59213
2.06712
-2.94379
1.8396
-1.50838
-2.29066
2.39357
0.691044
-1.45273
2.67814
-2.16214
-0.960392
2.43776
-0.0640216
-0.273887
2.44141
-0.15986
0.552522
2.31129
-1.46138
2.76673
-1.3016
-0.826039
2.93199
-0.604571
-0.701895
3.11501
-1.14783
-1.67481
2.80095
1.74519
-1.05052
2.18675
2.59813
-0.00946068
1.63913
1.03397
3.09826
-0.418353
0.195673
3.44102
-1.14482
1.03154
2.27163
0.0836704
0.417237
2.10573
2.84127
-0.0152318
0.940356
4.72577
0.0978419
0.660299
4.6473
3.72645
0.679156
0.936246
3.47926
-0.754236
1.71406
1.3291
1.86691
0.921146
0.4722
5.08673
-0.0665604
-0.440717
5.29536
-0.565947
-0.660213
4.17912
1.95177
2.93224
1.63547
1.71002
0.802762
1.53301
0.227043
2.70938
1.04328
-0.769151
3.04148
0.00797147
-1.10933
1.05668
-0.315353
-1.09112
-1.13791
-0.143843
3.04737
1.73247
-1.2369
2.26578
-1.74536
1.6468
-1.77952
0.573529
-1.88567
-0.509739
-1.97358
-1.6841
-0.391478
0.109135
-0.841077
-0.0247875
0.0948701
-1.12194
1.06516
-0.0641345
0.436407
1.23154
-0.0746937
-0.39791
0.633557
-0.0472413
-1.57443
0.0398557
-1.11137
-0.36131
0.927853
-1.00726
0.147556
0.695766
-1.62075
0.836171
0.713186
-1.07942
0.8793
0.455981
-1.39192
0.488953
0.224175
-1.79903
0.471142
-1.48569
-0.218544
1.55892
-0.404597
-0.0709331
1.71633
-1.27278
0.140988
1.45655
-1.12666
0.409286
1.11258
-1.48732
0.246313
1.07144
-1.69214
1.2558
-1.00564
0.112494
1.51597
0.612022
0.154516
2.48697
-0.705148
0.274368
1.9988
-1.8319
0.139523
1.51556
-1.9564
-0.0341628
1.93664
-1.38648
1.72085
0.612733
0.403094
1.17809
1.46555
0.537522
2.45556
-1.14223
1.09043
1.83679
-2.66412
0.900184
1.42437
-2.79172
0.459183
2.16606
-1.62118
2.07868
1.502
0.398642
1.29438
1.67093
0.310941
2.32413
-1.98372
1.23381
1.83755
-3.2841
2.00569
1.74005
-3.9087
1.32913
2.11803
-2.21921
2.01601
-0.11658
-0.400642
1.44408
0.941987
-1.39213
2.83101
-1.67754
-0.103102
2.81211
-2.32761
0.900368
2.6514
-2.07469
0.988474
2.449
-1.88046
2.36333
-0.660438
-1.35917
2.29603
-0.0973489
-2.05307
3.25654
-0.879457
-1.32043
2.8088
1.01585
-0.0534612
2.15036
1.83221
0.720103
1.95735
0.75206
2.83207
-0.166987
-1.5357
3.13243
-0.445518
-2.22133
3.0942
0.931626
-2.08893
1.80697
3.71069
-0.749252
0.776426
4.76003
0.52976
1.63374
3.6919
3.26921
0.771774
-0.698261
3.16217
-0.0857128
-0.864712
2.84675
2.28081
-1.25603
1.33281
5.9522
-1.34456
0.594011
5.56631
-0.781618
0.43716
4.81275
2.52895
2.89088
1.3421
1.41366
1.20917
2.06527
1.41451
3.41845
1.44963
0.486989
4.50294
-0.109519
-0.0376977
3.24753
-1.04853
-0.759122
0.997378
0.588464
3.93933
1.18572
-1.00897
1.70711
-0.852238
1.54285
-1.12827
0.839006
-1.21952
-0.417989
-1.47571
-1.51362
0.0836373
-0.908389
-0.326519
0.0338882
-0.668971
-0.36445
-0.110107
-0.509038
-0.348271
-0.0876522
-0.777137
-0.345297
-0.0189402
-0.971498
-0.361726
-0.493113
-0.440709
-0.241373
-0.327177
-0.339839
-0.0528763
-0.568445
-0.289022
0.291147
-0.617774
-0.235286
0.199578
-0.346241
-0.339327
0.00569487
-0.386162
-0.391452
-0.171639
-0.315779
-0.351937
-0.294914
-0.00431729
-0.232661
0.5245
-0.17863
0.365177
-0.287557
0.0890078
-0.327021
-0.303069
0.015447
-2.78024
-0.0919305
-0.0250148
-2.79158
-0.0906604
-0.0024763
-2.75656
-0.114908
-0.00677018
-2.76707
-0.0897774
-0.0853632
-2.8819
-0.10202
-2.64568
-0.204555
-0.00843644
-2.92388
-0.187763
-0.0197171
-2.90582
-0.163494
0.0259685
-2.88545
-0.152075
0.0270005
-2.91827
-0.189153
-0.0662844
-2.97726
-0.202807
-2.85092
-0.17682
-0.0265229
-0.161792
-0.0111918
-0.153306
0.0511609
-0.149755
0.0375706
-0.167252
-0.0279679
-0.173213
-0.168892
0.0339432
-2.45565
-0.325299
0.0206364
-2.518
-0.327416
0.00278577
-2.50451
-0.324974
0.0126312
-2.48773
-0.32789
0.00899755
-2.49145
-0.342265
-2.5147
-0.351747
0.0191504
-2.46436
-0.198198
0.0163014
-2.48123
-0.197408
0.0325952
-2.47901
-0.193866
0.0320593
-2.47626
-0.200083
0.0234274
-2.47709
-0.208531
-2.47787
-0.190228
0.00226278
-0.149897
0.00148602
-0.147984
0.00752787
-0.146356
0.00190145
-0.151546
-0.00350084
-0.1562
-0.155388
-0.00388865
-2.58931
-0.762659
-0.0146436
-2.61253
-0.767102
-0.00866419
-2.60074
-0.767372
-0.031186
-2.59546
-0.767679
-0.0853912
-2.62597
-0.779678
-2.56521
-0.785456
0.00776821
-2.51324
-0.282038
-0.00128016
-2.51482
-0.286078
0.00357862
-2.51006
-0.289403
0.00329968
-2.51038
-0.284885
-0.0206105
-2.52126
-0.289336
-2.48474
-0.291313
-0.00454541
-0.176994
-0.00517271
-0.176517
-0.000107374
-0.176459
-0.00306743
-0.177629
-0.0122434
-0.17823
-0.178565
-0.0188362
-2.42806
-1.35531
-0.0144409
-2.44872
-1.36291
-0.012331
-2.43702
-1.3473
-0.0270959
-2.43762
-1.37298
-0.06359
-2.45859
-1.40321
-2.40354
-1.3433
0.00218426
-2.22231
-0.489967
-0.00241192
-2.22895
-0.501255
-0.00210907
-2.22499
-0.501724
-0.00596945
-2.22236
-0.496279
-0.0165186
-2.22538
-0.51199
-2.20684
-0.504524
-0.00126415
-0.211622
-0.00366511
-0.208717
-0.00224543
-0.210851
-0.00503907
-0.208572
-0.00903867
-0.210615
-0.20898
-0.0223001
-1.87224
-1.55909
-0.012561
-1.8772
-1.58837
-0.0225735
-1.86003
-1.54862
-0.00737454
-1.89523
-1.62238
-0.00160046
-1.90291
-1.68005
-1.83615
-1.53135
-0.024358
-1.82272
-0.515134
-0.0123152
-1.82186
-0.568644
-0.00899429
-1.81279
-0.552286
-0.0221249
-1.8235
-0.554882
-0.027252
-1.82754
-0.582238
-1.78727
-0.580658
0.000591722
-0.211916
-0.00508851
-0.200915
-0.00043472
-0.213674
-0.000185656
-0.211291
-0.00524844
-0.212449
-0.201526
0.0349291
-0.824766
-0.601673
0.026404
-0.857865
-0.569972
-0.00881438
-0.816059
-0.526707
0.0570442
-0.859493
-0.685051
0.0479868
-0.826288
-0.690034
-0.804909
-0.5093
-0.000676357
-1.39771
0.0584842
0.0038777
-1.42134
-0.00972284
0.00173123
-1.39453
0.0283234
-0.00428025
-1.4184
0.0100336
-0.0274905
-1.40544
0.0201242
-1.36423
-0.0488306
0.00733362
-0.119677
-0.00138948
-0.0977601
0.00169507
-0.120018
-0.0114168
-0.106747
-0.00199023
-0.130865
-0.108972
-0.301203
0.262657
1.56407
-0.0159005
-0.368877
1.28755
0.111099
-0.277408
1.47447
-0.0635201
0.0418198
1.46153
-0.223806
-0.084183
1.43187
-0.172504
1.38739
-0.583739
-0.258543
1.16342
-0.0723181
-1.26246
0.372441
0.146546
-1.17872
0.710773
-0.236998
-0.683325
1.11872
-0.542275
-0.610914
0.852134
-1.1573
0.393691
0.00388635
-0.147544
-0.090616
0.0380306
-0.0377213
-0.166011
0.0484269
-0.145013
0.0999113
-0.214849
0.0910373
-0.363561
2.01164
3.34358
-0.10258
1.24118
3.02278
-0.0202051
1.52757
3.15191
-0.210783
1.65405
3.29555
-0.205047
1.38573
3.23458
1.46059
3.08897
-0.706845
1.87785
2.00406
0.126942
-0.485967
1.26581
0.132119
0.793608
1.43956
-0.652901
1.57234
1.98545
-1.18004
1.18494
1.58006
-0.534811
1.20906
-0.584905
-0.615154
0.11464
-0.267327
0.202006
-0.640383
-0.460641
-0.624315
-0.793507
-0.835693
-0.209714
0.22976
3.95348
2.54975
-0.0741554
3.82817
2.89968
-0.134326
3.8412
2.73112
0.00729836
3.77243
2.72934
0.0843293
3.79224
2.69665
3.80114
2.68927
0.415284
4.91988
0.622373
-0.0707315
4.82385
0.75614
-0.222805
4.86847
0.56435
0.137562
4.71271
0.684803
0.191802
4.80416
0.513899
4.67652
0.525487
-0.060887
-1.38809
0.0616013
-1.41047
0.044357
-1.51071
-0.00554168
-1.41457
-0.170632
-1.63552
-1.34969
0.271485
3.84609
0.693719
-0.205101
5.20476
1.5313
-0.221304
4.87435
1.2144
0.0718573
4.19187
0.963643
0.374242
4.3287
1.06969
5.06452
1.24771
0.180122
4.3242
-0.0358573
-0.135505
5.87375
0.402779
-0.0992446
5.24445
0.157979
0.116105
4.54798
0.113349
0.147608
4.68078
0.130315
5.57082
0.1668
-0.149268
-0.943802
-0.0230397
-0.966852
0.0810486
-0.978869
-0.0012538
-0.916181
-0.217432
-0.988049
-0.954714
0.0102122
2.61668
0.797883
-0.043901
3.35546
0.945981
-0.0626211
3.12222
0.839563
-0.000436027
2.77326
0.897757
0.0807986
2.76359
0.974574
3.27394
0.817058
-0.185976
2.01488
0.751915
0.0227752
2.60395
0.945534
0.111861
2.30168
0.88943
-0.0343376
2.1821
0.850702
-0.143318
2.10073
0.902152
2.45987
0.837557
-0.0320394
0.414647
-0.00793746
0.539553
-0.000185012
0.516534
-0.00911436
0.472419
0.0255102
0.488768
0.469814
0.0222094
-0.538667
-0.54697
1.06343
0.0559275
-0.545481
-0.55446
1.06622
0.0214229
-0.672123
-0.56726
1.27389
-0.0371719
-0.663865
-0.614848
1.33731
-0.0878372
-0.638469
-0.667889
1.35702
-0.635556
-0.620483
1.1682
0.24598
-0.314263
0.083586
-0.55397
0.476475
-0.333324
-0.0703347
-0.372318
0.364557
-0.271373
-0.284242
-0.00459061
0.110058
-0.126268
-0.280567
-0.00253065
-0.0153636
-0.17238
0.111806
-0.452475
-0.26389
0.467684
-0.854714
0.0227911
0.238801
-0.584163
0.165916
0.171832
-0.623963
0.187777
0.289989
-0.890543
0.101649
0.626186
-1.31852
0.110609
0.696084
-1.39776
0.609605
-1.10745
0.00807694
-0.38099
-0.174057
0.00982407
-0.374374
-0.181833
0.0121621
-0.371394
-0.198204
0.00332661
-0.402926
-0.203087
-0.0113387
-0.45862
-0.194605
-0.447898
-0.183924
0.0608501
-0.0931968
-0.265057
0.0642099
-0.105441
-0.342628
-0.0509981
-0.10718
-0.433249
-0.232496
-0.0962578
-0.405737
-0.214471
-0.120583
-0.244255
-0.0877487
-0.106938
-0.0507513
-0.0528533
-0.127632
-0.0644728
-0.129157
-0.0277734
-0.0488057
0.134529
0.0118972
0.132024
0.104187
0.00360368
-0.140673
-0.0369881
0.00818845
-0.14131
-0.0451084
0.00219431
-0.149252
-0.0429573
-0.00427302
-0.152738
-0.0438811
-0.00290083
-0.153263
-0.0427139
-0.146076
-0.0407494
0.0258268
0.0210248
-0.452582
0.0212372
0.0146357
-0.493984
-0.0416096
0.0124847
-0.532139
-0.116755
0.0220525
-0.505384
-0.0985557
0.0373276
-0.453047
0.0588406
-0.410411
-0.0330909
-0.22253
-0.0777291
-0.223368
-0.111662
-0.21195
-0.0483426
-0.169622
-0.00760611
-0.160723
-0.149165
0.00028795
-0.0505636
0.0132875
0.0037381
-0.0453102
-0.00324838
0.00182907
-0.0479145
0.00686622
-0.00056158
-0.0430155
0.00152505
-0.00185598
-0.0399556
-0.00146407
-0.0468806
0.00427502
-0.0287581
0.132781
-0.607168
-0.0222657
0.133762
-0.679549
-0.0164193
0.137308
-0.723208
-0.0313962
0.144616
-0.678039
-0.0296841
0.150821
-0.645537
0.143871
-0.630848
-0.0221258
-0.406434
-0.028271
-0.427223
-0.0325116
-0.422956
-0.0183747
-0.398487
-0.0034677
-0.393609
-0.380634
-0.00378112
0.16259
-0.145521
0.00439653
0.1705
-0.181926
-0.0130235
0.160783
-0.136497
-0.00527426
0.190866
-0.19709
0.0218516
0.206895
-0.235485
0.144355
-0.118229
-0.0203199
0.443315
-0.867573
-0.0074048
0.449696
-0.97166
-0.039901
0.455484
-0.985413
-0.0232586
0.450906
-0.954722
0.0337693
0.458808
-0.954478
0.448593
-0.901315
-0.0327095
-0.557814
-0.0218128
-0.624073
-0.0143039
-0.622016
-0.00243009
-0.595262
0.0139931
-0.595045
-0.573619
-0.0340743
0.686436
0.00414728
0.725833
0.0113849
0.695828
-0.0100154
0.722068
-0.0155655
0.744639
0.683264
-0.0346306
0.605408
-0.001369
0.666445
-0.0426772
0.641153
-0.0367073
0.612077
0.0460205
0.609585
0.665526
-0.0583138
-0.00669815
-0.00180666
-0.010297
0.0188259
-0.113267
-0.675647
-0.052162
-0.17406
-1.14226
0.0811119
0.589015
-0.447527
0.12086
0.835229
-0.815977
0.171853
0.363039
-1.23887
0.136628
-0.824751
0.0764236
0.12698
-0.82134
0.0187131
-0.00962062
-1.09486
0.0891982
0.0269811
-0.486406
0.00227877
-0.032259
-0.876991
0.120255
-0.170995
-1.22655
0.126414
-1.0532
0.0574543
0.0432094
0.0810566
-0.0760036
0.0732442
0.0741014
0.0343258
0.146744
0.0683054
0.0341089
0.0697151
0.06259
-0.00275435
-1.26708
0.210414
-0.0429919
-1.53552
0.0361241
0.268796
-1.41927
0.148923
0.352153
-1.49312
0.189692
0.218561
-1.63782
0.109015
-1.39616
0.205454
0.142959
-1.27442
-0.116911
0.112652
-1.36751
-0.0485069
-0.0168395
-1.33007
0.0425703
-0.0617352
-1.40035
0.0723845
-0.105508
-1.50351
0.0358734
-1.38652
-0.0576925
0.0446984
0.0595322
0.0173191
0.0848217
0.0494653
0.0647377
0.0718006
0.0599762
0.00485463
0.0534419
0.0275523
0.0905225
-0.878393
0.59369
0.166517
-1.64328
0.330627
0.4482
-1.58222
0.322809
0.418845
-1.62442
0.356153
0.225826
-1.76806
0.377963
-1.36309
0.78873
0.360937
-1.13098
-0.225263
0.217384
-1.37792
-0.170311
0.028262
-1.32689
-0.0236401
-0.0455486
-1.46844
-0.00978727
-0.0970587
-1.58345
-0.0972265
-1.43338
-0.0844595
0.0847121
0.0491282
0.00764656
0.0970308
0.0461797
0.0715386
0.0368596
0.0547756
-0.0440462
0.011563
-0.0467669
0.665914
-0.355159
0.894958
1.04317
-1.58404
0.832267
0.714605
-1.92493
0.744406
0.11762
-1.83181
0.828549
-0.264032
-1.82431
1.19745
-0.699941
1.83737
0.594264
-1.05799
-0.116693
0.418767
-1.4795
-0.0993607
-0.0421116
-1.58044
0.0927414
-0.262319
-1.70008
0.078698
-0.407722
-1.75187
-0.0242655
-1.41173
0.219603
0.136826
0.0160751
0.0138054
0.061258
-0.0356069
0.0427776
-0.0708953
0.00872609
-0.139308
-0.0996248
-0.151201
1.56799
-0.176468
0.968995
1.90995
-1.72736
1.07543
1.16989
-2.1253
0.945645
-0.00596505
-1.81986
1.03255
-0.636135
-1.60843
1.81487
-0.0721416
2.77538
0.69503
-1.06829
0.0800985
0.42542
-1.68912
0.132012
-0.125324
-1.83479
0.352976
-0.433463
-1.79054
0.357512
-0.667762
-1.76341
0.365008
-1.26477
0.744472
0.143093
-0.0325121
-0.0306772
0.0131834
-0.169274
0.0425281
-0.156064
0.00274935
-0.195684
-0.150732
-0.16001
2.34068
-0.453611
0.752856
2.43061
-1.96288
0.964664
1.56525
-2.65012
1.17702
-0.0080624
-2.59617
1.29333
-0.424888
-1.6461
1.6586
-0.175587
2.4095
0.771307
-1.29099
0.146168
0.698904
-2.23045
0.471988
0.0465938
-2.44436
0.79953
-0.79536
-2.15208
0.755376
-0.888287
-1.86921
0.681038
-1.25722
0.937823
0.172803
-0.0756891
0.00383275
-0.0364298
-0.245787
0.0894718
-0.276284
0.0415036
-0.300339
-0.123323
-0.247553
1.58182
-0.63491
0.74793
1.14972
-2.05383
1.77307
0.860652
-3.34271
2.48118
0.418058
-2.83593
2.49717
-0.226737
-1.57656
1.99949
-0.385784
1.9081
0.891402
-1.42732
0.0471733
0.953675
-2.66693
1.02281
0.00460086
-3.48515
1.89105
-0.933234
-2.66052
1.51781
-1.17303
-1.56467
0.908939
-0.841911
0.220923
0.388812
-0.274385
0.325903
-0.062671
-0.446473
0.575356
-0.739167
0.0983953
-0.585535
-0.260567
-0.68223
-0.290805
-0.506101
1.44749
-0.884237
-1.19069
2.67773
-0.455459
0.0267291
3.04153
0.533041
0.708049
2.63282
0.434977
0.468002
2.38162
0.0338002
2.14229
-0.0728552
-0.924817
0.538745
-0.132942
-1.79228
1.68449
-0.802942
0.316893
2.27089
-0.219082
-0.274303
1.9163
-0.317471
0.191431
1.2839
0.17385
-0.236599
0.221721
-0.216535
-0.0585493
0.385137
-1.60795
1.09772
-1.15758
0.332814
-0.542168
-0.373806
-1.08201
-1.91817
0.381564
2.53857
-2.70509
1.41153
2.98475
-1.63211
3.21301
2.46623
-0.0422171
3.7775
2.02546
0.745684
2.87252
2.4131
1.45681
2.20294
-1.80212
1.08891
1.63352
-2.32993
1.63901
1.98482
-1.60095
3.18397
1.57096
-0.2068
3.16839
1.13126
0.540499
2.49951
0.90961
1.84353
-0.0828226
-0.729745
0.461254
-1.27433
0.932164
-1.62902
0.650407
-1.00053
0.0151577
-0.318841
-0.499073
-0.77472
-1.69614
1.2397
2.9093
-2.796
3.09052
3.2749
-2.60499
5.94557
2.28186
-1.78207
5.15565
1.6132
-0.337713
4.49667
1.28482
2.95759
1.79852
-1.86453
2.5898
2.14795
-3.08504
3.63741
2.65844
-2.77898
5.28733
1.92313
-1.90695
4.05105
1.36382
-0.515711
3.16607
0.848964
2.31432
0.0447354
-0.651406
0.744109
-1.48354
1.59559
-1.33825
1.32455
-1.0402
0.887333
-0.562405
0.404507
-0.334268
0.232066
2.94192
0.94449
0.896769
4.56887
1.45977
0.919957
5.95026
0.811351
-0.0381601
5.36956
0.449289
-1.35733
3.89403
-0.292664
4.13726
0.243256
0.0741117
3.60278
1.41297
0.427461
4.91697
1.95699
0.831247
5.89331
1.57629
0.634589
5.52645
1.40358
-0.20979
4.4513
1.13607
3.18079
0.791413
0.374489
0.399696
0.834315
1.2204
1.22205
1.52613
1.04883
1.64236
0.373963
1.38052
0.486572
0.291079
0.707873
0.816612
1.14823
1.0209
0.752672
0.864609
0.723367
0.127301
0.325959
0.0251357
0.483575
1.0833
1.39848
1.818
1.79495
1.9279
1.77632
2.14304
0.897472
1.88841
0.859306
0.424906
1.25956
1.54745
1.25152
0.767076
)
;

boundaryField
{
    seabed_topleft_surface
    {
        type            calculated;
        value           uniform 0;
    }
    seabed_topright_surface
    {
        type            calculated;
        value           uniform 0;
    }
    breakwater_top_surface
    {
        type            calculated;
        value           uniform 0;
    }
    breakwater_left_surface
    {
        type            calculated;
        value           uniform 0;
    }
    breakwater_right_surface
    {
        type            calculated;
        value           uniform 0;
    }
    water_front_surface
    {
        type            calculated;
        value           uniform 0;
    }
    water_back_surface
    {
        type            calculated;
        value           uniform 0;
    }
    water_left_surface
    {
        type            calculated;
        value           uniform 0;
    }
    water_right_surface
    {
        type            calculated;
        value           uniform 0;
    }
    water_top_surface
    {
        type            calculated;
        value           nonuniform List<scalar> 
180
(
0.319674
-0.683402
-0.967959
0.10064
0.21703
0.220438
-3.03048
-3.00051
-2.97668
-3.02498
-3.06553
-3.01307
-2.47852
-2.48578
-2.48846
-2.48634
-2.4887
-2.49487
-2.48159
-2.48566
-2.48503
-2.48134
-2.49005
-2.4738
-2.18642
-2.19434
-2.19202
-2.18862
-2.189
-2.18547
-1.82301
-1.82398
-1.81462
-1.82103
-1.82065
-1.79997
-1.49728
-1.51577
-1.49127
-1.50983
-1.49645
-1.45877
-0.234564
-1.30375
-1.18562
-0.731204
-0.578412
-1.2574
2.93036
-0.880152
1.18061
2.71429
2.13865
-1.02757
5.75371
5.8445
5.75605
5.55286
5.76908
5.64586
4.02918
5.30391
4.60852
4.13189
4.24949
4.95841
0.688474
1.07344
0.798527
0.802435
0.589288
1.06085
0.00830798