/*--------------------------------*- C++ -*----------------------------------*\
| =========                 |                                                 |
| \\      /  F ield         | OpenFOAM: The Open Source CFD Toolbox           |
|  \\    /   O peration     | Version:  v1612+                                |
|   \\  /    A nd           | Web:      www.OpenFOAM.com                      |
|    \\/     M anipulation  |                                                 |
\*---------------------------------------------------------------------------*/
FoamFile
{
    version     2.0;
    format      ascii;
    class       volVectorField;
    location    "9.1";
    object      U;
}
// * * * * * * * * * * * * * * * * * * * * * * * * * * * * * * * * * * * * * //

dimensions      [0 1 -1 0 0 0 0];

internalField   nonuniform List<vector> 
1116
(
(0.0755474 0.00323005 0.0923237)
(0.0266633 -0.0153897 0.09601)
(0.0118026 0.0302697 0.0871345)
(0.119017 0.0298092 0.0897101)
(0.167904 -0.00230353 0.0958114)
(0.024863 -0.0477635 0.0807619)
(0.0534509 0.0178732 0.29817)
(0.0168824 -0.00305736 0.317512)
(0.00448753 0.00775242 0.329069)
(0.065179 -0.0235566 0.306788)
(0.0953515 0.0208924 0.315163)
(0.000823629 -0.0176615 0.321933)
(0.0259952 0.00848617 0.156316)
(0.0083788 -0.0016025 0.166915)
(0.00186195 0.00156291 0.178083)
(0.0219416 -0.0211002 0.153648)
(0.0368459 0.0101213 0.152325)
(-0.0163229 -0.00395607 0.167489)
(0.0719465 0.00144941 -0.0796358)
(0.0639192 -0.00184278 -0.0832125)
(0.0612527 -0.000779436 -0.0805168)
(0.0682424 -0.011107 -0.0829135)
(0.0748563 0.000210282 -0.085178)
(0.044989 -2.50494e-05 -0.0873671)
(0.18037 -0.000572334 -0.266572)
(0.171848 -0.00290203 -0.273208)
(0.170699 0.00107685 -0.274761)
(0.179151 -0.00296806 -0.266688)
(0.185708 -0.00203172 -0.266472)
(0.161805 -0.00295349 -0.277506)
(0.370558 -0.000549698 -0.27991)
(0.360439 -0.00197119 -0.283848)
(0.361617 0.00126356 -0.286382)
(0.368271 0.000518527 -0.27865)
(0.37462 -0.00175977 -0.279423)
(0.357244 -0.00414049 -0.283839)
(0.602262 0.00192757 -0.21836)
(0.591037 -0.00050151 -0.223051)
(0.592563 -0.000181564 -0.225072)
(0.599979 -0.000268706 -0.218346)
(0.607427 -0.000930448 -0.215639)
(0.58707 -0.0012001 -0.223094)
(0.833628 0.00326538 -0.126501)
(0.827428 -1.63616e-05 -0.142315)
(0.828128 -0.00150023 -0.14157)
(0.833501 -0.00156522 -0.12934)
(0.832675 -0.00122766 -0.119022)
(0.824341 -9.74514e-05 -0.151502)
(0.91207 -0.00374829 -0.0618003)
(0.919507 -0.0029404 -0.0714362)
(0.918516 0.000633375 -0.0674813)
(0.913796 -0.00104706 -0.0665764)
(0.902456 -0.00567092 -0.0681824)
(0.920207 -0.00533753 -0.0769119)
(0.726464 -0.00798907 -0.227229)
(0.715421 -0.0036403 -0.210807)
(0.718729 0.000714426 -0.2074)
(0.727706 0.000449634 -0.233705)
(0.720278 -0.00298096 -0.253697)
(0.714158 -0.00481453 -0.194226)
(-0.171311 -0.00218967 -0.647887)
(-0.213764 0.00329259 -0.637036)
(-0.21037 -0.00134784 -0.636356)
(-0.1673 0.00220529 -0.647078)
(-0.153707 0.00251396 -0.666538)
(-0.221699 0.00191431 -0.618179)
(-0.637093 0.022 -1.15844)
(-0.67652 0.0131969 -1.14597)
(-0.671885 -0.0129768 -1.15589)
(-0.635463 0.00341349 -1.15745)
(-0.615821 0.0183001 -1.15912)
(-0.676667 0.0213542 -1.13748)
(-0.00410734 0.00184592 -0.268173)
(0.129754 0.0420521 -0.24829)
(0.145079 -0.102593 -0.249246)
(-0.162769 -0.0879103 -0.28723)
(-0.308744 0.00696921 -0.287194)
(0.105364 0.11024 -0.263814)
(0.454795 -0.0282572 -0.23698)
(0.529346 0.0485987 -0.258888)
(0.539216 -0.0243324 -0.255129)
(0.427143 0.0760454 -0.204291)
(0.412043 -0.0500502 -0.150216)
(0.511905 0.0308477 -0.258563)
(0.504099 -0.0231714 -0.217136)
(0.5397 0.0319331 -0.224369)
(0.524627 -0.00669533 -0.217612)
(0.515689 0.0645686 -0.208334)
(0.540663 -0.0330097 -0.195537)
(0.523408 0.0159554 -0.226338)
(0.652288 -0.0129363 -0.0937722)
(0.665581 0.00952605 -0.0926927)
(0.653508 -0.00309468 -0.0898471)
(0.670058 0.0205374 -0.0964035)
(0.699958 -0.0141222 -0.104696)
(0.668115 0.012985 -0.10543)
(1.09962 -0.00855081 -0.0532157)
(1.11056 -0.00206678 -0.0540214)
(1.10769 0.000382087 -0.0547363)
(1.10736 0.00470669 -0.0543775)
(1.1178 -0.00768868 -0.0578956)
(1.12129 0.00652457 -0.069908)
(1.5802 -0.00512585 -0.0866115)
(1.58792 -0.0051801 -0.0871885)
(1.58853 0.000671673 -0.0893557)
(1.58141 0.000945196 -0.0851526)
(1.58379 -0.00370508 -0.0827388)
(1.59363 0.00304437 -0.0999421)
(1.99744 0.000658446 -0.138922)
(2.00152 -0.0025738 -0.132695)
(2.00119 -0.00306721 -0.135647)
(1.99772 -0.0017453 -0.136698)
(1.99903 -0.000670022 -0.132805)
(2.00104 0.00156467 -0.143191)
(2.32947 0.00379625 -0.144242)
(2.34773 -0.00120843 -0.129447)
(2.34037 -0.00401267 -0.134109)
(2.33723 -0.00372537 -0.140303)
(2.33806 0.00202597 -0.132566)
(2.34063 0.00310195 -0.138546)
(2.58699 0.00400025 0.148536)
(2.6238 -0.00155719 0.14757)
(2.60954 -0.000899194 0.147837)
(2.60114 -0.00101434 0.148862)
(2.60841 -0.00134824 0.151357)
(2.60738 -0.00321533 0.142233)
(2.65423 0.00301012 0.959476)
(2.68103 0.000370961 0.950775)
(2.66682 -0.000266233 0.957776)
(2.6805 0.00401711 0.94367)
(2.69679 -0.0133293 0.938303)
(2.6492 -0.0197927 0.957101)
(1.51568 0.0203656 1.99108)
(1.55791 0.0216978 2.02374)
(1.52985 -0.0100726 2.02213)
(1.55696 0.00957623 1.99124)
(1.59522 -0.00680651 1.99325)
(1.49082 -0.0255048 2.01072)
(1.36863 0.00266177 0.514927)
(1.30975 0.01525 0.569597)
(1.30968 -0.0182768 0.531556)
(1.40617 -0.0175294 0.529638)
(1.44152 0.030742 0.609723)
(1.27349 0.0649523 0.548552)
(0.982642 -0.0565179 -0.835713)
(1.23363 0.140166 -0.704044)
(1.43585 -0.180602 -0.619483)
(0.807278 -0.115923 -0.78031)
(0.579144 0.0226973 -0.843299)
(1.42173 0.352721 -0.586091)
(5.00492 -0.0928021 -0.524321)
(5.26596 0.129815 -0.384583)
(5.29412 -0.0831432 -0.379347)
(4.94171 0.0854073 -0.589261)
(4.71713 -0.007491 -0.705891)
(5.40961 0.382457 -0.383426)
(9.76426 -0.121158 -0.537926)
(9.96796 0.165588 -0.493373)
(10.051 -0.0305824 -0.509772)
(9.70494 0.200489 -0.541979)
(9.50836 0.0119675 -0.539367)
(10.2889 0.370584 -0.489437)
(14.8704 -0.105205 -1.34445)
(15.1944 0.216093 -1.35306)
(15.2569 -0.033706 -1.37473)
(14.8953 0.242594 -1.32693)
(14.693 0.0436529 -1.32867)
(15.6801 0.398623 -1.34804)
(20.0126 -0.109052 -2.18878)
(20.4722 0.238815 -2.24427)
(20.5096 -0.0857004 -2.24978)
(20.1112 0.217174 -2.17534)
(19.8511 -0.0055821 -2.16968)
(21.1359 0.413392 -2.21404)
(25.1142 -0.158775 -2.14206)
(25.6194 0.197753 -2.19053)
(25.6587 -0.157753 -2.19225)
(25.2371 0.185635 -2.14357)
(24.9648 -0.186427 -2.1492)
(26.3196 0.300808 -2.14569)
(26.4751 -0.15682 -0.997311)
(26.8592 0.111082 -1.0196)
(26.9508 -0.189854 -1.02802)
(26.5622 0.111363 -0.999804)
(26.455 -0.271881 -1.0082)
(27.3047 0.116788 -0.991733)
(20.9759 -0.0860595 0.4952)
(21.5627 0.0459158 0.465189)
(21.6761 -0.125597 0.455989)
(20.9848 0.0741772 0.476131)
(21.1671 -0.153846 0.458138)
(21.6501 -0.0233693 0.4689)
(9.93672 -0.0682433 0.0321979)
(10.5566 -0.0297046 0.0826402)
(10.4828 -0.0029788 0.0719664)
(9.93556 0.0707399 0.0129211)
(10.4437 -0.0780836 0.0441588)
(10.2459 -0.0863317 0.0583519)
(4.9486 -0.022451 0.743294)
(5.04974 -0.019485 0.761923)
(5.00123 0.0132834 0.766025)
(4.99115 0.0386343 0.730223)
(5.21045 -0.06758 0.733367)
(4.83824 -0.0671659 0.734514)
(2.54889 0.171925 1.10618)
(2.58131 0.118388 1.31644)
(2.48934 -0.0902117 1.26458)
(2.6323 0.0107348 1.1628)
(2.66923 0.00257636 1.24437)
(2.4419 -0.027699 1.17723)
(3.34435 -0.00760156 0.926497)
(3.35545 0.0145233 1.03437)
(3.33804 -0.00966479 0.995013)
(3.37807 -0.0294269 0.930586)
(3.4735 0.0217461 0.932357)
(3.1872 0.0556295 1.07936)
(-1.80748 -0.0655058 -3.96038)
(-1.90809 0.150786 -4.04936)
(-1.57775 -0.0194559 -3.95787)
(-1.80581 0.102731 -3.98587)
(-1.89666 -0.0582453 -4.27372)
(-1.55608 0.132857 -3.80587)
(-0.559928 0.0105063 -6.20843)
(-0.741873 -0.0414616 -6.25551)
(-0.959299 0.0643885 -6.13055)
(-0.48583 0.109522 -6.21543)
(-0.350771 0.0189286 -6.65531)
(-1.02171 -0.0569512 -5.70601)
(-1.00803 -0.0101344 -7.11099)
(-1.06401 0.0151252 -7.35985)
(-0.959018 -0.02269 -7.24135)
(-1.06752 -0.0586068 -7.23963)
(-1.10024 0.0487085 -7.30204)
(-0.777121 0.0657776 -6.91093)
(-1.22535 -0.00716008 -7.72266)
(-1.20447 -0.0399185 -7.75256)
(-1.17402 -0.0339558 -7.67714)
(-1.27301 -0.0386516 -7.7678)
(-1.35494 -0.02547 -7.89667)
(-0.83818 0.0096577 -7.22744)
(-1.78268 -0.0285329 -6.52893)
(-1.69432 -0.0375358 -6.45535)
(-1.63914 -0.0532566 -6.39703)
(-1.82828 -0.0779561 -6.53142)
(-2.00853 -0.0528367 -6.67629)
(-1.25034 -0.00307857 -6.009)
(-1.18205 -0.042611 -2.08676)
(-1.14239 -0.0151473 -2.02971)
(-1.04996 -0.0622905 -2.00541)
(-1.26133 -0.0673934 -2.09183)
(-1.54425 -0.0463013 -2.23381)
(-0.794307 0.0168633 -1.84253)
(1.94779 -0.066358 3.73816)
(1.95051 0.00289354 3.75893)
(2.08919 -0.0344537 3.76069)
(1.82115 0.0159415 3.73937)
(1.64768 -0.0309264 3.71884)
(2.23676 0.00409867 3.76125)
(5.88739 -0.128325 9.19229)
(5.62218 -0.0584534 8.98306)
(5.80994 0.0329362 9.04781)
(5.65423 0.0566452 9.08535)
(5.43788 -0.0390774 9.00727)
(5.97714 0.0410648 9.10531)
(8.62594 -0.0619107 11.1679)
(8.96273 -0.0213486 11.3675)
(8.97148 0.0368656 11.3788)
(8.62709 0.0653238 11.1332)
(8.71478 0.000544432 11.3016)
(9.12944 0.0588042 11.3385)
(7.49706 -0.0491763 6.73529)
(7.91464 0.0464293 7.03039)
(7.8771 0.136021 6.97183)
(7.7249 0.0954904 6.82257)
(7.89928 -0.0365497 6.96389)
(8.02436 0.00582224 6.84436)
(3.66504 0.323474 3.48622)
(3.30866 0.220171 4.31815)
(3.84905 -0.0839474 4.67442)
(4.07305 -0.0230519 4.0911)
(4.00054 0.156596 4.5899)
(3.81133 0.112079 4.25874)
(4.20539 -0.0326119 4.2579)
(4.85545 0.0559048 4.2608)
(4.52199 -0.0710625 4.22222)
(4.33754 0.0247685 4.28738)
(4.49919 -0.018154 4.30878)
(4.52021 0.0984462 4.17717)
(-0.400877 0.0615265 -0.67469)
(-0.514291 0.0681808 -0.176258)
(-0.408994 -0.269631 -0.842523)
(-0.470446 -0.0944132 -0.093985)
(-0.194005 -0.56737 -0.0112005)
(-0.139307 -0.134402 -0.767024)
(-1.26385 0.0702848 -0.745264)
(-1.15848 0.089358 0.105084)
(-1.11718 -0.338345 -0.649317)
(-1.11982 0.32606 -0.0399997)
(-0.834878 -0.349376 0.187168)
(-0.988532 -0.159434 -0.807223)
(-1.87004 0.134131 -0.539768)
(-1.81943 0.0877464 0.128326)
(-1.30446 -0.211765 -0.410215)
(-0.712735 0.542263 -0.247127)
(-1.40171 -0.288524 0.226336)
(-1.65138 -0.205405 -0.724524)
(-2.02896 0.217389 -0.582707)
(-2.40576 0.528584 -0.0320166)
(-1.33644 0.207441 0.611294)
(-1.10938 0.107683 0.205985)
(-2.04792 -0.435789 0.0244491)
(-1.9315 -0.175694 -0.96074)
(-1.72856 0.193631 -0.526966)
(-1.76838 0.825626 0.0876734)
(-0.193636 0.32703 0.926956)
(-1.15611 -0.413053 0.584149)
(-2.81306 -0.535061 0.186254)
(-2.62402 -0.186229 -0.831788)
(-1.7899 0.293709 -0.256892)
(-1.09997 0.750693 0.219525)
(-0.4048 0.882809 0.215587)
(-1.19725 -0.0833085 0.208133)
(-3.01539 -0.762227 0.284622)
(-3.10137 -0.294657 -0.296472)
(-1.29662 0.395689 -0.197858)
(0.204511 0.988482 -0.64698)
(0.410341 1.86615 -0.818098)
(-2.97338 1.13485 0.472043)
(-3.9205 -1.40537 0.468432)
(-2.15861 -0.364865 -0.416634)
(-0.558076 -0.0747554 0.261113)
(0.945523 0.570416 -0.968272)
(1.90649 0.585755 -1.67608)
(-4.62423 1.4942 0.913313)
(-4.9602 -1.51571 1.17594)
(-0.118571 0.00965391 -0.538234)
(-1.53778 -0.163134 0.885716)
(0.84979 -0.446194 -0.627632)
(2.46768 -0.93249 -1.82555)
(-2.80571 0.311317 0.803428)
(-2.46447 -0.295521 0.708298)
(1.09607 0.322354 -0.662926)
(-0.801714 0.335094 1.37611)
(-0.0942612 -0.869466 0.460936)
(3.19739 -1.47554 -2.00498)
(3.4354 -0.828655 -2.10511)
(2.62131 -0.17397 -1.33273)
(1.84487 0.514442 -0.768989)
(1.05447 0.184561 1.04278)
(-0.233218 -0.816604 2.88131)
(2.26381 -1.79313 -1.29918)
(3.40788 -1.09595 -2.6299)
(3.42449 -0.310242 -2.47935)
(1.78776 0.683636 -0.722107)
(0.566806 0.265502 0.290064)
(0.347187 -0.49188 2.38207)
(1.22242 -0.978741 -0.78765)
(1.81166 -0.479471 -1.76162)
(1.70381 -0.265299 -1.46339)
(0.616863 0.150295 -0.245459)
(-0.12924 -0.205749 -1.33289)
(-0.0299336 0.446468 -0.962199)
(0.460251 -0.887408 -0.69566)
(-0.0777201 -1.6554 -0.934352)
(-0.185282 -0.743803 -0.942122)
(-0.00249623 0.136849 -1.92581)
(-1.20699 -0.453186 -1.15074)
(-1.01206 0.220187 -0.776097)
(-0.553679 -1.21903 -0.581411)
(-0.821933 -1.38858 -0.172689)
(-1.02786 -0.673772 -0.240588)
(-1.08704 0.584059 -2.08082)
(-1.55591 -0.678276 -0.681816)
(-1.42249 -0.329517 -0.667929)
(-0.670628 -0.871876 -0.733472)
(-0.773017 -0.394194 0.295024)
(-1.49695 -0.516043 0.219041)
(-1.69866 0.735549 -1.49108)
(-1.86531 -0.686738 -0.90201)
(-2.01662 -0.388513 0.423629)
(-1.68539 -0.684689 1.50086)
(-1.41498 0.094967 0.442532)
(-1.5231 0.0236383 -0.160328)
(-1.77879 0.950298 -1.44252)
(-2.48975 -0.702435 -1.14958)
(-2.40142 -0.386312 0.771161)
(-1.69815 -0.459064 2.42185)
(-2.61392 -0.153789 0.624142)
(-2.29652 0.186549 -0.941293)
(-2.16075 1.05339 -1.8335)
(-3.25323 -0.570575 -1.43558)
(-3.30566 -0.111892 0.448689)
(-2.29856 -0.426888 1.45015)
(-3.36829 -0.891892 0.408013)
(-3.73435 -0.384927 -0.981106)
(-3.35394 0.550474 -1.84706)
(-3.92412 -0.0882137 -1.65894)
(-4.6193 0.679211 -0.279504)
(-2.94866 0.0795893 1.26249)
(-4.30461 -0.99883 2.21833)
(-4.64119 -1.18193 0.378281)
(-4.45888 0.216914 -0.911724)
(-3.65432 0.251026 -1.08234)
(-5.55436 1.6162 -0.638582)
(-3.69338 1.22316 1.17645)
(-6.6877 -0.620679 5.11822)
(-5.3037 -1.38885 3.30401)
(-4.18017 0.334509 0.530961)
(-2.50706 0.184328 0.69307)
(-3.93028 2.27387 0.780255)
(-4.04206 2.76569 1.81885)
(-4.3256 1.20233 4.03609)
(-2.61483 0.898639 5.15072)
(-3.41163 0.902996 2.59795)
(-1.9892 1.04581 2.2195)
(0.85183 1.05096 2.84748)
(-1.00314 2.18469 2.60347)
(-1.31768 0.795998 3.76989)
(0.724036 0.275048 3.95154)
(-3.92629 1.08442 2.06938)
(-0.978882 0.57141 1.04337)
(2.09799 0.457237 1.68211)
(1.89642 0.260083 1.2239)
(2.85775 -0.193318 -1.87572)
(3.04317 -0.507604 -3.37649)
(-1.77807 0.776303 0.819622)
(1.37981 0.482057 -2.43035)
(1.79561 0.915746 -1.34092)
(2.71393 1.42443 -2.62921)
(3.12649 0.842638 -3.76882)
(3.53748 -0.333271 -3.92531)
(1.8156 -0.67602 -1.72813)
(0.619737 -0.393753 -2.31555)
(0.534343 0.424809 -0.262345)
(0.783092 -0.0309288 3.39182)
(0.254333 -0.832096 -1.5605)
(0.243938 -0.27545 -5.26068)
(0.114511 0.140733 -3.19686)
(-0.863671 -0.75743 -1.15325)
(-1.21629 -0.311804 0.48632)
(-0.827035 -0.873312 2.10944)
(-0.345472 -0.218217 -1.85342)
(-0.321813 -0.123305 -4.68871)
(-1.01772 0.340982 -2.49539)
(-1.655 -1.17443 0.840321)
(-1.53956 0.744308 0.0983974)
(1.02221 -0.896342 -1.13204)
(0.194243 0.304667 -1.08215)
(-0.941333 -0.151575 -1.97592)
(-2.29895 0.837599 -0.708762)
(-1.64597 -1.24337 0.342215)
(-0.12128 -0.951167 -0.32417)
(0.755864 -1.05601 -0.819794)
(0.456825 0.587459 -3.57481)
(-0.797777 0.10082 -1.63233)
(-1.98611 0.933969 0.67618)
(-2.00725 -2.23809 0.0974332)
(-1.59599 -2.23105 -1.05146)
(-1.15087 -1.02109 -0.111839)
(-0.841592 0.794092 -2.4497)
(-0.747603 1.8129 -4.0502)
(2.40854 2.01574 0.242147)
(-2.89823 -3.45346 0.152716)
(-3.07925 -2.75492 -1.48241)
(-3.70885 -1.02769 0.768375)
(-3.5012 0.205791 -0.819856)
(-2.86997 1.62407 -3.92963)
(-2.19779 1.66698 -2.40208)
(-3.9927 -2.36948 -1.87032)
(-4.37266 -1.85549 -1.82756)
(-4.85646 -0.890045 1.88998)
(-4.88018 -0.871806 1.18818)
(-4.53532 0.257872 -1.71605)
(-4.50269 0.9251 -2.33273)
(-4.95688 -1.06648 -2.55485)
(-5.72263 -0.628627 -1.40543)
(-5.47826 -0.79101 3.40817)
(-6.33283 -1.85305 5.92046)
(-4.94886 -0.598541 2.24924)
(-5.78353 0.600955 -0.780459)
(-6.02821 -0.556145 -2.6056)
(-6.65197 0.794567 -0.590483)
(-6.71583 0.87429 3.35141)
(-4.21002 0.158203 7.38401)
(-3.55293 -0.213663 9.37333)
(-6.6952 0.429765 1.59085)
(-6.73148 -0.328232 -1.54958)
(-3.05775 1.68569 3.3737)
(-4.17432 1.68269 7.14619)
(-2.34367 0.570439 8.40539)
(-1.34261 -0.883487 6.28452)
(-8.34035 0.217234 5.08093)
(-7.35285 0.625291 1.60061)
(-3.66038 1.83839 4.32313)
(0.13368 1.3516 3.40704)
(2.29042 0.777778 -1.10247)
(2.72811 -0.747348 -3.45319)
(-2.18831 0.121111 3.4559)
(0.767125 0.928921 -2.16706)
(2.66479 2.03372 -3.89109)
(3.27365 2.05392 -3.9206)
(3.36951 1.30461 -3.86883)
(3.53566 -0.131081 -3.9659)
(2.71049 -0.852919 -2.94661)
(0.432222 -0.225185 -2.01318)
(0.131208 -0.398412 -1.76958)
(0.970601 0.352333 2.97715)
(0.74751 1.39314 0.713808)
(0.247635 1.06575 -3.07751)
(0.157349 0.236682 -3.03707)
(-0.856867 -0.398627 -1.24829)
(-0.495146 -0.141435 -2.49397)
(-0.802631 0.358085 -0.356689)
(-0.423381 1.03143 -1.42574)
(0.0852245 0.746131 -2.95186)
(-0.163081 0.247771 -2.86687)
(-2.76853 -0.57509 -0.725426)
(-2.21922 0.107234 -0.757809)
(-2.12219 -0.220775 0.18483)
(-1.42487 0.526205 -1.44344)
(-0.889706 0.22503 -2.35938)
(-1.7151 0.286928 -1.27107)
(-3.39147 -0.482141 1.75718)
(-4.4966 0.533889 0.542669)
(-3.50843 -0.0666038 -3.16897)
(-2.77753 0.548786 -3.30432)
(-3.09007 -0.399127 -1.50632)
(-3.46789 0.377122 2.56353)
(-2.84056 -0.747441 4.59329)
(-5.04557 1.08129 -2.40774)
(-3.40491 0.418196 -7.47437)
(-2.12575 1.34361 -8.33767)
(-4.134 0.07427 -3.5937)
(-3.9715 0.85987 4.20755)
(-3.21888 -0.434958 6.25653)
(-3.98454 0.719348 -6.10241)
(-1.6244 0.293499 -8.92108)
(-1.09416 1.68574 -9.49764)
(-3.05643 1.58452 -6.69655)
(-3.98366 1.10003 -2.33146)
(-3.13718 -0.220866 3.91605)
(-4.27791 -1.08685 -4.84614)
(-5.01506 -0.618068 -2.08576)
(-5.09621 0.371998 -1.7266)
(-4.45285 1.15037 -3.46008)
(-3.82262 0.762069 -2.22426)
(-3.37011 -0.743171 0.291424)
(-5.79724 -2.07656 -2.21717)
(-6.27129 -1.44836 3.20653)
(-6.12978 -0.749524 4.51345)
(-5.10726 0.574923 1.88567)
(-5.13493 0.876012 -0.677495)
(-5.60217 -1.26973 -1.597)
(-6.96845 -1.87773 1.06374)
(-6.42009 -2.03576 7.55823)
(-4.5618 -1.54229 10.3393)
(-4.76963 -0.0257364 8.18129)
(-6.4873 0.795173 1.11683)
(-6.21107 -0.942311 -1.26755)
(-6.23995 -0.661929 3.57396)
(-4.54415 -0.739498 11.1306)
(-2.69604 -1.33119 10.7709)
(-4.60307 -1.52328 8.98952)
(-7.60741 0.321665 5.31728)
(-7.166 0.235129 1.34405)
(-8.03552 1.68452 5.75861)
(-5.46532 2.18714 7.62437)
(-3.45131 0.587507 4.62409)
(0.872036 -0.787725 -0.956979)
(-5.85085 -0.739973 7.47212)
(2.29331 0.539744 -2.477)
(2.4248 1.43825 -2.57371)
(3.02013 1.60728 -2.89005)
(3.45572 1.38907 -3.26751)
(3.6786 0.0711559 -3.69822)
(3.03399 -0.692316 -3.24219)
(-1.64036 -0.0207368 -1.0773)
(-1.81216 0.162352 -0.752038)
(-1.62239 -0.117374 -0.530561)
(-1.72573 -0.0509814 -0.864946)
(-1.78245 -0.094415 -1.21041)
(-1.67395 0.0417862 -0.320028)
(-1.65681 -0.234569 -1.81891)
(-1.54797 -0.158503 -1.29069)
(-1.33938 0.0814041 -0.957397)
(-1.62715 0.382936 -1.57179)
(-1.81287 0.00897296 -1.9255)
(-1.49321 0.00285488 -1.14802)
(-1.43833 -0.31473 0.592014)
(-1.18783 -0.256794 -1.18609)
(-0.940742 0.25288 -1.71477)
(-1.37075 0.602207 0.196421)
(-1.55294 0.1374 0.410255)
(-1.4392 0.0153013 0.423016)
(0.226376 0.0361514 -4.28098)
(0.238831 -0.0117027 -4.34741)
(0.119059 -0.0422704 -4.25096)
(0.234484 0.040521 -4.23188)
(0.223409 -0.0537039 -4.49911)
(-0.213154 -0.112572 -3.98408)
(0.0728933 0.0109071 -5.41172)
(0.161894 -0.0315557 -5.38816)
(0.184269 -0.0076237 -5.35541)
(0.0525487 0.0634032 -5.40711)
(0.0294758 -0.0207084 -5.55657)
(0.0278143 -0.091486 -5.21434)
(-0.00685446 -0.012015 -5.58037)
(0.00989329 -0.028827 -5.52586)
(0.00934714 0.0170965 -5.48174)
(-0.0331086 0.0585623 -5.56902)
(-0.0276112 -0.00120727 -5.64341)
(-0.031704 -0.0340061 -5.54401)
(-0.58828 0.0347931 -4.08714)
(-0.58987 0.0348784 -4.27542)
(-0.569302 -0.00113627 -4.24837)
(-0.58733 0.00685513 -4.18957)
(-0.627662 0.0145547 -4.20377)
(-0.612095 0.00122145 -4.32483)
(-0.656225 0.0206041 -4.50594)
(-0.646823 0.0140391 -4.55142)
(-0.626008 0.0195521 -4.53507)
(-0.647128 0.0345706 -4.53489)
(-0.681752 0.0251212 -4.53456)
(-0.588196 0.0166094 -4.51947)
(-0.458101 0.00353169 -4.5733)
(-0.444944 -0.000294777 -4.58701)
(-0.436117 0.00408727 -4.59207)
(-0.456482 0.00710982 -4.58752)
(-0.478509 -0.00300343 -4.59187)
(-0.464761 -0.00410528 -4.60367)
(-0.964395 0.00820224 -4.98351)
(-0.974264 -0.0157118 -5.07871)
(-0.985366 -0.0177354 -5.05336)
(-0.975563 0.00805415 -5.0314)
(-0.994244 -0.0719637 -5.12765)
(-1.05293 -0.0924072 -5.00686)
(-0.32228 0.0111677 -4.48791)
(-0.329384 0.00273881 -4.4842)
(-0.335007 -0.00599431 -4.46621)
(-0.336654 0.0147512 -4.47557)
(-0.338098 -0.0111566 -4.49366)
(-0.349536 -0.0206614 -4.40027)
(-0.262262 -0.00282907 -4.59685)
(-0.264525 -0.00628312 -4.60469)
(-0.264423 -0.00186586 -4.60373)
(-0.268626 0.00151444 -4.59644)
(-0.269202 -0.0089691 -4.61313)
(-0.275645 -0.00980142 -4.58233)
(-2.36687 -0.00691937 -5.5989)
(-2.37387 -0.0241129 -5.67116)
(-2.36382 -0.00928323 -5.63574)
(-2.37598 -0.0065583 -5.64436)
(-2.40455 -0.0491599 -5.71279)
(-2.36823 -0.0650938 -5.56604)
(-0.874531 0.0073636 -3.80243)
(-0.88516 -0.00179638 -3.81032)
(-0.891954 -0.00403308 -3.80013)
(-0.876093 0.00133172 -3.79574)
(-0.890214 -0.0149446 -3.80439)
(-0.891786 -0.0105192 -3.74706)
(-0.416963 7.39494e-05 -4.07336)
(-0.413708 -0.00281522 -4.08845)
(-0.414462 -0.00304138 -4.08425)
(-0.415292 -0.00165675 -4.07776)
(-0.416121 -0.00827783 -4.07867)
(-0.4135 -0.00664111 -4.07208)
(-3.21362 -0.0111139 -4.95478)
(-3.22474 -0.0195567 -4.9797)
(-3.17285 -0.0115918 -4.92941)
(-3.2709 -0.0232866 -5.04122)
(-3.34901 0.00808945 -5.05464)
(-3.14466 -0.0107159 -4.89544)
(-1.15813 -0.0108279 -2.82131)
(-1.17917 -0.0245704 -2.81907)
(-1.17226 -0.0035291 -2.80275)
(-1.16742 -0.0148409 -2.82719)
(-1.19848 -0.0280318 -2.84334)
(-1.17183 -0.0156926 -2.74282)
(-0.397095 0.00394277 -3.42584)
(-0.389328 -0.00303431 -3.42756)
(-0.397463 -0.00432624 -3.41041)
(-0.385979 0.00280799 -3.42252)
(-0.395413 -0.00300671 -3.42187)
(-0.391517 -0.00483186 -3.38284)
(-2.6223 0.0118753 -2.23109)
(-2.74015 0.0427623 -2.33705)
(-2.63793 -0.0142043 -2.22207)
(-2.80868 0.0173867 -2.37075)
(-2.95879 0.0597957 -2.27419)
(-2.59814 0.00782149 -2.22063)
(-0.809536 0.00308024 -1.7142)
(-1.03318 -0.0117681 -1.74806)
(-0.970923 0.0168235 -1.69252)
(-0.971719 -0.00594269 -1.74292)
(-1.07303 -0.013118 -1.70426)
(-1.11955 -0.0182612 -1.64614)
(-0.484528 0.0166529 -2.82522)
(-0.447287 -0.00350239 -2.86297)
(-0.495655 0.00281994 -2.81852)
(-0.506848 -0.00389767 -2.85115)
(-0.493243 -0.0103813 -2.82906)
(-0.445929 0.0078014 -2.75754)
(0.689621 -0.363549 0.931482)
(0.926471 -0.163309 -0.347091)
(0.964687 0.119023 -0.0792007)
(0.594299 0.14459 0.587371)
(0.72198 -0.295525 0.0743855)
(0.972551 -0.17791 0.263825)
(1.36544 -0.545608 -0.160954)
(1.20692 -0.340887 -1.44831)
(1.33804 0.14917 -1.34178)
(1.22315 0.0904851 -0.549384)
(1.37717 -0.546435 -0.620854)
(1.13 -0.306554 -1.20176)
(0.19936 0.0245426 -0.458867)
(0.215204 -0.0214124 -2.45695)
(0.201682 -0.116632 -2.24207)
(0.25833 0.0309977 -1.38817)
(0.166075 0.0655459 -1.10203)
(0.169894 0.103948 -2.37038)
(4.77668 -0.462182 4.91295)
(3.54968 -0.210702 4.0036)
(4.17224 -0.0276657 4.18415)
(4.47272 0.0178739 4.43752)
(4.26683 -0.3816 3.88136)
(3.87894 -0.0552931 4.55716)
(2.46055 -0.955724 1.82309)
(-0.225831 -0.223068 0.0803239)
(0.807459 0.385479 0.858758)
(2.42013 -0.0643201 1.04819)
(1.28756 -1.29317 0.675692)
(-0.082505 -0.677162 0.264008)
(-1.08682 -0.854103 5.51149)
(-0.214341 -0.0713714 -1.53933)
(-1.1642 0.216457 2.28114)
(-1.12475 0.132966 5.11291)
(-1.36216 -1.0315 4.04291)
(-0.0149354 -0.25868 -1.83419)
(8.62143 0.071574 7.23292)
(8.21154 0.165011 6.89416)
(8.20579 -0.219049 6.863)
(8.52136 0.0241356 6.93783)
(8.35487 -0.0365373 6.85338)
(8.12168 0.144578 6.75186)
(6.05606 0.16499 7.53878)
(5.55621 0.354516 7.34538)
(5.34467 -0.399677 7.43656)
(5.99535 0.0791453 7.11786)
(5.3982 0.0843966 7.22371)
(5.15574 0.233085 7.26756)
(-0.933261 -0.185055 10.6782)
(-0.565931 0.11744 10.8242)
(-0.965036 -0.0429277 10.6778)
(-0.940813 0.142797 10.309)
(-1.52604 -0.165147 10.7003)
(-0.584071 -0.0816342 10.455)
(-0.0720658 0.193329 5.66964)
(2.3479 0.159124 8.91529)
(1.54574 -0.374157 8.11554)
(0.888201 -0.0869851 6.51161)
(1.08857 0.241089 7.04211)
(1.58054 0.30211 8.19966)
(-3.09913 0.117948 7.76882)
(-2.04273 0.0980315 11.2858)
(-2.63455 -0.254969 10.1672)
(-2.73745 0.0599893 8.46387)
(-2.87013 0.151191 8.7645)
(-2.58347 0.0765995 10.755)
(-4.56612 -0.173453 7.4919)
(-5.06335 -0.0717014 9.8311)
(-4.99641 0.0292218 8.56109)
(-4.63161 0.108981 7.68347)
(-4.95654 -0.118246 7.90217)
(-4.80045 -0.237778 9.2082)
(3.92879 -0.0738659 5.90326)
(4.75513 0.0657024 5.8347)
(4.33013 -0.115608 5.81515)
(4.13459 0.028223 6.00831)
(4.31871 -0.0339535 6.01684)
(4.3666 0.145967 5.83718)
(2.53525 -0.170592 4.99059)
(3.15386 -0.0479243 7.08989)
(2.88413 0.0564072 6.39183)
(2.7684 0.0877711 5.42874)
(2.96329 -0.136075 5.44843)
(2.86152 -0.0484131 6.79047)
(0.535009 -0.0222686 1.22921)
(0.971934 -0.0235389 1.9501)
(0.831595 0.0148494 1.43822)
(0.704725 -0.0289152 1.44003)
(0.776723 0.0237641 1.0437)
(0.755186 0.0132744 1.92562)
(1.80419 0.0148764 -0.226521)
(1.88995 0.0711373 -0.346979)
(1.87695 0.0752721 -0.411019)
(2.03518 -0.0110525 -0.3585)
(2.25593 -0.12551 -0.268372)
(2.06158 -0.10086 -0.201628)
(-0.974149 0.077216 -2.46421)
(-0.604665 0.65563 -2.46294)
(-0.118074 0.720966 -3.06819)
(-0.0351117 0.24235 -3.07289)
(-1.04563 0.0459399 -2.98033)
(-1.79848 -0.0368739 -3.05764)
(-1.17352 -0.0531912 0.0723583)
(-0.952394 0.12696 -0.021088)
(-1.38438 0.303826 0.976911)
(-2.30243 0.21103 2.00461)
(-2.49716 0.168131 1.59057)
(-2.17785 0.162083 1.06237)
(0.455846 0.0132826 -0.281164)
(0.451787 0.0108642 -0.279313)
(0.521443 0.0153473 -0.269493)
(0.544375 0.0185877 -0.297186)
(0.520016 -0.0118155 -0.318439)
(0.497004 -0.0136387 -0.311987)
(0.509357 0.0514194 -1.59522)
(0.785836 0.134607 -1.55989)
(1.11005 0.0483181 -1.56977)
(1.01198 -0.246388 -1.75996)
(0.47833 -0.394631 -2.09498)
(-0.0104179 -0.177924 -2.01826)
(0.100138 -0.0333529 0.786377)
(0.153177 -0.136673 0.66163)
(0.0294096 -0.245982 0.670007)
(-0.482592 -0.135409 0.969272)
(-0.48925 0.0108447 1.16628)
(-0.397193 0.0166247 1.30734)
(0.285169 0.00155145 0.0164327)
(0.304227 0.0109128 0.0178962)
(0.302653 0.0104559 0.0145193)
(0.307824 -0.00404169 0.0247525)
(0.309389 -0.00716892 0.0252365)
(0.29436 -0.00134744 0.0137576)
(0.675143 0.0201283 -0.64471)
(0.723279 0.0592619 -0.654574)
(0.783814 -0.0034077 -0.697021)
(0.767085 -0.139265 -0.734852)
(0.628189 -0.183782 -0.74119)
(0.497909 -0.0824777 -0.688186)
(0.135433 -0.0210302 0.69189)
(0.137863 -0.0828763 0.674148)
(0.11239 -0.175068 0.70859)
(0.0497586 -0.124617 0.798041)
(0.0358855 -0.0162694 0.873692)
(0.0245047 -0.00965562 0.919525)
(-0.131906 -0.00102482 0.0361031)
(-0.120453 0.00297455 0.0368523)
(-0.12775 0.00528645 0.0334358)
(-0.113889 0.000715411 0.0357078)
(-0.11563 -0.0025336 0.038244)
(-0.132889 -0.00153547 0.0288735)
(1.06612 -0.0318672 -0.279458)
(1.18639 -0.0530299 -0.26375)
(1.26845 -0.0198448 -0.2708)
(1.20744 -0.0335541 -0.245232)
(1.14686 -0.0518748 -0.232579)
(1.08069 -0.0264338 -0.270965)
(0.695379 -0.0202022 1.01394)
(0.699903 -0.0382824 1.02685)
(0.673205 -0.0511652 1.05144)
(0.603226 -0.0411285 1.07031)
(0.596047 -0.00962248 1.09794)
(0.572012 -0.00202424 1.10755)
(0.111219 -0.013574 -0.129739)
(0.149474 0.00577534 -0.135005)
(0.129263 -0.000849148 -0.139187)
(0.122819 -0.0253472 -0.126803)
(0.129864 0.0177299 -0.122144)
(0.144436 0.0235008 -0.148145)
(1.65141 -0.0263024 0.939671)
(1.84161 -0.026546 0.986002)
(1.93661 -0.00836682 0.95828)
(1.79586 -0.0874421 1.05817)
(1.72341 0.0303651 1.12093)
(1.74686 0.0433602 0.875441)
(0.941185 -0.0325296 1.86253)
(1.02921 -0.0480546 1.88387)
(1.03365 -0.0254015 1.91697)
(0.993792 -0.0259935 1.88394)
(0.983625 0.0204305 1.90771)
(0.946396 0.0237102 1.94376)
(0.388461 -0.0647039 0.737195)
(0.447355 -0.0163367 0.503538)
(0.319512 0.0255792 0.497901)
(0.576599 0.00115276 0.915689)
(0.71902 -0.0409813 1.0369)
(0.236545 0.0118457 0.363745)
(1.35722 -0.0658416 2.7605)
(1.55532 -0.0176247 3.16384)
(1.53779 0.00277645 3.00621)
(1.56122 -0.107569 2.84064)
(1.61756 0.0212797 2.87229)
(1.39268 0.0729199 3.04094)
(1.15391 -0.0781854 1.51873)
(1.31087 -0.0603294 1.54596)
(1.30988 0.0311877 1.54568)
(1.24204 -0.0405044 1.44633)
(1.24707 0.0188341 1.37584)
(1.2044 0.0326065 1.69431)
(0.263594 0.154216 -1.22548)
(-0.241247 -0.379617 -2.24566)
(-0.0171435 0.136229 -1.22321)
(-0.162626 0.839375 -1.97943)
(-0.200312 0.63462 -2.52638)
(-0.0138828 -0.0264735 -1.11616)
(-0.0377676 0.212544 -1.36254)
(-0.189315 -0.0142609 -2.12786)
(0.277438 0.0111897 -0.642988)
(-0.149991 0.0152577 -1.34433)
(-0.215594 -0.0646158 -2.30977)
(-0.120824 -0.246484 -1.9699)
(-0.137457 0.0972403 -1.74359)
(-0.102959 -0.0393448 -1.93537)
(0.037625 -0.0634712 -1.22921)
(-0.106597 0.171433 -1.87715)
(-0.113634 0.0833221 -2.18651)
(-0.102682 -0.00925879 -1.9952)
(-0.058795 0.11332 -2.44327)
(-0.074141 -0.109689 -3.27681)
(-0.398168 0.0509907 -3.34607)
(-0.442946 0.371981 -3.38598)
(-0.295644 0.30361 -3.41049)
(-0.266122 0.0537311 -2.49743)
(-0.0237656 0.102731 -2.31017)
(-0.134885 0.183952 -2.51979)
(-0.276653 0.0159965 -2.18625)
(-0.279137 -0.0509252 -2.41714)
(-0.245769 -0.0686641 -2.84343)
(-0.0848073 -0.119301 -2.65041)
(-0.148477 0.0372587 -2.39745)
(-0.157381 0.0305177 -2.49731)
(-0.145859 0.0116851 -2.57607)
(-0.134022 0.079793 -2.61649)
(-0.133123 0.0354934 -2.62542)
(-0.117376 -0.0219624 -2.4869)
(-0.699826 0.102864 -1.06007)
(-0.0746961 0.112101 -3.43431)
(-0.284227 0.272036 -3.83223)
(-0.408264 0.455574 -3.56415)
(-0.20366 0.301271 -3.50004)
(-0.613094 0.0615479 -2.33294)
(0.510017 0.341114 -2.10487)
(0.325539 0.34289 -2.79169)
(0.0795009 0.0607819 -2.32604)
(-0.0463977 -0.0111406 -2.65403)
(0.0790129 -0.0801311 -3.08044)
(0.306657 -0.114815 -2.6384)
(-0.114636 0.0942282 -2.22116)
(-0.208075 0.0321361 -2.41962)
(-0.145774 -0.0081689 -2.53296)
(-0.130466 0.079037 -2.68553)
(-0.103139 -0.0191549 -2.69739)
(-0.0054383 -0.0479152 -2.5909)
(-1.75532 0.210263 0.82729)
(-1.30003 0.962967 -2.68001)
(-0.950917 0.998866 -3.84883)
(-0.981978 0.411682 -3.41028)
(-1.31187 -0.255284 -3.06436)
(-2.63156 -0.174005 0.0657821)
(0.376642 0.47912 -2.08297)
(0.35667 0.59864 -3.35911)
(0.0326526 0.117358 -3.25605)
(0.0991117 -0.18073 -3.32557)
(0.352595 -0.360091 -3.59123)
(0.0590784 -0.313779 -2.53426)
(-0.0767563 0.12797 -2.12803)
(-0.169021 0.0815441 -2.42146)
(-0.125032 -0.04676 -2.76636)
(-0.074407 -0.0274202 -2.98765)
(0.0616427 -0.118745 -2.90197)
(0.202971 -0.0989282 -2.66893)