/*--------------------------------*- C++ -*----------------------------------*\
| =========                 |                                                 |
| \\      /  F ield         | OpenFOAM: The Open Source CFD Toolbox           |
|  \\    /   O peration     | Version:  v1612+                                |
|   \\  /    A nd           | Web:      www.OpenFOAM.com                      |
|    \\/     M anipulation  |                                                 |
\*---------------------------------------------------------------------------*/
FoamFile
{
    version     2.0;
    format      ascii;
    class       volScalarField;
    location    "4.25";
    object      p_rgh;
}
// * * * * * * * * * * * * * * * * * * * * * * * * * * * * * * * * * * * * * //

dimensions      [1 -1 -2 0 0 0 0];

internalField   nonuniform List<scalar> 
1116
(
4682.92
4682.98
4682.99
4682.99
4683.01
4682.95
4755.31
4755.35
4755.37
4755.37
4755.39
4755.34
5081.17
5081.2
5081.22
5081.21
5081.22
5081.21
5644.55
5644.57
5644.58
5644.58
5644.59
5644.59
6464.18
6464.21
6464.22
6464.22
6464.24
6464.25
7958.78
7958.8
7958.8
7958.8
7958.82
7958.84
10663.6
10663.6
10663.6
10663.6
10663.6
10663.7
15196.8
15196.7
15196.7
15196.7
15196.7
15196.8
19596.6
19596.6
19596.6
19596.6
19596.6
19596.6
23097.8
23097.9
23097.8
23097.8
23097.8
23097.7
26712.8
26712.7
26712.7
26712.6
26712.6
26712.7
29512.6
29512.5
29512.5
29512.5
29512.5
29512.5
-12.2435
-12.243
-12.2428
-12.2428
-12.2429
-12.2432
-11.1937
-11.193
-11.1929
-11.1929
-11.1932
-11.1937
-11.9293
-11.9283
-11.928
-11.9283
-11.9289
-11.9298
-25.7784
-25.7776
-25.7772
-25.7779
-25.7787
-25.7787
32.5169
32.5175
32.5184
32.5179
32.5172
32.5187
253.515
253.518
253.517
253.517
253.517
253.524
1132.57
1132.56
1132.56
1132.58
1132.57
1132.63
8000.85
8000.01
8000.34
8000.37
8000.23
8000.62
18454
18454.2
18454
18453.9
18453.9
18454
22741.5
22741.5
22741.5
22741.5
22741.5
22741.4
26180.3
26180.2
26180.2
26180.2
26180.3
26180.2
29265.3
29265.3
29265.3
29265.3
29265.3
29265.3
2.66717
2.66749
2.66762
2.66757
2.66744
2.66732
0.575239
0.57566
0.575679
0.575489
0.575209
0.574791
-3.11808
-3.11776
-3.11791
-3.11842
-3.11905
-3.11972
-36.7996
-36.7995
-36.7997
-36.8004
-36.8013
-36.8016
-63.1702
-63.1702
-63.1701
-63.1703
-63.1708
-63.17
-43.7822
-43.788
-43.7857
-43.7849
-43.7853
-43.7833
28.1705
28.1589
28.1625
28.1618
28.1608
28.163
313.235
313.155
313.188
313.174
313.154
313.211
6986.91
6988.86
6987.92
6987.49
6987.82
6987.51
18729.8
18732.8
18731.3
18731.1
18731.8
18730.5
28527.8
28525.6
28526.4
28526.6
28526
28527.2
31639.7
31639.8
31639.7
31639.7
31639.7
31639.9
-6.49757
-6.49717
-6.49709
-6.49711
-6.4972
-6.49752
-7.91797
-7.91786
-7.91787
-7.91794
-7.91805
-7.91828
-7.97679
-7.97643
-7.97664
-7.97694
-7.97728
-7.97821
-25.3226
-25.3227
-25.3229
-25.3233
-25.3238
-25.3244
-35.5689
-35.5689
-35.5686
-35.5683
-35.5685
-35.5687
-23.8855
-23.887
-23.886
-23.8852
-23.885
-23.8855
30.256
30.2571
30.2583
30.2566
30.2569
30.2577
52.4727
52.489
52.4846
52.485
52.4887
52.4867
1506.15
1510.07
1508.75
1507.88
1508.65
1507.5
13780
13802.8
13794.1
13790.6
13796.5
13787.5
22535.5
22561.5
22550.7
22548.9
22556.3
22543.7
24397.4
24404.1
24401
24403.9
24406.4
24398.8
22.3789
22.3789
22.3789
22.3789
22.379
22.379
23.6135
23.6136
23.6136
23.6137
23.6138
23.6139
26.2416
26.2417
26.2419
26.2421
26.2425
26.2428
30.6728
30.6725
30.6738
30.6738
30.6753
30.676
37.7757
37.773
37.7795
37.774
37.7801
37.7854
47.9212
47.9111
47.9362
47.9063
47.9252
47.9481
64.1472
64.0972
64.1898
64.1036
64.1257
64.1987
106.856
106.671
107.028
106.501
106.433
107.542
160.961
160.932
161.832
159.513
158.684
164.692
37.514
37.5665
37.5982
36.5825
35.7784
38.471
-35.6344
-35.7067
-35.6716
-36.2136
-37.1103
-37.0776
-49.4173
-49.4638
-49.5045
-49.4264
-49.4086
-50.0777
20.9636
20.9637
20.9637
20.9637
20.9638
20.9638
22.0504
22.0504
22.0504
22.0505
22.0506
22.0506
24.3144
24.3143
24.3146
24.3146
24.3149
24.315
27.9694
27.969
27.9702
27.97
27.9711
27.971
33.3998
33.3976
33.4032
33.4011
33.406
33.4017
39.9714
39.9637
39.9759
39.9814
39.9919
39.9626
44.0602
44.0641
44.0559
44.1289
44.1407
43.9586
40.8892
40.9008
40.6992
41.345
41.5004
40.1683
104.826
103.901
104.434
104.647
104.432
105.249
121.226
120.926
124.4
115.193
107.639
131.93
-100.578
-100.51
-100.32
-100.627
-101.156
-98.7182
-85.0385
-85.0094
-85.0126
-84.6417
-84.2279
-84.9078
18.1715
18.1715
18.1715
18.1715
18.1715
18.1715
18.9076
18.9076
18.9077
18.9077
18.9077
18.9077
20.3153
20.3153
20.3155
20.3155
20.3156
20.3156
22.1598
22.1596
22.1603
22.1605
22.1612
22.1602
23.7618
23.7612
23.7637
23.7649
23.7677
23.7609
23.1587
23.1588
23.1606
23.1736
23.1858
23.1416
13.2398
13.2595
13.2148
13.3144
13.368
13.1386
-20.3759
-20.3377
-20.472
-20.206
-20.0793
-20.6501
-46.7762
-47.448
-48.0387
-45.7397
-44.2102
-49.3263
497.313
493.481
497.626
492.848
486.562
506.739
648.506
648.452
659.44
634.505
613.812
684.826
-93.2073
-93.1668
-93.0925
-92.9712
-92.6594
-92.7568
14.5088
14.5089
14.5089
14.5089
14.5089
14.5088
14.8673
14.8673
14.8673
14.8673
14.8673
14.8673
15.4064
15.4065
15.4065
15.4065
15.4065
15.4064
15.6668
15.6668
15.6671
15.6671
15.6674
15.6668
14.6226
14.6228
14.6234
14.6241
14.6254
14.6223
10.3567
10.3587
10.3579
10.3633
10.3672
10.351
1.2051
1.22598
1.20404
1.21964
1.22247
1.19905
-29.7035
-29.6482
-29.6804
-29.7962
-29.8666
-29.6217
-48.9014
-48.8198
-48.7746
-49.1659
-49.4831
-48.6393
-50.361
-50.4694
-50.4594
-50.4086
-50.4212
-50.2414
1853.05
1846.45
1853.47
1851.57
1835.56
1876.1
4261.3
4255.57
4305.05
4201.43
4102.91
4403.78
-2.79811
-2.79801
-2.79793
-2.79795
-2.79804
-2.79811
-3.01298
-3.01295
-3.01292
-3.01293
-3.01299
-3.01303
-2.76039
-2.7605
-2.76052
-2.76052
-2.76052
-2.76043
-3.07123
-3.0711
-3.07106
-3.07113
-3.07131
-3.07151
-2.70086
-2.70083
-2.70082
-2.70087
-2.701
-2.70114
-2.4595
-2.45961
-2.45963
-2.45963
-2.45961
-2.45949
-3.55565
-3.55553
-3.55572
-3.55592
-3.55622
-3.55672
-2.05959
-2.05969
-2.0598
-2.0599
-2.06005
-2.06023
-1.74709
-1.74714
-1.74713
-1.7471
-1.74705
-1.74691
-8.80071
-8.80073
-8.80118
-8.80123
-8.80136
-8.80174
-1.45028
-1.45052
-1.45076
-1.45074
-1.45066
-1.45059
-0.309098
-0.309107
-0.309085
-0.30903
-0.30896
-0.308833
-10.2989
-10.2977
-10.298
-10.2977
-10.2976
-10.2988
1.75818
1.75841
1.75811
1.7581
1.75808
1.75768
1.25192
1.25184
1.25186
1.25196
1.25204
1.25217
3.39287
3.39462
3.39459
3.39462
3.39488
3.39346
8.33118
8.33217
8.33181
8.33144
8.33105
8.32982
3.36386
3.36382
3.36373
3.36368
3.36356
3.36337
18.0753
18.0787
18.0796
18.0791
18.0801
18.0808
8.7899
8.79112
8.79171
8.79147
8.79128
8.79177
1.12388
1.12293
1.12305
1.12287
1.12223
1.12235
3.28272
3.29644
3.29044
3.29165
3.29474
3.29349
-9.27538
-9.26635
-9.2714
-9.2703
-9.26963
-9.26949
-6.70399
-6.7032
-6.70492
-6.70386
-6.70486
-6.70641
-52.6131
-52.6132
-52.6186
-52.6131
-52.611
-52.6033
-53.9862
-54.0015
-53.9983
-53.9966
-53.9994
-53.9965
-22.203
-22.2148
-22.2103
-22.2108
-22.2128
-22.2149
-48.6909
-48.683
-48.6834
-48.6928
-48.7029
-48.6634
-55.6536
-55.67
-55.6619
-55.6625
-55.665
-55.6568
-17.5508
-17.5564
-17.5479
-17.5512
-17.5485
-17.5573
6.83576
6.92707
6.90084
6.86471
6.87695
6.90229
-37.5991
-37.5921
-37.593
-37.5984
-37.5945
-37.6005
0.681077
0.682057
0.683508
0.675733
0.677172
0.6756
2215.81
2216.68
2216.03
2218.81
2221.86
2213.66
-21.8536
-21.8467
-21.8475
-21.8614
-21.8787
-21.8335
-9.70168
-9.71078
-9.70832
-9.71278
-9.72181
-9.69667
20222.7
20213.1
20218.9
20215.4
20220.8
20222
7.57223
7.48274
7.48954
7.63827
7.82225
7.20267
-1.72597
-1.80105
-1.81129
-1.90701
-2.47216
-1.96125
22476.6
22481.5
22486.5
22470.8
22471.3
22501.4
8.04655
8.0595
8.06407
8.04
8.03899
7.98413
-0.766596
-0.767211
-0.779974
-0.811382
-0.848644
-0.814779
22960.2
22961.2
22962.1
22963.2
22964.1
22961.9
47.063
47.4323
47.3227
49.3947
52.1128
45.403
-3.73448
-3.73143
-3.73423
-3.73833
-3.74017
-3.74108
23096.7
23096.8
23097.5
23097.7
23097.5
23098
740.699
742.566
738.501
749.488
764.929
724.414
-3.36836
-3.35747
-3.36251
-3.35039
-3.31814
-3.38737
23133
23132.8
23133.5
23132.7
23130.6
23135.7
1081.93
1085.64
1081.87
1090.92
1111.14
1062.52
-0.25933
-0.242126
-0.252426
-0.220905
-0.164292
-0.31221
20464.1
20466.5
20464.6
20473.8
20490.5
20449.1
-6.66317
-6.6748
-6.65984
-6.73037
-6.76294
-6.581
-5.3326
-5.32509
-5.32817
-5.32018
-5.29575
-5.35049
10.4374
10.4374
10.4374
10.4374
10.4374
10.4374
6.24061
6.24061
6.24061
6.2406
6.24059
6.24058
2.06277
2.06277
2.06277
2.06277
2.06276
2.06276
10.5308
10.5308
10.5308
10.5308
10.5308
10.5307
6.22642
6.22642
6.22642
6.22641
6.22639
6.22638
2.03903
2.03903
2.03902
2.03902
2.03901
2.03901
10.537
10.537
10.537
10.537
10.537
10.537
6.08335
6.08337
6.08336
6.08335
6.08333
6.08331
1.95258
1.95259
1.95258
1.95258
1.95256
1.95255
10.0498
10.0499
10.0499
10.0499
10.0499
10.0498
5.56787
5.56791
5.56791
5.56791
5.56788
5.56785
1.72465
1.72466
1.72465
1.72464
1.7246
1.72458
8.29946
8.29973
8.29973
8.2998
8.29988
8.29974
4.27969
4.27986
4.27992
4.28009
4.28007
4.27999
1.29829
1.29831
1.29832
1.29832
1.2983
1.29818
3.98966
3.9911
3.9898
3.99121
3.9902
3.9896
1.3297
1.33076
1.33105
1.33281
1.332
1.33235
0.0596519
0.0597783
0.0592624
0.0591731
0.0582404
0.0582218
-0.506005
-0.502752
-0.506168
-0.510192
-0.517895
-0.506381
-0.417729
-0.41579
-0.415096
-0.414469
-0.415241
-0.418595
0.17236
0.172652
0.172506
0.171889
0.172064
0.17003
-13.9644
-13.9557
-13.9745
-13.9826
-14.0245
-13.9408
-8.02327
-8.0226
-8.02973
-8.02661
-8.03519
-8.02527
-3.23541
-3.23543
-3.2354
-3.23367
-3.23275
-3.235
-18.7496
-18.7348
-18.749
-18.811
-18.8877
-18.7585
-12.858
-12.857
-12.8581
-12.8537
-12.8584
-12.8719
-4.33055
-4.33153
-4.32573
-4.31589
-4.30287
-4.3329
-32.6425
-32.6462
-32.6832
-32.6782
-32.7043
-32.6056
-23.6451
-23.5283
-23.5104
-23.6191
-23.7228
-23.6335
-5.25055
-5.26903
-5.2809
-5.26255
-5.25034
-5.3396
-21.9664
-21.7961
-21.981
-21.8349
-23.3
-21.0108
-2.39751
-2.18818
-2.01603
-2.9214
-7.47742
2.19153
-3.42068
-3.45219
-3.44747
-3.36296
-3.30438
-3.48577
9449.6
9472.67
9499.08
9401.42
9328.77
9551.6
0.758891
0.726431
0.674857
0.709622
0.571665
0.588104
-17.5785
-17.7138
-17.7978
-16.869
-15.4087
-17.941
)
;

boundaryField
{
    seabed_topleft_surface
    {
        type            fixedFluxPressure;
        gradient        uniform 0;
        value           nonuniform List<scalar> 
72
(
4682.92
4682.98
4682.99
4682.99
4683.01
4682.95
4755.31
4755.35
4755.37
4755.37
4755.39
4755.34
5081.17
5081.2
5081.22
5081.21
5081.22
5081.21
5644.55
5644.57
5644.58
5644.58
5644.59
5644.59
6464.18
6464.21
6464.22
6464.22
6464.24
6464.25
7958.78
7958.8
7958.8
7958.8
7958.82
7958.84
10663.6
10663.6
10663.6
10663.6
10663.6
10663.7
15196.8
15196.7
15196.7
15196.7
15196.7
15196.8
19596.6
19596.6
19596.6
19596.6
19596.6
19596.6
23097.8
23097.9
23097.8
23097.8
23097.8
23097.7
26712.8
26712.7
26712.7
26712.6
26712.6
26712.7
29512.6
29512.5
29512.5
29512.5
29512.5
29512.5
)
;
    }
    seabed_topright_surface
    {
        type            fixedFluxPressure;
        gradient        uniform 0;
        value           nonuniform List<scalar> 
72
(
22.3789
22.3789
22.3789
22.3789
22.379
22.379
23.6135
23.6136
23.6136
23.6137
23.6138
23.6139
26.2416
26.2417
26.2419
26.2421
26.2425
26.2428
30.6728
30.6725
30.6738
30.6738
30.6753
30.676
37.7757
37.773
37.7795
37.774
37.7801
37.7854
47.9212
47.9111
47.9362
47.9063
47.9252
47.9481
64.1472
64.0972
64.1898
64.1036
64.1257
64.1987
106.856
106.671
107.028
106.501
106.433
107.542
160.961
160.932
161.832
159.513
158.684
164.692
37.514
37.5665
37.5982
36.5825
35.7784
38.471
-35.6344
-35.7067
-35.6716
-36.2136
-37.1103
-37.0776
-49.4173
-49.4638
-49.5045
-49.4264
-49.4086
-50.0777
)
;
    }
    breakwater_top_surface
    {
        type            fixedFluxPressure;
        gradient        uniform 0;
        value           nonuniform List<scalar> 
36
(
20222.7
20213.1
20218.9
20215.4
20220.8
20222
22476.6
22481.5
22486.5
22470.8
22471.3
22501.4
22960.2
22961.2
22962.1
22963.2
22964.1
22961.9
23096.7
23096.8
23097.5
23097.7
23097.5
23098
23133
23132.8
23133.5
23132.7
23130.6
23135.7
20464.1
20466.5
20464.6
20473.8
20490.5
20449.1
)
;
    }
    breakwater_left_surface
    {
        type            fixedFluxPressure;
        gradient        uniform 0;
        value           nonuniform List<scalar> 
24
(
29512.6
29512.5
29512.5
29512.5
29512.5
29512.5
29265.3
29265.3
29265.3
29265.3
29265.3
29265.3
31639.7
31639.8
31639.7
31639.7
31639.7
31639.9
24397.4
24404.1
24401
24403.9
24406.4
24398.8
)
;
    }
    breakwater_right_surface
    {
        type            fixedFluxPressure;
        gradient        uniform 0;
        value           nonuniform List<scalar> 
24
(
-49.4173
-49.4638
-49.5045
-49.4264
-49.4086
-50.0777
-85.0385
-85.0094
-85.0126
-84.6417
-84.2279
-84.9078
-93.2073
-93.1668
-93.0925
-92.9712
-92.6594
-92.7568
4261.3
4255.57
4305.05
4201.43
4102.91
4403.78
)
;
    }
    water_front_surface
    {
        type            fixedFluxPressure;
        gradient        uniform 0;
        value           nonuniform List<scalar> 
186
(
4682.92
4755.31
5081.17
5644.55
6464.18
7958.78
10663.6
15196.8
19596.6
23097.8
26712.8
29512.6
-12.2435
-11.1937
-11.9293
-25.7784
32.5169
253.515
1132.57
8000.85
18454
22741.5
26180.3
29265.3
2.66717
0.575239
-3.11808
-36.7996
-63.1702
-43.7822
28.1705
313.235
6986.91
18729.8
28527.8
31639.7
-6.49757
-7.91797
-7.97679
-25.3226
-35.5689
-23.8855
30.256
52.4727
1506.15
13780
22535.5
24397.4
22.3789
23.6135
26.2416
30.6728
37.7757
47.9212
64.1472
106.856
160.961
37.514
-35.6344
-49.4173
20.9636
22.0504
24.3144
27.9694
33.3998
39.9714
44.0602
40.8892
104.826
121.226
-100.578
-85.0385
18.1715
18.9076
20.3153
22.1598
23.7618
23.1587
13.2398
-20.3759
-46.7762
497.313
648.506
-93.2073
14.5088
14.8673
15.4064
15.6668
14.6226
10.3567
1.2051
-29.7035
-48.9014
-50.361
1853.05
4261.3
-2.79811
-3.01298
-2.76039
-3.07123
-2.70086
-2.4595
-3.55565
-2.05959
-1.74709
-8.80071
-1.45028
-0.309098
-10.2989
1.75818
1.25192
3.39287
8.33118
3.36386
18.0753
8.7899
1.12388
3.28272
-9.27538
-6.70399
-52.6131
-53.9862
-22.203
-48.6909
-55.6536
-17.5508
6.83576
-37.5991
0.681077
2215.81
-21.8536
-9.70168
20222.7
7.57223
-1.72597
22476.6
8.04655
-0.766596
22960.2
47.063
-3.73448
23096.7
740.699
-3.36836
23133
1081.93
-0.25933
20464.1
-6.66317
-5.3326
10.4374
6.24061
2.06277
10.5308
6.22642
2.03903
10.537
6.08335
1.95258
10.0498
5.56787
1.72465
8.29946
4.27969
1.29829
3.98966
1.3297
0.0596519
-0.506005
-0.417729
0.17236
-13.9644
-8.02327
-3.23541
-18.7496
-12.858
-4.33055
-32.6425
-23.6451
-5.25055
-21.9664
-2.39751
-3.42068
9449.6
0.758891
-17.5785
)
;
    }
    water_back_surface
    {
        type            fixedFluxPressure;
        gradient        uniform 0;
        value           nonuniform List<scalar> 
186
(
4682.95
4755.34
5081.21
5644.59
6464.25
7958.84
10663.7
15196.8
19596.6
23097.7
26712.7
29512.5
-12.2432
-11.1937
-11.9298
-25.7787
32.5187
253.524
1132.63
8000.62
18454
22741.4
26180.2
29265.3
2.66732
0.574791
-3.11972
-36.8016
-63.17
-43.7833
28.163
313.211
6987.51
18730.5
28527.2
31639.9
-6.49752
-7.91828
-7.97821
-25.3244
-35.5687
-23.8855
30.2577
52.4867
1507.5
13787.5
22543.7
24398.8
22.379
23.6139
26.2428
30.676
37.7854
47.9481
64.1987
107.542
164.692
38.471
-37.0776
-50.0777
20.9638
22.0506
24.315
27.971
33.4017
39.9626
43.9586
40.1683
105.249
131.93
-98.7182
-84.9078
18.1715
18.9077
20.3156
22.1602
23.7609
23.1416
13.1386
-20.6501
-49.3263
506.739
684.826
-92.7568
14.5088
14.8673
15.4064
15.6668
14.6223
10.351
1.19905
-29.6217
-48.6393
-50.2414
1876.1
4403.78
-2.79811
-3.01303
-2.76043
-3.07151
-2.70114
-2.45949
-3.55672
-2.06023
-1.74691
-8.80174
-1.45059
-0.308833
-10.2988
1.75768
1.25217
3.39346
8.32982
3.36337
18.0808
8.79177
1.12235
3.29349
-9.26949
-6.70641
-52.6033
-53.9965
-22.2149
-48.6634
-55.6568
-17.5573
6.90229
-37.6005
0.6756
2213.66
-21.8335
-9.69667
20222
7.20267
-1.96125
22501.4
7.98413
-0.814779
22961.9
45.403
-3.74108
23098
724.414
-3.38737
23135.7
1062.52
-0.31221
20449.1
-6.581
-5.35049
10.4374
6.24058
2.06276
10.5307
6.22638
2.03901
10.537
6.08331
1.95255
10.0498
5.56785
1.72458
8.29974
4.27999
1.29818
3.9896
1.33235
0.0582218
-0.506381
-0.418595
0.17003
-13.9408
-8.02527
-3.235
-18.7585
-12.8719
-4.3329
-32.6056
-23.6335
-5.3396
-21.0108
2.19153
-3.48577
9551.6
0.588104
-17.941
)
;
    }
    water_left_surface
    {
        type            fixedFluxPressure;
        gradient        uniform 0;
        value           nonuniform List<scalar> 
42
(
4682.92
4682.98
4682.99
4682.99
4683.01
4682.95
-12.2435
-12.243
-12.2428
-12.2428
-12.2429
-12.2432
2.66717
2.66749
2.66762
2.66757
2.66744
2.66732
-6.49757
-6.49717
-6.49709
-6.49711
-6.4972
-6.49752
-2.79811
-2.79801
-2.79793
-2.79795
-2.79804
-2.79811
-3.01298
-3.01295
-3.01292
-3.01293
-3.01299
-3.01303
-2.76039
-2.7605
-2.76052
-2.76052
-2.76052
-2.76043
)
;
    }
    water_right_surface
    {
        type            fixedFluxPressure;
        gradient        uniform 0;
        value           nonuniform List<scalar> 
42
(
22.3789
22.3789
22.3789
22.3789
22.379
22.379
20.9636
20.9637
20.9637
20.9637
20.9638
20.9638
18.1715
18.1715
18.1715
18.1715
18.1715
18.1715
14.5088
14.5089
14.5089
14.5089
14.5089
14.5088
10.4374
10.4374
10.4374
10.4374
10.4374
10.4374
6.24061
6.24061
6.24061
6.2406
6.24059
6.24058
2.06277
2.06277
2.06277
2.06277
2.06276
2.06276
)
;
    }
    water_top_surface
    {
        type            totalPressure;
        rho             rho;
        psi             none;
        gamma           1;
        p0              uniform 0;
        value           nonuniform List<scalar> 
180
(
-2.96404
-2.96449
-2.96447
-2.96446
-2.96448
-2.96404
-2.69763
-2.69808
-2.69806
-2.69804
-2.69801
-2.69751
-1.92707
-1.92737
-1.92732
-1.92725
-1.92718
-1.9267
-0.699766
-0.699808
-0.699736
-0.69969
-0.69967
-0.699472
0
0
0
0
0
0
0
0
0
0
0
0
0
0
0
0
0
0
0
0
0
0
0
0
0
0
0
0
0
0
0
0
0
0
0
0
-0.108525
-0.110144
-0.109285
-0.109858
-0.11272
-0.105432
-16.2524
-16.3016
-16.2788
-16.2885
-16.3273
-16.2343
-8.67801
-8.95714
-8.96236
-8.68642
-8.75256
-9.09573
-4.46282
-4.42598
-4.407
-4.51944
-4.58484
-4.32539
-0.19805
-0.204488
-0.200549
-0.207775
-0.217887
-0.197809
-8.33867
-8.37544
-8.30365
-8.4793
-8.70307
-8.10838
-24.8423
-24.9435
-24.8297
-25.0202
-25.3601
-24.4815
-10.3205
-10.3616
-10.3277
-10.3717
-10.4343
-10.2516
0
0
0
0
0
0
0
0
0
0
0
0
0
0
0
0
0
0
0
0
0
0
0
0
0
0
0
0
0
0
0
0
0
0
0
0
0
0
0
0
0
0
0
0
0
0
0
0
0
0
0
0
0
0
-3.63413
-3.64925
-3.64955
-3.62598
-3.62302
-3.65943
-4.37104
-4.41791
-4.4334
-4.34663
-4.39843
-4.42982
-0.0419891
-0.0283034
-0.0446234
-0.00523159
0
-0.0785532
)
;
    }
}


// ************************************************************************* //
