/*--------------------------------*- C++ -*----------------------------------*\
| =========                 |                                                 |
| \\      /  F ield         | OpenFOAM: The Open Source CFD Toolbox           |
|  \\    /   O peration     | Version:  v1612+                                |
|   \\  /    A nd           | Web:      www.OpenFOAM.com                      |
|    \\/     M anipulation  |                                                 |
\*---------------------------------------------------------------------------*/
FoamFile
{
    version     2.0;
    format      ascii;
    class       surfaceScalarField;
    location    "7.05";
    object      alphaPhi;
}
// * * * * * * * * * * * * * * * * * * * * * * * * * * * * * * * * * * * * * //

dimensions      [0 3 -1 0 0 0 0];

internalField   nonuniform List<scalar> 
816
(
-2.0192e-06
-1.15157e-05
7.47459e-06
-9.97313e-06
-1.39366e-05
2.99778e-05
4.44269e-06
7.27869e-06
-1.94458e-06
1.13578e-05
-2.31673e-05
-6.94783e-06
2.16264e-06
3.89121e-06
8.75043e-06
-1.93744e-05
-1.08223e-06
1.00419e-05
1.13911e-05
-2.27716e-05
7.6885e-09
-5.04926e-09
-8.60288e-06
4.51308e-11
7.28195e-10
8.25101e-09
2.33802e-06
3.82392e-09
-1.86943e-09
-7.7425e-11
-0.000116019
9.69705e-10
8.21365e-09
8.09425e-10
1.50805e-06
4.09145e-09
-5.3853e-09
1.35964e-09
3.25693e-07
4.75987e-09
-6.45097e-09
-5.85664e-09
2.02089e-07
5.11272e-09
3.99419e-09
-3.04211e-09
2.53049e-06
4.05941e-09
1.94865e-09
3.5187e-09
3.62634e-07
1.89178e-09
3.87349e-10
2.26768e-09
-2.16016e-06
2.20667e-09
3.14446e-09
9.05292e-10
1.64735e-07
-1.23026e-09
3.5619e-09
-2.96026e-09
1.77259e-10
-1.31668e-09
-1.8534e-09
-1.37892e-05
-2.64606e-09
-5.30118e-09
1.59619e-05
-2.32963e-06
-2.93417e-05
2.0832e-06
6.33027e-06
2.7277e-05
-1.86316e-05
1.41284e-05
7.90047e-06
-1.40387e-06
5.5923e-06
5.78499e-06
3.35245e-05
-4.10652e-06
1.83563e-05
-7.36374e-07
-9.60658e-06
3.24007e-06
-4.87144e-06
4.19114e-06
-1.05227e-05
9.83301e-07
-2.62782e-05
6.97177e-06
2.01035e-05
6.08054e-06
-2.28984e-05
6.40933e-06
1.60769e-05
1.19015e-05
3.19164e-06
-1.03491e-05
1.88213e-06
7.06618e-06
-4.02314e-05
1.24222e-05
2.51432e-05
2.13792e-05
-2.97176e-05
5.32802e-06
7.96911e-06
-4.57422e-07
3.96583e-05
5.38928e-06
-1.72842e-05
-2.0694e-05
5.08017e-06
2.11222e-06
-9.64494e-06
-3.74853e-07
-1.34962e-05
1.63961e-06
-1.13438e-05
-8.84409e-06
-8.42782e-07
-1.14384e-06
2.19599e-06
3.51335e-06
-1.02782e-05
3.04031e-06
7.16837e-06
5.10082e-06
-1.7403e-06
-1.99865e-06
6.88317e-07
-3.03193e-06
-1.29499e-05
-2.34572e-06
-9.69146e-06
-4.28761e-06
-1.16597e-05
-6.79867e-08
-7.71516e-06
1.44579e-06
7.32439e-06
-4.09759e-06
-1.77449e-05
-8.49245e-06
-1.75986e-05
-1.10416e-05
-1.32901e-05
-5.60828e-06
4.68809e-06
1.72468e-05
-3.29638e-06
-9.02141e-06
-1.51097e-06
-5.75285e-06
-1.05817e-06
-6.66595e-06
4.02529e-06
-5.89319e-06
-4.35922e-06
1.95588e-06
4.99524e-06
-1.04887e-06
4.41108e-06
-3.20061e-06
1.3131e-06
1.61317e-06
2.29277e-06
-1.74335e-07
5.30987e-06
4.88715e-06
-4.0467e-06
-1.62809e-06
5.65621e-07
-4.25673e-06
-6.19375e-06
-7.8823e-07
-9.31175e-07
-1.0657e-06
1.77071e-06
-5.46521e-06
7.55012e-07
1.853e-06
2.93644e-06
2.76038e-07
-8.56283e-07
9.78177e-07
-4.2203e-07
-2.14624e-06
-1.42652e-06
-6.30483e-06
-3.91236e-06
-3.27432e-06
-1.1022e-06
-4.10164e-06
-4.80102e-06
4.46428e-06
-1.48865e-07
-1.5478e-06
-5.41563e-06
-1.08153e-05
-4.75528e-06
-5.87671e-06
-3.81135e-06
-3.51781e-06
2.47013e-06
-2.29751e-06
5.26484e-06
-9.24111e-07
-4.16872e-06
-3.08389e-06
3.18835e-09
-2.83532e-09
-9.69276e-06
-1.52862e-09
7.79274e-09
-1.52827e-05
4.82235e-10
4.46702e-09
-1.68e-05
2.98312e-09
4.54482e-09
-1.57e-06
1.49145e-09
2.14743e-10
-2.24501e-06
-2.3429e-09
-3.18728e-09
-1.49529e-09
-2.39063e-06
-2.6302e-10
-2.15745e-09
2.11817e-08
-2.53886e-09
-6.22759e-09
1.75754e-11
-2.88717e-09
-1.87343e-09
6.12525e-07
1.67862e-09
1.02757e-09
-1.57316e-06
-2.13393e-09
-1.85233e-09
-2.73581e-09
-2.66219e-06
-2.11432e-09
-7.60256e-09
-1.26777e-06
-3.63609e-09
-2.60545e-09
-1.63128e-06
-1.12061e-09
-1.04256e-09
3.09807e-07
-2.1939e-09
6.32369e-10
3.22023e-07
-5.41114e-09
-3.94741e-09
-1.21568e-09
1.01865e-10
-2.87009e-09
-5.21217e-09
2.91195e-06
-3.98682e-09
-4.08257e-09
-3.77233e-06
-3.94397e-09
-1.56817e-09
2.14869e-06
-6.68938e-09
-4.999e-06
-2.88247e-09
-5.74891e-09
-9.17944e-06
-3.53293e-06
9.87023e-06
7.04898e-06
5.43649e-06
-2.45834e-05
-2.40135e-06
1.00459e-05
-1.10413e-05
1.80243e-05
8.00135e-06
-4.0388e-06
1.39883e-05
1.28719e-05
3.88476e-05
-2.33713e-05
-2.74316e-05
-4.78582e-06
5.13448e-05
-4.67269e-06
-1.60775e-05
4.39351e-05
-3.43133e-05
-3.97351e-05
6.77368e-05
-4.25771e-05
-2.16103e-05
-6.18822e-06
-3.02832e-06
2.12126e-05
-1.73858e-05
-1.36353e-05
-1.27982e-05
-3.91427e-06
4.53542e-05
-4.09621e-06
-2.7076e-05
5.02336e-05
-2.53666e-05
4.75976e-06
-4.0995e-05
-3.21663e-06
2.01573e-06
3.75855e-05
-2.1251e-05
2.08502e-05
3.05689e-05
-3.19258e-05
-1.8754e-05
-8.58665e-07
4.29383e-05
5.46994e-06
-1.79971e-05
5.17736e-05
-2.20443e-05
-1.50729e-05
7.37645e-06
-1.28028e-05
-2.69203e-06
3.35659e-06
-1.40197e-06
4.26498e-05
-1.73247e-05
-2.96426e-05
1.04717e-05
-3.15367e-06
4.53014e-06
-3.47516e-06
-2.04745e-06
-1.09679e-05
5.76862e-07
-2.89994e-06
-4.26829e-06
-6.75148e-06
6.62996e-07
-3.0254e-06
-1.07236e-06
-1.17988e-05
1.77626e-05
1.73485e-05
1.61966e-05
-1.76532e-06
2.25616e-05
8.46494e-06
6.35801e-06
1.91693e-05
2.17403e-05
2.05852e-05
3.04713e-05
2.37089e-05
1.28289e-05
-3.64043e-06
2.87967e-06
-1.29205e-05
-7.59483e-06
6.50919e-06
9.45963e-06
3.98007e-08
2.04612e-05
2.2432e-06
1.17456e-05
2.2837e-05
1.56275e-05
-5.32557e-06
-1.82645e-05
1.68093e-06
-2.52041e-06
1.6954e-05
9.34956e-06
-1.30514e-05
1.39696e-05
1.88504e-05
8.28645e-06
-3.58956e-07
1.93126e-05
-6.65298e-06
1.21378e-05
2.31729e-05
1.05097e-05
7.18565e-06
4.5983e-06
4.39872e-06
2.00966e-06
2.10366e-06
6.81559e-07
1.95671e-05
9.55019e-06
1.24113e-05
6.37787e-06
-2.27048e-06
1.80377e-06
-2.28778e-06
-7.46035e-08
-3.80538e-06
-1.7986e-07
-1.3665e-06
6.88475e-07
-4.46859e-06
6.27729e-07
-1.57305e-06
-1.68571e-06
-6.39024e-06
5.09242e-06
1.00488e-05
9.63978e-06
-1.44233e-06
8.15796e-06
4.00258e-06
3.17587e-06
6.12558e-06
1.13777e-05
1.11829e-05
9.84821e-06
1.36087e-05
6.64086e-06
-1.35459e-06
8.51056e-07
-7.67193e-06
-7.65474e-07
3.13075e-06
4.37654e-06
-4.1706e-08
5.81628e-06
7.13095e-07
6.36786e-06
7.53846e-06
7.81678e-06
-4.13114e-06
-4.32294e-06
1.05389e-06
-2.61345e-06
5.33888e-06
4.71011e-06
-6.8122e-06
4.183e-06
1.02244e-05
3.79015e-06
1.63831e-07
6.59346e-06
-5.05915e-06
6.5535e-06
7.48604e-06
5.51151e-06
3.77458e-06
2.48005e-06
2.61853e-06
1.22084e-06
5.68798e-07
-9.13632e-08
5.20669e-06
5.67122e-06
7.61434e-06
3.8521e-07
-3.64817e-06
2.56572e-06
-3.69818e-06
1.68417e-06
1.49921e-06
1.61826e-06
-2.25438e-06
2.80953e-08
8.82554e-07
2.36636e-07
4.11652e-06
-2.97006e-06
-1.29594e-07
1.39338e-06
-2.14843e-06
-2.60636e-07
-8.02561e-07
1.75874e-06
-2.35395e-06
-5.36458e-07
1.64111e-06
-8.39149e-07
1.38469e-07
-1.78946e-06
1.83435e-09
-2.96161e-06
-2.04836e-06
2.87888e-07
-3.60252e-06
1.46155e-06
-1.64285e-06
-1.30753e-06
-5.38985e-06
-2.63074e-06
-1.60827e-06
1.15207e-06
-2.22718e-06
-6.72737e-07
-1.42251e-06
3.09923e-06
-1.23356e-06
-7.65987e-07
-5.50443e-08
7.18693e-07
1.30864e-06
-9.41979e-07
1.17238e-06
3.31526e-07
-3.3647e-06
4.24578e-06
5.38954e-06
-4.80755e-07
2.9451e-06
1.58552e-06
5.71545e-06
5.74818e-06
5.83219e-06
2.9867e-06
1.40105e-06
-2.94192e-06
2.11824e-06
3.02288e-06
-5.18106e-07
4.39565e-07
2.76372e-06
4.54466e-06
-1.3055e-06
1.22141e-06
-7.29323e-07
3.48314e-06
-3.36673e-06
4.98299e-06
1.87417e-06
-1.1894e-07
-1.97003e-06
3.28373e-06
2.49924e-06
3.01577e-06
5.28102e-07
1.56837e-06
5.82485e-07
2.79417e-06
2.72431e-06
6.93029e-09
-9.0513e-09
-2.29287e-06
9.41709e-09
-5.88631e-06
1.03391e-08
-6.32057e-06
3.34417e-09
-9.00777e-06
2.26931e-09
-8.20445e-06
-3.55515e-09
-6.71441e-06
2.21229e-09
-3.95737e-06
1.14291e-09
-1.21515e-06
-2.10123e-09
-8.44904e-06
-4.78394e-10
-9.38666e-07
1.16921e-10
2.69577e-06
1.111e-09
-3.88566e-06
-2.8378e-10
9.81984e-07
-1.165e-09
-1.98099e-06
-3.98025e-09
-6.51678e-06
-4.18964e-09
7.58974e-07
-5.04733e-09
-5.07515e-06
-8.43481e-10
-2.78352e-08
-1.51793e-09
2.4258e-06
-1.4689e-09
9.30874e-08
2.65644e-09
-1.26062e-06
-1.42897e-09
2.38152e-06
-3.31667e-10
5.81376e-06
-4.14352e-09
3.50466e-06
-6.10868e-09
1.60066e-06
-3.72232e-09
-5.60135e-06
-5.49123e-09
6.51392e-07
4.85893e-06
1.68159e-05
-2.66166e-05
-9.83788e-06
9.88551e-06
1.36249e-05
2.61173e-05
-1.55352e-05
5.47139e-06
3.45207e-05
-1.77988e-05
2.0746e-05
-3.19428e-05
-2.39261e-05
1.88271e-05
-5.9947e-05
1.44866e-05
-2.49423e-05
-2.70655e-05
1.80292e-05
-1.53495e-05
-4.75922e-05
1.31348e-05
-6.17875e-05
1.68153e-05
-1.02686e-05
1.24578e-05
-2.01595e-06
-1.014e-05
1.96349e-05
-6.73644e-06
-2.71087e-05
-5.01504e-06
-1.42767e-06
-8.88596e-06
-3.04545e-05
-3.57037e-06
-7.4904e-06
-5.80656e-06
-9.39135e-06
-9.59469e-06
-2.86747e-05
3.03591e-05
-4.63951e-05
1.14613e-05
6.20504e-06
-6.70178e-06
4.01015e-05
1.50936e-06
-2.49335e-05
-5.13483e-06
-1.44681e-06
-1.8019e-05
2.30452e-06
-1.63929e-05
-2.78674e-05
-2.38455e-05
-4.32196e-06
8.75595e-06
-4.72526e-06
-4.73584e-07
6.30874e-06
-8.30523e-06
-7.10147e-06
3.4588e-06
1.59957e-05
1.38437e-05
9.28412e-06
1.81418e-05
-1.08736e-05
-1.43968e-05
-2.74016e-05
-9.51892e-06
-1.36218e-05
8.76461e-06
8.20634e-06
2.92615e-06
-2.00007e-05
-7.27527e-06
-2.78502e-05
-9.72018e-06
-4.93059e-06
-4.86588e-06
-3.28341e-07
6.3461e-06
8.44683e-06
5.64504e-07
-1.18762e-05
1.77114e-06
-3.99224e-07
3.58846e-08
-1.30997e-05
-8.77288e-07
-4.86164e-06
3.73339e-06
-4.63023e-06
6.36293e-06
-1.24348e-05
-1.95202e-05
-2.05282e-05
-8.64868e-06
3.57037e-06
5.14033e-06
1.96838e-05
1.84311e-06
-1.11032e-05
5.02545e-06
-1.90354e-07
7.31491e-06
7.03441e-07
4.99573e-06
-1.31398e-05
-1.00839e-05
-1.91714e-06
4.28185e-06
-1.4241e-06
-4.73885e-08
2.13893e-06
-4.18484e-06
-3.18458e-06
2.57239e-06
4.74785e-06
8.99297e-06
1.17549e-06
1.03928e-05
-2.22263e-06
-7.97097e-06
-9.02432e-06
-6.3974e-06
-5.5225e-06
4.20745e-06
1.61305e-06
2.1677e-06
-6.56754e-06
-4.78422e-06
-7.27883e-06
-6.15549e-06
-2.68054e-06
-3.16207e-06
-2.50707e-07
3.70881e-06
1.57719e-06
3.19283e-07
-4.05494e-06
7.79403e-07
-1.37529e-07
4.73359e-08
-4.52735e-06
-1.42938e-06
-2.35408e-06
1.29104e-06
-2.63215e-06
2.84917e-06
-3.7075e-06
-1.11723e-05
-6.44027e-06
-4.69333e-06
8.58081e-07
4.51796e-06
5.39594e-06
1.64151e-06
-2.7119e-06
2.93764e-06
1.13918e-06
4.33781e-06
-7.80489e-07
2.15814e-06
-3.34914e-06
-3.64552e-06
-7.74521e-07
2.14428e-06
5.86209e-07
-1.88762e-06
1.92675e-06
3.45031e-06
5.47981e-06
-3.54924e-06
-3.66176e-06
9.05202e-07
5.61425e-08
-1.37962e-06
-2.63092e-06
-7.80945e-07
7.56706e-07
-2.76496e-07
3.27456e-08
6.23455e-08
-1.04192e-06
-1.95896e-07
1.04988e-06
-5.37693e-06
-2.58714e-06
8.58819e-07
6.54518e-07
2.33397e-06
2.13821e-06
1.51233e-06
3.15702e-09
2.28663e-09
1.91351e-07
-2.47563e-09
2.66097e-06
5.22367e-09
-0.000116894
4.91321e-05
5.07183e-06
1.90935e-05
-8.76698e-06
1.52821e-05
)
;

boundaryField
{
    top_fluid_surface
    {
        type            calculated;
        value           nonuniform List<scalar> 
64
(
0
0
7.61604e-10
0
3.55767e-10
0
0
0
0
0
5.66125e-09
9.41147e-10
0
0
5.43918e-09
0
8.34838e-09
8.36205e-09
6.47189e-09
9.02026e-09
0
1.03298e-09
8.64378e-09
9.00249e-09
0
2.61714e-09
6.15722e-09
6.61812e-09
5.55112e-09
1.01138e-09
0
3.73713e-09
0
0
0
8.05524e-09
3.25986e-09
3.28979e-09
0
0
3.40888e-09
0
0
8.15057e-10
0
9.82163e-10
1.33284e-09
0
0
0
0
0
0
0
0
0
0
0
0
0
0
0
1.49596e-10
0
)
;
    }
    bottom_fluid_surface
    {
        type            calculated;
        value           uniform 0;
    }
    lateral_surface_1
    {
        type            calculated;
        value           uniform 0;
    }
    lateral_surface_2
    {
        type            calculated;
        value           uniform 0;
    }
    lateral_surface_3
    {
        type            calculated;
        value           uniform 0;
    }
    lateral_surface_4
    {
        type            calculated;
        value           uniform 0;
    }
}


// ************************************************************************* //
