/*--------------------------------*- C++ -*----------------------------------*\
| =========                 |                                                 |
| \\      /  F ield         | OpenFOAM: The Open Source CFD Toolbox           |
|  \\    /   O peration     | Version:  v1612+                                |
|   \\  /    A nd           | Web:      www.OpenFOAM.com                      |
|    \\/     M anipulation  |                                                 |
\*---------------------------------------------------------------------------*/
FoamFile
{
    version     2.0;
    format      ascii;
    class       volScalarField;
    location    "7.05";
    object      alpha.water;
}
// * * * * * * * * * * * * * * * * * * * * * * * * * * * * * * * * * * * * * //

dimensions      [0 0 0 0 0 0 0];

internalField   nonuniform List<scalar> 
320
(
1
1
1
1
1.76718e-05
1.7561e-05
1.77058e-05
1.67116e-05
1.63892e-05
1.72257e-05
1.89715e-05
1.91339e-05
1.77806e-05
1.66909e-05
1.47786e-05
1.66621e-05
0.99998
0.999985
0.999985
0.999985
0.999983
0.999981
0.999981
0.99998
0.99998
0.999984
0.99999
0.99998
1
1
1
1
1
1
1
1
1
1
1
1
1
1
1
1
1
1
1
1
1
1
1
1
1
1
1
1
1.7299e-05
1.85422e-05
1.56273e-05
1.71731e-05
1.4408e-05
1.44095e-05
1.47166e-05
1.36979e-05
1.68143e-05
1.61979e-05
1.36469e-05
1.35914e-05
1.69927e-05
1.59419e-05
1.45446e-05
1.45234e-05
1.46781e-05
1.64032e-05
1.70946e-05
1.56122e-05
0.999983
0.999978
0.999988
0.999981
0.999991
0.999993
0.999993
0.999994
0.999982
0.999986
0.999992
0.999993
0.999982
0.999991
0.999991
0.999991
0.999992
0.999983
0.99998
0.99999
1
1
1
1
1
1
1
1
1
1
1
1
1
1
1
1
1
1
1
1
1
1
1
1
1
1
1
1
1
1
1
1
1
1
1
1
1
1
1
1
1
1
1
1
1
1
1
1
1
1
1
1
1
1
1
1
1
1
1
1
1
1
1
1
1
1
1
1
1
1
1
1
1
1
1
1
1.70826e-05
1.78945e-05
1.68862e-05
1.44586e-05
1.65272e-05
1.62216e-05
1.84814e-05
1.75786e-05
1.64668e-05
1.75816e-05
1.71095e-05
1.62677e-05
1.65343e-05
1.64635e-05
1.63122e-05
1.71964e-05
1.744e-05
1.81042e-05
1.68259e-05
1.80285e-05
1.76542e-05
1.65323e-05
1.79704e-05
1.63888e-05
1.73946e-05
1.91055e-05
1.76044e-05
1.98042e-05
0.999982
0.999981
0.999979
0.999988
0.999985
0.999984
0.999976
0.999982
0.999986
0.999978
0.99998
0.999981
0.999976
0.999984
0.99998
0.999976
0.999977
0.999983
0.999983
0.999979
0.999979
0.999978
0.999976
0.99998
0.999984
0.999981
0.999981
0.999975
1
1
1
1
1
1
1
1
1
1
1
1
1
1
1
1
1
1
1
1
1
1
1
1
1
1
1
1
1
1
1
1
1
1
1
1
1
1
1
1
1
1
1
1
1
1
1
1
1
1
1
1
1
1
1
1
1
1
1
1
1
1
1
1
1
1
1
1
1
1
1
1
1
1
1
1
1
1
1
1
1
1
1
1
1.82024e-05
1.71388e-05
1.77017e-05
1.7046e-05
0.999981
0.999982
0.999983
0.999984
)
;

boundaryField
{
    top_fluid_surface
    {
        type            inletOutlet;
        inletValue      uniform 0;
        value           nonuniform List<scalar> 
64
(
0
0
1.77058e-05
0
1.63892e-05
0
0
0
0
0
1.47786e-05
1.66621e-05
0
0
1.56273e-05
0
1.4408e-05
1.44095e-05
1.47166e-05
1.36979e-05
0
1.61979e-05
1.36469e-05
1.35914e-05
0
1.59419e-05
1.45446e-05
1.45234e-05
1.46781e-05
1.64032e-05
0
1.56122e-05
0
0
0
1.44586e-05
1.65272e-05
1.62216e-05
0
0
1.64668e-05
0
0
1.62677e-05
0
1.64635e-05
1.63122e-05
0
0
0
0
0
0
0
0
0
0
0
0
0
0
0
1.77017e-05
0
)
;
    }
    bottom_fluid_surface
    {
        type            zeroGradient;
    }
    lateral_surface_1
    {
        type            zeroGradient;
    }
    lateral_surface_2
    {
        type            zeroGradient;
    }
    lateral_surface_3
    {
        type            zeroGradient;
    }
    lateral_surface_4
    {
        type            zeroGradient;
    }
}


// ************************************************************************* //
