/*--------------------------------*- C++ -*----------------------------------*\
| =========                 |                                                 |
| \\      /  F ield         | OpenFOAM: The Open Source CFD Toolbox           |
|  \\    /   O peration     | Version:  v1612+                                |
|   \\  /    A nd           | Web:      www.OpenFOAM.com                      |
|    \\/     M anipulation  |                                                 |
\*---------------------------------------------------------------------------*/
FoamFile
{
    version     2.0;
    format      ascii;
    class       volScalarField;
    location    "7.05";
    object      p;
}
// * * * * * * * * * * * * * * * * * * * * * * * * * * * * * * * * * * * * * //

dimensions      [1 -1 -2 0 0 0 0];

internalField   nonuniform List<scalar> 
320
(
14724.8
14724.8
14724.8
14724.8
4.98675
4.98775
4.98583
4.9875
4.98756
4.98699
4.98769
4.98725
4.98713
4.98681
4.98714
4.98623
4914.88
4914.92
4914.84
4914.9
4914.85
4914.89
4914.91
4914.91
4914.89
4914.89
4914.87
4914.84
14724.8
14724.8
14724.8
14724.8
14724.8
14724.8
14724.8
14724.8
14724.8
14724.8
14724.8
14724.8
24534.8
24534.8
24534.8
24534.8
24534.8
24534.8
24534.8
24534.8
24534.8
24534.8
24534.8
24534.8
24534.8
24534.8
24534.8
24534.8
4.98672
4.98763
4.98579
4.98878
4.98884
4.98871
4.98746
4.98702
4.98656
4.98634
4.98618
4.98664
4.98643
4.98636
4.98621
4.98678
4.98635
4.98657
4.98655
4.98596
4914.9
4914.88
4914.85
4914.89
4914.86
4914.87
4914.88
4914.86
4914.89
4914.86
4914.86
4914.86
4914.89
4914.88
4914.87
4914.86
4914.87
4914.85
4914.88
4914.87
14724.8
14724.8
14724.8
14724.8
14724.8
14724.8
14724.8
14724.8
14724.8
14724.8
14724.8
14724.8
14724.8
14724.8
14724.8
14724.8
14724.8
14724.8
14724.8
14724.8
24534.8
24534.8
24534.8
24534.8
24534.8
24534.8
24534.8
24534.8
24534.8
24534.8
24534.8
24534.8
24534.8
24534.8
24534.8
24534.8
24534.8
24534.8
24534.8
24534.8
34344.8
34344.8
34344.8
34344.8
34344.8
34344.8
34344.8
34344.8
34344.8
34344.8
34344.8
34344.8
34344.8
34344.8
34344.8
34344.8
34344.8
34344.8
34344.8
34344.8
34344.8
34344.8
34344.8
34344.8
34344.8
34344.8
34344.8
34344.8
34344.8
34344.8
34344.8
34344.8
34344.8
34344.8
34344.8
34344.8
4.98611
4.98681
4.98677
4.98821
4.98936
4.98916
4.9891
4.98863
4.98869
4.98689
4.98624
4.98618
4.98551
4.9863
4.98635
4.98655
4.98651
4.98661
4.98598
4.9866
4.98687
4.9861
4.98735
4.98612
4.98662
4.98647
4.98589
4.98564
4914.89
4914.9
4914.87
4914.84
4914.86
4914.85
4914.88
4914.9
4914.86
4914.88
4914.89
4914.84
4914.85
4914.86
4914.84
4914.86
4914.87
4914.91
4914.89
4914.89
4914.88
4914.87
4914.88
4914.88
4914.91
4914.91
4914.89
4914.9
14724.8
14724.8
14724.8
14724.8
14724.8
14724.8
14724.8
14724.8
14724.8
14724.8
14724.8
14724.8
14724.8
14724.8
14724.8
14724.8
14724.8
14724.8
14724.8
14724.8
14724.8
14724.8
14724.8
14724.8
14724.8
14724.8
14724.8
14724.8
24534.8
24534.8
24534.8
24534.8
24534.8
24534.8
24534.8
24534.8
24534.8
24534.8
24534.8
24534.8
24534.8
24534.8
24534.8
24534.8
24534.8
24534.8
24534.8
24534.8
24534.8
24534.8
24534.8
24534.8
24534.8
24534.8
24534.8
24534.8
34344.8
34344.8
34344.8
34344.8
34344.8
34344.8
34344.8
34344.8
34344.8
34344.8
34344.8
34344.8
34344.8
34344.8
34344.8
34344.8
34344.8
34344.8
34344.8
34344.8
34344.8
34344.8
34344.8
34344.8
34344.8
34344.8
34344.8
34344.8
4.98677
4.98722
4.98663
4.98972
4914.9
4914.89
4914.84
4914.93
)
;

boundaryField
{
    top_fluid_surface
    {
        type            calculated;
        value           nonuniform List<scalar> 
64
(
-3.48345e-09
-6.12144e-09
0
0
0
-3.98531e-09
-3.45804e-08
-2.68278e-08
-8.90494e-09
-6.38939e-10
0
0
-1.84255e-10
-7.22566e-09
0
-2.84005e-10
0
0
0
0
-5.27473e-10
0
0
0
-3.26782e-09
0
0
0
0
0
-2.51007e-09
0
-1.99519e-09
-4.03057e-09
-5.54588e-10
0
0
0
-1.60552e-08
-3.03954e-09
0
-1.07953e-08
-1.16309e-08
0
-4.20138e-10
0
0
-2.08045e-09
-4.02783e-09
-1.16474e-08
-2.37058e-09
-1.44223e-08
-9.79122e-09
-8.87609e-11
-6.08154e-09
-6.71004e-10
-3.69277e-09
-2.29836e-08
-1.17472e-08
-8.40417e-08
-1.885e-08
-6.0217e-10
0
-1.4595e-09
)
;
    }
    bottom_fluid_surface
    {
        type            calculated;
        value           nonuniform List<scalar> 
64
(
39249.8
39249.8
39249.8
39249.8
39249.8
39249.8
39249.8
39249.8
39249.8
39249.8
39249.8
39249.8
39249.8
39249.8
39249.8
39249.8
39249.8
39249.8
39249.8
39249.8
39249.8
39249.8
39249.8
39249.8
39249.8
39249.8
39249.8
39249.8
39249.8
39249.8
39249.8
39249.8
39249.8
39249.8
39249.8
39249.8
39249.8
39249.8
39249.8
39249.8
39249.8
39249.8
39249.8
39249.8
39249.8
39249.8
39249.8
39249.8
39249.8
39249.8
39249.8
39249.8
39249.8
39249.8
39249.8
39249.8
39249.8
39249.8
39249.8
39249.8
39249.8
39249.8
39249.8
39249.8
)
;
    }
    lateral_surface_1
    {
        type            calculated;
        value           nonuniform List<scalar> 
40
(
4.98611
4.98681
4.98677
4.98821
4.98936
4.98916
4.9891
4.98564
4914.89
4914.9
4914.87
4914.84
4914.86
4914.85
4914.88
4914.9
14724.8
14724.8
14724.8
14724.8
14724.8
14724.8
14724.8
14724.8
24534.8
24534.8
24534.8
24534.8
24534.8
24534.8
24534.8
24534.8
34344.8
34344.8
34344.8
34344.8
34344.8
34344.8
34344.8
34344.8
)
;
    }
    lateral_surface_2
    {
        type            calculated;
        value           nonuniform List<scalar> 
40
(
4.9863
4.98635
4.98655
4.98651
4.98661
4.98598
4.9866
4.98687
4914.86
4914.84
4914.86
4914.87
4914.91
4914.89
4914.89
4914.88
14724.8
14724.8
14724.8
14724.8
14724.8
14724.8
14724.8
14724.8
24534.8
24534.8
24534.8
24534.8
24534.8
24534.8
24534.8
24534.8
34344.8
34344.8
34344.8
34344.8
34344.8
34344.8
34344.8
34344.8
)
;
    }
    lateral_surface_3
    {
        type            calculated;
        value           nonuniform List<scalar> 
40
(
4.9891
4.98863
4.98869
4.98689
4.98624
4.98618
4.98551
4.9863
4914.88
4914.9
4914.86
4914.88
4914.89
4914.84
4914.85
4914.86
14724.8
14724.8
14724.8
14724.8
14724.8
14724.8
14724.8
14724.8
24534.8
24534.8
24534.8
24534.8
24534.8
24534.8
24534.8
24534.8
34344.8
34344.8
34344.8
34344.8
34344.8
34344.8
34344.8
34344.8
)
;
    }
    lateral_surface_4
    {
        type            calculated;
        value           nonuniform List<scalar> 
40
(
4.98687
4.9861
4.98735
4.98612
4.98662
4.98647
4.98589
4.98564
4914.88
4914.87
4914.88
4914.88
4914.91
4914.91
4914.89
4914.9
14724.8
14724.8
14724.8
14724.8
14724.8
14724.8
14724.8
14724.8
24534.8
24534.8
24534.8
24534.8
24534.8
24534.8
24534.8
24534.8
34344.8
34344.8
34344.8
34344.8
34344.8
34344.8
34344.8
34344.8
)
;
    }
}


// ************************************************************************* //
