/*--------------------------------*- C++ -*----------------------------------*\
| =========                 |                                                 |
| \\      /  F ield         | OpenFOAM: The Open Source CFD Toolbox           |
|  \\    /   O peration     | Version:  v1612+                                |
|   \\  /    A nd           | Web:      www.OpenFOAM.com                      |
|    \\/     M anipulation  |                                                 |
\*---------------------------------------------------------------------------*/
FoamFile
{
    version     2.0;
    format      ascii;
    class       volScalarField;
    location    "7.05";
    object      p_rgh;
}
// * * * * * * * * * * * * * * * * * * * * * * * * * * * * * * * * * * * * * //

dimensions      [1 -1 -2 0 0 0 0];

internalField   nonuniform List<scalar> 
320
(
-9800.21
-9800.2
-9800.21
-9800.19
-0.00484551
-0.00330103
-0.00592839
0.000612134
0.00224988
-0.00241691
-0.010273
-0.0115029
-0.00499893
2.55935e-05
0.00972407
-0.000418126
-9799.82
-9799.87
-9799.94
-9799.88
-9799.9
-9799.83
-9799.8
-9799.79
-9799.82
-9799.86
-9799.99
-9799.86
-9800.21
-9800.19
-9800.21
-9800.21
-9800.21
-9800.21
-9800.2
-9800.21
-9800.2
-9800.2
-9800.2
-9800.22
-9800.21
-9800.2
-9800.2
-9800.2
-9800.21
-9800.2
-9800.2
-9800.21
-9800.21
-9800.21
-9800.21
-9800.21
-9800.21
-9800.2
-9800.2
-9800.21
-0.00304586
-0.00823127
0.00421815
-0.000367277
0.0132417
0.013107
0.010351
0.0148992
-0.000835552
0.00197008
0.0143052
0.0150359
-0.00183164
0.00324067
0.00994382
0.0106139
0.00942394
0.00119125
-0.00221775
0.00445688
-9799.86
-9799.79
-9799.97
-9799.83
-9800.01
-9800.02
-9800.02
-9800.04
-9799.85
-9799.93
-9800.03
-9800.04
-9799.84
-9799.98
-9800.01
-9800
-9800.01
-9799.9
-9799.82
-9799.98
-9800.2
-9800.21
-9800.2
-9800.21
-9800.19
-9800.19
-9800.19
-9800.19
-9800.21
-9800.21
-9800.2
-9800.19
-9800.2
-9800.19
-9800.2
-9800.2
-9800.2
-9800.21
-9800.21
-9800.2
-9800.2
-9800.21
-9800.2
-9800.21
-9800.2
-9800.2
-9800.2
-9800.2
-9800.21
-9800.21
-9800.21
-9800.2
-9800.2
-9800.2
-9800.2
-9800.2
-9800.2
-9800.2
-9800.2
-9800.2
-9800.21
-9800.2
-9800.2
-9800.2
-9800.21
-9800.2
-9800.2
-9800.21
-9800.21
-9800.21
-9800.21
-9800.21
-9800.21
-9800.2
-9800.2
-9800.21
-9800.2
-9800.21
-9800.2
-9800.21
-9800.2
-9800.2
-9800.2
-9800.2
-9800.21
-9800.21
-9800.21
-9800.2
-9800.21
-9800.2
-9800.21
-9800.21
-9800.2
-9800.21
-9800.21
-9800.2
-0.00259577
-0.00587955
-0.000971603
0.0123661
0.00337561
0.00467701
-0.0064643
-0.00250496
0.00300153
-0.0042571
-0.00259791
0.00146652
-0.000512341
0.000630598
0.00142324
-0.00271399
-0.00394719
-0.0070991
-0.00146376
-0.00674281
-0.00463501
8.78385e-05
-0.00571026
0.000808418
-0.00361049
-0.0121487
-0.00537629
-0.0163991
-9799.85
-9799.83
-9799.82
-9799.98
-9799.92
-9799.91
-9799.77
-9799.84
-9799.93
-9799.8
-9799.83
-9799.89
-9799.79
-9799.91
-9799.88
-9799.78
-9799.79
-9799.84
-9799.85
-9799.8
-9799.8
-9799.81
-9799.78
-9799.83
-9799.86
-9799.8
-9799.82
-9799.73
-9800.21
-9800.2
-9800.22
-9800.2
-9800.21
-9800.2
-9800.21
-9800.2
-9800.2
-9800.21
-9800.21
-9800.22
-9800.22
-9800.22
-9800.23
-9800.22
-9800.22
-9800.2
-9800.21
-9800.21
-9800.21
-9800.21
-9800.22
-9800.21
-9800.2
-9800.21
-9800.21
-9800.22
-9800.2
-9800.2
-9800.21
-9800.2
-9800.21
-9800.21
-9800.21
-9800.21
-9800.21
-9800.21
-9800.21
-9800.22
-9800.22
-9800.22
-9800.22
-9800.22
-9800.22
-9800.2
-9800.2
-9800.21
-9800.21
-9800.21
-9800.21
-9800.21
-9800.2
-9800.21
-9800.2
-9800.21
-9800.21
-9800.2
-9800.21
-9800.2
-9800.21
-9800.2
-9800.21
-9800.21
-9800.21
-9800.21
-9800.21
-9800.22
-9800.21
-9800.22
-9800.22
-9800.21
-9800.21
-9800.21
-9800.2
-9800.21
-9800.21
-9800.21
-9800.21
-9800.21
-9800.2
-9800.21
-9800.21
-9800.21
-0.00742389
-0.0017643
-0.00510993
0.00119359
-9799.81
-9799.84
-9799.92
-9799.83
)
;

boundaryField
{
    top_fluid_surface
    {
        type            totalPressure;
        rho             rho;
        psi             none;
        gamma           1;
        p0              uniform 0;
        value           nonuniform List<scalar> 
64
(
-3.48345e-09
-6.12144e-09
0
0
0
-3.98531e-09
-3.45804e-08
-2.68278e-08
-8.90494e-09
-6.38939e-10
0
0
-1.84255e-10
-7.22566e-09
0
-2.84005e-10
0
0
0
0
-5.27473e-10
0
0
0
-3.26782e-09
0
0
0
0
0
-2.51007e-09
0
-1.99519e-09
-4.03057e-09
-5.54588e-10
0
0
0
-1.60552e-08
-3.03954e-09
0
-1.07953e-08
-1.16309e-08
0
-4.20138e-10
0
0
-2.08045e-09
-4.02783e-09
-1.16474e-08
-2.37058e-09
-1.44223e-08
-9.79122e-09
-8.87609e-11
-6.08154e-09
-6.71004e-10
-3.69277e-09
-2.29836e-08
-1.17472e-08
-8.40417e-08
-1.885e-08
-6.0217e-10
0
-1.4595e-09
)
;
    }
    bottom_fluid_surface
    {
        type            fixedFluxPressure;
        gradient        uniform 0;
        value           nonuniform List<scalar> 
64
(
-9800.21
-9800.2
-9800.2
-9800.2
-9800.21
-9800.2
-9800.2
-9800.21
-9800.21
-9800.21
-9800.21
-9800.21
-9800.21
-9800.2
-9800.2
-9800.21
-9800.2
-9800.21
-9800.2
-9800.21
-9800.2
-9800.2
-9800.2
-9800.2
-9800.21
-9800.21
-9800.21
-9800.2
-9800.21
-9800.2
-9800.21
-9800.21
-9800.2
-9800.21
-9800.21
-9800.2
-9800.21
-9800.2
-9800.21
-9800.2
-9800.21
-9800.2
-9800.21
-9800.21
-9800.21
-9800.21
-9800.21
-9800.22
-9800.21
-9800.22
-9800.22
-9800.21
-9800.21
-9800.21
-9800.2
-9800.21
-9800.21
-9800.21
-9800.21
-9800.21
-9800.2
-9800.21
-9800.21
-9800.21
)
;
    }
    lateral_surface_1
    {
        type            fixedFluxPressure;
        gradient        uniform 0;
        value           nonuniform List<scalar> 
40
(
-0.00259577
-0.00587955
-0.000971603
0.0123661
0.00337561
0.00467701
-0.0064643
-0.0163991
-9799.85
-9799.83
-9799.82
-9799.98
-9799.92
-9799.91
-9799.77
-9799.73
-9800.21
-9800.2
-9800.22
-9800.2
-9800.21
-9800.2
-9800.21
-9800.22
-9800.2
-9800.2
-9800.21
-9800.2
-9800.21
-9800.21
-9800.21
-9800.21
-9800.21
-9800.2
-9800.21
-9800.2
-9800.21
-9800.2
-9800.21
-9800.21
)
;
    }
    lateral_surface_2
    {
        type            fixedFluxPressure;
        gradient        uniform 0;
        value           nonuniform List<scalar> 
40
(
0.000630598
0.00142324
-0.00271399
-0.00394719
-0.0070991
-0.00146376
-0.00674281
-0.00463501
-9799.91
-9799.88
-9799.78
-9799.79
-9799.84
-9799.85
-9799.8
-9799.8
-9800.22
-9800.23
-9800.22
-9800.22
-9800.2
-9800.21
-9800.21
-9800.21
-9800.22
-9800.22
-9800.22
-9800.22
-9800.2
-9800.2
-9800.21
-9800.21
-9800.22
-9800.22
-9800.21
-9800.21
-9800.21
-9800.2
-9800.21
-9800.21
)
;
    }
    lateral_surface_3
    {
        type            fixedFluxPressure;
        gradient        uniform 0;
        value           nonuniform List<scalar> 
40
(
-0.0064643
-0.00250496
0.00300153
-0.0042571
-0.00259791
0.00146652
-0.000512341
0.000630598
-9799.77
-9799.84
-9799.93
-9799.8
-9799.83
-9799.89
-9799.79
-9799.91
-9800.21
-9800.2
-9800.2
-9800.21
-9800.21
-9800.22
-9800.22
-9800.22
-9800.21
-9800.21
-9800.21
-9800.21
-9800.21
-9800.22
-9800.22
-9800.22
-9800.21
-9800.21
-9800.21
-9800.21
-9800.21
-9800.22
-9800.21
-9800.22
)
;
    }
    lateral_surface_4
    {
        type            fixedFluxPressure;
        gradient        uniform 0;
        value           nonuniform List<scalar> 
40
(
-0.00463501
8.78385e-05
-0.00571026
0.000808418
-0.00361049
-0.0121487
-0.00537629
-0.0163991
-9799.8
-9799.81
-9799.78
-9799.83
-9799.86
-9799.8
-9799.82
-9799.73
-9800.21
-9800.21
-9800.22
-9800.21
-9800.2
-9800.21
-9800.21
-9800.22
-9800.21
-9800.21
-9800.21
-9800.21
-9800.2
-9800.21
-9800.2
-9800.21
-9800.21
-9800.21
-9800.21
-9800.21
-9800.2
-9800.21
-9800.21
-9800.21
)
;
    }
}


// ************************************************************************* //
