/*--------------------------------*- C++ -*----------------------------------*\
| =========                 |                                                 |
| \\      /  F ield         | OpenFOAM: The Open Source CFD Toolbox           |
|  \\    /   O peration     | Version:  v1612+                                |
|   \\  /    A nd           | Web:      www.OpenFOAM.com                      |
|    \\/     M anipulation  |                                                 |
\*---------------------------------------------------------------------------*/
FoamFile
{
    version     2.0;
    format      ascii;
    class       surfaceScalarField;
    location    "1.95";
    object      alphaPhi;
}
// * * * * * * * * * * * * * * * * * * * * * * * * * * * * * * * * * * * * * //

dimensions      [0 3 -1 0 0 0 0];

internalField   nonuniform List<scalar> 
816
(
-1.38119e-06
-3.90637e-07
2.02086e-07
4.17105e-07
-3.07186e-07
1.46421e-06
-3.48318e-07
1.52345e-06
-1.76989e-06
1.28758e-06
-2.09226e-06
-3.09222e-08
-1.79482e-07
-7.94359e-07
-7.6652e-07
1.35823e-06
-6.06648e-07
1.29534e-06
3.89626e-07
-1.43377e-06
5.95154e-12
2.19325e-10
1.96816e-06
-3.08198e-10
7.04234e-10
-4.56113e-10
-4.86288e-06
-2.75221e-10
5.11917e-11
-3.21846e-10
1.41927e-06
1.20167e-10
-3.34926e-10
-9.24787e-11
1.95875e-06
-9.55115e-10
1.19898e-09
5.44116e-11
1.76393e-06
4.28082e-11
3.49832e-10
-1.7443e-10
-9.13063e-07
1.0508e-09
4.26463e-10
5.01211e-10
-7.09067e-06
-4.82104e-11
8.80412e-10
3.53567e-10
1.73086e-06
-1.24328e-10
4.41984e-10
2.22864e-10
4.92952e-06
-8.04771e-11
3.19238e-10
5.26128e-10
3.29855e-06
-3.86488e-10
1.82841e-10
1.51221e-10
-3.1757e-06
-5.39228e-10
3.31043e-10
7.36936e-11
-1.27067e-10
-1.59712e-10
3.30412e-06
-6.4032e-07
-2.52079e-06
3.17951e-06
6.87925e-06
7.84697e-07
-8.48909e-06
3.07044e-06
1.50417e-06
-1.6543e-07
1.79142e-06
2.58556e-06
2.79511e-06
-6.06792e-07
5.43054e-06
-9.16602e-07
4.03193e-06
-9.1032e-07
3.13353e-06
1.96383e-06
2.37302e-06
-1.2364e-06
-9.80194e-07
1.71514e-06
4.52816e-06
-4.93775e-06
-1.06513e-06
-9.54197e-07
3.74193e-06
-3.39254e-06
5.42343e-06
-3.54785e-06
8.47584e-06
3.5356e-06
-1.35138e-07
2.08067e-06
9.05017e-06
4.68091e-06
4.17764e-06
1.53236e-07
6.73205e-06
1.19192e-06
-4.10308e-06
-2.06017e-06
5.04148e-06
1.07795e-05
5.53635e-06
4.9337e-07
1.01583e-06
-2.75287e-06
-9.28273e-07
3.56525e-07
-2.54835e-06
-3.23703e-06
-1.47192e-07
-6.58206e-08
1.38943e-06
-4.06787e-07
-1.6694e-06
1.40185e-06
2.21503e-06
-1.4501e-08
1.08016e-06
1.16913e-06
1.68803e-06
-4.52015e-07
-4.97531e-07
8.62154e-07
1.90415e-07
-3.92514e-07
-1.01956e-06
1.22201e-06
1.15325e-06
2.4003e-06
1.30283e-06
-9.10066e-07
5.97772e-07
8.34198e-07
5.22917e-07
-3.72926e-07
2.71577e-06
1.56314e-07
-2.0886e-06
-1.62041e-06
-3.70173e-07
5.33505e-06
-1.46427e-07
7.59783e-07
-7.51394e-07
8.43279e-08
-5.17245e-08
2.38708e-07
1.58615e-07
1.88342e-07
5.41799e-07
-5.31918e-07
3.36087e-07
3.23052e-07
8.98849e-08
-9.34545e-07
-1.37689e-07
-3.32937e-07
9.33169e-07
3.02754e-07
6.06453e-07
-1.55985e-06
3.75844e-07
-3.93298e-07
-1.51173e-06
2.90621e-07
-8.4773e-07
5.99763e-07
-3.57085e-07
-7.29731e-07
3.73032e-07
1.13827e-06
3.82483e-07
7.71699e-07
8.30341e-07
8.57103e-07
2.91465e-07
-2.10461e-07
2.20429e-07
4.43645e-07
-8.49929e-08
-8.01858e-07
5.89709e-07
-4.8743e-08
1.13163e-07
8.92093e-07
7.02273e-07
-5.13307e-07
8.32189e-07
4.74111e-07
-7.59996e-08
-7.38972e-08
4.52256e-07
8.76776e-07
-1.12659e-06
1.71146e-07
-5.12406e-07
4.71731e-07
6.42126e-07
1.53855e-06
1.9939e-10
-3.77325e-10
2.46145e-07
-4.51019e-10
6.67453e-11
1.98394e-06
-9.99562e-10
-3.51411e-11
-3.9521e-06
-4.30238e-10
-3.15562e-10
-2.94904e-06
-4.67278e-10
6.88769e-12
8.64329e-12
-9.37312e-10
-7.46046e-10
-1.53627e-10
1.72346e-06
-9.18794e-10
6.65094e-10
3.41945e-06
-1.02943e-09
1.51887e-10
-2.24799e-06
-5.79238e-10
-4.71437e-10
3.61631e-12
4.27235e-11
-2.17752e-10
-1.85749e-06
3.91241e-10
-1.11224e-09
1.72144e-10
1.60184e-06
-4.59385e-10
2.36873e-10
-1.02746e-05
-4.43527e-10
3.84075e-11
2.31596e-06
-2.74021e-10
5.05094e-10
3.28797e-06
-8.19405e-10
-1.07231e-10
-1.04684e-05
-3.99282e-10
4.39886e-10
-5.29063e-10
-7.30564e-06
-2.07826e-10
-8.96235e-11
2.80223e-06
-8.06218e-10
-2.3055e-10
2.92761e-06
-9.44218e-10
-3.83954e-10
4.55557e-06
2.524e-10
6.96127e-07
-6.10857e-10
7.82262e-11
3.01017e-06
-4.35307e-06
9.23445e-06
4.16389e-06
4.06275e-06
4.18848e-06
8.84574e-06
-4.77801e-07
-1.7614e-06
3.58175e-06
-5.48282e-06
2.14994e-06
6.5725e-07
-4.25233e-08
4.43594e-06
-1.81346e-06
-6.66817e-06
1.07137e-06
6.12316e-06
1.35759e-06
3.61961e-06
9.44086e-06
5.50472e-07
-2.38705e-06
7.48457e-06
-1.11603e-06
-2.92321e-06
4.43983e-06
-1.69896e-06
-1.11014e-06
-7.47081e-06
5.79694e-06
3.14218e-06
-9.35849e-07
6.62029e-06
5.53037e-06
-6.88735e-06
1.0065e-06
-2.12298e-06
-5.03678e-07
1.21933e-06
-1.16115e-06
7.90195e-06
2.5945e-06
4.7151e-06
-1.25226e-06
-3.4107e-06
-2.83053e-06
1.66271e-06
-2.82874e-06
-2.3594e-06
5.45838e-06
-5.07104e-07
5.33772e-06
4.23361e-06
-2.79024e-06
1.01509e-05
-6.47687e-07
3.48859e-06
7.98674e-06
3.25784e-06
-1.6846e-06
6.83688e-06
-2.30657e-06
-2.94994e-07
3.24498e-06
4.40039e-06
1.73702e-06
2.9076e-07
2.08985e-06
1.86886e-06
-8.00808e-07
-8.06901e-07
1.06163e-08
1.72352e-07
1.84738e-06
-1.06811e-06
-1.50183e-06
2.57569e-06
1.24129e-06
2.29727e-06
-3.80616e-07
3.25713e-06
8.51894e-08
2.15392e-06
4.11601e-06
2.77862e-06
3.65921e-06
3.34428e-06
4.32824e-06
4.18511e-06
2.37722e-06
2.43179e-06
-2.44525e-06
-3.19513e-06
-5.97107e-07
2.95613e-06
-5.80829e-07
3.39895e-06
1.57061e-06
4.41431e-07
4.73149e-07
7.70609e-07
2.46974e-07
9.52441e-07
1.77116e-06
1.32049e-06
1.42369e-06
9.37868e-07
-1.69401e-06
-1.27855e-06
5.27722e-07
3.58536e-07
-2.59998e-06
-4.92169e-07
-4.31617e-07
-1.04006e-06
2.43883e-06
1.49115e-06
1.45339e-06
4.60023e-06
2.68187e-06
3.30985e-06
3.48747e-06
3.40089e-06
-8.9102e-07
1.77692e-06
3.99741e-06
-2.65377e-07
2.12692e-06
1.29228e-06
1.73602e-06
6.34606e-09
5.33582e-07
1.66947e-06
-9.56451e-07
3.02961e-08
4.23427e-07
-4.08895e-08
5.7666e-07
5.42641e-09
-7.98905e-07
8.52604e-07
1.14108e-06
1.34726e-06
1.89001e-07
1.06668e-06
4.84158e-07
1.20996e-06
1.51598e-06
1.96564e-06
1.92822e-06
8.95767e-07
2.59076e-06
2.70925e-06
5.28324e-07
1.30913e-06
-1.5268e-06
-1.03488e-06
-2.29283e-07
2.34294e-06
-4.9603e-07
1.0713e-06
1.76005e-06
-1.91369e-07
1.80909e-07
6.04706e-07
-5.39899e-08
2.97275e-07
1.4112e-06
6.53745e-07
3.57757e-07
1.18218e-06
-1.04031e-06
-3.59014e-07
5.38847e-07
2.31176e-07
-1.27872e-06
4.85437e-09
1.97302e-07
-5.46609e-07
6.80383e-07
1.47172e-06
8.03768e-07
1.36245e-06
2.05231e-06
2.182e-06
9.29956e-07
1.81947e-06
-2.21478e-07
1.63692e-06
1.99687e-06
-4.10538e-07
1.67944e-07
1.46976e-08
3.83496e-07
1.46233e-07
1.4965e-07
-3.71755e-07
7.97206e-08
2.4613e-07
-2.98955e-07
-6.51543e-08
5.85915e-07
3.14126e-08
-4.99538e-07
8.93677e-08
-7.17341e-07
5.65084e-08
3.97359e-07
-2.87392e-07
-4.49871e-07
7.89931e-07
9.56638e-09
6.32369e-07
3.8096e-07
-1.7199e-07
3.47998e-07
3.76498e-07
-1.45202e-07
5.10936e-07
2.89069e-07
5.07481e-07
-4.76078e-07
4.60498e-07
2.18297e-07
-1.27827e-07
2.10779e-07
-4.47117e-07
1.88375e-07
1.48069e-07
4.47632e-07
-3.4319e-07
1.17179e-06
6.10329e-07
-3.21284e-07
6.01693e-07
-4.72482e-07
2.42902e-07
-6.77228e-08
-1.11392e-07
-2.34266e-07
4.02572e-07
6.21256e-07
2.16031e-07
1.78471e-07
9.41699e-07
8.02008e-07
1.20056e-06
1.0201e-06
1.42557e-06
6.5561e-07
-8.67618e-07
1.12477e-07
1.15807e-06
-2.64392e-07
8.49841e-07
-8.24158e-08
5.07187e-07
5.33904e-08
6.62181e-07
3.33547e-07
5.24456e-07
-6.56136e-07
4.17197e-07
1.96655e-07
-6.46647e-07
1.95048e-07
-2.5472e-07
4.97167e-07
3.86817e-07
9.08616e-07
9.11155e-07
8.51489e-07
7.61275e-07
1.09075e-06
1.4121e-10
5.70507e-10
-1.07287e-05
-1.44982e-11
-2.83889e-06
6.1211e-11
-1.43046e-05
-3.66346e-10
-8.47734e-06
-6.67934e-10
1.90815e-06
-4.25501e-10
1.01504e-06
3.51037e-10
1.09298e-06
-3.34492e-10
1.14642e-06
-1.21378e-10
7.59958e-07
8.79972e-10
-6.6509e-06
1.32993e-09
-8.48458e-06
2.53052e-10
-2.14451e-07
-4.32395e-10
3.87241e-13
-5.66967e-10
-6.39203e-06
-3.62848e-10
-1.19144e-05
3.25877e-10
-7.95527e-06
2.36814e-10
1.25172e-06
-1.95324e-11
1.57262e-11
1.05151e-09
-5.50903e-06
5.94769e-10
-1.2049e-07
-6.30943e-11
8.81656e-07
-1.01164e-09
-5.49732e-06
-1.32259e-09
-6.33887e-06
4.71088e-10
-5.28733e-06
7.88661e-10
-2.27455e-06
9.58318e-11
-4.32916e-06
-2.60276e-10
-4.26628e-06
-1.07746e-05
1.37356e-06
-1.9755e-07
-3.48749e-06
2.34113e-06
3.44596e-07
-7.74418e-07
-7.56318e-06
-7.11434e-06
-1.61803e-06
-5.92204e-06
6.65617e-06
-4.47128e-06
-7.55141e-07
4.21883e-06
-3.99331e-06
4.83239e-06
-4.31994e-06
3.36398e-06
5.33858e-06
-1.13928e-06
-3.41449e-06
1.27316e-06
-1.48388e-05
4.86684e-06
-6.72439e-06
4.86103e-06
5.69953e-06
-2.35646e-06
-1.90158e-06
-3.04694e-06
-1.25627e-05
-6.70863e-06
-2.23625e-06
-5.33878e-06
5.87904e-07
5.29032e-07
-3.36521e-06
1.60731e-06
-2.08763e-06
-7.43518e-07
-9.69869e-07
5.38586e-06
-3.39512e-06
2.48646e-06
-5.23784e-07
-1.58118e-06
2.92281e-06
-3.18521e-06
-2.14457e-06
-1.85156e-06
-5.88207e-06
8.01954e-07
-3.79029e-06
5.59351e-06
-7.71985e-06
-8.80522e-06
-2.22341e-06
3.08769e-06
-2.57e-06
1.61047e-08
-1.36084e-07
-1.77733e-06
-3.9016e-06
-2.2806e-06
-1.10373e-06
7.31772e-07
2.57913e-06
1.96075e-06
-7.36837e-07
-7.27781e-07
-1.30439e-06
-1.34224e-06
-1.4105e-06
2.24256e-06
1.84228e-06
3.78971e-06
-2.17873e-06
-9.25251e-08
-6.62451e-06
-1.78529e-06
-2.58187e-06
1.07605e-06
2.27876e-06
7.04325e-07
-1.52729e-06
-2.59665e-06
-6.27014e-06
-1.29755e-06
-1.94884e-06
1.15246e-07
-2.35297e-08
7.98373e-08
-1.55029e-06
5.08179e-07
-1.57603e-06
8.23994e-07
-7.62877e-07
-1.52059e-06
-1.05527e-06
-1.37158e-06
-3.16014e-07
3.09111e-07
8.0212e-07
1.31199e-06
-1.66042e-06
1.3075e-06
-3.19976e-06
2.17925e-06
-1.26249e-06
1.27216e-06
-2.81867e-06
-4.44882e-06
-1.46051e-06
1.41059e-06
-8.75525e-07
-7.51056e-08
2.24226e-07
-1.2046e-06
-1.10237e-06
-1.53138e-06
-3.50163e-07
1.80705e-07
8.75096e-07
6.18425e-07
-3.21029e-08
-2.58288e-07
-4.18478e-07
1.33268e-07
-4.48286e-07
1.87998e-06
5.80692e-07
2.01887e-06
-3.48587e-07
-1.67196e-07
-1.84081e-06
-4.76981e-07
-9.51892e-07
1.21966e-06
3.66304e-07
4.34139e-07
-7.32504e-07
-1.4731e-06
-1.99841e-06
-1.15745e-06
-5.01665e-07
-3.80978e-07
-1.88818e-07
-1.43929e-07
-3.76915e-07
-1.27131e-07
-4.17893e-07
-5.23253e-09
-3.61503e-07
-4.62928e-07
-6.02002e-07
-3.46275e-07
-2.17953e-07
4.89695e-07
1.58981e-07
4.90217e-07
-1.92945e-07
1.7625e-07
-8.36752e-07
1.1243e-06
-3.86912e-07
1.39604e-06
-1.09177e-06
-1.6545e-06
-1.04195e-06
9.18977e-07
-2.08103e-07
-7.07745e-07
-8.10908e-07
-4.27548e-08
3.26023e-07
-9.27034e-08
8.94607e-08
8.50506e-07
1.30509e-06
4.88859e-07
1.97975e-07
6.7986e-07
-4.92249e-08
-8.81791e-07
-5.39049e-07
-2.24319e-07
5.26417e-08
1.4934e-07
1.9853e-07
-4.10654e-07
-4.41455e-07
-9.07904e-08
2.11356e-07
2.77489e-07
7.40741e-07
7.39137e-07
-1.65429e-10
-2.95478e-10
-8.50798e-06
-8.47258e-10
-5.68314e-06
-2.35949e-10
-1.08878e-05
-4.75148e-06
2.13338e-06
-4.92041e-07
3.93295e-09
1.63588e-06
)
;

boundaryField
{
    top_fluid_surface
    {
        type            calculated;
        value           nonuniform List<scalar> 
64
(
0
4.32788e-10
4.68983e-11
0
0
0
0
0
0
0
4.92395e-10
2.83178e-10
3.07506e-10
3.65239e-10
3.85527e-10
8.53186e-10
8.11144e-10
5.01256e-10
0
7.47953e-10
1.05466e-09
1.39531e-10
5.679e-10
5.03811e-10
5.45014e-10
5.01448e-11
5.84589e-10
7.35133e-10
0
1.93753e-10
0
0
0
0
0
4.34019e-11
0
0
0
0
0
0
0
7.17495e-10
9.89997e-10
8.30011e-11
0
0
0
7.74507e-11
0
0
5.78804e-10
9.38829e-10
0
0
0
6.20305e-10
3.90796e-10
2.83168e-10
1.05465e-09
1.12267e-09
6.37497e-10
5.95828e-11
)
;
    }
    bottom_fluid_surface
    {
        type            calculated;
        value           uniform 0;
    }
    lateral_surface_1
    {
        type            calculated;
        value           uniform 0;
    }
    lateral_surface_2
    {
        type            calculated;
        value           uniform 0;
    }
    lateral_surface_3
    {
        type            calculated;
        value           uniform 0;
    }
    lateral_surface_4
    {
        type            calculated;
        value           uniform 0;
    }
}


// ************************************************************************* //
