/*--------------------------------*- C++ -*----------------------------------*\
| =========                 |                                                 |
| \\      /  F ield         | OpenFOAM: The Open Source CFD Toolbox           |
|  \\    /   O peration     | Version:  v1612+                                |
|   \\  /    A nd           | Web:      www.OpenFOAM.com                      |
|    \\/     M anipulation  |                                                 |
\*---------------------------------------------------------------------------*/
FoamFile
{
    version     2.0;
    format      ascii;
    class       volScalarField;
    location    "1.95";
    object      p_rgh;
}
// * * * * * * * * * * * * * * * * * * * * * * * * * * * * * * * * * * * * * //

dimensions      [1 -1 -2 0 0 0 0];

internalField   nonuniform List<scalar> 
320
(
-9800.22
-9800.21
-9800.21
-9800.2
0.000929318
0.00321315
0.000873382
-0.00203622
-0.00239082
-0.00470377
-0.0062889
-0.0032622
0.000537677
-1.50819e-06
0.00353963
0.00375036
-9800.05
-9800.1
-9800.1
-9800.12
-9800.11
-9800.06
-9800.08
-9800.09
-9800.07
-9800.06
-9800.12
-9800.15
-9800.21
-9800.22
-9800.22
-9800.2
-9800.2
-9800.21
-9800.2
-9800.2
-9800.21
-9800.21
-9800.22
-9800.21
-9800.22
-9800.21
-9800.21
-9800.2
-9800.21
-9800.21
-9800.21
-9800.2
-9800.2
-9800.2
-9800.2
-9800.2
-9800.21
-9800.21
-9800.22
-9800.21
0.00298152
-0.0012669
0.00141733
0.00472952
0.00557444
0.00291979
-0.00403535
0.00408402
0.00745271
0.0013171
-0.00198052
0.00149649
-0.00121005
0.00120656
0.00295312
0.00465218
-0.000702418
0.00195851
-3.95759e-05
-0.00132894
-9800.18
-9800.12
-9800.15
-9800.13
-9800.16
-9800.15
-9800.11
-9800.19
-9800.17
-9800.08
-9800.12
-9800.16
-9800.12
-9800.14
-9800.11
-9800.13
-9800.1
-9800.17
-9800.11
-9800.08
-9800.21
-9800.21
-9800.21
-9800.21
-9800.21
-9800.21
-9800.19
-9800.2
-9800.21
-9800.22
-9800.21
-9800.21
-9800.22
-9800.21
-9800.22
-9800.22
-9800.2
-9800.21
-9800.21
-9800.21
-9800.21
-9800.21
-9800.21
-9800.21
-9800.2
-9800.2
-9800.2
-9800.2
-9800.21
-9800.21
-9800.2
-9800.21
-9800.21
-9800.21
-9800.22
-9800.21
-9800.2
-9800.21
-9800.2
-9800.21
-9800.21
-9800.21
-9800.2
-9800.2
-9800.21
-9800.21
-9800.2
-9800.2
-9800.2
-9800.2
-9800.2
-9800.2
-9800.21
-9800.21
-9800.21
-9800.21
-9800.21
-9800.21
-9800.21
-9800.21
-9800.2
-9800.2
-9800.2
-9800.2
-9800.21
-9800.21
-9800.2
-9800.21
-9800.21
-9800.21
-9800.21
-9800.21
-9800.21
-9800.21
-9800.21
-9800.21
-0.00606336
-0.00213918
-0.00531226
-0.000808515
-0.00103383
-0.00471533
-0.0029428
-0.000259641
-0.00490803
-0.00807602
-0.00519685
0.00461493
0.00570307
-0.000577564
-0.00602509
-0.00546091
-0.00189411
0.000452002
-0.00661674
-0.00114995
0.00462206
0.00706762
-0.0016435
-0.0100494
-0.00558473
0.00422513
0.00277043
-0.000417241
-9800.08
-9800.13
-9800.07
-9800.16
-9800.12
-9800.1
-9800.05
-9800.06
-9800.11
-9800.07
-9800.02
-9800.1
-9800.19
-9800.14
-9800.05
-9800.1
-9800.1
-9800.12
-9800.07
-9800.08
-9800.09
-9800.14
-9800.11
-9800.07
-9800.07
-9800.14
-9800.1
-9800.13
-9800.2
-9800.2
-9800.2
-9800.2
-9800.2
-9800.2
-9800.2
-9800.21
-9800.19
-9800.19
-9800.21
-9800.22
-9800.21
-9800.2
-9800.21
-9800.19
-9800.2
-9800.22
-9800.21
-9800.21
-9800.23
-9800.22
-9800.2
-9800.2
-9800.21
-9800.21
-9800.22
-9800.21
-9800.2
-9800.2
-9800.21
-9800.2
-9800.2
-9800.19
-9800.2
-9800.21
-9800.2
-9800.2
-9800.21
-9800.21
-9800.21
-9800.21
-9800.21
-9800.2
-9800.2
-9800.21
-9800.21
-9800.21
-9800.22
-9800.22
-9800.21
-9800.2
-9800.21
-9800.21
-9800.21
-9800.21
-9800.21
-9800.2
-9800.2
-9800.2
-9800.2
-9800.2
-9800.2
-9800.2
-9800.2
-9800.2
-9800.2
-9800.21
-9800.21
-9800.21
-9800.21
-9800.2
-9800.21
-9800.21
-9800.21
-9800.21
-9800.21
-9800.21
-9800.21
-9800.21
-9800.21
-9800.21
-9800.21
-9800.21
0.00839948
0.00872357
0.00164127
-0.000845532
-9800.12
-9800.17
-9800.16
-9800.17
)
;

boundaryField
{
    top_fluid_surface
    {
        type            totalPressure;
        rho             rho;
        psi             none;
        gamma           1;
        p0              uniform 0;
        value           nonuniform List<scalar> 
64
(
-4.89794e-10
0
0
-1.23769e-09
-1.77228e-09
-5.63261e-09
-6.60595e-09
-2.70201e-09
-3.94544e-10
-3.42797e-10
0
0
0
-4.90239e-10
0
0
0
0
-4.94352e-09
0
0
0
-2.34294e-10
0
-2.82582e-10
0
0
0
-7.55505e-10
0
-1.10843e-09
-7.47355e-10
-4.63909e-09
-3.3837e-10
-1.66203e-09
0
-5.32482e-10
-5.3321e-09
-2.95683e-09
-2.32231e-10
-4.88501e-09
-1.04724e-08
-4.13805e-09
0
0
0
-3.43078e-09
-2.82156e-09
-9.33511e-10
0
-8.69615e-09
-3.78545e-10
0
0
-1.14451e-10
-1.69712e-08
-6.37539e-09
0
0
0
0
0
0
-4.28263e-12
)
;
    }
    bottom_fluid_surface
    {
        type            fixedFluxPressure;
        gradient        uniform 0;
        value           nonuniform List<scalar> 
64
(
-9800.21
-9800.21
-9800.2
-9800.2
-9800.21
-9800.21
-9800.2
-9800.2
-9800.2
-9800.2
-9800.2
-9800.2
-9800.21
-9800.21
-9800.21
-9800.21
-9800.21
-9800.21
-9800.21
-9800.21
-9800.2
-9800.2
-9800.2
-9800.2
-9800.21
-9800.21
-9800.2
-9800.21
-9800.21
-9800.21
-9800.21
-9800.21
-9800.21
-9800.21
-9800.21
-9800.21
-9800.21
-9800.2
-9800.2
-9800.2
-9800.2
-9800.2
-9800.2
-9800.2
-9800.2
-9800.2
-9800.2
-9800.21
-9800.21
-9800.21
-9800.21
-9800.2
-9800.21
-9800.21
-9800.21
-9800.21
-9800.21
-9800.21
-9800.21
-9800.21
-9800.21
-9800.21
-9800.21
-9800.21
)
;
    }
    lateral_surface_1
    {
        type            fixedFluxPressure;
        gradient        uniform 0;
        value           nonuniform List<scalar> 
40
(
-0.00606336
-0.00213918
-0.00531226
-0.000808515
-0.00103383
-0.00471533
-0.0029428
-0.000417241
-9800.08
-9800.13
-9800.07
-9800.16
-9800.12
-9800.1
-9800.05
-9800.13
-9800.2
-9800.2
-9800.2
-9800.2
-9800.2
-9800.2
-9800.2
-9800.21
-9800.2
-9800.2
-9800.21
-9800.2
-9800.2
-9800.19
-9800.2
-9800.21
-9800.21
-9800.2
-9800.2
-9800.2
-9800.2
-9800.2
-9800.2
-9800.21
)
;
    }
    lateral_surface_2
    {
        type            fixedFluxPressure;
        gradient        uniform 0;
        value           nonuniform List<scalar> 
40
(
-0.000577564
-0.00602509
-0.00546091
-0.00189411
0.000452002
-0.00661674
-0.00114995
0.00462206
-9800.14
-9800.05
-9800.1
-9800.1
-9800.12
-9800.07
-9800.08
-9800.09
-9800.2
-9800.21
-9800.19
-9800.2
-9800.22
-9800.21
-9800.21
-9800.23
-9800.21
-9800.21
-9800.2
-9800.2
-9800.21
-9800.21
-9800.21
-9800.22
-9800.21
-9800.21
-9800.2
-9800.21
-9800.21
-9800.21
-9800.21
-9800.21
)
;
    }
    lateral_surface_3
    {
        type            fixedFluxPressure;
        gradient        uniform 0;
        value           nonuniform List<scalar> 
40
(
-0.0029428
-0.000259641
-0.00490803
-0.00807602
-0.00519685
0.00461493
0.00570307
-0.000577564
-9800.05
-9800.06
-9800.11
-9800.07
-9800.02
-9800.1
-9800.19
-9800.14
-9800.2
-9800.21
-9800.19
-9800.19
-9800.21
-9800.22
-9800.21
-9800.2
-9800.2
-9800.21
-9800.2
-9800.2
-9800.21
-9800.21
-9800.21
-9800.21
-9800.2
-9800.2
-9800.2
-9800.2
-9800.2
-9800.21
-9800.21
-9800.21
)
;
    }
    lateral_surface_4
    {
        type            fixedFluxPressure;
        gradient        uniform 0;
        value           nonuniform List<scalar> 
40
(
0.00462206
0.00706762
-0.0016435
-0.0100494
-0.00558473
0.00422513
0.00277043
-0.000417241
-9800.09
-9800.14
-9800.11
-9800.07
-9800.07
-9800.14
-9800.1
-9800.13
-9800.23
-9800.22
-9800.2
-9800.2
-9800.21
-9800.21
-9800.22
-9800.21
-9800.22
-9800.22
-9800.21
-9800.2
-9800.21
-9800.21
-9800.21
-9800.21
-9800.21
-9800.21
-9800.21
-9800.21
-9800.21
-9800.21
-9800.21
-9800.21
)
;
    }
}


// ************************************************************************* //
