/*--------------------------------*- C++ -*----------------------------------*\
| =========                 |                                                 |
| \\      /  F ield         | OpenFOAM: The Open Source CFD Toolbox           |
|  \\    /   O peration     | Version:  v1612+                                |
|   \\  /    A nd           | Web:      www.OpenFOAM.com                      |
|    \\/     M anipulation  |                                                 |
\*---------------------------------------------------------------------------*/
FoamFile
{
    version     2.0;
    format      ascii;
    class       volScalarField;
    location    "9.15";
    object      alpha.water;
}
// * * * * * * * * * * * * * * * * * * * * * * * * * * * * * * * * * * * * * //

dimensions      [0 0 0 0 0 0 0];

internalField   nonuniform List<scalar> 
1116
(
0.739759
0.741098
0.742661
0.738007
0.735789
0.742584
0.78673
0.78769
0.788891
0.787038
0.787038
0.789217
0.927728
0.92917
0.929691
0.927851
0.926872
0.929897
0.964244
0.964244
0.964243
0.964248
0.96425
0.964233
0.964285
0.964281
0.964287
0.9643
0.964306
0.964275
0.96433
0.964334
0.964341
0.96435
0.964354
0.964342
0.964334
0.964341
0.96435
0.964354
0.964354
0.964354
0.944216
0.944441
0.944626
0.943929
0.942479
0.945635
0.82223
0.820038
0.821135
0.821516
0.821353
0.821172
0.773294
0.77174
0.772596
0.771652
0.773568
0.773392
0.771265
0.769404
0.770428
0.771021
0.770501
0.769637
0.681406
0.679001
0.67963
0.681229
0.679337
0.678957
0.214361
0.213284
0.21329
0.216439
0.217647
0.214674
0.250086
0.253419
0.253704
0.249151
0.24614
0.254646
0.349073
0.355433
0.35749
0.348437
0.344093
0.357819
0.496075
0.500938
0.502423
0.496644
0.49385
0.503896
0.624257
0.625609
0.625423
0.625232
0.625003
0.628364
0.712903
0.713477
0.712819
0.712802
0.712402
0.713517
0.745317
0.744966
0.744823
0.744238
0.744538
0.742913
0.796892
0.793018
0.793665
0.794105
0.794644
0.791762
0.838576
0.838575
0.838523
0.838464
0.838395
0.838293
0.773985
0.78103
0.777581
0.778541
0.782871
0.776397
0.460447
0.480249
0.473081
0.467217
0.476242
0.471095
0.53797
0.518417
0.528094
0.534263
0.51635
0.527782
1.44718e-07
1.67178e-08
1.84072e-08
2.12994e-08
3.00781e-08
1.30658e-08
8.13424e-09
5.278e-11
1.05325e-09
1.33317e-10
1.61567e-09
4.51628e-16
1.94464e-10
2.12074e-13
1.08429e-22
2.11304e-16
2.48721e-11
5.90236e-14
6.32505e-14
2.51459e-24
2.56418e-24
7.04952e-14
4.97537e-12
1.0738e-12
7.59365e-12
1.73708e-25
1.86116e-25
2.45868e-25
1.6998e-11
2.8484e-11
5.62483e-25
-2.44622e-10
-1.5622e-10
-2.20891e-10
1.1382e-23
3.55688e-25
-5.28823e-09
-6.26454e-09
-5.52882e-09
-6.20974e-09
-4.13054e-09
-5.89769e-09
-9.01937e-08
-4.52791e-08
-4.91122e-08
-8.08277e-08
-6.18955e-08
-5.78316e-08
1.60351e-05
-8.13885e-08
-2.92727e-07
1.88395e-05
1.1505e-06
5.25604e-07
0.0852384
0.0862603
0.0852293
0.0854125
0.0834033
0.0866251
0.148231
0.143572
0.1495
0.144945
0.136316
0.1569
0.537858
0.531705
0.529044
0.53415
0.527317
0.527579
9.1681e-05
4.54176e-05
3.60649e-05
6.43218e-05
8.23646e-05
3.47809e-05
4.71596e-06
2.12074e-13
8.49847e-08
2.11291e-16
4.53027e-16
1.18761e-16
6.32509e-14
8.04052e-20
-1.7063e-14
8.56372e-23
2.11057e-16
4.51703e-16
1.99304e-20
-1.13304e-12
-6.95157e-13
1.98793e-19
7.02611e-14
5.90283e-14
1.19388e-12
-2.71252e-11
-1.75215e-11
1.73878e-11
1.30245e-09
6.31488e-10
1.09744e-09
-4.34896e-10
-3.1035e-10
6.3976e-10
4.11421e-08
5.57747e-10
-3.0139e-08
-3.42135e-08
-3.14929e-08
-3.27295e-08
-4.57021e-09
-3.71024e-08
-9.77172e-08
-4.91528e-08
-5.4043e-08
-8.74502e-08
-6.55077e-08
-6.4021e-08
-4.17787e-07
-2.64198e-08
-1.05248e-07
-4.79763e-07
-2.46417e-07
-2.34081e-07
3.6425e-05
8.94061e-08
1.24047e-06
3.40732e-05
7.30183e-06
6.45757e-06
0.000208217
0.000209061
0.000198717
0.000209516
0.000196898
0.00020044
0.455385
0.41777
0.429977
0.449656
0.440195
0.424247
0.0973261
0.0974523
0.0974549
0.0975888
0.0974943
0.0973382
0.0974538
0.0975432
0.0975888
0.0976225
0.0974771
0.0975329
0.0975433
0.0976041
0.0976254
0.09765
0.0976789
0.0976511
0.0975963
0.0976
0.095532
0.0976284
0.0976499
0.0976242
0.0976233
0.0976044
0.0632305
0.0698918
0.0976213
0.0975373
0.0975963
0.0825325
0.0500164
0.0701415
0.0975599
0.0975136
0.0787102
0.0954527
0.0887641
0.0311178
0.0483916
0.0630924
0.0548623
0.0715967
0.0540919
0.00937932
0.00866455
0.0464003
0.0214222
0.0272618
0.0320333
0.00827136
0.00815019
0.0367374
0.00880797
0.0106277
0.0319049
0.0097391
0.00894454
0.0338802
0.011404
0.0033492
0.0175687
0.0270514
0.0222611
0.0326718
0.011404
0.00347481
0.0162891
0.0279994
0.0286355
0.0286569
0.0666694
0.0576276
0.0425451
0.0452756
0.0556139
0.0567167
0.0610248
0.0538386
0.0432164
0.0497236
0.0486097
0.0380138
0.0545199
0.0644376
0.0590354
0.054055
0.0522323
0.0472558
0.0796687
0.0616473
0.0582943
0.0651633
0.05001
0.0654883
0.0976821
0.0683035
0.0485688
0.0906741
0.0656184
0.0864027
0.0976121
0.0942492
0.0494566
0.0961972
0.0975915
0.0975534
0.0971351
0.0961327
0.0569284
0.0439396
0.0927143
0.0977593
0.0508693
0.0954528
0.0471536
0.00841877
0.0247398
0.0518823
0.0094946
0.016854
0.0210071
0.0100731
0.00384416
0.0052177
0.00455682
0.00606508
0.00518253
0.00495918
0.00229143
0.00328284
0.00412589
0.00309429
0.00068321
0.000622331
0.000616713
0.00132922
0.00581074
0.00282831
0.000926876
0.000615578
0.000927459
0.00094349
2.71883e-08
2.63927e-08
1.94647e-08
1.11979e-08
1.65087e-08
2.25192e-08
2.90886e-08
2.02603e-08
1.11907e-08
9.08298e-09
9.77413e-09
1.85463e-08
0.00518602
9.79497e-08
9.07307e-09
8.66935e-09
9.04992e-09
9.77415e-09
0.00416639
0.00283235
0.00419341
9.04992e-09
9.41994e-09
1.16967e-08
0.00294763
0.0113875
0.012657
0.00505372
1.14588e-08
2.13662e-08
0.000190255
0.021946
0.048755
0.0422364
0.00849717
0.0181446
0.0044302
0.0390386
0.0565236
0.0572526
0.0576085
0.0828828
0.0114703
0.0740861
0.0280601
0.0075462
0.0401594
0.0825907
0.0236401
0.0459222
0.00979329
0.00508691
0.00286307
0.0186265
0.0114789
0.00329932
0.000171851
0.000403133
0.000234105
0.000346553
0.000658815
0.000544928
0.000306659
0.00223694
0.00262075
0.00030659
0.000905479
0.00198138
0.0020787
0.00527305
0.00660458
0.00355452
2.26194e-07
1.27755e-07
1.17024e-07
2.95316e-06
1.16386e-07
1.61664e-07
1.65017e-06
7.29365e-07
3.43718e-08
2.2042e-07
5.38629e-07
3.24791e-07
5.67127e-07
1.55286e-06
9.10858e-09
7.58266e-09
1.06537e-08
9.99858e-05
2.21194e-07
3.82581e-08
1.51411e-08
1.88943e-08
3.74182e-07
3.38671e-05
5.02645e-07
1.00353e-07
2.13192e-08
1.54789e-08
1.06774e-08
2.25992e-08
1.01257e-06
9.45341e-08
1.62871e-08
1.06714e-08
6.77945e-09
5.41305e-09
3.15545e-05
1.01256e-06
0.0117329
0.0182234
0.000886855
1.9119e-09
0.000101148
0.0005236
0.0212025
0.0173814
0.0143965
0.0243873
0.00653878
0.00980855
0.00278008
0.00085837
0.00335114
0.0239785
0.00886776
0.00610716
3.41374e-05
0.00010881
0.000177082
0.00237948
0.00128919
0.000163908
1.36813e-05
0.000408274
0.00189996
0.000115257
0.00627686
0.00605944
0.00536483
0.00838512
0.0084166
0.00828448
0.000135735
0.000116111
0.000115581
0.000130916
0.000130975
7.95025e-05
0.000135632
7.02324e-05
5.77765e-05
0.0001309
0.000131029
5.6157e-05
0.000135234
6.67459e-05
2.39869e-05
0.000128533
0.000131097
0.00012626
7.5935e-06
1.17425e-19
1.69477e-20
-2.0657e-16
1.05259e-06
1.99819e-18
-3.93976e-17
7.99309e-30
1.09237e-21
1.80362e-22
2.13722e-21
4.19211e-21
-2.20167e-20
7.47875e-33
2.41818e-30
2.03299e-32
3.91371e-21
2.68216e-31
-9.67298e-14
1.68263e-12
4.66249e-16
4.86363e-17
-1.8625e-13
1.53165e-13
-4.94073e-21
8.5711e-18
1.35503e-17
1.846e-17
-5.70003e-17
1.93121e-17
1.92884e-19
1.96129e-20
1.17929e-18
1.66303e-19
2.73291e-19
3.76877e-18
2.35625e-14
-9.36672e-19
8.80031e-18
3.85277e-14
4.57754e-13
7.00067e-12
-3.16257e-16
-4.16185e-18
2.85681e-17
-9.8278e-16
-1.77816e-14
-2.86984e-17
1.22347e-17
5.41974e-19
2.88073e-17
1.69012e-17
6.03787e-18
2.55779e-20
5.2347e-13
9.47273e-12
3.56131e-12
1.46666e-10
1.68016e-11
2.38618e-09
-1.43541e-13
-1.70581e-15
3.09968e-15
9.63806e-16
-1.63321e-14
7.9387e-10
1.0056e-17
3.72235e-18
1.71251e-17
6.56718e-18
1.54544e-18
2.19663e-22
8.75987e-09
1.57137e-09
1.35176e-09
7.19383e-09
2.34777e-07
1.39472e-08
2.07397e-12
2.41357e-09
1.11194e-12
3.11639e-09
5.78978e-08
2.75179e-08
-2.70593e-15
1.14039e-19
8.59356e-18
1.17604e-18
-9.01114e-16
3.9728e-22
5.02121e-08
8.42768e-09
9.45113e-09
2.90573e-08
5.78053e-07
1.0154e-08
3.17846e-07
6.07793e-08
7.89641e-08
1.65325e-07
3.07034e-07
4.74897e-08
-5.4762e-16
5.42924e-20
-9.97612e-18
-2.20373e-16
-7.81108e-18
1.88983e-19
-2.01681e-08
-4.38989e-09
-2.25958e-09
-1.60192e-08
5.31482e-10
-1.78181e-08
8.84296e-07
8.20966e-08
2.86279e-07
5.69335e-07
5.6286e-07
3.70337e-19
2.54596e-07
8.86572e-10
1.18945e-07
5.20945e-08
1.29596e-07
3.6479e-10
-1.68854e-08
-8.97556e-11
-8.95575e-10
-9.18747e-09
-4.73871e-09
-6.93579e-10
8.03008e-07
8.04987e-07
2.05173e-07
3.03276e-07
1.73772e-07
5.38939e-11
8.47998e-06
1.5626e-06
6.42283e-06
6.43873e-06
5.4729e-06
5.60758e-07
3.01954e-06
4.35929e-08
1.79841e-07
2.77678e-06
6.34443e-07
5.33161e-07
9.87979e-07
4.95271e-07
2.32174e-07
4.56977e-07
2.04855e-07
2.34578e-08
5.74016e-06
2.06176e-06
5.3881e-06
6.36938e-06
5.32338e-06
1.34914e-06
4.88784e-05
6.30932e-05
5.11691e-05
5.34193e-05
6.57379e-05
5.06864e-05
7.36303e-05
9.88384e-05
7.59606e-05
8.16635e-05
0.000111672
7.39625e-05
2.75409e-05
3.26428e-05
2.40809e-05
3.20968e-05
3.67299e-05
2.63156e-05
0.0944821
0.0679197
0.0773091
0.094524
0.0918962
0.0735062
6.23257e-05
8.4268e-05
6.69335e-05
6.96699e-05
8.72627e-05
6.7105e-05
2.88607e-05
3.47237e-05
2.80138e-05
3.31937e-05
3.76328e-05
2.78364e-05
0.0201929
0.020165
0.0201034
0.0197859
0.0193837
0.018563
2.59441e-08
1.5933e-08
2.11468e-08
2.6556e-08
3.50102e-08
2.58373e-08
1.04966e-08
3.43765e-08
1.32127e-05
1.80683e-05
6.30479e-06
9.95018e-09
0.0207691
0.0208577
0.0206395
0.0200992
0.0192381
0.0199765
1.04969e-08
1.20129e-08
1.5933e-08
2.11468e-08
1.95528e-08
9.95018e-09
1.04969e-08
1.04969e-08
4.22384e-07
8.07249e-07
3.3151e-07
9.95018e-09
0.0214249
0.0213759
0.0212646
0.0212503
0.0212873
0.0213149
1.2189e-08
1.46494e-08
1.61663e-08
1.72861e-08
1.39339e-08
1.09242e-08
1.04969e-08
1.20129e-08
1.46494e-08
1.39339e-08
1.09242e-08
9.95018e-09
0.0219419
0.0219305
0.021905
0.0219062
0.0218917
0.021802
8.62191e-06
1.48328e-05
1.35564e-05
1.77308e-05
1.99502e-05
9.76554e-06
1.2189e-08
1.46493e-08
1.61662e-08
1.7286e-08
1.39338e-08
1.09242e-08
0.0226244
0.0226929
0.0227376
0.0224668
0.0223394
0.0227378
0.00133241
0.00137613
0.00134907
0.00160991
0.00168607
0.00120862
2.84034e-07
3.33247e-07
3.25788e-07
3.83374e-07
4.05806e-07
2.62616e-07
0.0364288
0.0337663
0.0339035
0.0380924
0.0389718
0.0331078
0.00476475
0.00434384
0.0043529
0.00518418
0.00528522
0.00425046
1.20816e-05
1.26729e-05
1.23909e-05
1.45435e-05
1.54268e-05
1.11293e-05
1.16186e-06
2.61574e-07
9.14128e-06
3.51533e-06
1.66052e-07
9.39087e-07
7.77331e-07
2.39944e-07
6.89717e-06
1.90503e-07
2.30556e-07
1.01611e-06
0
1.08744e-149
9.75491e-197
8.2331e-166
5.3921e-168
3.65719e-172
6.69997e-06
1.70722e-06
2.99282e-08
2.75354e-08
1.48042e-06
3.8745e-06
2.18899e-06
2.38544e-07
4.35562e-09
4.83237e-09
8.70818e-07
2.57104e-06
0
1.23815e-153
1.65719e-09
2.68512e-11
7.26975e-23
2.06006e-27
4.47681e-06
2.62011e-06
2.69491e-07
6.17631e-09
1.43632e-06
6.81779e-07
1.97012e-06
9.90587e-08
3.83337e-09
5.95095e-09
6.58696e-07
1.10346e-06
3.21865e-208
1.22194e-101
1.69006e-08
1.03192e-09
1.12209e-21
2.1529e-26
-2.5151e-11
7.44823e-07
1.0855e-06
1.18043e-07
9.91199e-07
2.67568e-06
4.38681e-18
3.54709e-18
4.31807e-11
6.92434e-08
1.04863e-15
1.04678e-15
2.97748e-17
3.26535e-26
8.37504e-11
6.14143e-09
7.4017e-18
5.8067e-18
1.11775e-17
7.2561e-06
3.43256e-06
1.92255e-08
3.235e-07
2.75879e-07
4.91408e-18
1.33897e-06
7.96485e-07
9.65552e-08
2.6878e-07
1.04145e-15
1.63712e-17
3.85156e-23
1.16232e-19
3.92705e-08
2.46904e-07
-1.20853e-15
5.8763e-05
3.86899e-05
9.74431e-07
9.12512e-09
1.43099e-09
7.75375e-11
2.12534e-06
3.17015e-05
5.25485e-06
1.22278e-07
3.2172e-07
1.76876e-13
3.0794e-22
8.79798e-25
5.48949e-19
2.34193e-07
1.02381e-06
5.66094e-09
0.00015186
3.30868e-07
7.7758e-09
1.76785e-09
1.9119e-09
1.03331e-09
0.00013011
0.000190762
4.29763e-12
4.18519e-10
1.76785e-09
1.18349e-08
8.93652e-21
-2.90585e-21
-1.07318e-19
2.93301e-10
2.4892e-08
1.93797e-07
0.00197235
0.00254721
0.0105777
0.0120443
0.00838713
0.00591065
0.000651277
0.00144587
0.00394981
0.00273191
0.00223418
1.25079e-08
4.3329e-19
1.80782e-19
0.000399622
9.95475e-21
2.41431e-18
2.14926e-06
0.00774552
0.0072896
0.00241713
0.00307101
0.00481256
0.0108217
0.00459344
0.00345085
0.00188861
0.00275284
0.00315044
0.000769571
2.06613e-05
8.90139e-05
0.000745344
0.000366411
0.000137813
2.40317e-06
0.00805023
0.00371572
1.36738e-05
2.23755e-05
0.000255211
0.00240573
0.00434985
0.00180662
7.93098e-06
0.000117531
0.000308339
0.00047493
9.28172e-05
0.000246169
3.37839e-05
2.87886e-05
5.51013e-05
1.33934e-05
0.00105981
1.91712e-05
7.9329e-06
8.22845e-06
9.08123e-05
7.04606e-05
0.00066775
0.000180164
6.25313e-06
5.65601e-06
5.7315e-06
6.62582e-05
0.000119723
0.000127456
5.6559e-06
5.65602e-06
4.79451e-06
1.86592e-05
0.00658591
0.00562562
0.00525036
0.00575435
0.00825087
0.00569147
0.000774664
0.00106171
0.00191658
0.00185063
0.00103864
7.20805e-05
1.71998e-07
4.29668e-07
3.82946e-06
4.51591e-06
1.75627e-06
1.81107e-07
)
;

boundaryField
{
    seabed_topleft_surface
    {
        type            zeroGradient;
    }
    seabed_topright_surface
    {
        type            zeroGradient;
    }
    breakwater_top_surface
    {
        type            zeroGradient;
    }
    breakwater_left_surface
    {
        type            zeroGradient;
    }
    breakwater_right_surface
    {
        type            zeroGradient;
    }
    water_front_surface
    {
        type            zeroGradient;
    }
    water_back_surface
    {
        type            zeroGradient;
    }
    water_left_surface
    {
        type            zeroGradient;
    }
    water_right_surface
    {
        type            zeroGradient;
    }
    water_top_surface
    {
        type            inletOutlet;
        inletValue      uniform 0;
        value           nonuniform List<scalar> 
180
(
0.000135234
0
0
0
0.000131097
0.00012626
0
0
0
0
0
0
0
0
0
0
0
0
0
0
0
0
0
0
0
0
0
0
0
0
0
0
0
0
0
0
0
0
0
0
0
0
0
0
0
0
0
0
8.47998e-06
0
6.42283e-06
6.43873e-06
5.4729e-06
0
5.74016e-06
2.06176e-06
5.3881e-06
6.36938e-06
5.32338e-06
1.34914e-06
2.75409e-05
3.26428e-05
2.40809e-05
3.20968e-05
3.67299e-05
2.63156e-05
2.88607e-05
3.47237e-05
2.80138e-05
3.31937e-05
3.76328e-05
2.78364e-05
1.04966e-08
3.43765e-08
1.32127e-05
1.80683e-05
6.30479e-06
9.95018e-09
1.04969e-08
1.04969e-08
4.22384e-07
8.07249e-07
3.3151e-07
9.95018e-09
1.04969e-08
1.20129e-08
1.46494e-08
1.39339e-08
1.09242e-08
9.95018e-09
1.2189e-08
1.46493e-08
1.61662e-08
1.7286e-08
1.39338e-08
1.09242e-08
2.84034e-07
3.33247e-07
3.25788e-07
3.83374e-07
4.05806e-07
2.62616e-07
1.20816e-05
1.26729e-05
1.23909e-05
1.45435e-05
1.54268e-05
1.11293e-05
0
0
0
0
0
0
0
0
0
0
0
0
0
0
0
0
0
0
0
0
0
0
0
0
0
0
0
0
0
0
0
0
0
0
0
0
0
0
0
0
0
0
0
0
0.000399622
0
0
0
2.06613e-05
8.90139e-05
0.000745344
0.000366411
0.000137813
2.40317e-06
9.28172e-05
0.000246169
3.37839e-05
2.87886e-05
5.51013e-05
1.33934e-05
0.000119723
0.000127456
5.6559e-06
5.65602e-06
4.79451e-06
1.86592e-05
1.71998e-07
4.29668e-07
3.82946e-06
4.51591e-06
1.75627e-06
1.81107e-07
)
;
    }
}


// ************************************************************************* //
