/*--------------------------------*- C++ -*----------------------------------*\
| =========                 |                                                 |
| \\      /  F ield         | OpenFOAM: The Open Source CFD Toolbox           |
|  \\    /   O peration     | Version:  v1612+                                |
|   \\  /    A nd           | Web:      www.OpenFOAM.com                      |
|    \\/     M anipulation  |                                                 |
\*---------------------------------------------------------------------------*/
FoamFile
{
    version     2.0;
    format      ascii;
    class       volScalarField;
    location    "9.15";
    object      p_rgh;
}
// * * * * * * * * * * * * * * * * * * * * * * * * * * * * * * * * * * * * * //

dimensions      [1 -1 -2 0 0 0 0];

internalField   nonuniform List<scalar> 
1116
(
10019.8
10010.6
10012.9
9996.07
9976.81
9993.39
10602.3
10626.7
10628
10598.8
10552.9
10626.9
12636.5
12661.4
12669.2
12651.4
12655.8
12684.6
14234
14242.8
14246.9
14239.5
14239.9
14248.9
15379.3
15382
15384.1
15380.8
15380.5
15388.1
16017.2
16015.7
16015.4
16014.7
16013.7
16012
16363
16361.2
16361.2
16358
16357.1
16355.8
16641.2
16637.2
16637.8
16634.7
16626.9
16635.8
16618.2
16605.3
16609.2
16612
16610.4
16607.7
17038.1
17039
17035.9
17026.9
17035.4
17037.2
15696.2
15717.3
15708.9
15702.3
15712
15710.4
16165
16134.6
16136.9
16144.4
16123.4
16123.3
4234.86
4214.8
4214.64
4275.06
4301.25
4240.48
4956.13
5020.06
5022.75
4936.79
4883.55
5035.74
6895.85
7020.3
7057.6
6887.03
6806.07
7058.87
9752.94
9846.1
9873.51
9764.74
9712.44
9893.74
12236.1
12261
12256.9
12255.1
12253
12307.6
13905
13916.7
13903.6
13902.8
13896.2
13916
14463.8
14460.4
14457
14443.5
14449.2
14420.5
15531.6
15475.5
15489.6
15484.8
15503.7
15451.5
16623.3
16627.4
16630.7
16615.3
16624.4
16625.2
16490.4
16578.4
16518.5
16547.8
16585
16505.3
11185.1
11486.5
11375.4
11279.5
11406
11367.9
15324.3
14996.8
15146.6
15236.2
14947.1
15116.4
-0.566052
-0.559263
-0.774861
-0.752752
-0.542564
-0.948098
-5.61092
-5.36085
-5.34964
-5.82508
-5.70149
-5.70388
-22.1743
-22.0061
-22.057
-22.1676
-22.3216
-22.1768
-54.7049
-54.9807
-54.9808
-54.9653
-55.0114
-55.1205
-116.592
-116.763
-116.632
-116.552
-116.29
-116.031
-209.352
-209.235
-208.917
-208.868
-208.728
-207.024
-217.23
-217.084
-216.794
-215.629
-216.838
-213.601
-16.321
-7.74269
-7.56419
-11.5512
-10.0362
-6.02037
415.755
400.272
399.373
409.828
401.178
399.968
3187.8
3082.05
3063.39
3168.14
3035.09
3114.28
4564.37
4446.63
4583.64
4480.94
4254.84
4760.11
17549.2
17366.2
17299
17437.8
17261.2
17206.7
10.1011
8.64863
8.34052
9.23755
9.86248
8.15876
4.00008
3.94322
3.87773
3.8308
3.96837
3.51492
-3.51693
-3.4429
-3.62029
-3.55504
-3.48764
-4.03714
-24.4645
-24.5542
-24.6495
-24.5588
-24.4672
-25.2364
-62.6731
-62.7573
-62.8034
-62.6938
-62.6456
-62.8964
-122.957
-122.911
-122.961
-122.733
-122.611
-123.111
-175.356
-174.173
-174.143
-174.779
-174.881
-174.042
-100.448
-97.1077
-97.0181
-98.5751
-97.5361
-97.3364
55.9623
64.2371
63.9843
57.6109
62.1386
63.1416
128.504
118.766
117.99
123.153
119.653
116.01
161.203
155.198
152.044
154.268
154.768
145.338
16493
15312.1
15696.6
16297.7
16000.6
15502.6
1622.72
1605.17
1576.06
1547.47
1558.02
1587.84
1614.6
1591.93
1527.32
1525.32
1531.73
1572.86
1608.81
1587.1
1547.95
1544.82
1536.21
1591.44
1633.01
1572.88
1567.98
1616.65
1537.81
1638.65
1675.79
1633.69
1476.97
1591.55
1657.48
1770.47
1722.69
1640.74
1534.9
1745.56
1903.15
1959.66
1633.01
1690.09
1707.71
1434.57
1573.76
1731.23
1266.69
1428.66
1238.88
940.131
986.508
1244.93
799.172
892.475
845.769
711.296
714.531
870.835
508.956
509.187
618.623
556.726
545.628
667.343
411.94
355.571
421.418
518.677
509.943
529.873
374.306
322.008
388.553
481.177
503.401
483.304
1305.24
1144.14
855.228
893.907
1086.82
1116.26
1192.54
1059.79
863.332
971.181
950.026
765.564
1118.91
1256.39
1159.66
1064.78
1023.26
940.428
1556.96
1226.01
1176.55
1298.85
996.454
1287.17
1885.06
1367.92
1126.54
1837.68
1333.15
1717.48
1910.39
1746.38
1154.08
1884.7
1951.1
2080.99
1923.08
1671.61
1205.78
1139.4
1899.46
2111.4
1209.32
1684.23
1036.2
605.578
860.881
1301.9
570.38
656.137
673.887
558.196
474.1
505.448
396.149
395.896
322.106
330.812
285.108
299.096
294.979
266.877
213.353
228.397
224.136
226.409
277.091
238.281
206.271
214.121
225.186
225.312
0.550722
0.24783
-1.25086
-3.60712
-1.36875
1.22755
3.21214
2.97355
2.01187
0.247032
2.00513
3.12986
140.7
8.95378
9.47463
7.49429
7.22354
6.99733
125.657
86.9487
117.383
12.9532
12.7762
14.1926
97.3966
291.266
343.607
148.397
18.0938
20.8246
44.8884
581.95
1366.63
1177.6
258.634
529.439
175.324
1048.79
1561.58
1604.97
1618.46
2399.77
379.074
1898.31
779.57
361.755
1130.08
2228.25
759.281
1199.83
355.379
300.14
267.963
671.535
456.549
221.194
142.266
160.87
163.677
181.877
172.336
154.205
146.106
204.976
218.721
161.182
165.45
183.578
180.258
265.324
305.112
232.916
1.19762
1.73839
1.21096
-0.0970802
0.576265
1.72687
1.12487
2.1837
1.38848
0.0726061
0.858997
1.81812
-1.15742
-0.806886
-0.0988768
0.904243
1.43298
5.55651
-4.53144
-7.9136
-3.36511
-1.46584
-1.58929
1.06702
-10.3942
-17.2367
-7.21858
-6.97655
-8.90915
-8.73794
-13.0218
-22.4668
-9.68301
-11.5081
-15.5412
-17.9436
-4.93741
-13.4228
432.412
655.678
20.8464
-11.7386
5.89732
16.3242
763.017
618.503
500.226
861.432
255.409
340.057
129.545
89.3967
170.74
856.314
373.388
247.414
55.765
73.2941
80.9202
167.166
146.722
81.7732
68.2764
81.8622
136.317
88.2178
310.436
274.704
227.829
325.78
333.739
347.616
-1.15667
-2.18211
-2.40497
-1.44427
-1.26252
-4.01711
1.34072
-1.55897
-2.11759
1.20979
0.794031
-3.33502
0.0992429
-3.59391
-6.02344
1.05934
0.000908592
-0.805133
-10.9717
-11.3738
-11.415
-11.298
-11.2287
-11.4339
-12.7403
-12.8903
-12.8891
-12.6774
-12.6344
-12.5672
-15.936
-15.6233
-15.421
-15.788
-16.1991
-16.0799
-17.8805
-17.8518
-17.8761
-17.9029
-17.9396
-17.8877
-14.2655
-14.2346
-14.2341
-14.3875
-14.4707
-14.4938
-13.0281
-13.036
-13.0456
-13.1084
-13.1508
-13.1741
-35.0697
-35.0538
-35.0933
-34.9916
-34.9555
-34.9214
-25.9731
-25.9757
-25.9824
-25.9452
-25.9611
-25.941
-16.8848
-16.8807
-16.8661
-16.8698
-16.8879
-16.843
-55.474
-55.4422
-55.4738
-55.3806
-55.3587
-55.3677
-35.9191
-35.904
-35.9197
-35.9117
-35.9221
-35.9122
-18.0494
-18.0456
-18.0309
-18.0222
-18.012
-17.9886
-79.1824
-79.0525
-79.095
-78.9835
-78.8439
-79.0761
-45.0318
-44.976
-44.9874
-44.9524
-44.9118
-44.9325
-17.6391
-17.6135
-17.5758
-17.5604
-17.5373
-17.4926
-80.5964
-80.6516
-80.6193
-80.22
-80.2012
-80.8485
-40.4241
-40.9805
-41.1357
-40.5105
-40.9556
-41.0214
-13.7201
-13.7356
-13.6797
-13.6181
-13.5162
-13.471
-33.8209
-33.5431
-33.5475
-33.206
-33.4006
-34.1747
-7.98281
-8.13962
-8.71286
-8.14842
-8.26524
-8.27555
-3.77857
-3.48419
-3.07002
-3.11489
-2.99314
-2.8196
32.6725
33.9405
33.1094
32.7201
33.3903
33.6292
24.0997
24.9272
23.059
23.3303
23.4059
25.1281
0.289491
-0.679703
-0.111175
0.190222
-0.0819856
-0.171092
71.0936
64.2139
65.2328
68.038
66.2638
63.973
40.3127
35.0887
37.1343
38.9117
37.1273
35.4663
8.5992
8.07433
7.74096
8.10212
7.99163
8.67153
88.2967
83.8836
85.7526
87.291
87.4216
84.3197
45.897
45.7435
45.5459
45.9732
47.4857
44.5378
12.0487
12.073
11.7622
12.3772
12.6116
11.7446
4469.74
3208.05
3660.86
4467.99
4337.67
3487.1
4.65887
7.60883
6.35018
5.64724
7.1153
6.55659
2.6231
4.57907
3.94407
3.31931
3.96458
4.18979
983.425
983.609
977.178
959.843
935.482
899.691
3.61905
3.06966
1.97286
0.345431
-0.00317321
2.39981
-1.35497
-1.89466
-2.36994
-2.52972
-1.84009
-0.953578
1017.77
1020.82
1009.54
984.399
945.49
980.596
6.09829
5.72356
5.24788
4.49625
4.8235
5.25646
0.0604415
-0.0367828
-0.0172976
0.307505
0.815954
0.900084
1053.97
1051.6
1045.94
1045.5
1047.58
1048.64
6.84529
6.65673
6.43312
6.27772
6.5131
6.88771
1.66393
1.68752
1.76767
2.0628
2.35854
2.4371
1090.52
1090.25
1088.49
1088.07
1087.5
1084.52
9.38289
9.58933
9.33481
9.63031
9.94578
9.52777
3.32035
3.40119
3.46564
3.56597
3.66399
3.66324
1205
1209.6
1209.16
1201.81
1198.57
1207.5
88.7106
90.8705
88.9964
103.667
108.093
81.5538
3.98393
4.17941
4.18703
4.25146
4.33642
4.29805
1851
1739.76
1744.27
1925.2
1963.66
1710.81
288.683
264.75
264.626
311.901
317.88
258.206
4.82514
5.18584
5.09295
5.17722
5.37456
5.11801
0.931044
1.33547
3.12516
2.79978
2.10372
1.50574
-0.267045
-0.235435
0.590147
-0.0636091
-0.144421
-0.162078
-1.16852
-1.30212
-0.958755
-1.23088
-1.41798
-1.39683
0.321028
0.678698
1.14574
0.877343
0.877352
0.71613
-0.938325
-0.949519
-0.970313
-1.02037
-0.982166
-0.842142
-2.03255
-2.1517
-2.04801
-2.1068
-2.25745
-2.20125
-1.91903
-0.570782
0.672354
0.542125
0.341148
-0.200786
-1.63103
-1.5571
-1.43853
-1.46756
-1.49471
-1.60632
-2.40826
-2.66437
-2.50922
-2.65173
-2.7501
-2.64878
-2.76561
-2.23822
-1.46212
-0.845944
-1.54989
-1.45824
-1.61055
-1.7587
-2.12405
-2.3478
-2.7262
-2.5194
-3.03229
-3.51139
-3.57214
-3.655
-3.64667
-3.25273
-2.98058
-4.98227
-5.54778
-4.95381
-6.48273
-5.31731
-0.437357
-1.39155
-2.80717
-3.50596
-4.10228
-2.9201
-4.08932
-4.77572
-5.05002
-4.93373
-4.69709
-3.96637
-1.46249
-7.94326
-10.2723
-10.7641
-13.2865
-13.4417
0.244277
0.209506
-3.18806
-5.10097
-6.33543
-5.96068
-4.76228
-5.82685
-6.36858
-6.074
-5.64651
-5.02962
-2.67171
-15.8047
-15.862
-18.5495
-21.4402
-20.476
0.594478
1.586
-12.639
-15.2847
-15.7374
-14.5818
-7.5954
-9.30766
-11.8279
-9.94419
-8.25461
-7.28452
71.7603
97.009
452.997
503.037
343.518
243.108
13.3015
53.8031
183.137
124.448
94.997
-25.4332
-12.3286
-13.9179
7.66439
-15.0082
-13.9749
-13.0881
339.349
299.473
103.37
137.135
207.651
459.732
235.481
157.787
75.325
126.445
145.385
15.762
-11.5968
-10.4106
25.5823
2.12158
-8.30465
-13.8276
391.569
171.026
18.5912
24.7348
33.702
115.905
248.449
97.7958
1.84727
8.65383
18.8611
18.3151
0.344851
7.51593
-7.19724
-8.65638
-6.87128
-9.29876
107.449
41.2305
38.5759
39.108
38.968
41.6271
52.4707
20.1416
11.0092
11.8877
11.1653
11.2193
3.03458
2.3381
-7.21052
-8.07216
-6.36157
-4.45474
357.231
304.402
274.768
287.959
396.836
298.788
49.7747
60.837
100.742
95.3985
52.4276
4.18779
-1.35658
-2.52863
-4.30657
-4.77992
-3.49062
-1.83679
)
;

boundaryField
{
    seabed_topleft_surface
    {
        type            fixedFluxPressure;
        gradient        uniform 0;
        value           nonuniform List<scalar> 
72
(
10019.8
10010.6
10012.9
9996.07
9976.81
9993.39
10602.3
10626.7
10628
10598.8
10552.9
10626.9
12636.5
12661.4
12669.2
12651.4
12655.8
12684.6
14234
14242.8
14246.9
14239.5
14239.9
14248.9
15379.3
15382
15384.1
15380.8
15380.5
15388.1
16017.2
16015.7
16015.4
16014.7
16013.7
16012
16363
16361.2
16361.2
16358
16357.1
16355.8
16641.2
16637.2
16637.8
16634.7
16626.9
16635.8
16618.2
16605.3
16609.2
16612
16610.4
16607.7
17038.1
17039
17035.9
17026.9
17035.4
17037.2
15696.2
15717.3
15708.9
15702.3
15712
15710.4
16165
16134.6
16136.9
16144.4
16123.4
16123.3
)
;
    }
    seabed_topright_surface
    {
        type            fixedFluxPressure;
        gradient        uniform 0;
        value           nonuniform List<scalar> 
72
(
1622.72
1605.17
1576.06
1547.47
1558.02
1587.84
1614.6
1591.93
1527.32
1525.32
1531.73
1572.86
1608.81
1587.1
1547.95
1544.82
1536.21
1591.44
1633.01
1572.88
1567.98
1616.65
1537.81
1638.65
1675.79
1633.69
1476.97
1591.55
1657.48
1770.47
1722.69
1640.74
1534.9
1745.56
1903.15
1959.66
1633.01
1690.09
1707.71
1434.57
1573.76
1731.23
1266.69
1428.66
1238.88
940.131
986.508
1244.93
799.172
892.475
845.769
711.296
714.531
870.835
508.956
509.187
618.623
556.726
545.628
667.343
411.94
355.571
421.418
518.677
509.943
529.873
374.306
322.008
388.553
481.177
503.401
483.304
)
;
    }
    breakwater_top_surface
    {
        type            fixedFluxPressure;
        gradient        uniform 0;
        value           nonuniform List<scalar> 
36
(
983.425
983.609
977.178
959.843
935.482
899.691
1017.77
1020.82
1009.54
984.399
945.49
980.596
1053.97
1051.6
1045.94
1045.5
1047.58
1048.64
1090.52
1090.25
1088.49
1088.07
1087.5
1084.52
1205
1209.6
1209.16
1201.81
1198.57
1207.5
1851
1739.76
1744.27
1925.2
1963.66
1710.81
)
;
    }
    breakwater_left_surface
    {
        type            fixedFluxPressure;
        gradient        uniform 0;
        value           nonuniform List<scalar> 
24
(
16165
16134.6
16136.9
16144.4
16123.4
16123.3
15324.3
14996.8
15146.6
15236.2
14947.1
15116.4
17549.2
17366.2
17299
17437.8
17261.2
17206.7
16493
15312.1
15696.6
16297.7
16000.6
15502.6
)
;
    }
    breakwater_right_surface
    {
        type            fixedFluxPressure;
        gradient        uniform 0;
        value           nonuniform List<scalar> 
24
(
374.306
322.008
388.553
481.177
503.401
483.304
277.091
238.281
206.271
214.121
225.186
225.312
165.45
183.578
180.258
265.324
305.112
232.916
310.436
274.704
227.829
325.78
333.739
347.616
)
;
    }
    water_front_surface
    {
        type            fixedFluxPressure;
        gradient        uniform 0;
        value           nonuniform List<scalar> 
186
(
10019.8
10602.3
12636.5
14234
15379.3
16017.2
16363
16641.2
16618.2
17038.1
15696.2
16165
4234.86
4956.13
6895.85
9752.94
12236.1
13905
14463.8
15531.6
16623.3
16490.4
11185.1
15324.3
-0.566052
-5.61092
-22.1743
-54.7049
-116.592
-209.352
-217.23
-16.321
415.755
3187.8
4564.37
17549.2
10.1011
4.00008
-3.51693
-24.4645
-62.6731
-122.957
-175.356
-100.448
55.9623
128.504
161.203
16493
1622.72
1614.6
1608.81
1633.01
1675.79
1722.69
1633.01
1266.69
799.172
508.956
411.94
374.306
1305.24
1192.54
1118.91
1556.96
1885.06
1910.39
1923.08
1209.32
570.38
396.149
294.979
277.091
0.550722
3.21214
140.7
125.657
97.3966
44.8884
175.324
379.074
759.281
456.549
172.336
165.45
1.19762
1.12487
-1.15742
-4.53144
-10.3942
-13.0218
-4.93741
5.89732
255.409
373.388
146.722
310.436
-1.15667
1.34072
0.0992429
-10.9717
-12.7403
-15.936
-17.8805
-14.2655
-13.0281
-35.0697
-25.9731
-16.8848
-55.474
-35.9191
-18.0494
-79.1824
-45.0318
-17.6391
-80.5964
-40.4241
-13.7201
-33.8209
-7.98281
-3.77857
32.6725
24.0997
0.289491
71.0936
40.3127
8.5992
88.2967
45.897
12.0487
4469.74
4.65887
2.6231
983.425
3.61905
-1.35497
1017.77
6.09829
0.0604415
1053.97
6.84529
1.66393
1090.52
9.38289
3.32035
1205
88.7106
3.98393
1851
288.683
4.82514
0.931044
-0.267045
-1.16852
0.321028
-0.938325
-2.03255
-1.91903
-1.63103
-2.40826
-2.76561
-1.61055
-3.03229
-2.98058
-0.437357
-4.08932
-1.46249
0.244277
-4.76228
-2.67171
0.594478
-7.5954
71.7603
13.3015
-12.3286
339.349
235.481
-11.5968
391.569
248.449
0.344851
107.449
52.4707
3.03458
357.231
49.7747
-1.35658
)
;
    }
    water_back_surface
    {
        type            fixedFluxPressure;
        gradient        uniform 0;
        value           nonuniform List<scalar> 
186
(
9993.39
10626.9
12684.6
14248.9
15388.1
16012
16355.8
16635.8
16607.7
17037.2
15710.4
16123.3
4240.48
5035.74
7058.87
9893.74
12307.6
13916
14420.5
15451.5
16625.2
16505.3
11367.9
15116.4
-0.948098
-5.70388
-22.1768
-55.1205
-116.031
-207.024
-213.601
-6.02037
399.968
3114.28
4760.11
17206.7
8.15876
3.51492
-4.03714
-25.2364
-62.8964
-123.111
-174.042
-97.3364
63.1416
116.01
145.338
15502.6
1587.84
1572.86
1591.44
1638.65
1770.47
1959.66
1731.23
1244.93
870.835
667.343
529.873
483.304
1116.26
765.564
940.428
1287.17
1717.48
2080.99
2111.4
1301.9
505.448
299.096
226.409
225.312
1.22755
3.12986
6.99733
14.1926
20.8246
529.439
2399.77
2228.25
671.535
181.877
161.182
232.916
1.72687
1.81812
5.55651
1.06702
-8.73794
-17.9436
-11.7386
861.432
856.314
167.166
88.2178
347.616
-4.01711
-3.33502
-0.805133
-11.4339
-12.5672
-16.0799
-17.8877
-14.4938
-13.1741
-34.9214
-25.941
-16.843
-55.3677
-35.9122
-17.9886
-79.0761
-44.9325
-17.4926
-80.8485
-41.0214
-13.471
-34.1747
-8.27555
-2.8196
33.6292
25.1281
-0.171092
63.973
35.4663
8.67153
84.3197
44.5378
11.7446
3487.1
6.55659
4.18979
899.691
2.39981
-0.953578
980.596
5.25646
0.900084
1048.64
6.88771
2.4371
1084.52
9.52777
3.66324
1207.5
81.5538
4.29805
1710.81
258.206
5.11801
1.50574
-0.162078
-1.39683
0.71613
-0.842142
-2.20125
-0.200786
-1.60632
-2.64878
-1.45824
-2.5194
-3.25273
-5.31731
-2.9201
-3.96637
-13.4417
-5.96068
-5.02962
-20.476
-14.5818
-7.28452
243.108
-25.4332
-13.0881
459.732
15.762
-13.8276
115.905
18.3151
-9.29876
41.6271
11.2193
-4.45474
298.788
4.18779
-1.83679
)
;
    }
    water_left_surface
    {
        type            fixedFluxPressure;
        gradient        uniform 0;
        value           nonuniform List<scalar> 
42
(
10019.8
10010.6
10012.9
9996.07
9976.81
9993.39
4234.86
4214.8
4214.64
4275.06
4301.25
4240.48
-0.566052
-0.559263
-0.774861
-0.752752
-0.542564
-0.948098
10.1011
8.64863
8.34052
9.23755
9.86248
8.15876
-1.15667
-2.18211
-2.40497
-1.44427
-1.26252
-4.01711
1.34072
-1.55897
-2.11759
1.20979
0.794031
-3.33502
0.0992429
-3.59391
-6.02344
1.05934
0.000908592
-0.805133
)
;
    }
    water_right_surface
    {
        type            fixedFluxPressure;
        gradient        uniform 0;
        value           nonuniform List<scalar> 
42
(
1622.72
1605.17
1576.06
1547.47
1558.02
1587.84
1305.24
1144.14
855.228
893.907
1086.82
1116.26
0.550722
0.24783
-1.25086
-3.60712
-1.36875
1.22755
1.19762
1.73839
1.21096
-0.0970802
0.576265
1.72687
0.931044
1.33547
3.12516
2.79978
2.10372
1.50574
-0.267045
-0.235435
0.590147
-0.0636091
-0.144421
-0.162078
-1.16852
-1.30212
-0.958755
-1.23088
-1.41798
-1.39683
)
;
    }
    water_top_surface
    {
        type            totalPressure;
        rho             rho;
        psi             none;
        gamma           1;
        p0              uniform 0;
        value           nonuniform List<scalar> 
180
(
0
-1.29716
-2.18028
-0.00564243
0
0
-15.7058
-15.3751
-15.144
-15.6386
-16.0311
-15.5734
-11.3517
-11.4032
-11.4291
-11.4274
-11.4585
-11.5111
-12.8117
-12.8472
-12.8472
-12.8127
-12.8947
-12.7585
-11.6462
-11.7021
-11.6859
-11.6606
-11.6694
-11.6353
-9.65968
-9.62286
-9.55856
-9.61529
-9.6124
-9.44346
-6.52455
-6.70584
-6.60722
-6.64261
-6.5694
-6.34467
-0.0710299
-2.72286
-2.20992
-0.815705
-0.510199
-2.53801
0
-0.383549
0
0
0
-0.710254
0
0
0
0
0
0
0
0
0
0
0
0
0
0
0
0
0
0
0
0
0
0
0
0
0
0
0
0
0
0
0
0
0
0
0
0
0
0
0
0
0
0
0
0
0
0
0
0
0
0
0
0
0
0
-1.44438
-1.74649
-0.732963
-1.65508
-2.20606
-1.86926
-2.72447
-2.95154
-3.1241
-3.21943
-3.22589
-2.91824
-2.40757
-2.82287
-3.07713
-3.41666
-3.43424
-3.19878
-2.2295
-2.8407
-3.6539
-4.23339
-4.04578
-3.44628
-2.16676
-3.40851
-4.61505
-5.27493
-4.70053
-3.52598
-3.17893
-6.23136
-7.79647
-7.63346
-6.07443
-3.83622
-4.77975
-11.2816
-16.8608
-10.4503
-5.34998
-2.36883
-4.19507
-9.82728
0
-4.88725
-1.28219
-0.197938
0
0
0
0
0
0
0
0
0
0
0
0
0
0
0
0
0
0
0
0
0
0
0
0
)
;
    }
}


// ************************************************************************* //
