/*--------------------------------*- C++ -*----------------------------------*\
| =========                 |                                                 |
| \\      /  F ield         | OpenFOAM: The Open Source CFD Toolbox           |
|  \\    /   O peration     | Version:  v1612+                                |
|   \\  /    A nd           | Web:      www.OpenFOAM.com                      |
|    \\/     M anipulation  |                                                 |
\*---------------------------------------------------------------------------*/
FoamFile
{
    version     2.0;
    format      ascii;
    class       volVectorField;
    location    "9.15";
    object      U;
}
// * * * * * * * * * * * * * * * * * * * * * * * * * * * * * * * * * * * * * //

dimensions      [0 1 -1 0 0 0 0];

internalField   nonuniform List<vector> 
1116
(
(0.063992 0.00293618 0.112924)
(0.0149741 -0.015258 0.117227)
(-0.000352864 0.0306476 0.107978)
(0.106368 0.0299742 0.109509)
(0.155533 -0.00254894 0.115317)
(0.0120865 -0.0478366 0.100881)
(-0.00420277 0.0165098 0.308886)
(-0.0406364 -0.00467088 0.32811)
(-0.0531471 0.00899169 0.339537)
(0.00746076 -0.0202576 0.317725)
(0.0380297 0.0185872 0.325869)
(-0.0571348 -0.0213818 0.332481)
(-0.0577694 0.00869615 0.160273)
(-0.0750354 -0.00131124 0.168667)
(-0.0808809 0.000989168 0.179206)
(-0.0616504 -0.0214759 0.157912)
(-0.0468572 0.0102679 0.15796)
(-0.0995542 -0.00406606 0.168596)
(-0.00685701 0.00109303 -0.0773462)
(-0.015615 -0.0024676 -0.0819939)
(-0.0180271 -0.000663172 -0.079625)
(-0.0107801 -0.0107981 -0.0806528)
(-0.00478999 -7.66358e-05 -0.0822164)
(-0.0361633 -0.000658172 -0.0867094)
(0.102938 -0.000609335 -0.26395)
(0.093276 -0.00351178 -0.27069)
(0.0918969 0.00131964 -0.272081)
(0.101659 -0.00301061 -0.264344)
(0.108181 -0.00240924 -0.264146)
(0.0800254 -0.00395127 -0.275264)
(0.294713 -0.000262731 -0.283686)
(0.283215 -0.0023685 -0.28771)
(0.283741 0.00165426 -0.290014)
(0.292727 0.000267338 -0.282524)
(0.299824 -0.00138865 -0.283295)
(0.276962 -0.00470399 -0.287797)
(0.528213 0.00222169 -0.224414)
(0.516632 -0.000774938 -0.228896)
(0.517277 0.000422469 -0.230872)
(0.526163 -0.000277904 -0.224235)
(0.534718 -0.000340835 -0.2218)
(0.510387 -0.00151079 -0.228516)
(0.762729 0.00376236 -0.136982)
(0.75557 9.81908e-05 -0.15144)
(0.755343 -0.00110586 -0.151086)
(0.762748 -0.00168842 -0.139093)
(0.764108 -0.000477299 -0.128823)
(0.749567 0.000193911 -0.16041)
(0.876453 -0.00334838 -0.0527868)
(0.883066 -0.00268276 -0.0624685)
(0.882059 0.000500775 -0.0589224)
(0.877757 -0.00113865 -0.057112)
(0.866925 -0.00542224 -0.0580861)
(0.883206 -0.00508354 -0.0684454)
(0.74941 -0.00897684 -0.20777)
(0.737642 -0.00449429 -0.193741)
(0.74074 0.00110687 -0.189811)
(0.750245 0.000362521 -0.214864)
(0.742566 -0.00362672 -0.234907)
(0.735312 -0.00518649 -0.177511)
(-0.162088 -0.00456205 -0.610999)
(-0.206406 0.00105907 -0.605952)
(-0.202817 -0.000875003 -0.604764)
(-0.158023 0.00135351 -0.612069)
(-0.143968 0.00119571 -0.631209)
(-0.214651 0.00189311 -0.587685)
(-0.666833 0.0227978 -1.14548)
(-0.706586 0.0136018 -1.13287)
(-0.700806 -0.0143227 -1.14249)
(-0.664745 0.00297953 -1.14586)
(-0.646737 0.0185541 -1.14615)
(-0.70544 0.0215478 -1.12475)
(-0.0234516 0.00304449 -0.193497)
(0.106536 0.0429461 -0.171153)
(0.119977 -0.105998 -0.173411)
(-0.181581 -0.0932777 -0.216321)
(-0.323665 0.00924327 -0.217679)
(0.0818944 0.114355 -0.190213)
(0.385056 -0.0304762 -0.195825)
(0.457063 0.0461412 -0.219515)
(0.466078 -0.0225871 -0.215691)
(0.357294 0.0786439 -0.160811)
(0.344212 -0.0523193 -0.103467)
(0.439475 0.0275962 -0.21972)
(0.429987 -0.0280392 -0.202111)
(0.467752 0.0273645 -0.215489)
(0.451347 -0.00246259 -0.210308)
(0.439562 0.0737682 -0.191447)
(0.461891 -0.0385934 -0.173827)
(0.451624 0.00895278 -0.218546)
(0.595612 -0.0156329 -0.0931133)
(0.612189 0.00779615 -0.0946376)
(0.599575 -0.0013129 -0.0921457)
(0.614145 0.0259124 -0.0956745)
(0.644377 -0.017027 -0.10261)
(0.617906 0.0102275 -0.108717)
(1.07821 -0.00946313 -0.0585752)
(1.09215 -0.00147232 -0.0600642)
(1.08974 0.000219815 -0.0605633)
(1.08711 0.00565855 -0.0603411)
(1.09812 -0.0085413 -0.0644346)
(1.1086 0.00738565 -0.0772788)
(1.58735 -0.00613187 -0.0947516)
(1.59794 -0.0047088 -0.0960702)
(1.59953 0.000782036 -0.0980558)
(1.589 0.00176002 -0.0935751)
(1.59056 -0.00460825 -0.0914588)
(1.6096 0.00382985 -0.109486)
(2.00405 -0.00038332 -0.143042)
(2.00947 -0.00255175 -0.137734)
(2.01062 -0.00275628 -0.14062)
(2.00421 -0.000826768 -0.140782)
(2.0036 -0.00132015 -0.137031)
(2.01356 0.00231002 -0.148081)
(2.31313 0.00427 -0.160214)
(2.33092 -0.000361517 -0.145065)
(2.32549 -0.00471007 -0.149899)
(2.31973 -0.00355169 -0.155881)
(2.31738 0.00204766 -0.148465)
(2.32829 0.00385411 -0.154246)
(2.51142 0.00407878 0.0977502)
(2.54591 -0.00164246 0.0992939)
(2.53248 -0.00102796 0.0987351)
(2.52421 -0.00111671 0.0988374)
(2.5309 -0.000816117 0.102185)
(2.53069 -0.00221513 0.0933926)
(2.60511 0.000495745 0.85072)
(2.63042 -0.0020371 0.838744)
(2.61594 0.000682373 0.846613)
(2.6288 0.00395997 0.835302)
(2.64481 -0.0128187 0.829296)
(2.59796 -0.0190347 0.846575)
(1.46497 0.012637 1.95585)
(1.50803 0.0123992 1.96769)
(1.4779 -0.00982106 1.96848)
(1.50876 0.00936738 1.94596)
(1.54864 -0.0127641 1.94366)
(1.43783 -0.029972 1.95819)
(1.19658 0.00566529 0.461361)
(1.1371 0.0154418 0.520212)
(1.14002 -0.0215833 0.480539)
(1.23579 -0.0158611 0.478031)
(1.26438 0.030617 0.562241)
(1.10465 0.0617948 0.496397)
(0.885631 -0.0556755 -0.662814)
(1.09288 0.141767 -0.50571)
(1.3015 -0.140753 -0.414019)
(0.762614 -0.0947876 -0.612093)
(0.547606 0.0201645 -0.692748)
(1.29659 0.322086 -0.380947)
(4.76203 -0.0859895 -0.381543)
(4.96182 0.103809 -0.261701)
(4.99077 -0.0636727 -0.260995)
(4.71135 0.0650277 -0.43824)
(4.51136 -0.00177098 -0.550656)
(5.08633 0.34183 -0.266763)
(9.32353 -0.106348 -0.441037)
(9.45658 0.120227 -0.434199)
(9.53208 -0.0277545 -0.468898)
(9.25258 0.140821 -0.435295)
(9.07995 0.015073 -0.413379)
(9.73256 0.321688 -0.454246)
(14.466 -0.0843354 -1.31478)
(14.6812 0.154037 -1.35801)
(14.7381 -0.0227378 -1.38938)
(14.4524 0.174982 -1.30373)
(14.2632 0.0392762 -1.2922)
(15.0938 0.321383 -1.36585)
(19.9892 -0.0737618 -2.21438)
(20.3248 0.175377 -2.27365)
(20.3484 -0.0452561 -2.27932)
(20.0481 0.159062 -2.20313)
(19.8247 0.0265412 -2.19981)
(20.8468 0.327686 -2.24464)
(25.8728 -0.100722 -2.32008)
(26.2815 0.182174 -2.37287)
(26.2922 -0.0904159 -2.37057)
(25.9623 0.156568 -2.32141)
(25.6878 -0.0686252 -2.32418)
(26.891 0.301052 -2.31939)
(31.0035 -0.143609 -1.61126)
(31.3985 0.180108 -1.63431)
(31.4245 -0.16237 -1.64119)
(31.102 0.177622 -1.61639)
(30.9312 -0.215922 -1.62349)
(31.9663 0.19467 -1.59765)
(28.079 -0.122431 0.0387193)
(28.7465 0.138797 0.0309101)
(28.7936 -0.207388 0.0290042)
(28.2268 0.15676 0.0397319)
(28.3154 -0.224931 0.0243279)
(29.032 0.0458085 0.0482243)
(18.0774 -0.00852344 0.992303)
(18.1202 0.174381 1.77174)
(18.2116 -0.20039 1.67848)
(18.0611 0.101187 0.999616)
(18.1422 -0.094991 1.48676)
(18.2222 -0.0660789 1.53523)
(5.85115 -0.0504899 0.82004)
(5.93391 -0.0380187 0.828984)
(5.90528 0.0201157 0.840119)
(5.84871 0.0479939 0.800084)
(6.09181 -0.0775408 0.806064)
(5.72498 -0.0731772 0.81572)
(2.26373 0.0946242 1.29213)
(2.26757 0.0440579 1.46494)
(2.17834 -0.0598725 1.41219)
(2.3313 0.0198195 1.33817)
(2.36837 -0.0260297 1.41733)
(2.12777 -0.043285 1.32126)
(2.97367 0.00244314 0.738521)
(2.97472 0.0160628 0.868467)
(2.95916 -0.0162378 0.825051)
(3.01117 -0.029328 0.75512)
(3.09404 0.026672 0.773939)
(2.81967 0.0562435 0.900498)
(-1.74854 -0.0597811 -3.69478)
(-1.87162 0.144248 -3.76173)
(-1.56853 -0.0205401 -3.6651)
(-1.74992 0.0878056 -3.6984)
(-1.83396 -0.0626706 -3.9802)
(-1.54674 0.113066 -3.51301)
(-0.33093 0.018084 -5.98352)
(-0.483005 -0.0424333 -6.04148)
(-0.686657 0.0503516 -5.91932)
(-0.267753 0.0858405 -5.98257)
(-0.152625 0.0197773 -6.38359)
(-0.797205 -0.0625718 -5.52711)
(-0.738155 0.0015253 -7.01662)
(-0.797054 0.0175463 -7.25282)
(-0.703444 -0.0103817 -7.15206)
(-0.787845 -0.0596495 -7.1418)
(-0.817096 0.0653736 -7.19871)
(-0.545456 0.0618521 -6.89711)
(-0.790301 0.00725291 -8.22016)
(-0.789143 -0.0385745 -8.26752)
(-0.768588 -0.0287313 -8.20098)
(-0.83607 -0.0482445 -8.27537)
(-0.908564 -0.0119659 -8.40313)
(-0.49065 -0.00480581 -7.83333)
(-1.40375 -0.0141437 -8.55483)
(-1.35935 -0.0423522 -8.51843)
(-1.30445 -0.0425125 -8.46407)
(-1.45868 -0.0820116 -8.56874)
(-1.62041 -0.0386182 -8.69002)
(-0.964589 -0.0272189 -8.13971)
(-1.26613 -0.0263078 -6.17083)
(-1.27055 -0.0152893 -6.12794)
(-1.17655 -0.0633272 -6.10836)
(-1.35612 -0.0905624 -6.17651)
(-1.59617 0.00893536 -6.25383)
(-0.952439 0.0400189 -5.96761)
(0.975401 -0.0899558 0.320496)
(0.956374 0.000159935 0.336597)
(1.06762 -0.0203766 0.307884)
(0.868873 0.059668 0.352447)
(0.726261 -0.0509494 0.377617)
(1.23481 -0.0301768 0.29513)
(7.4924 -0.152326 8.38065)
(7.13162 -0.033965 8.29334)
(7.32419 -0.0327127 8.29486)
(7.25755 0.0763649 8.37333)
(6.95822 -0.0778779 8.33022)
(7.54088 0.0491129 8.30809)
(9.96034 -0.165684 14.5662)
(10.3506 -0.105977 15.1458)
(10.355 0.0311991 15.0806)
(9.86741 0.0822893 14.5847)
(10.0297 -0.106875 14.964)
(10.4313 0.0104514 14.9365)
(8.46299 -0.132089 11.2086)
(8.82035 -0.0662098 10.6132)
(8.76063 0.0483687 10.7323)
(8.40937 0.0480753 11.1472)
(8.68862 -0.078941 10.9979)
(8.76272 -0.016323 10.7893)
(3.53455 0.0761342 5.39211)
(2.9244 -0.0105731 5.61152)
(3.09262 -0.0100447 5.45776)
(3.41419 0.00753211 5.21773)
(3.41592 -0.0231009 5.52697)
(3.06391 -0.0180817 5.26396)
(4.02546 -0.015636 3.7163)
(4.60555 0.0631394 3.76591)
(4.3152 -0.0539673 3.71645)
(4.16723 0.0220869 3.75213)
(4.31881 -0.0167939 3.77994)
(4.29381 0.0866517 3.68128)
(-0.383153 0.063712 -0.668133)
(-0.4942 0.0992805 -0.187196)
(-0.390132 -0.254054 -0.79417)
(-0.447861 -0.140218 -0.0549462)
(-0.19424 -0.583083 -0.0325312)
(-0.127833 -0.128345 -0.770422)
(-1.21729 0.0683512 -0.757267)
(-1.13243 0.136332 0.0855209)
(-1.08457 -0.327035 -0.652262)
(-1.10494 0.28859 -0.0156974)
(-0.831699 -0.391889 0.171438)
(-0.940951 -0.135021 -0.816958)
(-1.81017 0.124998 -0.551254)
(-1.77198 0.100406 0.114713)
(-1.28763 -0.217799 -0.435215)
(-0.712742 0.537153 -0.232797)
(-1.37228 -0.30112 0.211945)
(-1.56844 -0.192625 -0.72453)
(-1.96968 0.214768 -0.611997)
(-2.38557 0.50127 -0.0566472)
(-1.33851 0.177437 0.552533)
(-1.04273 0.149704 0.183489)
(-1.97959 -0.426876 0.0101988)
(-1.81016 -0.179067 -0.969129)
(-1.71618 0.189457 -0.613618)
(-1.85214 0.801801 0.00251806)
(-0.241458 0.302818 0.93502)
(-1.12517 -0.411326 0.557248)
(-2.70109 -0.532357 0.100357)
(-2.45325 -0.185118 -0.944471)
(-1.78776 0.277005 -0.377699)
(-1.21459 0.715462 0.17743)
(-0.365544 0.743696 0.385095)
(-1.2087 -0.197474 0.271012)
(-3.05575 -0.744647 0.209727)
(-3.00073 -0.270037 -0.450878)
(-1.54209 0.395731 -0.313106)
(-0.095374 0.934058 -0.596534)
(0.391581 1.7639 -0.792238)
(-2.79283 1.02458 0.56169)
(-3.93689 -1.34741 0.398721)
(-2.51339 -0.388375 -0.422695)
(-0.87565 -0.115514 0.229071)
(0.537552 0.60867 -0.946659)
(1.65534 0.652282 -1.63661)
(-4.58859 1.46757 0.944508)
(-5.34774 -1.77797 1.17459)
(-0.486689 -0.053969 -0.556072)
(-2.0182 -0.276228 0.92131)
(0.516182 -0.517487 -0.655714)
(2.12139 -0.909932 -1.79062)
(-3.83208 0.485112 1.07404)
(-3.63494 -0.5298 0.981642)
(0.838721 0.30804 -0.66942)
(-1.49224 0.350282 1.40418)
(-0.485032 -0.960874 0.177749)
(2.98813 -1.58364 -2.00024)
(2.83815 -0.90877 -1.85506)
(2.03007 -0.144474 -1.11238)
(1.68782 0.528889 -0.757169)
(0.776906 0.231376 1.06804)
(-0.880697 -0.724129 2.88541)
(2.11251 -1.85878 -1.33232)
(3.28933 -1.14984 -2.65117)
(3.26378 -0.276506 -2.4279)
(1.69467 0.697186 -0.745951)
(0.509799 0.314326 0.289923)
(0.150635 -0.411856 2.65694)
(1.17996 -0.977511 -0.767253)
(1.75363 -0.511297 -1.74931)
(1.65844 -0.255914 -1.46338)
(0.590707 0.167071 -0.244754)
(-0.110534 -0.184335 -1.33683)
(-0.0168164 0.514183 -0.918243)
(0.429987 -0.921685 -0.516189)
(-0.0900916 -1.64216 -0.862716)
(-0.179575 -0.724573 -1.04413)
(-0.0167182 0.128639 -1.92382)
(-1.15367 -0.422212 -1.17566)
(-0.944952 0.261943 -0.735692)
(-0.522205 -1.26846 -0.401056)
(-0.811878 -1.39796 -0.131354)
(-1.00499 -0.613429 -0.320707)
(-1.04705 0.608937 -2.05071)
(-1.5001 -0.651242 -0.661399)
(-1.3273 -0.30794 -0.714621)
(-0.577504 -0.843501 -0.695947)
(-0.765471 -0.424666 0.335478)
(-1.48721 -0.507233 0.21336)
(-1.62973 0.744381 -1.45505)
(-1.77768 -0.655025 -0.856763)
(-1.93582 -0.357362 0.391241)
(-1.56313 -0.666212 1.34035)
(-1.25503 0.122618 0.422305)
(-1.44864 -0.0158706 -0.0398389)
(-1.70046 0.881197 -1.35311)
(-2.35844 -0.693945 -1.1143)
(-2.27697 -0.35115 0.869587)
(-1.63541 -0.541814 2.48308)
(-2.36004 -0.0526467 0.553928)
(-2.04103 0.239569 -0.848446)
(-1.88753 1.03242 -1.75136)
(-3.11851 -0.612164 -1.40024)
(-3.07691 -0.22429 0.539496)
(-2.2288 -0.505557 1.54444)
(-3.2783 -0.815275 0.291993)
(-3.39285 -0.209401 -1.23453)
(-2.98186 0.644268 -1.96368)
(-3.84808 -0.187121 -1.75809)
(-4.40219 0.459595 -0.313182)
(-2.90473 -0.166061 1.17258)
(-4.16937 -1.06085 1.70284)
(-4.59448 -1.0509 -0.166321)
(-4.26588 0.273652 -1.38346)
(-3.56739 0.229964 -1.2326)
(-5.48409 1.31883 -0.934192)
(-3.75441 0.956997 0.882735)
(-6.37028 -1.02688 4.70111)
(-5.53811 -1.4745 2.4688)
(-4.41272 0.274764 -0.0829559)
(-2.93826 0.167864 0.741909)
(-4.80439 1.89738 0.110413)
(-4.1936 2.54714 1.4602)
(-5.06643 1.00872 4.002)
(-4.1075 0.543908 5.363)
(-3.75178 0.750673 2.49499)
(-2.70714 1.11328 2.50388)
(-0.0615617 1.22964 3.09853)
(-1.19629 2.3018 2.77802)
(-2.00498 0.884314 3.86773)
(-0.154189 0.321397 4.28499)
(-4.08593 1.04281 2.20599)
(-1.36753 0.680339 1.48148)
(1.30634 0.611275 2.23017)
(1.35957 0.356606 1.84138)
(2.39012 -0.248224 -1.42876)
(2.81406 -0.383751 -2.85085)
(-2.50024 0.974065 1.10754)
(1.14719 0.477815 -2.23032)
(1.5333 0.921109 -0.905777)
(2.43199 1.48695 -2.01614)
(2.88024 0.857559 -3.45)
(3.44182 -0.358619 -3.77968)
(1.72935 -0.707991 -1.49675)
(0.604949 -0.38672 -2.41247)
(0.517332 0.453013 -0.0416623)
(0.762316 0.036005 3.44762)
(0.309141 -0.707707 -1.54362)
(0.284451 -0.204413 -5.11579)
(0.116307 0.0319818 -3.15137)
(-0.750877 -0.707462 -1.27239)
(-1.12535 -0.294813 0.654098)
(-0.69144 -0.770942 2.20981)
(-0.252101 -0.0808417 -1.97976)
(-0.200421 -0.0817433 -4.65632)
(-0.869998 0.249328 -2.25956)
(-1.61913 -1.12715 0.800724)
(-1.59067 0.867475 0.010287)
(0.907235 -0.791682 -1.01561)
(0.0502543 0.417323 -0.926676)
(-0.944308 -0.0774139 -2.1079)
(-2.22634 0.75824 -0.661964)
(-1.70213 -1.1395 0.305841)
(-0.0823268 -0.814973 -0.289666)
(0.705764 -0.966803 -0.863789)
(-0.0878896 0.642359 -2.98333)
(-1.15523 -0.0450855 -1.16897)
(-2.27889 0.814351 0.611558)
(-1.9942 -2.05453 -0.0159288)
(-1.34851 -2.0367 -0.927161)
(-0.664097 -0.931034 -0.184504)
(-0.34124 0.977759 -3.39026)
(-0.983512 1.60865 -3.51503)
(2.12763 1.90353 0.352599)
(-2.78954 -3.34854 0.146286)
(-2.88421 -2.73114 -1.46137)
(-3.31599 -1.02746 0.463411)
(-3.06488 0.457753 -1.4205)
(-2.30912 2.0136 -4.45353)
(-1.34307 1.7771 -2.30112)
(-3.70677 -2.73566 -1.3709)
(-4.10339 -2.13871 -1.85722)
(-4.72357 -0.971555 1.43512)
(-4.67994 -0.669862 0.516027)
(-4.26837 0.507388 -2.58382)
(-4.0805 0.990437 -2.74894)
(-4.68439 -1.32243 -2.28484)
(-5.44277 -1.0412 -1.60705)
(-5.46499 -0.93372 3.0951)
(-6.07552 -1.72069 4.3989)
(-5.01074 -0.567662 1.31115)
(-5.58087 0.633008 -1.44675)
(-5.73447 -0.492717 -2.54887)
(-6.50732 0.534113 -0.948614)
(-6.44258 0.5644 2.9863)
(-4.75099 0.0260692 7.18056)
(-4.2341 -0.521891 7.60546)
(-6.35725 0.444054 0.55326)
(-6.41562 -0.23812 -1.72705)
(-3.82251 1.73461 2.58782)
(-4.185 1.70488 6.9762)
(-2.95419 0.495041 8.96461)
(-2.08415 -1.07775 7.87351)
(-8.18301 0.0208407 4.95338)
(-7.14868 0.637775 1.5)
(-3.60057 1.97125 4.9079)
(0.35988 1.35234 4.37817)
(2.5611 0.749387 -0.745077)
(2.71571 -0.775819 -2.91214)
(-2.71949 0.217822 4.53859)
(0.122128 0.951302 -1.50701)
(2.1402 2.10844 -3.17495)
(2.94118 2.12194 -3.33337)
(3.23844 1.3371 -3.55671)
(3.49266 -0.141741 -3.78999)
(2.62888 -0.873323 -2.66225)
(0.399373 -0.231021 -1.97436)
(0.105293 -0.417664 -1.79359)
(0.952141 0.402056 3.03707)
(0.778746 1.36035 0.924362)
(0.229348 1.06537 -2.6945)
(0.137514 0.195412 -2.84764)
(-0.771959 -0.39903 -1.35533)
(-0.459686 -0.170415 -2.58341)
(-0.764035 0.391604 -0.474939)
(-0.432602 0.995355 -1.49792)
(0.0362845 0.685382 -2.86748)
(-0.114958 0.193303 -2.80071)
(-2.65705 -0.546096 -1.09764)
(-2.05496 0.0184416 -0.963015)
(-2.00303 -0.221448 0.058458)
(-1.31873 0.467695 -1.46628)
(-0.781846 0.239989 -2.38342)
(-1.53067 0.231718 -1.40872)
(-3.50512 -0.387126 1.38385)
(-4.38976 0.397327 0.488255)
(-3.33949 -0.216543 -2.84095)
(-2.70152 0.41285 -2.72605)
(-2.92386 -0.395781 -1.33128)
(-3.42146 0.320574 2.37641)
(-2.94339 -0.65307 4.13677)
(-5.29327 0.935349 -2.09643)
(-3.81182 0.296553 -6.72842)
(-2.82464 1.15329 -7.05837)
(-4.35891 -0.0521274 -2.66923)
(-3.52596 0.938733 4.37815)
(-2.9974 -0.745535 6.40508)
(-4.25899 1.13167 -5.559)
(-1.56517 0.495694 -9.23233)
(-0.688726 1.69948 -10.0811)
(-3.34996 1.35668 -5.96887)
(-4.55794 1.19111 -1.38596)
(-2.9696 -0.2622 4.87198)
(-3.95737 -0.827378 -5.58135)
(-4.48686 -0.475593 -3.66742)
(-4.63941 0.63353 -3.22317)
(-3.98702 1.4341 -4.82418)
(-3.89715 0.783844 -2.89446)
(-3.00184 -0.636992 1.22612)
(-5.41495 -1.80135 -2.70141)
(-6.12672 -1.33441 2.21769)
(-6.10851 -0.62694 3.43113)
(-4.96367 0.60639 0.766519)
(-4.83347 0.831343 -1.24008)
(-5.27476 -1.2459 -1.31913)
(-6.859 -2.02483 0.693848)
(-6.42919 -1.8213 6.26947)
(-4.855 -1.26713 9.35521)
(-4.53325 -0.0402608 7.67162)
(-6.12344 0.836831 0.629029)
(-6.02058 -0.973745 -1.45346)
(-6.14509 -0.688118 3.50425)
(-4.47916 -0.820347 11.6197)
(-2.97113 -1.24978 12.383)
(-4.59325 -1.60457 10.3381)
(-7.14148 0.461675 3.55104)
(-6.82487 0.098271 0.643408)
(-7.46211 1.8142 6.21113)
(-4.61121 2.2286 8.71466)
(-2.38929 0.716833 4.67245)
(0.852574 -0.941231 -0.339337)
(-6.10301 -0.64039 7.95503)
(1.90142 0.61068 -2.22769)
(2.03214 1.63752 -2.18666)
(2.7939 1.77068 -2.58354)
(3.41907 1.40033 -3.12127)
(3.64269 0.0181767 -3.5531)
(2.91029 -0.722261 -3.02717)
(-1.5003 -0.0294027 -0.978577)
(-1.65909 0.153673 -0.589802)
(-1.48152 -0.10935 -0.341136)
(-1.58365 -0.0416382 -0.739246)
(-1.64376 -0.0756633 -1.09983)
(-1.53029 0.0526252 -0.1543)
(-1.47607 -0.263094 -1.87047)
(-1.35794 -0.19849 -1.44024)
(-1.1508 0.129649 -1.14286)
(-1.44228 0.441626 -1.643)
(-1.63105 0.0427191 -1.9741)
(-1.32941 0.00330899 -1.24704)
(-1.25825 -0.336961 0.432513)
(-0.906427 -0.248118 -1.61352)
(-0.667199 0.243547 -2.09113)
(-1.16946 0.62617 -0.108754)
(-1.37269 0.172824 0.263908)
(-1.27411 0.022552 0.251784)
(0.506346 0.0369307 -4.13804)
(0.548848 -0.00842344 -4.1891)
(0.460475 -0.0425492 -4.10654)
(0.506066 0.0350354 -4.0992)
(0.486168 -0.0514513 -4.34558)
(0.151754 -0.110184 -3.87095)
(0.230742 0.00910271 -5.48952)
(0.318716 -0.0288291 -5.46193)
(0.342451 -0.00288745 -5.43213)
(0.204848 0.0616993 -5.48593)
(0.182747 -0.0177779 -5.61657)
(0.201392 -0.0825543 -5.31716)
(0.0631288 -0.0179125 -5.60709)
(0.079304 -0.0344663 -5.54774)
(0.0758444 0.0231016 -5.50588)
(0.0448783 0.0662049 -5.59496)
(0.0460307 0.00573651 -5.66465)
(0.039315 -0.0271269 -5.58317)
(-0.0477245 0.0320587 -3.88613)
(-0.0467288 0.030265 -4.04621)
(-0.0315388 0.00908416 -4.026)
(-0.0432319 0.0232991 -3.97388)
(-0.0816342 0.0192749 -3.98033)
(-0.0669474 0.00310398 -4.11096)
(-0.38218 0.0160006 -4.75892)
(-0.37372 0.0103288 -4.79656)
(-0.354312 0.0238092 -4.78213)
(-0.37482 0.0393369 -4.7836)
(-0.406844 0.0248258 -4.78393)
(-0.325396 0.0147456 -4.76811)
(-0.325845 0.00245315 -4.76668)
(-0.311078 0.000429917 -4.7774)
(-0.302717 0.00531901 -4.78277)
(-0.32513 0.00770376 -4.78238)
(-0.346148 -0.00120798 -4.78885)
(-0.337159 -0.00302165 -4.79981)
(-0.0556377 0.00916647 -4.92396)
(-0.0654086 -0.00802294 -4.99958)
(-0.077764 -0.0150424 -4.98236)
(-0.0672769 0.0102794 -4.95924)
(-0.0810165 -0.0589757 -5.04562)
(-0.161875 -0.079972 -4.95972)
(0.0950018 0.00814799 -5.04217)
(0.0886582 0.00184694 -5.03855)
(0.0843658 -0.00489336 -5.02482)
(0.0788169 0.0129412 -5.03027)
(0.0767536 -0.00773254 -5.04684)
(0.0680136 -0.0162666 -4.9639)
(-0.132645 -0.00270737 -5.06345)
(-0.134335 -0.00546563 -5.07042)
(-0.134591 -0.00136466 -5.07041)
(-0.138978 0.00154367 -5.06362)
(-0.140051 -0.00730527 -5.07984)
(-0.145438 -0.00828401 -5.05305)
(-1.4422 -0.00409472 -6.09703)
(-1.45716 -0.0178554 -6.15531)
(-1.45107 -0.00750838 -6.13074)
(-1.45296 -0.00633456 -6.13505)
(-1.47939 -0.03453 -6.18814)
(-1.47474 -0.0487697 -6.08839)
(-0.46591 0.00495081 -4.75274)
(-0.474095 -0.00235289 -4.75662)
(-0.481029 -0.00347259 -4.75035)
(-0.467592 0.000795455 -4.74436)
(-0.480185 -0.0130531 -4.75098)
(-0.481199 -0.00816953 -4.70393)
(-0.316726 -0.000355522 -4.82814)
(-0.31402 -0.00281408 -4.8398)
(-0.314892 -0.00306545 -4.8365)
(-0.316406 -0.0018909 -4.83132)
(-0.31748 -0.00699137 -4.83318)
(-0.315703 -0.00565722 -4.82615)
(-3.04183 -0.00224047 -6.56273)
(-3.07794 -0.0103479 -6.56455)
(-3.02754 -0.0139617 -6.52347)
(-3.11466 -0.0259141 -6.62907)
(-3.19501 0.0249313 -6.60062)
(-3.01449 0.00225602 -6.51793)
(-1.05933 -0.0056197 -4.21232)
(-1.08192 -0.0207412 -4.19139)
(-1.07518 -0.00540767 -4.17874)
(-1.07178 -0.0152598 -4.20527)
(-1.09788 -0.0206512 -4.21604)
(-1.08845 -0.0117702 -4.12118)
(-0.40044 0.00249323 -4.39787)
(-0.393886 -0.00437926 -4.38963)
(-0.403264 -0.00474755 -4.37498)
(-0.39396 0.00127751 -4.38789)
(-0.401677 -0.00457777 -4.38712)
(-0.401249 -0.00534708 -4.34829)
(-3.76936 -0.0135217 -4.56787)
(-3.85803 0.0295893 -4.79163)
(-3.77755 -0.0141974 -4.66894)
(-3.944 0.0147674 -4.70005)
(-4.0606 0.0450858 -4.66583)
(-3.75053 0.00853999 -4.64198)
(-1.63313 0.00534894 -3.00353)
(-1.79365 -0.00148271 -3.06545)
(-1.74416 0.00281568 -3.01755)
(-1.75228 -0.00895411 -3.02861)
(-1.82202 -0.0135691 -2.99985)
(-1.86263 -0.0288218 -2.95965)
(-0.651321 0.0136026 -3.61446)
(-0.622586 -0.00855572 -3.66436)
(-0.667339 -0.00316569 -3.6373)
(-0.673128 -0.00754729 -3.64692)
(-0.660042 -0.0124812 -3.62668)
(-0.630489 0.00580708 -3.56412)
(-1.41116 -0.334829 1.30031)
(-1.31201 -0.158484 -0.0968148)
(-1.26731 0.0974504 0.187364)
(-1.54345 0.115136 0.974855)
(-1.50608 -0.22691 0.425668)
(-1.24151 -0.113941 0.562914)
(-0.0768548 -0.508834 -0.576088)
(-0.116108 -0.261628 -1.8112)
(0.0162834 0.147525 -1.71209)
(-0.138404 0.0862892 -0.914311)
(0.0594597 -0.512859 -0.990537)
(-0.209585 -0.282797 -1.54659)
(-0.0395593 -0.00751345 -0.378148)
(-0.0301559 -0.0424323 -2.33475)
(-0.0538436 -0.107056 -2.10348)
(0.0101813 0.0315929 -1.27841)
(-0.0838483 0.0315737 -1.01137)
(-0.0780684 0.0885468 -2.25422)
(3.49766 -0.380383 8.89627)
(2.8551 -0.178064 8.17805)
(3.27374 0.0158856 8.37564)
(3.27513 0.0154327 8.50946)
(3.18048 -0.27956 8.15009)
(3.16137 -0.0198115 8.67667)
(1.48462 -0.869469 2.89477)
(-0.921153 -0.177802 1.27964)
(0.129943 0.369984 2.03946)
(1.46292 -0.106417 2.17025)
(0.459977 -1.19811 1.83951)
(-0.722066 -0.610346 1.52697)
(-0.86995 -0.843191 5.39)
(-0.335829 -0.0438661 -0.875511)
(-1.18347 0.231231 2.91246)
(-0.969237 0.0553822 5.28833)
(-1.25428 -1.05723 4.1596)
(-0.13059 -0.254183 -1.19156)
(7.69503 0.0453927 10.4837)
(7.54911 0.128194 10.2498)
(7.59314 -0.148258 10.2333)
(7.67015 0.0122073 10.3119)
(7.6605 -0.0474201 10.2756)
(7.5776 0.111046 10.253)
(6.50161 0.212864 8.38493)
(6.0828 0.389802 8.18331)
(5.94419 -0.425506 8.24331)
(6.52538 0.0377664 8.00676)
(6.0762 0.0393954 8.06298)
(5.74178 0.215905 8.11535)
(0.352675 -0.0590969 10.799)
(0.453343 0.224104 10.982)
(0.06527 -0.149929 10.8677)
(0.282382 0.117961 10.4538)
(-0.348048 -0.108903 10.8046)
(0.315482 -0.0355602 10.6205)
(0.487356 0.40812 7.82346)
(2.64608 0.279062 9.47936)
(1.99047 -0.267184 9.08786)
(1.2605 -0.0532906 8.42338)
(1.54194 0.208848 8.7579)
(2.05261 0.246909 8.95891)
(-0.997499 0.343164 9.16901)
(0.992217 0.30197 12.2218)
(0.129328 -0.369459 11.4009)
(-0.333649 0.0303626 9.95964)
(-0.425392 0.292414 10.2315)
(0.17267 0.267699 11.6825)
(-3.67807 -0.0515162 8.55203)
(-3.39321 0.0271871 11.299)
(-3.68247 -0.0757404 9.98756)
(-3.58962 0.102309 8.87962)
(-3.83591 -0.00106863 9.06362)
(-3.48325 -0.0939396 10.5996)
(4.01597 -0.00634057 5.20601)
(4.88667 0.113687 5.21095)
(4.45217 -0.161638 5.13685)
(4.23145 0.0136449 5.31264)
(4.41108 0.0043345 5.3556)
(4.48897 0.164815 5.11344)
(2.86655 -0.210198 3.19355)
(3.61657 -0.0175851 6.04508)
(3.2868 0.0431469 5.14591)
(2.98668 0.132784 3.60472)
(3.20041 -0.12722 3.82306)
(3.24888 -0.00248401 5.47012)
(0.924879 -0.100187 1.66324)
(1.45687 -0.0725915 3.08239)
(1.26743 0.0746691 2.32472)
(1.09374 0.0236194 1.95695)
(1.18609 -0.0382903 1.65012)
(1.20432 -0.0234887 2.83183)
(1.76662 0.00956326 -0.251905)
(1.86822 0.0685436 -0.372582)
(1.85811 0.0800317 -0.428709)
(2.01404 -6.13822e-06 -0.381825)
(2.21904 -0.113386 -0.301364)
(2.02979 -0.0983169 -0.223454)
(-0.985423 0.0982152 -2.059)
(-0.554677 0.738458 -2.12015)
(0.00837004 0.850804 -2.93603)
(0.156656 0.357923 -3.07809)
(-0.885018 0.0978704 -2.90598)
(-1.81681 -0.0748435 -2.80224)
(-1.11236 -0.0260926 0.106733)
(-0.867742 0.260199 0.122553)
(-1.25444 0.511362 1.12808)
(-2.17212 0.373317 2.25317)
(-2.49807 0.200282 1.89224)
(-2.2005 0.147881 1.13762)
(0.464202 0.014874 -0.284037)
(0.456749 0.0161284 -0.28154)
(0.530636 0.0214168 -0.270605)
(0.556868 0.0224258 -0.296168)
(0.539432 -0.015287 -0.317003)
(0.519356 -0.0185686 -0.314158)
(0.586581 0.0663886 -1.55158)
(0.885482 0.167652 -1.52923)
(1.22628 0.0933627 -1.51783)
(1.17127 -0.231284 -1.68178)
(0.639048 -0.419061 -2.01276)
(0.0267309 -0.192998 -2.00758)
(0.172667 -0.0294652 0.91201)
(0.262768 -0.133337 0.77764)
(0.156881 -0.251608 0.792819)
(-0.408195 -0.161949 1.12262)
(-0.495468 -0.0215275 1.30274)
(-0.417856 0.0175028 1.43038)
(0.311656 0.0018365 0.013764)
(0.331902 0.012734 0.0156325)
(0.33178 0.0116919 0.0122562)
(0.338706 -0.00539716 0.0229254)
(0.342191 -0.00818986 0.023399)
(0.324141 -0.00132099 0.0113129)
(0.784691 0.0247101 -0.58345)
(0.848667 0.0687147 -0.588217)
(0.92158 0.0120214 -0.626731)
(0.93112 -0.133425 -0.662976)
(0.795913 -0.20142 -0.68083)
(0.642325 -0.0962797 -0.639591)
(0.276202 -0.0217329 0.886828)
(0.284764 -0.086746 0.868343)
(0.257887 -0.190406 0.8993)
(0.184952 -0.153047 0.984546)
(0.155798 -0.0362704 1.07177)
(0.139087 -0.0149317 1.12426)
(-0.00608023 -0.00118735 0.0401808)
(0.00716553 0.00381719 0.0408564)
(-0.00249317 0.00685437 0.0375195)
(0.0205158 0.00100472 0.0390733)
(0.0224273 -0.00425048 0.0415013)
(-0.0104945 -0.00309639 0.0338197)
(1.41817 -0.0242161 0.110633)
(1.54598 -0.0358675 0.129359)
(1.62975 -0.0145894 0.1229)
(1.57734 -0.0504444 0.147847)
(1.51404 -0.05169 0.158677)
(1.42214 -0.0220804 0.111892)
(0.829966 -0.0247215 1.33107)
(0.847944 -0.0457032 1.34463)
(0.822512 -0.0560187 1.36599)
(0.742238 -0.0485529 1.38029)
(0.725824 -0.0137001 1.41312)
(0.693866 -0.00159229 1.421)
(0.272619 -0.0152628 -0.0780145)
(0.318767 0.00869329 -0.0844333)
(0.296226 -0.00840887 -0.0898393)
(0.284907 -0.0430715 -0.0709702)
(0.29075 0.0330492 -0.0632814)
(0.313558 0.0446606 -0.0998388)
(1.65822 -0.0287171 1.70749)
(1.79336 -0.00404781 1.72039)
(1.84127 -0.0122971 1.68722)
(1.78269 -0.110436 1.7686)
(1.75115 0.0436029 1.81643)
(1.6922 0.0772348 1.6376)
(1.07765 -0.0458811 2.19289)
(1.18927 -0.0564874 2.19644)
(1.19346 -0.0196391 2.22366)
(1.13833 -0.036666 2.18305)
(1.12939 0.0192826 2.20621)
(1.08784 0.028756 2.26838)
(1.44212 -0.089963 1.56314)
(1.41766 -0.0114986 1.14998)
(1.28126 0.0136851 1.16656)
(1.62435 0.0202882 1.70645)
(1.78041 -0.0614742 1.79314)
(1.17355 0.0178709 1.02828)
(1.57565 -0.0936891 2.71961)
(1.78301 -0.00849384 3.09356)
(1.67413 0.00878792 2.91733)
(1.82722 -0.0729991 2.82982)
(1.97689 -0.00790884 2.88243)
(1.51812 0.0838342 2.92427)
(1.20468 -0.092252 1.85384)
(1.46247 -0.0659278 1.96)
(1.42846 0.0417649 1.89089)
(1.32062 -0.0470962 1.77837)
(1.35585 0.0131144 1.68587)
(1.30369 0.0394147 2.05939)
(0.217024 0.137006 -1.18734)
(-0.259678 -0.428245 -2.16069)
(-0.00899279 0.0740137 -1.03645)
(-0.193518 0.782405 -1.86093)
(-0.247567 0.621494 -2.43435)
(-0.0522807 -0.00746773 -1.11418)
(-0.0700239 0.205921 -1.32196)
(-0.197687 -0.0315709 -2.02306)
(0.243284 -0.00243928 -0.567164)
(-0.169202 0.038566 -1.2611)
(-0.228064 -0.0594137 -2.19342)
(-0.140994 -0.225688 -1.88873)
(-0.140951 0.0905285 -1.69968)
(-0.104247 -0.0438054 -1.869)
(0.00868732 -0.0623354 -1.2108)
(-0.109694 0.173053 -1.81943)
(-0.11179 0.0839552 -2.10054)
(-0.105059 -0.00399537 -1.93356)
(-0.0979156 0.0953029 -2.39776)
(-0.116753 -0.124217 -3.12175)
(-0.418794 0.0258377 -3.18506)
(-0.470896 0.322424 -3.26992)
(-0.350247 0.263148 -3.3088)
(-0.282534 0.0407875 -2.43948)
(-0.0699413 0.0937093 -2.24319)
(-0.174186 0.17131 -2.43571)
(-0.299938 0.0195057 -2.1098)
(-0.293261 -0.039066 -2.32646)
(-0.266526 -0.0674442 -2.72983)
(-0.12015 -0.116139 -2.552)
(-0.153047 0.0358452 -2.33432)
(-0.15931 0.0221793 -2.42966)
(-0.148841 0.00766182 -2.49967)
(-0.136023 0.0801291 -2.5375)
(-0.133438 0.0376265 -2.54002)
(-0.124172 -0.0182079 -2.41585)
(-0.613235 0.0616689 -1.17172)
(-0.00829336 0.0152625 -3.39764)
(-0.241898 0.187935 -3.69323)
(-0.365922 0.402285 -3.45412)
(-0.190214 0.295402 -3.41398)
(-0.485499 0.0684088 -2.36488)
(0.454348 0.316736 -2.0803)
(0.260842 0.311289 -2.68619)
(0.0318086 0.0463634 -2.2252)
(-0.0846078 -0.0044983 -2.54042)
(0.0232522 -0.0767829 -2.93955)
(0.257855 -0.107662 -2.56215)
(-0.131795 0.0865562 -2.19423)
(-0.215948 0.0247412 -2.37598)
(-0.158789 -0.00825234 -2.48066)
(-0.141287 0.0785513 -2.6139)
(-0.117646 -0.0135981 -2.62057)
(-0.0336622 -0.0425366 -2.52909)
(-1.69407 0.155395 0.646104)
(-1.15911 0.809346 -2.75922)
(-0.806695 0.837573 -3.81976)
(-0.807619 0.348459 -3.43686)
(-1.10763 -0.197811 -3.17171)
(-2.39737 -0.142825 -0.144537)
(0.373257 0.4569 -2.02274)
(0.346423 0.568036 -3.22058)
(0.0165684 0.106219 -3.11212)
(0.0660782 -0.151305 -3.20231)
(0.306408 -0.333809 -3.4634)
(0.0930539 -0.302295 -2.49017)
(-0.109993 0.124505 -2.1112)
(-0.200044 0.0790519 -2.38316)
(-0.158773 -0.0356562 -2.70283)
(-0.110829 -0.0141224 -2.90926)