/*--------------------------------*- C++ -*----------------------------------*\
| =========                 |                                                 |
| \\      /  F ield         | OpenFOAM: The Open Source CFD Toolbox           |
|  \\    /   O peration     | Version:  v1612+                                |
|   \\  /    A nd           | Web:      www.OpenFOAM.com                      |
|    \\/     M anipulation  |                                                 |
\*---------------------------------------------------------------------------*/
FoamFile
{
    version     2.0;
    format      ascii;
    class       surfaceScalarField;
    location    "9.85";
    object      phi;
}
// * * * * * * * * * * * * * * * * * * * * * * * * * * * * * * * * * * * * * //

dimensions      [0 3 -1 0 0 0 0];

internalField   nonuniform List<scalar> 
816
(
4.34996e-06
-1.17797e-05
6.57311e-06
-2.32868e-05
-1.97424e-05
4.38859e-05
7.7564e-06
-7.767e-07
-1.23407e-05
-6.05988e-06
1.57697e-05
-3.52741e-06
-7.14519e-07
-6.91823e-06
1.40783e-06
-2.02904e-06
-1.20762e-05
-1.11203e-06
-9.53437e-06
2.69448e-05
5.58835e-05
-1.79246e-06
2.42983e-07
-0.000267012
0.000312861
0.000108413
3.03348e-06
-6.37335e-05
0.000108012
0.000281743
-2.62141e-06
-0.000266202
0.000405329
0.00043154
-5.88716e-06
0.00028614
-7.54996e-06
0.000452275
-1.79622e-05
0.000176181
-0.000135647
6.34129e-05
1.94734e-06
1.80989e-05
0.000440988
6.09437e-06
3.16389e-06
0.000381607
-0.000196019
0.000172754
2.52489e-06
0.000138007
-0.000224614
-0.000120074
-6.10746e-07
0.000306294
0.00012913
-6.38454e-05
-1.0398e-05
0.000117879
-0.000139712
-0.000306895
-4.85911e-08
7.55334e-05
-0.000197379
3.71016e-06
-0.000300932
5.20348e-06
2.43116e-05
-3.17679e-06
-3.35867e-05
-3.04462e-06
1.52346e-05
4.7525e-05
-4.65092e-05
2.40649e-05
2.44472e-06
2.84163e-06
-8.9036e-06
-1.07416e-06
5.3175e-05
-3.70708e-06
1.12493e-05
1.6866e-05
-2.68015e-05
1.54478e-05
-2.86131e-05
2.57442e-05
-3.0473e-05
-4.31701e-06
-2.70007e-05
1.29586e-05
3.43384e-05
4.54315e-06
-3.54217e-05
2.70537e-05
1.98663e-06
2.6999e-05
-1.48461e-05
-5.7119e-06
-9.55435e-07
9.84071e-06
-5.61643e-05
2.98121e-05
4.26268e-05
2.86289e-05
-3.53667e-05
1.57941e-05
-7.2284e-06
-2.03188e-05
7.92027e-05
6.11282e-06
-3.67219e-05
-1.74591e-05
-6.84433e-06
4.5839e-06
-1.0552e-05
7.48033e-08
-1.73688e-05
8.33086e-07
-2.32664e-05
-2.0763e-05
-1.37987e-05
7.94091e-07
-4.5467e-06
-5.07844e-07
-2.7926e-05
3.0744e-06
4.30602e-06
-7.68397e-06
-1.15401e-05
-1.25401e-05
-1.35255e-05
7.65152e-07
-1.3877e-05
-5.83409e-06
-1.95942e-05
-4.63216e-06
-1.71439e-05
-1.39805e-05
-1.79507e-05
-6.11809e-06
3.86616e-06
-3.42099e-06
-2.56515e-05
-1.91904e-05
-2.58801e-05
-1.61645e-05
-1.5788e-05
-1.3749e-05
1.09164e-05
3.50321e-05
-6.19909e-06
-9.63848e-06
5.84242e-06
-2.67119e-06
2.53226e-06
-6.82227e-06
4.36977e-06
-1.33812e-05
-6.44079e-06
3.70034e-06
-3.11147e-07
-7.08923e-06
1.65041e-07
-9.7831e-07
4.33864e-08
-4.36959e-06
-1.18668e-07
-5.59871e-06
-9.62075e-07
-2.61791e-07
-4.91773e-06
-1.61463e-06
-1.67037e-07
-6.30238e-06
-1.24941e-05
-9.21408e-06
-4.29225e-06
1.23815e-07
-8.28652e-07
-1.48089e-05
-1.53464e-06
2.64916e-06
-3.66344e-06
-1.66757e-06
-5.75968e-06
-5.92631e-06
-3.8054e-06
-3.48154e-07
-3.28661e-06
-1.10244e-05
-4.97293e-06
-3.42403e-06
-7.92934e-06
-7.1165e-06
-9.7783e-06
2.80511e-06
-2.56111e-06
-1.50421e-06
-1.15754e-05
-1.49796e-05
-7.38449e-06
-9.20011e-06
-7.9711e-06
-4.49544e-06
6.11325e-06
-3.65525e-06
9.98405e-06
2.42985e-06
-3.28842e-06
-4.27236e-06
-7.44815e-05
0.000128365
-2.51476e-06
-0.000174438
4.95565e-05
6.87718e-06
-0.000311404
-4.05855e-06
1.47723e-06
-0.000105057
0.000313253
-2.88567e-06
-0.000326123
0.000334263
-5.75237e-06
-0.000448066
-0.000244678
0.000118912
-5.92184e-06
-0.000276282
-0.0001178
-1.27183e-05
-0.000311657
-0.00037152
-9.9051e-06
-0.000428557
-0.000208735
1.00427e-05
-0.000171152
0.000604193
4.81841e-06
-0.000465779
-8.97354e-05
0.000123122
1.99095e-06
-0.000112949
-0.000312852
4.78965e-06
-0.000217058
7.09678e-05
-5.67302e-06
-2.62095e-05
-0.000119588
8.22508e-06
-0.000168356
7.48142e-05
2.59208e-06
-0.000428546
-0.000484156
-0.00016104
3.07423e-06
-0.000368003
-0.000403102
4.06804e-06
-0.000309149
-0.000404422
6.77772e-06
-0.000218748
-0.000254165
-2.43515e-06
-0.000104277
-5.33446e-06
-0.00039661
-0.000168881
-1.83085e-05
1.55483e-05
-8.39364e-06
1.77897e-06
1.96125e-05
-2.90988e-05
-5.35398e-06
1.96974e-05
5.52987e-06
2.00621e-05
2.02153e-05
-1.09306e-05
6.84404e-06
2.64712e-05
7.82864e-05
-4.94287e-05
-4.23733e-05
-5.75613e-07
9.88778e-05
-2.46344e-05
-3.16207e-05
9.45734e-05
-5.80619e-05
-7.25691e-05
0.000118044
-6.2015e-05
-3.9061e-05
-1.06286e-05
-4.18988e-06
5.31482e-05
-3.15387e-05
-3.78264e-05
-2.26713e-05
-3.76491e-06
0.000112722
-2.34207e-05
-4.32939e-05
0.000105155
-4.08091e-05
1.27716e-05
-5.95283e-05
-5.30743e-06
1.50422e-06
7.5118e-05
-2.74241e-05
3.28978e-05
8.29088e-05
-6.41498e-05
-4.71014e-05
-6.69873e-06
0.000100351
-1.41045e-05
-3.94418e-05
9.36476e-05
-4.15923e-05
-2.65985e-05
2.93368e-05
-2.96829e-05
-1.09678e-06
-1.3887e-05
-8.72423e-06
8.01082e-05
-3.04039e-05
-3.92587e-05
8.71466e-06
-7.98115e-06
-2.83347e-06
-4.53391e-07
-7.88443e-06
-1.45346e-05
2.84958e-06
-8.966e-06
5.19218e-06
-1.23454e-05
-9.78214e-06
-5.83197e-06
-4.79664e-06
-1.39692e-05
3.58002e-05
2.56202e-05
2.10383e-05
1.21879e-06
4.34883e-05
1.22634e-05
1.63501e-05
4.15077e-05
3.02512e-05
3.65743e-05
5.17378e-05
3.25584e-05
2.1078e-05
-5.48836e-06
4.51473e-06
-3.10919e-05
-1.20879e-05
2.1241e-05
1.14808e-05
5.80272e-08
4.86664e-05
1.32941e-05
2.07096e-05
4.59345e-05
2.45653e-05
-1.19846e-05
-2.59218e-05
2.91122e-06
-3.40261e-06
3.41748e-05
1.315e-05
-1.83329e-05
3.7158e-05
3.54498e-05
2.5224e-05
4.71663e-06
4.39638e-05
7.44761e-06
2.33572e-05
4.20114e-05
1.92469e-05
1.70477e-05
1.48661e-05
1.45801e-05
1.84061e-06
-5.68044e-06
4.32339e-06
3.66762e-05
1.61639e-05
2.11251e-05
5.80854e-06
-5.12742e-06
2.056e-07
-1.27705e-06
-4.40686e-06
-4.73757e-06
1.90171e-07
-4.56573e-06
3.89234e-06
-7.73545e-06
-4.51123e-06
-2.55928e-06
-4.13663e-06
-7.10042e-06
1.23633e-05
1.4393e-05
1.16378e-05
5.29386e-07
1.5813e-05
5.21771e-06
8.82969e-06
1.33211e-05
1.62126e-05
1.91517e-05
1.68766e-05
1.86189e-05
1.06851e-05
-1.91222e-06
1.59371e-06
-1.7047e-05
-7.45552e-07
1.10807e-05
5.27549e-06
3.23055e-07
1.35557e-05
6.69214e-06
1.07543e-05
1.48212e-05
1.26881e-05
-8.06434e-06
-5.24354e-06
9.14842e-07
-2.61272e-06
1.12666e-05
5.86453e-06
-1.01023e-05
1.16414e-05
1.9192e-05
1.38134e-05
2.481e-06
1.40429e-05
2.34645e-06
1.21122e-05
1.37237e-05
1.06783e-05
8.88633e-06
6.27958e-06
8.14692e-06
4.7131e-07
-1.38425e-06
8.09102e-07
1.05617e-05
8.92857e-06
1.24928e-05
1.25247e-06
-4.34252e-06
3.25519e-06
-6.61088e-06
3.09326e-06
-6.23338e-07
-1.06726e-06
-2.4605e-06
-1.06205e-06
-9.56353e-07
-2.34249e-06
2.69357e-06
-5.26965e-06
1.15599e-06
1.06181e-06
-6.10918e-06
-4.09037e-06
-1.36759e-07
6.54634e-07
-8.15719e-06
-5.04018e-07
-2.38228e-06
-2.95745e-06
-3.69987e-06
-8.8998e-07
-1.48523e-06
-5.55856e-06
-2.39546e-06
-2.92396e-06
-6.03948e-06
1.03016e-08
-1.25018e-06
-4.54605e-06
-7.63361e-06
-3.4063e-06
-3.31002e-06
3.28766e-06
-3.34704e-06
6.54197e-07
-4.85325e-07
2.13018e-06
-1.64301e-06
3.78783e-07
-2.98832e-06
1.38214e-06
-1.00965e-06
-2.21812e-06
-2.79068e-06
-1.38724e-07
-2.50215e-06
5.71431e-06
6.3656e-06
1.63217e-06
3.51981e-06
5.16504e-06
7.39726e-06
1.02528e-05
8.0886e-06
4.87607e-06
1.98105e-06
-6.22355e-06
5.93496e-06
4.41544e-06
-7.71599e-07
2.54322e-06
4.33357e-06
6.77293e-06
-2.7616e-06
1.84764e-06
-6.68916e-07
4.60898e-06
-3.787e-06
8.47974e-06
6.27049e-06
1.1765e-06
1.43199e-06
6.34772e-06
5.23991e-06
6.30538e-06
2.97467e-06
2.11591e-06
2.28954e-06
5.22962e-06
5.62558e-06
9.23509e-05
-0.000237561
1.08237e-06
4.59839e-05
-2.21459e-06
0.000103363
6.63174e-06
-0.000138151
2.77449e-06
0.00014936
1.38805e-06
-0.000251813
1.35758e-06
0.000363213
-5.67151e-08
0.000232833
5.94246e-06
0.000107966
7.28744e-06
0.000143597
2.24942e-06
8.6779e-05
2.7589e-06
0.000119335
-9.63668e-06
4.11847e-05
7.51735e-07
0.0001448
1.67247e-05
0.000175845
-3.17779e-06
3.11675e-05
4.36756e-06
-7.14546e-05
-1.50445e-05
-5.29888e-05
-1.30305e-06
-0.000173526
1.33014e-05
-0.000283392
3.97851e-06
0.000157643
9.93491e-07
-7.2603e-05
3.92547e-07
2.86558e-05
3.75311e-06
-7.61116e-05
1.09313e-05
-0.00023793
8.78986e-06
-0.000345077
-5.26792e-06
-0.000396724
-3.40969e-06
-2.04476e-06
1.60319e-05
-3.56577e-05
-9.45369e-06
1.23618e-05
3.02418e-06
4.00692e-05
-2.65478e-05
7.1669e-06
5.57046e-05
-2.10992e-05
3.5875e-05
-5.07646e-05
-1.79467e-05
3.94079e-05
-9.2176e-05
2.00934e-05
-1.77356e-05
-2.40616e-05
2.6461e-05
-1.27315e-05
-6.77309e-05
1.03352e-05
-8.23713e-05
1.38389e-05
-1.86098e-05
1.32243e-05
-4.02908e-05
-1.30268e-05
3.95031e-05
-7.39352e-06
-3.1485e-05
-3.10797e-06
-2.87372e-05
-4.13627e-06
-5.1558e-05
-1.67397e-06
-1.10593e-05
-1.16705e-05
-4.19924e-06
-2.02893e-05
-5.14537e-05
3.61576e-05
-5.52553e-05
8.96947e-06
-1.96881e-05
-3.53984e-06
1.81512e-06
1.77051e-06
-3.64451e-05
-1.00513e-05
-8.47318e-06
-2.18139e-05
-4.33259e-07
-2.62223e-05
-3.80526e-05
-6.39242e-05
-8.56283e-06
2.04598e-05
-5.16476e-06
-7.30428e-06
1.31347e-06
-1.90877e-05
-1.19703e-05
-1.69427e-06
2.6e-05
1.35922e-05
1.5809e-05
2.88837e-05
-7.61175e-06
-2.22932e-05
-4.10031e-05
-1.00315e-05
-8.97009e-06
1.59226e-05
1.2772e-05
7.36556e-06
-2.89198e-05
-4.54275e-06
-3.78916e-05
-9.80525e-06
-8.8356e-06
-1.16585e-05
-1.7226e-05
1.06637e-05
1.71804e-05
4.71562e-06
-1.40826e-05
1.40932e-06
-1.21568e-05
-2.71433e-06
-2.29033e-05
-5.11967e-06
-5.76829e-06
5.20232e-06
-1.38297e-06
1.09259e-05
-2.17284e-05
-1.89647e-05
-2.53681e-05
-5.32858e-06
-8.10894e-06
1.33013e-06
2.60096e-06
7.93697e-07
-1.66616e-05
9.86723e-06
-2.96198e-06
1.42136e-05
-4.44489e-07
1.55833e-05
-1.82978e-05
-2.7901e-05
-4.19377e-06
1.03278e-05
-2.29343e-06
-3.5357e-06
-5.334e-07
-1.04225e-05
-5.05132e-06
-1.97387e-07
7.98485e-06
9.43816e-06
2.02194e-06
1.58089e-05
4.15841e-07
-1.24608e-05
-1.27276e-05
-5.87114e-06
-3.92997e-06
9.20008e-06
2.9085e-06
5.42852e-06
-8.94755e-06
-3.66868e-06
-1.01791e-05
-6.53499e-06
-4.38722e-06
-7.52366e-06
-5.17662e-06
6.80124e-06
2.82267e-06
3.01323e-06
-5.03702e-06
5.70745e-07
-3.06553e-06
-2.42231e-06
-7.24289e-06
-3.60211e-06
-3.68491e-06
3.11678e-06
-2.24823e-06
5.83225e-06
-5.26233e-06
-1.04525e-05
-9.08301e-06
-3.1707e-06
-1.58559e-06
1.72292e-06
4.39955e-08
1.46215e-07
-4.41353e-06
4.73386e-06
5.98288e-07
7.91263e-06
-2.78386e-06
7.46227e-06
-5.32465e-06
-1.01471e-05
-2.79257e-06
5.74124e-06
-2.67635e-06
-6.31128e-06
-5.36338e-07
1.33884e-06
7.45644e-06
-5.26985e-06
-2.83527e-06
3.58806e-06
2.03324e-06
-5.31594e-08
-2.45493e-06
-1.70223e-06
1.11356e-06
4.95005e-07
-4.01471e-08
-5.20133e-07
-2.36169e-06
-8.57831e-09
3.19117e-06
-5.89818e-06
-1.22068e-06
2.49048e-07
1.07064e-06
4.65731e-06
4.24e-06
4.59401e-06
-0.000120144
0.000258119
-3.85314e-06
8.52542e-05
-4.52982e-06
5.77495e-05
3.53489e-06
-2.67824e-07
-1.49106e-06
2.11456e-05
-1.35434e-05
1.54437e-05
)
;

boundaryField
{
    top_fluid_surface
    {
        type            calculated;
        value           nonuniform List<scalar> 
64
(
-0.000100128
-0.000100307
-0.000309716
-0.000422356
-4.07818e-05
-6.95542e-05
-0.000130974
-8.14744e-05
-0.000145882
-2.42773e-05
0.000367578
-1.58129e-05
-0.000178123
-8.62759e-05
9.33841e-05
-0.000253792
0.000676817
0.000899824
0.000845039
0.000867448
1.98402e-05
-0.000233138
0.00102485
0.00102416
-0.000224842
0.000610617
0.000710312
0.000728084
0.000666482
0.000292054
-3.92496e-05
0.000444992
-0.000249744
-0.000126061
-0.000376174
0.000133538
-0.000614056
-5.01702e-05
-0.000617762
-0.000120341
-0.000162949
-0.000350912
-0.000375015
-0.000171024
-0.000400277
-0.000121456
-0.000139386
-3.0373e-05
-0.000110534
-0.000151077
-6.4671e-05
-0.000326184
-0.000442516
-0.000253339
-0.000469798
-0.000212899
-6.58277e-05
7.3423e-06
-0.000115535
-0.000630349
-1.90432e-05
-9.84814e-05
-0.000170419
-0.000185903
)
;
    }
    bottom_fluid_surface
    {
        type            calculated;
        value           uniform 0;
    }
    lateral_surface_1
    {
        type            calculated;
        value           uniform 0;
    }
    lateral_surface_2
    {
        type            calculated;
        value           uniform 0;
    }
    lateral_surface_3
    {
        type            calculated;
        value           uniform 0;
    }
    lateral_surface_4
    {
        type            calculated;
        value           uniform 0;
    }
}


// ************************************************************************* //
