/*--------------------------------*- C++ -*----------------------------------*\
| =========                 |                                                 |
| \\      /  F ield         | OpenFOAM: The Open Source CFD Toolbox           |
|  \\    /   O peration     | Version:  v1612+                                |
|   \\  /    A nd           | Web:      www.OpenFOAM.com                      |
|    \\/     M anipulation  |                                                 |
\*---------------------------------------------------------------------------*/
FoamFile
{
    version     2.0;
    format      ascii;
    class       volScalarField;
    location    "3.2";
    object      alpha.water;
}
// * * * * * * * * * * * * * * * * * * * * * * * * * * * * * * * * * * * * * //

dimensions      [0 0 0 0 0 0 0];

internalField   nonuniform List<scalar> 
1116
(
0.81013
0.810124
0.810126
0.810124
0.810121
0.810126
0.811359
0.811353
0.811355
0.811353
0.81135
0.811355
0.83122
0.831214
0.831216
0.831215
0.831211
0.831217
0.864025
0.864018
0.86402
0.86402
0.864016
0.864022
0.897032
0.897024
0.897026
0.897026
0.897023
0.897029
0.923088
0.923081
0.923082
0.923081
0.923079
0.923084
0.941703
0.941697
0.941696
0.941695
0.941694
0.941698
0.968045
0.96804
0.968039
0.968037
0.968036
0.96804
0.973113
0.973113
0.973113
0.973113
0.973113
0.973113
0.973115
0.973115
0.973115
0.973115
0.973115
0.973115
0.973115
0.973115
0.973115
0.973115
0.973115
0.973115
0.970146
0.970146
0.970146
0.970147
0.970147
0.970143
0.167197
0.167196
0.167196
0.167194
0.167193
0.167196
0.0879026
0.0879016
0.0879016
0.0878996
0.0878989
0.087903
0.0692968
0.0692955
0.0692954
0.0692945
0.0692938
0.0692961
0.0837755
0.0837736
0.0837736
0.0837729
0.0837721
0.0837744
0.11356
0.113557
0.113557
0.113556
0.113556
0.113558
0.15676
0.156756
0.156756
0.156756
0.156755
0.156758
0.223088
0.223082
0.223082
0.223082
0.223082
0.223086
0.277865
0.277858
0.277859
0.277859
0.277859
0.277864
0.395402
0.395388
0.39539
0.39539
0.395389
0.395399
0.724726
0.724696
0.724703
0.724703
0.724697
0.724716
0.973115
0.973115
0.973115
0.973115
0.973115
0.973115
0.971787
0.971788
0.971788
0.971789
0.971789
0.971789
2.42958e-08
2.4296e-08
2.42962e-08
2.42974e-08
2.42994e-08
2.43005e-08
6.30079e-09
6.30076e-09
6.30071e-09
6.3e-09
6.29973e-09
6.3006e-09
4.49205e-09
4.49186e-09
4.49193e-09
4.49138e-09
4.49094e-09
4.49175e-09
2.18315e-09
2.18319e-09
2.18319e-09
2.18305e-09
2.1829e-09
2.18282e-09
2.86255e-10
2.86277e-10
2.86261e-10
2.86234e-10
2.86207e-10
2.86146e-10
2.49884e-11
2.49896e-11
2.49881e-11
2.49857e-11
2.49834e-11
2.49787e-11
-3.15387e-19
-3.15137e-19
-3.14996e-19
-3.15041e-19
-3.15234e-19
-3.15197e-19
-4.31853e-11
-4.31704e-11
-4.3174e-11
-4.31853e-11
-4.31933e-11
-4.31837e-11
-1.26977e-07
-1.26713e-07
-1.26642e-07
-1.26491e-07
-1.26409e-07
-1.26771e-07
0.0332173
0.0332009
0.0332062
0.033206
0.0332033
0.0332103
0.692346
0.692296
0.692309
0.69231
0.692301
0.692327
0.963135
0.963137
0.963139
0.963134
0.963127
0.963149
5.67133e-07
5.67104e-07
5.67194e-07
5.67287e-07
5.6729e-07
5.67307e-07
3.13842e-06
3.13818e-06
3.13826e-06
3.13826e-06
3.13812e-06
3.13853e-06
3.68783e-08
3.69031e-08
3.6888e-08
3.68899e-08
3.69176e-08
3.6879e-08
1.07672e-07
1.07645e-07
1.0765e-07
1.07624e-07
1.07607e-07
1.07679e-07
1.13038e-07
1.1303e-07
1.13029e-07
1.13025e-07
1.13019e-07
1.13028e-07
6.04875e-09
6.04986e-09
6.04898e-09
6.04817e-09
6.04755e-09
6.04439e-09
1.07793e-12
1.07777e-12
1.07795e-12
1.07849e-12
1.07888e-12
1.07809e-12
8.24857e-13
8.24262e-13
8.24407e-13
8.24893e-13
8.25044e-13
8.25083e-13
-2.57606e-06
-2.57609e-06
-2.57608e-06
-2.5761e-06
-2.57618e-06
-2.5763e-06
0.000101687
0.000101672
0.000101678
0.000101677
0.000101674
0.000101685
0.144449
0.144382
0.144397
0.144407
0.144399
0.144422
0.960107
0.960104
0.960109
0.960103
0.960097
0.960119
2.72244e-53
2.84295e-53
2.90053e-53
2.95706e-53
3.04554e-53
2.91068e-53
3.55562e-49
3.70971e-49
3.78166e-49
3.85286e-49
3.96389e-49
3.7781e-49
2.10882e-45
2.1967e-45
2.23646e-45
2.2766e-45
2.33888e-45
2.22061e-45
7.31819e-42
7.59851e-42
7.71868e-42
7.8465e-42
8.04386e-42
7.5903e-42
1.62956e-38
1.68051e-38
1.6999e-38
1.72409e-38
1.76148e-38
1.645e-38
2.50224e-35
2.5452e-35
2.55449e-35
2.58108e-35
2.62348e-35
2.40699e-35
3.01696e-32
2.99996e-32
2.97474e-32
2.99048e-32
3.02081e-32
2.70157e-32
3.37789e-29
3.28632e-29
3.22398e-29
3.22942e-29
3.25223e-29
2.85021e-29
3.6925e-26
3.56193e-26
3.485e-26
3.49273e-26
3.52656e-26
3.08229e-26
3.4724e-23
3.35091e-23
3.2828e-23
3.29478e-23
3.33978e-23
2.93186e-23
2.52916e-20
2.42531e-20
2.38987e-20
2.42487e-20
2.50205e-20
2.24095e-20
1.76602e-17
1.71192e-17
1.69878e-17
1.73719e-17
1.8158e-17
1.62981e-17
3.78521e-51
3.91112e-51
3.96262e-51
4.02021e-51
4.1338e-51
3.97141e-51
5.58637e-47
5.77123e-47
5.84467e-47
5.92657e-47
6.09026e-47
5.84545e-47
3.78178e-43
3.90664e-43
3.95439e-43
4.00737e-43
4.11498e-43
3.94504e-43
1.53669e-39
1.58738e-39
1.60579e-39
1.62604e-39
1.66805e-39
1.5967e-39
4.12014e-36
4.25563e-36
4.30138e-36
4.35115e-36
4.45749e-36
4.25724e-36
7.43593e-33
7.67888e-33
7.75281e-33
7.83204e-33
8.00782e-33
7.62089e-33
8.61311e-30
8.88227e-30
8.94764e-30
9.01589e-30
9.18085e-30
8.66521e-30
6.18152e-27
6.34002e-27
6.29341e-27
6.24678e-27
6.23846e-27
5.67409e-27
9.86625e-24
9.75793e-24
9.33859e-24
9.00831e-24
8.72508e-24
7.35506e-24
8.31877e-20
8.14331e-20
7.99027e-20
7.98162e-20
8.06763e-20
7.13832e-20
1.33476e-17
1.31448e-17
1.30616e-17
1.31056e-17
1.32246e-17
1.27613e-17
3.02574e-17
2.98863e-17
2.9791e-17
3.00197e-17
3.04702e-17
2.92813e-17
1.63555e-46
1.61399e-46
1.60716e-46
1.63682e-46
1.67798e-46
1.52584e-46
3.22582e-42
3.18012e-42
3.16521e-42
3.22302e-42
3.3051e-42
3.00295e-42
2.96536e-38
2.92037e-38
2.90517e-38
2.95743e-38
3.03384e-38
2.75419e-38
1.6028e-34
1.57676e-34
1.56764e-34
1.5952e-34
1.63711e-34
1.48506e-34
5.42732e-31
5.33272e-31
5.29848e-31
5.38872e-31
5.53319e-31
5.01647e-31
1.17972e-27
1.15757e-27
1.1494e-27
1.16831e-27
1.20064e-27
1.08855e-27
1.65786e-24
1.62464e-24
1.61266e-24
1.63874e-24
1.68676e-24
1.53092e-24
1.49749e-21
1.46675e-21
1.45636e-21
1.48036e-21
1.52771e-21
1.38966e-21
8.62131e-19
8.45222e-19
8.40105e-19
8.54319e-19
8.84142e-19
8.07105e-19
1.82611e-16
1.79843e-16
1.79314e-16
1.83306e-16
1.91153e-16
1.7314e-16
6.70355e-14
6.60761e-14
6.59499e-14
6.75972e-14
7.08822e-14
6.37507e-14
1.16587e-12
1.15729e-12
1.15927e-12
1.1754e-12
1.1986e-12
1.14156e-12
3.34931e-47
3.37731e-47
3.37545e-47
3.39202e-47
3.45682e-47
3.27467e-47
7.28131e-43
7.34131e-43
7.338e-43
7.37551e-43
7.51839e-43
7.12137e-43
7.43892e-39
7.50078e-39
7.4988e-39
7.53937e-39
7.68777e-39
7.27973e-39
4.79747e-35
4.83967e-35
4.84072e-35
4.86963e-35
4.96773e-35
4.70147e-35
2.20498e-31
2.22742e-31
2.23067e-31
2.24694e-31
2.29437e-31
2.16938e-31
7.43961e-28
7.54845e-28
7.58593e-28
7.66683e-28
7.84617e-28
7.40504e-28
1.89013e-24
1.9532e-24
1.98766e-24
2.03056e-24
2.09266e-24
1.96629e-24
8.30315e-21
8.46614e-21
8.52838e-21
8.62627e-21
8.78264e-21
8.09085e-21
4.73473e-18
4.76081e-18
4.72117e-18
4.69205e-18
4.67703e-18
4.27732e-18
2.97124e-14
2.9497e-14
2.93252e-14
2.92617e-14
2.95403e-14
2.83065e-14
1.15404e-11
1.1429e-11
1.1407e-11
1.14988e-11
1.1772e-11
1.11684e-11
3.06116e-09
3.02303e-09
3.01993e-09
3.08811e-09
3.2276e-09
2.92669e-09
2.40919e-07
2.4084e-07
2.40928e-07
2.41023e-07
2.41035e-07
2.41074e-07
-2.63168e-17
-2.95447e-17
-3.05315e-17
-2.9735e-17
-2.95215e-17
-3.0293e-17
-1.34784e-15
-1.47622e-15
-1.51529e-15
-1.48159e-15
-1.47284e-15
-1.50815e-15
3.37785e-06
3.37787e-06
3.37788e-06
3.3779e-06
3.37792e-06
3.37792e-06
9.91773e-07
9.91022e-07
9.9136e-07
9.91286e-07
9.90581e-07
9.91943e-07
-7.17209e-15
-7.85481e-15
-8.06318e-15
-7.88382e-15
-7.83721e-15
-8.02585e-15
6.49671e-07
6.49645e-07
6.49645e-07
6.49701e-07
6.49742e-07
6.4973e-07
1.75495e-08
1.75338e-08
1.75396e-08
1.75395e-08
1.75286e-08
1.75539e-08
-4.85898e-14
-5.32168e-14
-5.4627e-14
-5.34118e-14
-5.30968e-14
-5.43704e-14
7.63963e-08
7.62639e-08
7.62926e-08
7.61882e-08
7.61554e-08
7.65284e-08
5.83497e-19
5.84171e-19
5.84101e-19
5.85154e-19
5.85239e-19
5.82604e-19
-3.45814e-14
-3.7872e-14
-3.88743e-14
-3.80075e-14
-3.77832e-14
-3.86884e-14
1.25258e-07
1.25258e-07
1.25256e-07
1.25254e-07
1.25253e-07
1.25253e-07
2.01913e-08
2.01373e-08
2.01429e-08
2.01208e-08
2.00939e-08
2.0153e-08
-1.60429e-15
-1.75786e-15
-1.80553e-15
-1.76494e-15
-1.75395e-15
-1.78374e-15
3.63545e-08
3.63463e-08
3.63451e-08
3.63404e-08
3.6335e-08
3.63404e-08
9.27495e-20
9.18587e-20
9.21099e-20
9.20986e-20
9.18897e-20
9.2968e-20
-1.07569e-17
-1.17758e-17
-1.20926e-17
-1.1822e-17
-1.17476e-17
-1.19308e-17
4.51244e-12
4.5119e-12
4.51169e-12
4.51131e-12
4.51095e-12
4.51087e-12
-1.26527e-15
-1.26436e-15
-1.26463e-15
-1.26492e-15
-1.26514e-15
-1.2664e-15
-3.88677e-18
-3.84208e-18
-3.87089e-18
-3.89467e-18
-3.87838e-18
-3.99228e-18
-2.09593e-11
-2.0955e-11
-2.09584e-11
-2.09664e-11
-2.09705e-11
-2.09643e-11
-6.76776e-13
-6.76508e-13
-6.768e-13
-6.77004e-13
-6.77013e-13
-6.76956e-13
-1.39342e-15
-1.38542e-15
-1.391e-15
-1.39499e-15
-1.3913e-15
-1.41298e-15
-2.33706e-07
-2.33711e-07
-2.33695e-07
-2.33715e-07
-2.3378e-07
-2.33574e-07
-4.26548e-12
-4.18023e-12
-4.26521e-12
-4.17308e-12
-4.05885e-12
-4.09905e-12
-4.06969e-13
-4.04954e-13
-4.06075e-13
-4.06848e-13
-4.0548e-13
-4.11553e-13
7.26942e-06
7.26968e-06
7.26935e-06
7.26954e-06
7.26991e-06
7.26978e-06
-1.05334e-07
-1.05424e-07
-1.05386e-07
-1.0528e-07
-1.05151e-07
-1.05426e-07
-8.87269e-09
-8.88129e-09
-8.88489e-09
-8.88144e-09
-8.88694e-09
-8.91088e-09
0.00011287
0.000112854
0.000112859
0.000112861
0.000112863
0.000112862
8.45465e-06
8.45404e-06
8.45431e-06
8.45475e-06
8.45485e-06
8.45401e-06
3.06047e-07
3.05997e-07
3.06155e-07
3.06174e-07
3.05957e-07
3.06899e-07
0.642986
0.642953
0.642958
0.642936
0.642868
0.643031
0.0867346
0.0867252
0.086727
0.0867304
0.0867624
0.0866995
2.75195e-05
2.75232e-05
2.75188e-05
2.75047e-05
2.74879e-05
2.75382e-05
5.76084e-06
5.75433e-06
5.74605e-06
5.76744e-06
5.82672e-06
5.68739e-06
3.64414e-11
3.63733e-11
3.63598e-11
3.63103e-11
2.24888e-10
3.7404e-11
1.81867e-11
1.81867e-11
1.81551e-11
1.81551e-11
1.81551e-11
1.8702e-11
0.00928533
0.00924059
0.00923044
0.00929327
0.00946962
0.00898898
0.004871
0.00482835
0.00483775
0.00495591
0.00526327
0.00446282
0.0310348
0.0310494
0.0310271
0.0311409
0.0315925
0.0303914
0.080266
0.0801858
0.0801536
0.0804242
0.0807645
0.079882
0.281111
0.280934
0.281006
0.28093
0.281985
0.279349
0.117965
0.118341
0.118547
0.117391
0.115585
0.120126
0.107962
0.107906
0.107909
0.108371
0.108693
0.107944
0.328524
0.328595
0.3287
0.329044
0.32935
0.329368
4.13217e-06
3.83268e-06
4.94359e-06
1.01915e-19
6.07153e-20
9.07678e-06
0.577305
0.577245
0.577206
0.5776
0.578447
0.576603
0.298797
0.298949
0.298956
0.29853
0.297643
0.299686
3.27917e-18
3.1924e-18
-1.08826e-14
-6.37262e-14
-4.35673e-14
3.15809e-18
0.640509
0.64049
0.640483
0.64047
0.640464
0.64055
0.174943
0.174925
0.174899
0.175016
0.175314
0.1745
0.00012162
0.000121708
0.000121672
0.000121629
0.000121654
0.000121451
3.76699e-40
3.74904e-40
3.74652e-40
3.77129e-40
3.84711e-40
3.64846e-40
1.73418e-43
1.72595e-43
1.72452e-43
1.73596e-43
1.77157e-43
1.67824e-43
4.75654e-40
4.76301e-40
4.75317e-40
4.77845e-40
4.87716e-40
4.64986e-40
1.11863e-35
1.11348e-35
1.11286e-35
1.12021e-35
1.14271e-35
1.08444e-35
4.99114e-39
4.9686e-39
4.9642e-39
4.99642e-39
5.09868e-39
4.83252e-39
2.20901e-35
2.21217e-35
2.20772e-35
2.21961e-35
2.2656e-35
2.16002e-35
1.42852e-31
1.4222e-31
1.42158e-31
1.43094e-31
1.45957e-31
1.38643e-31
6.63016e-35
6.60269e-35
6.59583e-35
6.63714e-35
6.77252e-35
6.42415e-35
3.26147e-31
3.26643e-31
3.26007e-31
3.27792e-31
3.34602e-31
3.19014e-31
9.55887e-28
9.51898e-28
9.51658e-28
9.5792e-28
9.76986e-28
9.29233e-28
5.66046e-31
5.64132e-31
5.63319e-31
5.66589e-31
5.78079e-31
5.49081e-31
1.75599e-27
1.75881e-27
1.75551e-27
1.7653e-27
1.80206e-27
1.71818e-27
3.48511e-24
3.47169e-24
3.47154e-24
3.49416e-24
3.56299e-24
3.39477e-24
5.84269e-27
5.84263e-27
5.8347e-27
5.86919e-27
5.99235e-27
5.70376e-27
3.37801e-24
3.38364e-24
3.37749e-24
3.39664e-24
3.46738e-24
3.30626e-24
6.95753e-21
6.93318e-21
6.93402e-21
6.97768e-21
7.11225e-21
6.79247e-21
1.73351e-23
1.73385e-23
1.73152e-23
1.74184e-23
1.77843e-23
1.69327e-23
2.16509e-21
2.16875e-21
2.16483e-21
2.17726e-21
2.22245e-21
2.11949e-21
7.37123e-18
7.34669e-18
7.34736e-18
7.38952e-18
7.5262e-18
7.21165e-18
1.54465e-20
1.54312e-20
1.54113e-20
1.55042e-20
1.58311e-20
1.5059e-20
4.39312e-19
4.40042e-19
4.39215e-19
4.41748e-19
4.50822e-19
4.3005e-19
1.53252e-17
1.53333e-17
1.53337e-17
1.53235e-17
1.52877e-17
1.53634e-17
7.20735e-18
7.18093e-18
7.17406e-18
7.21971e-18
7.38122e-18
6.98856e-18
2.30889e-17
2.3125e-17
2.30785e-17
2.32126e-17
2.36767e-17
2.26055e-17
2.07163e-17
2.07435e-17
2.07033e-17
2.06714e-17
2.06486e-17
2.02666e-17
1.43625e-15
1.42769e-15
1.42752e-15
1.43851e-15
1.48014e-15
1.3818e-15
3.68929e-17
3.68235e-17
3.68493e-17
3.6957e-17
3.74601e-17
3.61417e-17
1.81692e-13
1.80215e-13
1.79118e-13
1.79047e-13
1.81128e-13
1.73415e-13
1.58751e-12
1.58023e-12
1.57995e-12
1.58891e-12
1.62698e-12
1.53838e-12
5.94734e-15
5.92852e-15
5.94554e-15
6.02086e-15
6.36053e-15
5.53238e-15
5.2961e-11
5.25157e-11
5.243e-11
5.26213e-11
5.35304e-11
5.17461e-11
3.3006e-12
3.28548e-12
3.28481e-12
3.30384e-12
3.38203e-12
3.19959e-12
1.03166e-11
1.0263e-11
1.02968e-11
1.02768e-11
1.03645e-11
1.02387e-11
6.61885e-09
6.51712e-09
6.50004e-09
6.63211e-09
6.92359e-09
6.24986e-09
1.1336e-07
1.12831e-07
1.12875e-07
1.13373e-07
1.15291e-07
1.11226e-07
1.74864e-10
1.73629e-10
1.74026e-10
1.73342e-10
1.7221e-10
1.78306e-10
)
;

boundaryField
{
    seabed_topleft_surface
    {
        type            zeroGradient;
    }
    seabed_topright_surface
    {
        type            zeroGradient;
    }
    breakwater_top_surface
    {
        type            zeroGradient;
    }
    breakwater_left_surface
    {
        type            zeroGradient;
    }
    breakwater_right_surface
    {
        type            zeroGradient;
    }
    water_front_surface
    {
        type            zeroGradient;
    }
    water_back_surface
    {
        type            zeroGradient;
    }
    water_left_surface
    {
        type            zeroGradient;
    }
    water_right_surface
    {
        type            zeroGradient;
    }
    water_top_surface
    {
        type            inletOutlet;
        inletValue      uniform 0;
        value           nonuniform List<scalar> 
180
(
0
0
0
0
0
0
0
0
0
0
0
0
0
0
0
0
0
0
0
0
0
0
0
0
0
0
0
0
0
0
0
0
0
0
0
0
0
0
0
0
0
0
0
0
0
0
0
0
0
0
0
0
0
0
-8.87269e-09
-8.88129e-09
-8.88489e-09
-8.88144e-09
-8.88694e-09
-8.91088e-09
3.06047e-07
3.05997e-07
3.06155e-07
3.06174e-07
3.05957e-07
3.06899e-07
2.75195e-05
2.75232e-05
2.75188e-05
2.75047e-05
2.74879e-05
2.75382e-05
1.81867e-11
1.81867e-11
1.81551e-11
1.81551e-11
1.81551e-11
1.8702e-11
0.0310348
0.0310494
0.0310271
0.0311409
0.0315925
0.0303914
0.117965
0.118341
0.118547
0.117391
0.115585
0.120126
0
0
0
0
0
0
0
0
0
0
0
0
0.00012162
0.000121708
0.000121672
0.000121629
0.000121654
0.000121451
4.75654e-40
4.76301e-40
4.75317e-40
4.77845e-40
4.87716e-40
4.64986e-40
2.20901e-35
2.21217e-35
2.20772e-35
2.21961e-35
2.2656e-35
2.16002e-35
3.26147e-31
3.26643e-31
3.26007e-31
3.27792e-31
3.34602e-31
3.19014e-31
1.75599e-27
1.75881e-27
1.75551e-27
1.7653e-27
1.80206e-27
1.71818e-27
3.37801e-24
3.38364e-24
3.37749e-24
3.39664e-24
3.46738e-24
3.30626e-24
2.16509e-21
2.16875e-21
2.16483e-21
2.17726e-21
2.22245e-21
2.11949e-21
4.39312e-19
4.40042e-19
4.39215e-19
4.41748e-19
4.50822e-19
4.3005e-19
2.30889e-17
2.3125e-17
2.30785e-17
2.32126e-17
2.36767e-17
2.26055e-17
3.68929e-17
3.68235e-17
3.68493e-17
3.6957e-17
3.74601e-17
3.61417e-17
0
0
0
0
0
0
1.03166e-11
1.0263e-11
1.02968e-11
1.02768e-11
1.03645e-11
1.02387e-11
0
0
0
0
0
0
)
;
    }
}


// ************************************************************************* //
