/*--------------------------------*- C++ -*----------------------------------*\
| =========                 |                                                 |
| \\      /  F ield         | OpenFOAM: The Open Source CFD Toolbox           |
|  \\    /   O peration     | Version:  v1612+                                |
|   \\  /    A nd           | Web:      www.OpenFOAM.com                      |
|    \\/     M anipulation  |                                                 |
\*---------------------------------------------------------------------------*/
FoamFile
{
    version     2.0;
    format      ascii;
    class       volScalarField;
    location    "3.2";
    object      p;
}
// * * * * * * * * * * * * * * * * * * * * * * * * * * * * * * * * * * * * * //

dimensions      [1 -1 -2 0 0 0 0];

internalField   nonuniform List<scalar> 
1116
(
5926.21
5926.21
5926.2
5926.19
5926.18
5926.18
5598.31
5598.3
5598.3
5598.29
5598.27
5598.29
5228.47
5228.46
5228.45
5228.44
5228.43
5228.45
5329.35
5329.34
5329.33
5329.33
5329.31
5329.33
5766.7
5766.68
5766.68
5766.67
5766.66
5766.68
6444.86
6444.84
6444.83
6444.83
6444.82
6444.84
7493.86
7493.85
7493.84
7493.83
7493.83
7493.84
9139.33
9139.31
9139.29
9139.29
9139.29
9139.32
11799.7
11799.7
11799.7
11799.6
11799.6
11799.7
15473.1
15473.1
15473.1
15473.1
15473.1
15473.2
19513.6
19513.5
19513.5
19513.6
19513.6
19513.7
21536.4
21536.4
21536.5
21536.5
21536.6
21536.5
808.181
808.183
808.179
808.171
808.168
808.177
432.54
432.537
432.536
432.528
432.525
432.541
344.392
344.388
344.387
344.383
344.38
344.388
420.658
420.653
420.652
420.649
420.647
420.652
572.613
572.605
572.604
572.603
572.6
572.605
792.225
792.21
792.21
792.21
792.207
792.214
1115.65
1115.62
1115.63
1115.63
1115.63
1115.64
1375.52
1375.49
1375.49
1375.49
1375.49
1375.52
2256
2255.9
2255.91
2255.91
2255.91
2255.97
6044.38
6044.3
6044.3
6044.31
6044.32
6044.4
12176.1
12176
12176.1
12176.1
12176.1
12176.1
15355.8
15355.9
15355.9
15355.9
15356
15355.9
-19.4994
-19.4992
-19.4993
-19.4993
-19.4992
-19.4995
-17.3181
-17.3178
-17.3179
-17.3179
-17.3179
-17.3181
-16.3567
-16.3564
-16.3564
-16.3565
-16.3564
-16.3566
-14.7935
-14.7932
-14.7932
-14.7932
-14.793
-14.7932
-14.7681
-14.7679
-14.7678
-14.7677
-14.7675
-14.7676
-16.15
-16.1495
-16.149
-16.1487
-16.1487
-16.1489
-18.89
-18.8901
-18.8897
-18.8893
-18.8891
-18.8891
31.107
31.1043
31.1034
31.1026
31.1021
31.102
182.315
182.308
182.306
182.304
182.304
182.31
518.828
518.803
518.801
518.8
518.795
518.819
3950.8
3950.5
3950.59
3950.6
3950.61
3950.63
9237.1
9237.42
9237.34
9237.37
9237.41
9237.32
-28.297
-28.2969
-28.2968
-28.2967
-28.2966
-28.2965
-27.1308
-27.1305
-27.1305
-27.1304
-27.1303
-27.1303
-26.3171
-26.3169
-26.317
-26.317
-26.317
-26.3172
-24.4704
-24.4703
-24.4704
-24.4703
-24.4702
-24.4706
-23.1266
-23.1262
-23.126
-23.1258
-23.1257
-23.1263
-24.4385
-24.4378
-24.4374
-24.437
-24.4368
-24.4374
-29.0446
-29.0439
-29.0438
-29.0438
-29.0433
-29.0444
-31.5608
-31.5609
-31.561
-31.5614
-31.5612
-31.562
-33.3157
-33.3161
-33.3165
-33.3175
-33.3185
-33.3167
14.5933
14.5869
14.5875
14.5881
14.5869
14.583
385.713
385.653
385.663
385.669
385.674
385.674
2895.56
2895.67
2895.53
2895.59
2895.56
2895.5
-4.26422
-4.26419
-4.2642
-4.26421
-4.26423
-4.26424
-4.23227
-4.23227
-4.23228
-4.23229
-4.2323
-4.23231
-4.16726
-4.16727
-4.16726
-4.16724
-4.16722
-4.16721
-4.06666
-4.06662
-4.06658
-4.06656
-4.06654
-4.06654
-3.92737
-3.92731
-3.9273
-3.92733
-3.92739
-3.92745
-3.74587
-3.74585
-3.74595
-3.7461
-3.74627
-3.74641
-3.51749
-3.51759
-3.51782
-3.5181
-3.51837
-3.51857
-3.23642
-3.23659
-3.23692
-3.23724
-3.23755
-3.23779
-2.91422
-2.9143
-2.91454
-2.9148
-2.91509
-2.91534
-2.57077
-2.57037
-2.56987
-2.56954
-2.56959
-2.56976
-2.31135
-2.30679
-2.30253
-2.29929
-2.29959
-2.30181
-2.17668
-2.17591
-2.17494
-2.17417
-2.17382
-2.17377
-14.1053
-14.1053
-14.1054
-14.1054
-14.1054
-14.1054
-14.074
-14.074
-14.074
-14.074
-14.074
-14.0741
-14.0111
-14.0111
-14.0111
-14.0111
-14.0111
-14.0111
-13.917
-13.917
-13.917
-13.917
-13.9171
-13.9171
-13.7944
-13.7945
-13.7945
-13.7947
-13.7948
-13.7949
-13.6501
-13.6503
-13.6505
-13.6507
-13.6509
-13.6511
-13.4989
-13.4992
-13.4994
-13.4997
-13.4999
-13.5
-13.3593
-13.3596
-13.3597
-13.3598
-13.3599
-13.3598
-13.2354
-13.2357
-13.2358
-13.2359
-13.2359
-13.2358
-13.1415
-13.1424
-13.1434
-13.1442
-13.1446
-13.1447
-13.0296
-13.0323
-13.0343
-13.036
-13.0354
-13.0337
-12.7861
-12.787
-12.7879
-12.7885
-12.7884
-12.7889
-23.9761
-23.9761
-23.9762
-23.9762
-23.9762
-23.9762
-23.9452
-23.9452
-23.9452
-23.9452
-23.9452
-23.9452
-23.8807
-23.8807
-23.8807
-23.8807
-23.8807
-23.8807
-23.776
-23.776
-23.7759
-23.7759
-23.776
-23.776
-23.6207
-23.6207
-23.6208
-23.6208
-23.6209
-23.621
-23.3962
-23.3962
-23.3964
-23.3965
-23.3965
-23.3965
-23.0685
-23.0686
-23.0686
-23.0686
-23.0686
-23.0685
-22.5742
-22.5741
-22.574
-22.5739
-22.5737
-22.5737
-21.8805
-21.8806
-21.8806
-21.8807
-21.8806
-21.8806
-20.9887
-20.9894
-20.9903
-20.9914
-20.9921
-20.9926
-19.9961
-19.9968
-19.9977
-19.9986
-19.9986
-19.9982
-19.6159
-19.6157
-19.616
-19.6166
-19.6162
-19.6143
-33.8755
-33.8755
-33.8755
-33.8755
-33.8756
-33.8756
-33.8478
-33.8479
-33.8479
-33.8479
-33.8479
-33.8479
-33.7917
-33.7918
-33.7917
-33.7917
-33.7917
-33.7917
-33.7062
-33.7062
-33.7062
-33.7062
-33.7062
-33.7062
-33.5908
-33.5908
-33.5908
-33.5909
-33.5909
-33.5909
-33.4524
-33.4524
-33.4525
-33.4525
-33.4524
-33.4524
-33.3168
-33.3168
-33.3167
-33.3165
-33.3164
-33.3163
-33.2483
-33.2479
-33.2477
-33.2476
-33.2476
-33.2477
-33.2634
-33.2637
-33.2642
-33.2647
-33.2652
-33.2656
-33.5467
-33.5493
-33.5532
-33.5573
-33.5613
-33.5645
-34.1921
-34.1932
-34.1948
-34.1966
-34.1979
-34.199
-35.2776
-35.2794
-35.2829
-35.2863
-35.2824
-35.2955
-41.2906
-41.2905
-41.2903
-41.2901
-41.2899
-41.2898
-53.0664
-53.0663
-53.0662
-53.066
-53.0659
-53.0658
-65.8387
-65.8387
-65.8387
-65.8387
-65.8387
-65.8387
-40.7469
-40.7467
-40.7465
-40.7465
-40.7464
-40.7465
-52.9064
-52.9063
-52.9063
-52.9063
-52.9063
-52.9064
-65.9797
-65.9798
-65.9798
-65.9799
-65.9799
-65.9799
-40.6035
-40.6034
-40.6034
-40.6035
-40.6036
-40.6038
-52.4487
-52.4488
-52.4489
-52.4491
-52.4493
-52.4494
-66.0958
-66.0958
-66.0959
-66.0959
-66.0959
-66.0958
-40.3473
-40.3473
-40.3475
-40.3475
-40.3475
-40.3477
-52.2029
-52.2029
-52.2029
-52.203
-52.2031
-52.2031
-66.4658
-66.4657
-66.4656
-66.4655
-66.4655
-66.4653
-40.245
-40.245
-40.245
-40.2448
-40.2448
-40.2449
-52.0418
-52.0417
-52.0415
-52.0414
-52.0414
-52.0414
-66.6656
-66.6656
-66.6655
-66.6655
-66.6656
-66.6656
-40.1173
-40.117
-40.1168
-40.1167
-40.1166
-40.1168
-52.3449
-52.3449
-52.3447
-52.3445
-52.3444
-52.344
-66.7845
-66.7849
-66.785
-66.7851
-66.785
-66.7849
-39.3547
-39.354
-39.3538
-39.3539
-39.3539
-39.3546
-52.4245
-52.4244
-52.4244
-52.4244
-52.4245
-52.4246
-66.7621
-66.7624
-66.7625
-66.7623
-66.7621
-66.762
-41.9729
-41.9727
-41.9729
-41.9732
-41.9736
-41.9735
-53.6478
-53.6478
-53.6482
-53.6485
-53.649
-53.6489
-66.6327
-66.633
-66.6329
-66.6326
-66.6325
-66.6325
-36.334
-36.3339
-36.3343
-36.3346
-36.3353
-36.3374
-44.9683
-44.9688
-44.969
-44.9693
-44.9696
-44.9695
-68.5489
-68.5493
-68.5487
-68.5483
-68.5483
-68.548
-49.8981
-49.8995
-49.8994
-49.8994
-49.8994
-49.9028
-47.3502
-47.3535
-47.3541
-47.3554
-47.3563
-47.3556
-61.9
-61.8999
-61.8995
-61.9001
-61.9007
-61.8987
-61.188
-61.1808
-61.1861
-61.1976
-61.2101
-61.182
-27.88
-27.8837
-27.8853
-27.8874
-27.8914
-27.8928
-72.8576
-72.8572
-72.8553
-72.8485
-72.8486
-72.8541
80.4086
80.3331
80.2918
80.1794
79.7408
80.7315
138.903
138.846
138.88
138.845
138.802
138.957
-89.5791
-89.5846
-89.5811
-89.5854
-89.5895
-89.5669
-22.2928
-22.3062
-22.2931
-22.2869
-22.2922
-22.1701
-46.2577
-46.2148
-46.1933
-46.401
-46.5136
-46.0798
-12.5264
-12.5321
-12.5036
-12.7557
-12.7483
-12.4699
1.25676
1.19195
1.21889
1.3403
1.44553
1.46087
-170.683
-170.874
-170.691
-170.264
-170.259
-171.22
-59.9408
-59.5465
-59.2111
-60.8384
-61.2497
-59.4186
38.2069
38.2861
38.1837
37.5244
37.0854
39.4641
-860.261
-856.548
-857.317
-867.019
-890.465
-823.053
-249.871
-250.381
-249.457
-253.093
-251.123
-248.421
-180.921
-180.537
-181.063
-183.952
-185.455
-179.87
1512.86
1514.57
1514.52
1517.09
1509.52
1519.19
-119.475
-119.55
-119.64
-119.602
-120.505
-119.452
-101.113
-101.648
-102.657
-104.747
-105.036
-102.036
1225.73
1226.18
1226.17
1224.68
1221.31
1228.95
-90.0792
-90.0547
-90.0833
-90.0178
-90.325
-90.1273
-1014.8
-1015.13
-1015.66
-1016.05
-1019.38
-1013.12
684.891
684.68
684.615
685.456
686.865
682.831
-77.0069
-77.0166
-77.0389
-77.0428
-77.0658
-77.1152
-43.7829
-43.7829
-43.783
-43.783
-43.783
-43.783
-53.7276
-53.7277
-53.7277
-53.7277
-53.7277
-53.7277
-63.684
-63.684
-63.684
-63.684
-63.684
-63.684
-43.7592
-43.7592
-43.7592
-43.7592
-43.7592
-43.7592
-53.7128
-53.7128
-53.7128
-53.7128
-53.7128
-53.7128
-63.6768
-63.6768
-63.6768
-63.6768
-63.6768
-63.6768
-43.7079
-43.7079
-43.7079
-43.7079
-43.7079
-43.7078
-53.6823
-53.6823
-53.6822
-53.6822
-53.6822
-53.6821
-63.6596
-63.6596
-63.6596
-63.6595
-63.6595
-63.6595
-43.6203
-43.6203
-43.6203
-43.6202
-43.6202
-43.6202
-53.634
-53.6339
-53.6339
-53.6339
-53.6339
-53.6339
-63.6261
-63.6261
-63.6261
-63.6261
-63.6261
-63.6261
-43.4794
-43.4794
-43.4793
-43.4793
-43.4793
-43.4793
-53.5633
-53.5633
-53.5633
-53.5633
-53.5633
-53.5633
-63.5656
-63.5656
-63.5656
-63.5655
-63.5655
-63.5655
-43.2523
-43.2523
-43.2522
-43.2521
-43.2521
-43.252
-53.4681
-53.4681
-53.4681
-53.468
-53.468
-53.468
-63.4603
-63.4603
-63.4602
-63.4602
-63.4602
-63.4602
-42.8792
-42.8791
-42.879
-42.8788
-42.8787
-42.8787
-53.3415
-53.3415
-53.3414
-53.3414
-53.3413
-53.3414
-63.2189
-63.2189
-63.219
-63.2191
-63.2191
-63.2193
-42.2105
-42.2107
-42.2107
-42.2106
-42.2103
-42.2101
-53.21
-53.21
-53.21
-53.21
-53.2098
-53.2098
-63.1319
-63.1319
-63.132
-63.1322
-63.1322
-63.1328
-40.9244
-40.924
-40.9235
-40.923
-40.9221
-40.9216
-53.3408
-53.3407
-53.3405
-53.3402
-53.3394
-53.3386
-61.2386
-61.2389
-61.2394
-61.2405
-61.2405
-61.2412
-39.3345
-39.332
-39.3279
-39.3239
-39.3187
-39.3143
-52.703
-52.7026
-52.7033
-52.7052
-52.703
-52.6999
-62.9009
-62.9011
-62.903
-62.9065
-62.9037
-62.9163
-33.9061
-33.9053
-33.9005
-33.9038
-33.8965
-33.8937
-56.2042
-56.2039
-56.2001
-56.1995
-56.196
-56.2058
-50.8204
-50.8206
-50.8238
-50.8392
-50.8325
-50.8366
-33.4668
-33.4636
-33.4591
-33.4621
-33.4659
-33.4255
-60.4663
-60.4625
-60.4656
-60.4881
-60.5681
-60.3881
-68.6503
-68.6314
-68.6455
-68.7218
-68.7466
-68.7357
)
;

boundaryField
{
    seabed_topleft_surface
    {
        type            calculated;
        value           nonuniform List<scalar> 
72
(
9914.49
9914.46
9914.46
9914.44
9914.42
9914.44
9592.63
9592.6
9592.6
9592.58
9592.55
9592.59
9320.45
9320.41
9320.41
9320.39
9320.36
9320.41
9582.63
9582.58
9582.59
9582.58
9582.55
9582.59
10182.3
10182.2
10182.2
10182.2
10182.2
10182.2
10988.5
10988.5
10988.5
10988.5
10988.5
10988.5
12129.1
12129
12129
12129
12129
12129
13904.1
13904
13904
13904
13904
13904
16589.3
16589.3
16589.3
16589.3
16589.3
16589.3
20262.8
20262.8
20262.8
20262.8
20262.8
20262.8
24303.2
24303.2
24303.2
24303.2
24303.2
24303.3
26311.5
26311.5
26311.5
26311.6
26311.6
26311.6
)
;
    }
    seabed_topright_surface
    {
        type            calculated;
        value           nonuniform List<scalar> 
72
(
0.657633
0.657662
0.657659
0.657645
0.65763
0.657619
0.68959
0.689584
0.689573
0.689564
0.689558
0.689549
0.754592
0.754587
0.754596
0.754615
0.754633
0.754645
0.855198
0.855237
0.855273
0.855299
0.855312
0.855313
0.994484
0.994551
0.994559
0.994526
0.994466
0.994406
1.17599
1.176
1.17591
1.17575
1.17558
1.17545
1.40436
1.40427
1.40404
1.40376
1.40349
1.40328
1.68544
1.68527
1.68494
1.68461
1.68431
1.68407
2.00763
2.00755
2.00732
2.00705
2.00676
2.00652
2.35109
2.35149
2.35199
2.35232
2.35227
2.3521
2.6105
2.61506
2.61933
2.62257
2.62226
2.62005
2.74517
2.74595
2.74692
2.74769
2.74804
2.74809
)
;
    }
    breakwater_top_surface
    {
        type            calculated;
        value           nonuniform List<scalar> 
36
(
-17.3596
-17.373
-17.36
-17.3536
-17.3587
-17.2372
51.6608
51.3767
51.3539
51.7832
52.7526
50.4127
436.423
436.109
435.849
436.516
437.744
435.799
353.006
353.118
352.607
351.98
352.057
353.973
2732.64
2731.81
2730.61
2730.45
2734.32
2728.28
2128.66
2128.24
2127.68
2127.22
2123.86
2130.55
)
;
    }
    breakwater_left_surface
    {
        type            calculated;
        value           nonuniform List<scalar> 
24
(
21552.7
21552.8
21552.8
21552.9
21552.9
21552.9
15371.9
15372
15372
15372
15372
15371.9
9252.69
9253.01
9252.93
9252.96
9253
9252.91
2910.8
2910.91
2910.77
2910.83
2910.8
2910.75
)
;
    }
    breakwater_right_surface
    {
        type            calculated;
        value           nonuniform List<scalar> 
24
(
-2.15983
-2.15905
-2.15808
-2.15731
-2.15696
-2.15691
-12.7695
-12.7704
-12.7714
-12.772
-12.7719
-12.7724
-19.5997
-19.5995
-19.5998
-19.6004
-19.6
-19.5981
-35.2617
-35.2635
-35.267
-35.2705
-35.2665
-35.2796
)
;
    }
    water_front_surface
    {
        type            calculated;
        value           nonuniform List<scalar> 
186
(
5926.21
5598.31
5228.47
5329.35
5766.7
6444.86
7493.86
9139.33
11799.7
15473.1
19513.6
21536.4
808.181
432.54
344.392
420.658
572.613
792.225
1115.65
1375.52
2256
6044.38
12176.1
15355.8
-19.4994
-17.3181
-16.3567
-14.7935
-14.7681
-16.15
-18.89
31.107
182.315
518.828
3950.8
9237.1
-28.297
-27.1308
-26.3171
-24.4704
-23.1266
-24.4385
-29.0446
-31.5608
-33.3157
14.5933
385.713
2895.56
-4.26422
-4.23227
-4.16726
-4.06666
-3.92737
-3.74587
-3.51749
-3.23642
-2.91422
-2.57077
-2.31135
-2.17668
-14.1053
-14.074
-14.0111
-13.917
-13.7944
-13.6501
-13.4989
-13.3593
-13.2354
-13.1415
-13.0296
-12.7861
-23.9761
-23.9452
-23.8807
-23.776
-23.6207
-23.3962
-23.0685
-22.5742
-21.8805
-20.9887
-19.9961
-19.6159
-33.8755
-33.8478
-33.7917
-33.7062
-33.5908
-33.4524
-33.3168
-33.2483
-33.2634
-33.5467
-34.1921
-35.2776
-41.2906
-53.0664
-65.8387
-40.7469
-52.9064
-65.9797
-40.6035
-52.4487
-66.0958
-40.3473
-52.2029
-66.4658
-40.245
-52.0418
-66.6656
-40.1173
-52.3449
-66.7845
-39.3547
-52.4245
-66.7621
-41.9729
-53.6478
-66.6327
-36.334
-44.9683
-68.5489
-49.8981
-47.3502
-61.9
-61.188
-27.88
-72.8576
80.4086
138.903
-89.5791
-22.2928
-46.2577
-12.5264
1.25676
-170.683
-59.9408
38.2069
-860.261
-249.871
-180.921
1512.86
-119.475
-101.113
1225.73
-90.0792
-1014.8
684.891
-77.0069
-43.7829
-53.7276
-63.684
-43.7592
-53.7128
-63.6768
-43.7079
-53.6823
-63.6596
-43.6203
-53.634
-63.6261
-43.4794
-53.5633
-63.5656
-43.2523
-53.4681
-63.4603
-42.8792
-53.3415
-63.2189
-42.2105
-53.21
-63.1319
-40.9244
-53.3408
-61.2386
-39.3345
-52.703
-62.9009
-33.9061
-56.2042
-50.8204
-33.4668
-60.4663
-68.6503
)
;
    }
    water_back_surface
    {
        type            calculated;
        value           nonuniform List<scalar> 
186
(
5926.18
5598.29
5228.45
5329.33
5766.68
6444.84
7493.84
9139.32
11799.7
15473.2
19513.7
21536.5
808.177
432.541
344.388
420.652
572.605
792.214
1115.64
1375.52
2255.97
6044.4
12176.1
15355.9
-19.4995
-17.3181
-16.3566
-14.7932
-14.7676
-16.1489
-18.8891
31.102
182.31
518.819
3950.63
9237.32
-28.2965
-27.1303
-26.3172
-24.4706
-23.1263
-24.4374
-29.0444
-31.562
-33.3167
14.583
385.674
2895.5
-4.26424
-4.23231
-4.16721
-4.06654
-3.92745
-3.74641
-3.51857
-3.23779
-2.91534
-2.56976
-2.30181
-2.17377
-14.1054
-14.0741
-14.0111
-13.9171
-13.7949
-13.6511
-13.5
-13.3598
-13.2358
-13.1447
-13.0337
-12.7889
-23.9762
-23.9452
-23.8807
-23.776
-23.621
-23.3965
-23.0685
-22.5737
-21.8806
-20.9926
-19.9982
-19.6143
-33.8756
-33.8479
-33.7917
-33.7062
-33.5909
-33.4524
-33.3163
-33.2477
-33.2656
-33.5645
-34.199
-35.2955
-41.2898
-53.0658
-65.8387
-40.7465
-52.9064
-65.9799
-40.6038
-52.4494
-66.0958
-40.3477
-52.2031
-66.4653
-40.2449
-52.0414
-66.6656
-40.1168
-52.344
-66.7849
-39.3546
-52.4246
-66.762
-41.9735
-53.6489
-66.6325
-36.3374
-44.9695
-68.548
-49.9028
-47.3556
-61.8987
-61.182
-27.8928
-72.8541
80.7315
138.957
-89.5669
-22.1701
-46.0798
-12.4699
1.46087
-171.22
-59.4186
39.4641
-823.053
-248.421
-179.87
1519.19
-119.452
-102.036
1228.95
-90.1273
-1013.12
682.831
-77.1152
-43.783
-53.7277
-63.684
-43.7592
-53.7128
-63.6768
-43.7078
-53.6821
-63.6595
-43.6202
-53.6339
-63.6261
-43.4793
-53.5633
-63.5655
-43.252
-53.468
-63.4602
-42.8787
-53.3414
-63.2193
-42.2101
-53.2098
-63.1328
-40.9216
-53.3386
-61.2412
-39.3143
-52.6999
-62.9163
-33.8937
-56.2058
-50.8366
-33.4255
-60.3881
-68.7357
)
;
    }
    water_left_surface
    {
        type            calculated;
        value           nonuniform List<scalar> 
42
(
5939.87
5939.87
5939.86
5939.85
5939.84
5939.84
810.956
810.958
810.954
810.946
810.943
810.952
-19.4833
-19.483
-19.4831
-19.4831
-19.483
-19.4833
-28.2812
-28.281
-28.2809
-28.2808
-28.2807
-28.2807
-41.2906
-41.2905
-41.2903
-41.2901
-41.2899
-41.2898
-53.0664
-53.0663
-53.0662
-53.066
-53.0659
-53.0658
-65.8387
-65.8387
-65.8387
-65.8387
-65.8387
-65.8387
)
;
    }
    water_right_surface
    {
        type            calculated;
        value           nonuniform List<scalar> 
42
(
-4.24737
-4.24734
-4.24734
-4.24735
-4.24737
-4.24738
-14.0888
-14.0888
-14.0888
-14.0889
-14.0889
-14.0889
-23.9599
-23.9599
-23.96
-23.96
-23.96
-23.9601
-33.8596
-33.8596
-33.8596
-33.8597
-33.8597
-33.8597
-43.7829
-43.7829
-43.783
-43.783
-43.783
-43.783
-53.7276
-53.7277
-53.7277
-53.7277
-53.7277
-53.7277
-63.684
-63.684
-63.684
-63.684
-63.684
-63.684
)
;
    }
    water_top_surface
    {
        type            calculated;
        value           nonuniform List<scalar> 
180
(
-71.8895
-71.89
-71.89
-71.8901
-71.8902
-71.8898
-72.114
-72.1145
-72.1145
-72.1145
-72.1146
-72.1141
-71.9094
-71.9098
-71.9097
-71.9097
-71.9097
-71.9093
-72.427
-72.4273
-72.4272
-72.4272
-72.4272
-72.4268
-72.63
-72.6304
-72.6303
-72.6303
-72.6305
-72.6302
-73.2069
-73.2075
-73.2076
-73.2077
-73.2077
-73.2072
-73.7276
-73.7284
-73.7284
-73.7283
-73.7282
-73.7272
-73.5753
-73.5757
-73.5756
-73.5755
-73.5755
-73.5747
-74.3017
-74.3018
-74.3018
-74.3016
-74.3018
-74.3002
-68.6694
-68.6694
-68.6694
-68.6694
-68.6694
-68.6694
-68.691
-68.691
-68.691
-68.691
-68.691
-68.6911
-70.5579
-70.5581
-70.5578
-70.5569
-70.5557
-70.5592
-68.67
-68.67
-68.67
-68.67
-68.67
-68.67
-2197.7
-2198.7
-2197.17
-2204.98
-2235.96
-2153.56
-8161.2
-8187.04
-8201.12
-8121.83
-7997.93
-8309.48
-84.6057
-84.4733
-84.4081
-85.4571
-85.558
-83.9162
-72.912
-72.9197
-72.925
-72.8357
-72.7721
-73.0025
-77.0133
-77.0194
-77.0168
-77.0139
-77.0156
-77.0017
-68.67
-68.67
-68.67
-68.67
-68.67
-68.67
-68.67
-68.67
-68.67
-68.67
-68.67
-68.67
-68.67
-68.67
-68.67
-68.67
-68.67
-68.67
-68.67
-68.67
-68.67
-68.67
-68.67
-68.67
-68.67
-68.67
-68.67
-68.67
-68.67
-68.67
-68.67
-68.67
-68.67
-68.67
-68.67
-68.67
-68.67
-68.67
-68.67
-68.67
-68.67
-68.67
-68.67
-68.67
-68.67
-68.67
-68.67
-68.67
-68.67
-68.67
-68.67
-68.67
-68.67
-68.67
-68.6707
-68.6707
-68.6707
-68.6707
-68.6707
-68.6707
-68.67
-68.67
-68.67
-68.67
-68.67
-68.67
-70.0156
-70.0157
-70.0161
-70.0174
-70.036
-69.9935
)
;
    }
}


// ************************************************************************* //
