/*--------------------------------*- C++ -*----------------------------------*\
| =========                 |                                                 |
| \\      /  F ield         | OpenFOAM: The Open Source CFD Toolbox           |
|  \\    /   O peration     | Version:  v1612+                                |
|   \\  /    A nd           | Web:      www.OpenFOAM.com                      |
|    \\/     M anipulation  |                                                 |
\*---------------------------------------------------------------------------*/
FoamFile
{
    version     2.0;
    format      ascii;
    class       surfaceScalarField;
    location    "4.45";
    object      alphaPhi;
}
// * * * * * * * * * * * * * * * * * * * * * * * * * * * * * * * * * * * * * //

dimensions      [0 3 -1 0 0 0 0];

internalField   nonuniform List<scalar> 
2916
(
-3.70524e-06
0.0867063
-3.88989e-07
-2.42218e-06
0.0867081
-3.88822e-07
-1.94835e-06
0.086708
-3.88885e-07
1.2996e-06
0.0867082
-3.88907e-07
7.35114e-06
0.0867082
-3.88852e-07
0.0867069
-3.89056e-07
-1.79746e-06
0.171755
-1.03418e-06
-2.28458e-06
0.171761
-1.03402e-06
-1.37363e-06
0.17176
-1.0341e-06
2.23338e-06
0.17176
-1.03409e-06
6.68554e-06
0.171761
-1.03395e-06
0.171758
-1.03425e-06
1.34435e-07
0.269185
-1.29584e-07
-1.88142e-06
0.269196
-1.29571e-07
-6.19236e-07
0.269193
-1.29579e-07
1.99835e-06
0.269194
-1.29571e-07
3.59891e-06
0.269196
-1.29567e-07
0.269189
-1.29626e-07
1.29674e-06
0.378775
-2.56424e-09
-1.10695e-06
0.378793
-2.56588e-09
-2.0184e-09
0.378788
-2.56083e-09
9.97657e-07
0.378789
-2.55834e-09
4.16009e-08
0.378792
-2.56197e-09
0.37878
-2.5613e-09
1.40779e-06
0.410338
0.023309
-6.71025e-07
0.410366
0.0233087
-3.29577e-07
0.410358
0.0233078
-1.68482e-06
0.410358
0.0233093
-4.13848e-06
0.410363
0.0233094
0.410342
0.023308
-2.57397e-09
0.163358
0.176605
-5.27914e-07
0.163393
0.1766
-2.03622e-06
0.163385
0.176602
-4.91844e-06
0.163385
0.176603
-6.28728e-06
0.163392
0.1766
0.163361
0.176601
4.50281e-06
-0.356765
0.519214
1.34945e-06
-0.356733
0.519224
-3.34968e-06
-0.356732
0.519217
-6.69404e-06
-0.356732
0.519215
-1.63238e-05
-0.356724
0.519221
-0.356768
0.519209
-4.72854e-07
-0.954887
0.597212
7.38679e-06
-0.95488
0.59723
-4.57223e-08
-0.954856
0.597221
-7.87592e-06
-0.954856
0.597222
-1.59027e-05
-0.954852
0.597226
-0.954909
0.597214
6.85957e-06
-1.39507
0.439301
1.66152e-05
-1.3951
0.439331
1.10273e-05
-1.39505
0.439328
-5.65111e-07
-1.39505
0.439333
-1.73234e-05
-1.39506
0.439346
-1.3951
0.439298
5.90536e-05
-1.35793
-0.0380411
2.78004e-05
-1.35797
-0.0379441
1.39951e-05
-1.35792
-0.0379641
-2.33064e-06
-1.35792
-0.0379618
-4.11355e-05
-1.35793
-0.0379362
-1.35795
-0.0380353
0.000101838
-0.763626
-0.595262
1.98091e-05
-0.763616
-0.595122
-4.21756e-06
-0.763604
-0.595145
-1.74033e-05
-0.763607
-0.595153
-6.3977e-05
-0.763602
-0.595131
-0.763628
-0.595239
6.32841e-06
-0.764459
-1.70906e-05
-0.764419
-1.54511e-05
-0.764433
-1.11368e-05
-0.764439
-2.05268e-05
-0.76442
-0.764476
-1.49615e-12
2.90354e-08
-4.21169e-07
-3.67622e-13
2.90322e-08
-4.21002e-07
4.30883e-13
2.90335e-08
-4.21065e-07
1.17691e-12
2.90344e-08
-4.21088e-07
2.05162e-12
2.90335e-08
-4.21031e-07
2.90382e-08
-4.21237e-07
-1.41091e-12
7.2988e-08
-1.08666e-06
-2.63715e-13
7.29849e-08
-1.08651e-06
5.85612e-13
7.29875e-08
-1.08659e-06
1.73951e-12
7.29872e-08
-1.08658e-06
3.02741e-12
7.2984e-08
-1.08644e-06
7.29937e-08
-1.08674e-06
-8.83082e-13
5.11808e-08
-1.1848e-07
-3.27092e-13
5.11785e-08
-1.1847e-07
1.40218e-13
5.11795e-08
-1.18475e-07
7.10353e-13
5.11787e-08
-1.18467e-07
1.42999e-12
5.11782e-08
-1.18466e-07
5.11855e-08
-1.1852e-07
-7.73217e-13
4.71252e-08
-9.38092e-09
-3.59244e-13
4.7125e-08
-9.38572e-09
-4.523e-13
4.71256e-08
-9.37997e-09
1.12089e-13
4.71248e-08
-9.37804e-09
9.15816e-13
4.71248e-08
-9.38204e-09
4.71265e-08
-9.37426e-09
-1.98225e-08
0.0149037
0.000477394
-8.88508e-09
0.0149028
0.000477351
-3.93777e-08
0.0149026
0.000477357
-4.83326e-08
0.0149034
0.000477379
-4.74892e-08
0.0149032
0.000477376
0.0149028
0.000477357
-5.836e-07
0.113117
0.00197868
5.39787e-08
0.113131
0.00198442
1.42396e-07
0.113125
0.00198165
-7.39321e-07
0.113125
0.00198142
-1.18962e-06
0.113129
0.0019833
0.113117
0.00198064
1.9641e-05
-0.012915
-0.0280416
-3.46683e-06
-0.0128797
-0.0280241
-1.96225e-06
-0.0128887
-0.0280313
-2.88104e-06
-0.0128842
-0.0280316
-2.53758e-05
-0.0128689
-0.0280281
-0.0129112
-0.0280322
3.23801e-05
-0.533185
0.360467
4.43706e-07
-0.533185
0.360542
-1.07955e-05
-0.533159
0.3605
-1.64153e-05
-0.533155
0.360499
-3.85909e-05
-0.533146
0.360523
-0.533205
0.360472
7.4003e-05
-0.772173
0.489285
1.12064e-05
-0.772241
0.489535
1.37065e-05
-0.772179
0.489418
8.65427e-06
-0.772175
0.489428
-3.27016e-05
-0.77219
0.489499
-0.772199
0.489338
0.000208691
-0.764601
-0.0466892
2.16522e-05
-0.764637
-0.0462269
1.19362e-05
-0.764583
-0.0464177
1.75383e-05
-0.764605
-0.0464041
-7.39934e-05
-0.764624
-0.0462769
-0.764589
-0.046586
0.000376208
-0.451368
-0.909727
2.59875e-05
-0.45128
-0.908985
-3.60634e-05
-0.451261
-0.909262
-4.51052e-06
-0.451316
-0.90933
-0.000132702
-0.451353
-0.90913
-0.45128
-0.909537
-0.000104681
-1.21644
-3.43873e-05
-1.21649
1.45252e-05
-1.21646
9.97131e-06
-1.21647
1.20579e-05
-1.21649
-1.21646
-2.85058e-12
-1.63665e-07
-1.99397e-07
1.46857e-12
-1.63592e-07
-1.99293e-07
4.55381e-12
-1.63613e-07
-1.99331e-07
4.4738e-12
-1.63612e-07
-1.99345e-07
3.99441e-12
-1.63584e-07
-1.99307e-07
-1.63671e-07
-1.99439e-07
-1.42901e-11
-1.66151e-07
-8.63653e-07
-2.33216e-12
-1.66072e-07
-8.63503e-07
-1.94675e-13
-1.66092e-07
-8.63571e-07
2.90321e-12
-1.66088e-07
-8.63567e-07
1.86431e-11
-1.66061e-07
-8.63445e-07
-1.66173e-07
-8.63709e-07
-6.66831e-12
7.88398e-09
-2.5943e-07
-2.98474e-12
7.86303e-09
-2.59332e-07
-1.95739e-12
7.89385e-09
-2.59358e-07
-5.96127e-13
7.90302e-09
-2.59348e-07
3.94852e-12
7.88217e-09
-2.59319e-07
7.92152e-09
-2.59487e-07
-1.26571e-12
5.2195e-08
-6.11514e-08
-1.01511e-12
5.2143e-08
-6.11049e-08
-7.98174e-13
5.22347e-08
-6.11708e-08
-4.74992e-13
5.22625e-08
-6.11918e-08
4.78875e-14
5.22035e-08
-6.11462e-08
5.22946e-08
-6.12081e-08
5.29459e-09
0.000477141
2.85424e-07
-3.52214e-09
0.000477111
2.85498e-07
-3.22848e-09
0.000477109
2.85631e-07
-2.70008e-09
0.00047713
2.85548e-07
-8.42886e-09
0.000477133
2.85379e-07
0.0004771
2.85561e-07
6.37145e-07
0.00225114
1.66607e-05
-3.79234e-08
0.00225815
1.66738e-05
-3.34284e-08
0.00225467
1.67126e-05
1.03565e-08
0.00225442
1.67013e-05
-3.74106e-07
0.00225677
1.66559e-05
0.00225331
1.66772e-05
5.55265e-06
-0.027621
0.000230116
-1.41872e-06
-0.0275885
0.000235705
-1.63161e-06
-0.0276041
0.000233403
-1.00375e-06
-0.0276054
0.000233244
-4.35281e-06
-0.0275965
0.000234581
-0.0276095
0.000231791
2.37745e-05
-0.280468
-0.0104282
2.39994e-06
-0.280504
-0.0104434
-2.38534e-06
-0.280488
-0.0104347
-5.32127e-06
-0.280474
-0.0104354
-2.18922e-05
-0.280486
-0.010443
-0.280461
-0.010431
0.000270074
-0.384059
0.0131611
8.53676e-06
-0.383739
0.0133296
-1.57598e-05
-0.383871
0.0132501
1.40991e-05
-0.383901
0.0132424
-0.000131871
-0.383825
0.0132981
-0.383937
0.0132005
0.000517714
-0.312875
-0.296072
1.40164e-05
-0.312077
-0.295258
-4.96543e-05
-0.312388
-0.295632
2.90195e-05
-0.312502
-0.295687
-0.000213401
-0.312334
-0.29539
-0.312573
-0.295907
0.000102343
-0.15112
-0.779875
-3.42458e-05
-0.150489
-0.779346
-5.56491e-05
-0.150721
-0.779572
1.73928e-05
-0.150825
-0.77971
6.23847e-05
-0.150744
-0.77957
-0.150845
-0.779752
-0.000517412
-0.932212
-8.50743e-05
-0.932428
-6.93926e-05
-0.932326
5.4675e-06
-0.932526
0.000489644
-0.932798
-0.932114
1.26939e-12
8.76393e-09
-2.32514e-08
1.93262e-12
8.76523e-09
-2.32255e-08
6.85946e-13
8.76627e-09
-2.32344e-08
4.58049e-14
8.76701e-09
-2.32337e-08
1.2612e-13
8.76858e-09
-2.32165e-08
8.76635e-09
-2.3257e-08
-2.4588e-12
4.48809e-08
-4.54784e-07
-7.91825e-13
4.48831e-08
-4.54633e-07
-3.60525e-12
4.48904e-08
-4.54698e-07
-5.46946e-12
4.4889e-08
-4.54685e-07
-1.39701e-12
4.48831e-08
-4.54555e-07
4.48869e-08
-4.54822e-07
-9.96549e-12
-5.93843e-09
-9.70754e-08
-2.92596e-12
-5.94568e-09
-9.69944e-08
-2.09759e-12
-5.94176e-09
-9.70067e-08
-2.17397e-12
-5.94087e-09
-9.70065e-08
2.24815e-12
-5.94402e-09
-9.69957e-08
-5.94249e-09
-9.70842e-08
-1.69057e-12
-6.57209e-08
-1.12878e-08
-1.02067e-12
-6.56673e-08
-1.12861e-08
-9.13117e-13
-6.5731e-08
-1.12902e-08
-8.5721e-13
-6.57521e-08
-1.12917e-08
-2.41516e-13
-6.57059e-08
-1.12891e-08
-6.57753e-08
-1.12931e-08
-7.30953e-12
2.12688e-07
-2.90588e-08
-1.2047e-10
2.13268e-07
-2.91609e-08
-1.13559e-10
2.13148e-07
-2.91587e-08
-7.18043e-11
2.12989e-07
-2.91695e-08
-1.03842e-10
2.13016e-07
-2.91844e-08
2.12912e-07
-2.91743e-08
7.16136e-08
2.0209e-05
-5.43765e-06
-2.93382e-08
2.03881e-05
-5.42545e-06
-2.63627e-08
2.03365e-05
-5.44081e-06
-5.5432e-09
2.03047e-05
-5.43872e-06
-4.85027e-08
2.0316e-05
-5.42898e-06
2.02776e-05
-5.46349e-06
-4.8661e-07
0.000216528
-0.00019461
-7.02193e-08
0.000222082
-0.000194966
-2.28984e-07
0.000220025
-0.000194852
-1.01965e-07
0.000219613
-0.00019494
4.89506e-07
0.000220777
-0.000195048
0.000218758
-0.000194962
-2.25226e-05
-0.210084
0.000286206
-1.3815e-06
-0.210278
0.000287048
6.42803e-06
-0.210223
0.000286769
9.59822e-07
-0.210208
0.000286725
-3.40249e-07
-0.210201
0.000286742
-0.210161
0.000287335
-0.00024993
-0.403838
-4.47568e-05
3.4489e-06
-0.404034
-4.47998e-05
9.0739e-05
-0.403961
-4.48561e-05
1.57882e-05
-0.403998
-4.47619e-05
7.69434e-05
-0.404012
-4.47951e-05
-0.403956
-4.47711e-05
-0.000533957
-0.225759
-0.000543291
-3.09742e-06
-0.22564
-0.000543076
0.000112026
-0.225714
-0.000543341
1.58336e-05
-0.2257
-0.000543265
0.000254896
-0.225595
-0.000543479
-0.22584
-0.000543122
-0.000559156
-0.132098
-0.00994885
-2.94421e-05
-0.131738
-0.00994759
1.67127e-05
-0.131924
-0.00994867
9.18094e-06
-0.131914
-0.00995129
0.000406109
-0.131764
-0.0099584
-0.132109
-0.00994329
-0.000250672
-0.183804
-3.79461e-05
-0.183776
-6.76634e-05
-0.183788
4.23712e-06
-0.183866
0.000314929
-0.183988
-0.183699
-5.17153e-17
-2.5664e-12
1.47626e-13
-9.19334e-17
-2.53166e-12
1.45102e-13
-9.12472e-17
-2.5672e-12
1.48622e-13
-6.91309e-17
-2.53914e-12
1.43708e-13
-1.99294e-17
-2.55685e-12
1.45077e-13
-2.58109e-12
1.51271e-13
-1.25479e-14
-4.40443e-11
2.99488e-11
-2.3923e-14
-4.3233e-11
2.93424e-11
-2.07945e-14
-4.43233e-11
3.01585e-11
-1.75329e-14
-4.26085e-11
2.88801e-11
-1.49729e-15
-4.29097e-11
2.9194e-11
-4.51706e-11
3.07873e-11
-3.02208e-12
-4.69711e-09
3.05951e-09
-7.84232e-12
-4.59559e-09
2.99846e-09
-6.82723e-12
-4.71677e-09
3.07664e-09
-5.48121e-12
-4.54059e-09
2.95544e-09
5.92782e-12
-4.6108e-09
2.9892e-09
-4.77914e-09
3.13322e-09
-1.89364e-10
-3.17424e-07
2.07647e-07
-1.16053e-09
-3.09635e-07
2.03264e-07
-1.21128e-09
-3.17845e-07
2.08165e-07
-9.91519e-10
-3.07472e-07
2.00703e-07
2.16281e-09
-3.15233e-07
2.03728e-07
-3.19583e-07
2.11283e-07
-8.67457e-10
-1.37475e-05
9.06302e-06
-4.558e-08
-1.33711e-05
8.86774e-06
-7.10588e-08
-1.34927e-05
8.42219e-06
-5.39911e-08
-1.35154e-05
9.52739e-06
1.59986e-07
-1.41708e-05
1.0115e-05
-1.32851e-05
8.42422e-06
1.9269e-09
-0.00030319
0.000199514
-2.3223e-06
-0.000294799
0.000195889
-4.97115e-06
-0.000287527
0.000187441
-2.88392e-06
-0.000312379
0.000209818
5.58989e-06
-0.000330831
0.000220082
-0.000273721
0.00017647
7.8319e-06
-0.01477
0.00159248
-2.47347e-05
-0.0141641
0.00158995
-5.96149e-05
-0.0151906
0.00155888
-4.40716e-05
-0.0120419
0.00162649
3.90697e-05
-0.0107709
0.00161002
-0.0167953
0.00152602
0.000153059
-0.0977738
-0.0106025
0.000161141
-0.0969935
-0.010289
0.000290048
-0.0964968
-0.0103008
-0.000151035
-0.0988359
-0.0104196
-0.000612886
-0.100151
-0.0107541
-0.0957542
-0.0103766
0.000125646
-0.0368459
-0.0859504
0.000477319
-0.0371475
-0.0851286
0.00225586
-0.0384544
-0.0852727
0.000269255
-0.0348169
-0.0870289
-0.00360792
-0.0326523
-0.0882521
-0.0400604
-0.0853472
-0.000162191
0.0130106
-0.111266
0.000476692
0.0127536
-0.110548
0.00256822
0.0126548
-0.111307
0.000519473
0.0122463
-0.111062
-0.00423679
0.0118905
-0.11056
0.0129403
-0.112415
1.51924e-05
0.0006596
0.00176164
5.17641e-05
0.000623494
0.00188011
0.000100926
0.000590243
0.00205143
4.15996e-07
0.000493186
0.00137121
-0.000166485
0.000499504
0.00106821
0.000476095
0.00246473
6.11891e-07
0.000439366
-1.57865e-06
0.000445512
-1.08413e-05
0.000405023
-3.70247e-06
0.000441946
1.51204e-05
0.000435195
0.000411481
-5.44767e-18
-3.48046e-14
3.87788e-14
-9.37483e-18
-3.52022e-14
3.82228e-14
-9.19515e-18
-3.50489e-14
3.90709e-14
-6.99725e-18
-3.46103e-14
3.79381e-14
-1.32643e-18
-3.41683e-14
3.8355e-14
-3.50958e-14
3.9397e-14
-1.64477e-15
2.26277e-11
5.92664e-12
-3.0747e-15
2.21184e-11
5.84574e-12
-2.53231e-15
2.28028e-11
5.95753e-12
-2.0866e-15
2.16498e-11
5.8336e-12
3.62391e-16
2.18735e-11
5.90289e-12
2.3312e-11
5.98844e-12
-3.22383e-13
2.32007e-09
5.58579e-10
-6.60323e-13
2.26794e-09
5.51777e-10
-4.45054e-13
2.33614e-09
5.59074e-10
-4.36862e-13
2.21571e-09
5.5527e-10
4.88767e-13
2.2393e-09
5.62292e-10
2.38454e-09
5.59835e-10
-3.05005e-11
1.66771e-07
2.76924e-08
-9.77757e-11
1.63111e-07
2.74345e-08
-1.19228e-10
1.61088e-07
2.77007e-08
-7.49739e-11
1.67552e-07
2.77009e-08
2.1147e-10
1.72905e-07
2.80427e-08
1.64744e-07
2.75818e-08
-1.82347e-09
8.1797e-06
6.32108e-07
-3.91032e-09
7.98592e-06
6.32225e-07
-1.00259e-08
7.53489e-06
6.32071e-07
-1.23852e-09
8.62433e-06
6.43388e-07
2.00307e-08
9.18442e-06
6.53365e-07
6.74339e-06
6.14566e-07
-8.62143e-08
0.000168389
5.62549e-07
-6.11778e-08
0.000165541
5.4053e-07
-3.60234e-07
0.000150852
5.72305e-07
1.8266e-07
0.000196005
4.85907e-07
6.19538e-07
0.000214161
2.91596e-07
0.000133422
5.44838e-07
-6.4334e-07
0.00177863
-1.04487e-05
-1.15784e-06
0.00177332
-1.09866e-05
-9.64412e-06
0.00172855
-7.94092e-06
1.66992e-06
0.00184185
-1.52593e-05
1.32606e-05
0.00186769
-2.97705e-05
0.00168355
-8.09359e-06
1.77476e-05
-0.0148588
-0.00044076
2.26032e-07
-0.0145537
-0.000419243
-5.75794e-05
-0.0140967
-0.000392652
5.54888e-06
-0.014951
-0.000481897
9.8153e-05
-0.0154005
-0.000533555
-0.0136016
-0.000366074
8.06219e-05
-0.0934288
-0.0321497
-4.58342e-05
-0.092438
-0.0318138
-0.000491576
-0.0924325
-0.0317351
-5.77496e-05
-0.094042
-0.0328341
0.00082311
-0.0936324
-0.0333397
-0.0925805
-0.0317986
-0.000120964
-0.0346602
-0.180457
-0.000147124
-0.0354325
-0.179294
-0.000570465
-0.0368739
-0.181277
-2.11001e-05
-0.0321835
-0.181227
0.000812026
-0.0294242
-0.179702
-0.0398577
-0.185857
-2.6043e-05
-4.82632e-05
-0.0622493
-0.000208308
-9.42788e-05
-0.0628493
-0.000640799
-0.000194315
-0.0650184
-0.000173023
-0.000366963
-0.0579228
0.000688711
-0.000359335
-0.0549378
-0.000282093
-0.0698208
-1.26818e-07
5.25782e-05
-7.32737e-07
5.29935e-05
-1.01938e-06
5.89735e-05
-9.77395e-07
5.6873e-05
-2.01779e-06
5.87914e-05
8.09254e-05
-1.14726e-19
-3.55788e-14
2.56908e-15
-1.84256e-19
-3.50192e-14
2.54135e-15
-1.65423e-19
-3.58789e-14
2.53045e-15
-1.21836e-19
-3.44953e-14
2.61989e-15
1.03449e-20
-3.47872e-14
2.66053e-15
-3.63109e-14
2.51491e-15
-2.93783e-17
-5.04701e-12
4.02478e-13
-5.2126e-17
-4.96784e-12
3.9818e-13
-3.76765e-17
-5.1001e-12
3.96467e-13
-2.27162e-17
-4.86885e-12
4.10074e-13
4.58876e-17
-4.90723e-12
4.16349e-13
-5.16231e-12
3.9322e-13
-4.8017e-15
-2.72278e-10
3.36306e-11
-7.89094e-15
-2.6757e-10
3.32851e-11
-3.56159e-15
-2.77579e-10
3.3124e-11
-1.1414e-15
-2.56855e-10
3.42153e-11
1.86711e-14
-2.58253e-10
3.47022e-11
-2.81938e-10
3.28119e-11
-5.08083e-13
-1.11453e-08
1.72408e-09
-8.90211e-13
-1.09343e-08
1.70958e-09
-1.389e-12
-1.13524e-08
1.69562e-09
-2.68868e-13
-1.04705e-08
1.75354e-09
5.48844e-12
-1.05558e-08
1.77381e-09
-1.15061e-08
1.67133e-09
-5.35112e-11
-2.41875e-07
4.19519e-08
-2.27323e-11
-2.38379e-07
4.1981e-08
-1.84375e-10
-2.44077e-07
4.12943e-08
1.00735e-10
-2.34711e-07
4.31443e-08
6.64993e-10
-2.34736e-07
4.33036e-08
-2.43574e-07
3.99829e-08
-2.99496e-09
-7.20952e-07
1.73146e-07
4.61234e-09
-7.38914e-07
1.75621e-07
6.934e-09
-7.24703e-07
1.73911e-07
1.3797e-08
-7.00322e-07
1.76847e-07
5.62941e-09
-6.3894e-07
1.71398e-07
-6.85677e-07
1.71247e-07
-1.77633e-08
-2.22112e-07
5.83828e-07
7.468e-08
-2.2517e-07
5.97465e-07
1.95345e-07
-2.57659e-07
5.86353e-07
1.84608e-07
-1.44698e-07
5.94842e-07
-8.88217e-08
2.83742e-08
6.03037e-07
-2.61335e-07
5.75027e-07
-3.68089e-08
-0.000440727
-3.17923e-08
5.32383e-07
-0.000419747
-2.49747e-08
2.22614e-06
-0.000394281
-1.95498e-08
7.2255e-07
-0.000480381
-4.33164e-08
-2.41028e-06
-0.000530314
-6.08445e-08
-0.000368321
-1.0407e-08
-7.00771e-07
-0.0314941
-0.00111982
-1.05843e-05
-0.0311263
-0.00112427
-2.28801e-05
-0.0310169
-0.0011304
-2.69577e-05
-0.0322126
-0.00111594
4.65757e-06
-0.0328279
-0.00108502
-0.0310519
-0.00114617
-3.94533e-05
-0.168499
-0.0524339
-0.000151623
-0.168583
-0.0521237
-0.00056055
-0.17272
-0.0526675
-0.00020094
-0.167344
-0.0526993
0.00086593
-0.158113
-0.0519036
-0.182664
-0.0539211
-0.00023652
-0.000408865
-0.378984
-0.000663341
-6.94383e-05
-0.379965
-0.00242984
-0.00509677
-0.388917
-0.000519969
-3.75329e-05
-0.365286
0.00385831
-3.75274e-05
-0.344079
-0.0181018
-0.401874
3.25067e-08
-0.000661199
2.38886e-08
-0.000301209
2.91062e-07
-0.00517963
6.01689e-07
5.54357e-07
1.57883e-06
1.81107e-06
-0.0190067
-2.05612e-22
-8.63367e-16
7.73312e-17
-1.6331e-22
-8.54004e-16
7.66299e-17
1.71055e-22
-8.55261e-16
7.73107e-17
3.78217e-22
-8.77132e-16
7.82528e-17
7.68885e-22
-8.89258e-16
7.9341e-17
-8.58724e-16
7.79207e-17
2.86115e-20
-1.40115e-13
5.09938e-15
1.14579e-19
-1.38535e-13
5.04155e-15
2.75312e-19
-1.38787e-13
5.06469e-15
2.90425e-19
-1.4212e-13
5.17249e-15
4.64696e-19
-1.44225e-13
5.24842e-15
-1.39072e-13
5.10537e-15
2.80318e-17
-1.03062e-11
4.47464e-13
7.07867e-17
-1.01867e-11
4.42034e-13
1.18146e-16
-1.01968e-11
4.43657e-13
1.0866e-16
-1.04281e-11
4.52787e-13
1.60266e-16
-1.05825e-11
4.59599e-13
-1.01961e-11
4.46575e-13
6.27466e-15
-3.39728e-10
2.16841e-11
1.84855e-14
-3.35745e-10
2.14208e-11
2.56133e-14
-3.34556e-10
2.136e-11
2.16505e-14
-3.41791e-10
2.18215e-11
3.13366e-14
-3.46278e-10
2.20775e-11
-3.32226e-10
2.13351e-11
5.91595e-13
9.48509e-10
6.06056e-11
3.25149e-12
9.42647e-10
6.03241e-11
3.59106e-12
9.47347e-10
6.02782e-11
3.92313e-12
9.81585e-10
6.20436e-11
3.53844e-12
9.9747e-10
6.26456e-11
9.57997e-10
6.05624e-11
-5.01073e-12
7.9726e-08
2.48964e-09
2.56773e-10
7.96225e-08
2.60122e-09
4.20502e-10
7.88182e-08
2.62876e-09
4.20428e-10
8.19957e-08
2.53643e-09
-5.26137e-11
8.36015e-08
2.52928e-09
7.80097e-08
2.73403e-09
-4.37452e-10
6.59476e-07
7.50585e-09
2.35321e-09
6.75479e-07
7.60512e-09
6.16996e-09
6.64524e-07
7.41815e-09
4.31885e-09
6.69274e-07
9.96356e-09
-4.70784e-09
6.54948e-07
1.13083e-08
6.56852e-07
7.01622e-09
-4.84892e-11
6.21833e-07
2.4864e-09
6.84706e-11
6.45147e-07
2.71406e-09
3.04629e-10
6.39686e-07
2.71532e-09
9.03325e-11
6.18799e-07
2.31825e-09
-4.71647e-10
5.88425e-07
2.06881e-09
6.41958e-07
2.85174e-09
-2.34714e-07
-0.00110333
-1.47187e-05
1.18785e-07
-0.00110759
-1.51918e-05
6.3607e-07
-0.00111417
-1.47569e-05
1.9587e-08
-0.00109915
-1.50354e-05
-1.3308e-06
-0.00106825
-1.48057e-05
-0.00113011
-1.50596e-05
-1.1738e-05
-0.0509915
-0.00254782
-1.99755e-05
-0.0506736
-0.00256653
-1.43701e-05
-0.051271
-0.00252608
-1.86308e-05
-0.0512121
-0.0026022
-1.40773e-05
-0.0503378
-0.00266897
-0.0525502
-0.00251737
-0.000154052
-0.527148
-0.106007
-0.00063795
-0.530505
-0.106336
-0.00169474
-0.528712
-0.108695
-0.000465716
-0.526251
-0.10299
0.00206992
-0.52399
-0.0970402
-0.527118
-0.112768
-0.000672934
-0.541911
-0.00115309
-0.542611
-0.00504659
-0.540815
-0.00159387
-0.543301
0.0101653
-0.5473
-0.541622
4.07972e-14
-8.97218e-10
-2.14384e-08
1.46758e-14
-8.91596e-10
-2.14238e-08
2.03895e-15
-8.93408e-10
-2.14291e-08
-1.1242e-14
-8.93145e-10
-2.14289e-08
-4.06436e-14
-8.89728e-10
-2.14186e-08
-8.98306e-10
-2.14419e-08
1.29469e-14
1.27572e-16
-6.05306e-15
2.9683e-15
1.39747e-16
-6.05096e-15
-1.78009e-15
1.43459e-16
-6.05264e-15
-6.373e-15
1.40262e-16
-6.05338e-15
-1.56714e-14
1.3943e-16
-6.05172e-15
1.42795e-16
-6.05478e-15
-2.70696e-21
1.66342e-17
-8.23939e-22
1.84935e-17
2.04647e-22
1.90627e-17
1.19418e-21
1.85735e-17
3.48689e-21
1.84459e-17
1.89634e-17
6.17903e-12
-2.68777e-12
-2.44855e-08
1.17897e-12
-2.68691e-12
-2.44492e-08
-2.44175e-12
-2.68768e-12
-2.4458e-08
-5.92573e-12
-2.68803e-12
-2.44567e-08
-1.18449e-11
-2.68733e-12
-2.44378e-08
-2.68865e-12
-2.44876e-08
1.28259e-18
6.6919e-16
-2.69449e-12
1.68876e-19
7.44089e-16
-2.6937e-12
-4.12822e-19
7.66971e-16
-2.6945e-12
-9.28148e-19
7.47282e-16
-2.69483e-12
-1.99347e-18
7.42182e-16
-2.69412e-12
7.62894e-16
-2.69547e-12
-1.32299e-20
-8.85222e-16
-3.90113e-21
-8.84833e-16
1.563e-21
-8.85021e-16
6.55138e-21
-8.85126e-16
1.8088e-20
-8.84866e-16
-8.85517e-16
-8.87566e-13
-3.95323e-10
-6.08913e-09
-1.23229e-13
-3.95208e-10
-6.08288e-09
-2.01332e-13
-3.95317e-10
-6.08355e-09
-4.81392e-13
-3.95364e-10
-6.08328e-09
-4.0396e-13
-3.95278e-10
-6.08042e-09
-3.95466e-10
-6.09019e-09
8.1221e-17
-4.44837e-13
-3.97615e-10
1.05386e-17
-4.44577e-13
-3.97499e-10
-1.01819e-16
-4.447e-13
-3.97608e-10
-1.77625e-16
-4.4476e-13
-3.97656e-10
-2.74538e-16
-4.44634e-13
-3.97569e-10
-4.44991e-13
-3.97758e-10
2.11743e-19
-4.45738e-13
4.92306e-20
-4.45477e-13
-6.2927e-20
-4.456e-13
-1.59578e-19
-4.4566e-13
-3.38268e-19
-4.45533e-13
-4.45892e-13
-4.22522e-13
-8.72613e-10
-1.84424e-08
-1.44509e-15
-8.72488e-10
-1.84351e-08
-2.16951e-15
-8.72773e-10
-1.84411e-08
-5.74892e-14
-8.72885e-10
-1.84428e-08
5.87816e-14
-8.72665e-10
-1.84363e-08
-8.72988e-10
-1.845e-08
-1.48267e-14
-1.44125e-11
-1.27008e-09
2.70202e-15
-1.4409e-11
-1.26985e-09
-3.23774e-15
-1.44154e-11
-1.27023e-09
-6.94473e-15
-1.44178e-11
-1.27039e-09
-2.09963e-15
-1.44129e-11
-1.27009e-09
-1.44206e-11
-1.27061e-09
1.03662e-17
-1.4858e-11
-8.93112e-18
-1.48543e-11
-3.44042e-17
-1.48607e-11
-4.81598e-17
-1.48632e-11
-7.09745e-17
-1.48582e-11
-1.48664e-11
-1.42489e-12
-2.17021e-10
-5.06101e-08
-1.38647e-11
-2.2784e-10
-5.06569e-08
-1.68699e-11
-2.27028e-10
-5.06843e-08
-1.21505e-11
-2.27755e-10
-5.07089e-08
-1.0728e-11
-2.29698e-10
-5.06981e-08
-2.25364e-10
-5.07375e-08
2.88832e-13
2.18229e-09
-5.20656e-09
1.08661e-12
2.1805e-09
-5.21277e-09
7.30073e-13
2.18158e-09
-5.21453e-09
5.58239e-13
2.18189e-09
-5.21642e-09
5.0396e-13
2.181e-09
-5.21571e-09
2.1832e-09
-5.21622e-09
4.5909e-16
-9.48711e-10
5.97335e-15
-9.4585e-10
-2.16463e-15
-9.48028e-10
-5.07157e-15
-9.48473e-10
-1.17353e-14
-9.47109e-10
-9.49711e-10
2.81914e-09
3.07096e-08
-9.20618e-06
-1.7356e-09
3.0019e-08
-9.16995e-06
-1.66908e-09
3.0069e-08
-9.19665e-06
-9.65266e-10
3.0417e-08
-9.19747e-06
-2.47796e-09
3.07203e-08
-9.18167e-06
2.91319e-08
-9.22158e-06
1.60217e-10
6.41231e-08
-1.38157e-06
1.5817e-12
6.40698e-08
-1.38e-06
-1.61422e-11
6.41045e-08
-1.38215e-06
-1.45077e-11
6.41315e-08
-1.38248e-06
-7.58976e-11
6.41344e-08
-1.3812e-06
6.41756e-08
-1.38582e-06
1.84317e-12
-4.83009e-08
2.6272e-12
-4.8432e-08
1.71025e-12
-4.83966e-08
1.31167e-12
-4.84209e-08
5.85654e-13
-4.84223e-08
-4.84609e-08
-8.90318e-08
3.53552e-05
-0.000268159
-1.96964e-08
3.53972e-05
-0.000268631
-1.19511e-08
3.53753e-05
-0.000268508
-9.90952e-09
3.53723e-05
-0.000268566
4.22802e-08
3.53801e-05
-0.000268671
3.53527e-05
-0.000268569
-4.88656e-09
6.55892e-06
2.57586e-05
-5.70052e-10
6.56846e-06
2.5794e-05
-1.60307e-10
6.56456e-06
2.57751e-05
-2.45419e-09
6.56348e-06
2.57745e-05
-5.60362e-10
6.5643e-06
2.57814e-05
6.56206e-06
2.57492e-05
1.92782e-10
2.87896e-06
1.6384e-10
2.88382e-06
1.17733e-10
2.8819e-06
2.00591e-11
2.88126e-06
-7.18525e-11
2.88162e-06
2.88009e-06
-2.36401e-07
2.59534e-05
-4.13442e-06
-9.38878e-08
2.59121e-05
-4.13357e-06
-9.97717e-08
2.59066e-05
-4.1313e-06
-2.70779e-07
2.59384e-05
-4.12366e-06
-5.41031e-07
2.595e-05
-4.12309e-06
2.58668e-05
-4.12686e-06
9.73886e-10
2.68669e-05
3.01224e-05
7.2121e-10
2.69158e-05
3.01341e-05
-7.15642e-09
2.68924e-05
3.01184e-05
-6.68736e-09
2.68928e-05
3.01244e-05
-1.40411e-09
2.69e-05
3.01388e-05
2.68783e-05
3.00453e-05
-5.27217e-10
8.15075e-06
2.39443e-10
8.16444e-06
-1.44249e-10
8.1589e-06
-4.10297e-10
8.15804e-06
5.02729e-10
8.15725e-06
8.15091e-06
9.48235e-10
-9.87287e-06
-3.70859e-05
-2.62921e-10
-9.96329e-06
-3.70515e-05
-2.14454e-10
-9.93468e-06
-3.70724e-05
-5.62625e-10
-9.91525e-06
-3.70579e-05
-2.18273e-09
-9.93893e-06
-3.70589e-05
-9.90781e-06
-3.7077e-05
4.63766e-08
7.24676e-06
-8.97083e-07
6.12552e-10
7.27851e-06
-9.03809e-07
-1.04272e-08
7.26709e-06
-9.065e-07
-6.19269e-09
7.26525e-06
-8.9836e-07
-2.81531e-08
7.27018e-06
-8.93397e-07
7.24586e-06
-9.05959e-07
2.15637e-09
8.90348e-06
4.31437e-10
8.91344e-06
-8.43448e-11
8.91516e-06
-3.12997e-10
8.90794e-06
-6.74519e-10
8.88998e-06
8.8999e-06
-9.67302e-09
-3.98628e-07
-0.000579585
-1.67746e-09
-4.32436e-07
-0.000579278
6.94749e-10
-4.45427e-07
-0.000579527
1.16267e-09
-3.89328e-07
-0.000579552
8.34478e-09
-3.66932e-07
-0.000579824
-3.8851e-07
-0.000579417
2.5312e-10
-1.21129e-07
-7.17128e-07
-2.65286e-11
-1.21046e-07
-7.15642e-07
-2.14124e-11
-1.20134e-07
-7.14899e-07
1.01937e-11
-1.18896e-07
-7.12182e-07
-4.4105e-11
-1.18402e-07
-7.11627e-07
-1.20901e-07
-7.15325e-07
1.11418e-10
8.86338e-06
-1.58665e-11
8.87566e-06
-6.69142e-11
8.86947e-06
2.04223e-12
8.83567e-06
1.90466e-10
8.80506e-06
8.8515e-06
-4.81208e-08
-0.000160014
-0.0103651
8.34831e-08
-0.000160045
-0.0103637
7.99835e-08
-0.000159993
-0.0103649
2.50384e-08
-0.000159855
-0.0103676
1.96032e-07
-0.000159908
-0.0103753
-0.000160166
-0.010359
9.33472e-10
-0.000159983
-2.89417e-07
9.41959e-10
-0.000159994
-2.87333e-07
2.74918e-09
-0.000159876
-2.88922e-07
1.34059e-09
-0.000159837
-2.88163e-07
-2.80027e-09
-0.000159998
-2.87582e-07
-0.00016011
-2.94057e-07
1.22527e-08
1.91771e-05
-6.26458e-09
1.91181e-05
-2.36392e-08
1.91435e-05
1.2611e-08
1.91214e-05
8.40328e-08
1.90535e-05
1.92452e-05
-1.84778e-06
-2.16086e-05
-0.194145
4.25235e-07
-2.1468e-05
-0.19412
1.35137e-06
-2.1525e-05
-0.194132
-1.41071e-06
-2.14528e-05
-0.194209
2.2988e-06
-2.14334e-05
-0.194345
-2.17993e-05
-0.194033
-3.85061e-11
-2.18981e-05
-5.74696e-11
1.18955e-10
-2.17557e-05
-5.31218e-11
5.43888e-10
-2.18146e-05
-5.59994e-11
1.65006e-10
-2.17408e-05
-5.01393e-11
-1.00759e-09
-2.172e-05
-3.80623e-11
-2.20945e-05
-6.74048e-11
2.3072e-09
3.10309e-09
1.58983e-11
2.87186e-09
-1.34024e-09
3.01698e-09
2.97701e-10
2.71897e-09
-1.10355e-09
2.07959e-09
3.60654e-09
-0.000314585
-0.000229564
-0.541352
0.65142
-0.000247183
-0.000228718
-0.541355
0.65099
-0.000546855
-0.000228653
-0.541503
0.651557
-0.000140096
-0.000233908
-0.540965
0.650323
0.00115278
-0.000240004
-0.540479
0.648913
-0.000221114
-0.542142
0.653114
-8.10711e-09
-8.57541e-06
-0.0002311
1.04044e-05
1.79242e-09
-8.26016e-06
-0.000230521
1.03256e-05
2.34495e-09
-8.20957e-06
-0.000230525
1.03418e-05
1.92411e-08
-7.40774e-06
-0.000236809
1.07515e-05
1.37736e-07
-5.10706e-06
-0.000245541
1.13296e-05
-7.43433e-06
-0.000223424
1.01501e-05
-1.69718e-08
7.56759e-25
2.68575e-06
7.33821e-09
3.15858e-25
2.22417e-06
3.82535e-08
1.4678e-24
2.07203e-06
3.43546e-09
5.67899e-25
3.39877e-06
-5.80167e-08
4.13001e-25
5.90931e-07
5.58116e-25
1.5856e-06
-8.23764e-05
-0.00511276
-0.42364
-0.00011745
-0.0051167
-0.423684
-0.000273759
-0.0051093
-0.423709
5.94918e-06
-0.00522382
-0.423484
0.000651411
-0.00539853
-0.423179
-0.00494476
-0.423989
-4.33735e-07
1.65571e-24
-0.00534342
-8.77095e-08
7.02031e-25
-0.00534756
-5.86595e-08
3.23415e-24
-0.00533986
1.99536e-07
1.23297e-24
-0.00546089
1.23334e-06
8.91198e-25
-0.00564511
1.21331e-24
-0.00516695
9.23125e-28
-1.3776e-25
-3.31387e-27
-5.94509e-26
-3.41921e-26
-2.69155e-25
-4.28712e-27
-9.20938e-26
1.41791e-26
-6.0835e-26
-9.95678e-26
-5.45991e-05
-0.00108939
-0.309274
-8.09758e-05
-0.00117406
-0.309262
-0.000188344
-0.00112676
-0.309252
-4.23223e-05
-0.00125637
-0.309148
0.000441953
-0.00139429
-0.30904
-0.00105101
-0.309267
-8.37294e-06
2.37392e-24
-0.00376394
-9.85026e-06
2.3035e-24
-0.00381883
-3.32667e-05
2.27811e-24
-0.00374232
-4.09793e-06
2.14609e-24
-0.00397636
8.86248e-05
4.42818e-24
-0.00427355
1.26851e-24
-0.00341556
-5.84277e-28
1.98837e-26
-2.14916e-27
-6.81362e-28
6.94449e-28
1.14642e-26
-4.4235e-27
6.43571e-26
-2.29523e-26
6.41815e-26
1.55425e-26
-2.19064e-05
-0.0248509
-0.171179
-4.23918e-05
-0.0248156
-0.171204
-0.000146454
-0.0247875
-0.171138
-7.08332e-05
-0.0247865
-0.171202
0.000229335
-0.0247065
-0.171386
-0.0249187
-0.17089
-6.58964e-06
1.99709e-23
1.71257e-16
-5.1943e-06
2.51668e-23
2.20978e-16
-2.25645e-05
2.7227e-23
1.09123e-14
-2.53381e-06
2.7748e-23
4.38475e-14
6.74913e-05
2.65478e-23
4.02669e-26
1.95023e-23
-6.48736e-26
2.58569e-26
-1.93957e-24
2.3976e-27
-2.44733e-24
3.94667e-26
-2.64751e-24
6.79965e-27
-2.69188e-24
-1.44037e-25
-2.57494e-24
-1.88453e-24
-5.63803e-05
3.03962e-16
0.0100255
-5.81581e-05
3.90447e-16
0.0100217
-0.000317988
1.94225e-14
0.0100221
-1.66082e-05
7.70927e-14
0.0100448
0.000701864
-1.61853e-21
0.010021
-3.9458e-21
0.0100365
2.7665e-18
1.62069e-25
-4.50735e-16
1.20766e-16
1.32576e-24
-5.77878e-16
1.60828e-15
2.21068e-25
-2.89326e-14
1.49403e-27
1.09263e-23
-1.13305e-13
-1.82682e-26
2.04909e-23
-1.63801e-21
1.48359e-23
-3.95983e-21
3.05263e-28
-2.934e-26
3.54549e-29
-2.39563e-25
4.64803e-27
-4.01144e-26
1.7955e-27
-1.96972e-24
-3.93775e-27
-3.64992e-24
-2.72527e-24
-6.28935e-05
-3.04938e-09
-3.74597e-05
-2.82195e-09
-0.000135217
-2.9646e-09
-1.41729e-05
-2.67128e-09
0.000313419
-2.04366e-09
-3.54365e-09
-6.79237e-14
-3.10344e-09
-3.66516e-14
-2.87182e-09
-6.96051e-14
-3.01726e-09
-2.08132e-14
-2.71833e-09
1.68922e-13
-2.07872e-09
-3.60746e-09
-3.55048e-13
-3.13723e-13
-5.97832e-13
4.14842e-14
9.14712e-13
3.33688e-23
8.79738e-18
-1.27941e-17
7.089e-23
8.72449e-18
-1.26749e-17
9.90065e-23
8.97483e-18
-1.27743e-17
9.31527e-23
8.75454e-18
-1.29634e-17
7.52171e-23
9.01661e-18
-1.3119e-17
8.98743e-18
-1.29138e-17
3.38054e-24
1.19066e-18
-7.04514e-19
6.64591e-24
1.18094e-18
-7.00259e-19
8.28625e-24
1.19884e-18
-6.97563e-19
7.45149e-24
1.17591e-18
-6.88975e-19
5.00972e-24
1.21025e-18
-7.04347e-19
1.20208e-18
-7.01102e-19
-7.70669e-26
-3.43843e-20
-6.66512e-26
-3.42449e-20
-4.3749e-26
-3.40689e-20
-1.20184e-26
-3.32216e-20
-2.57119e-26
-3.37812e-20
-3.43642e-20
2.23614e-21
1.94424e-16