/*--------------------------------*- C++ -*----------------------------------*\
| =========                 |                                                 |
| \\      /  F ield         | OpenFOAM: The Open Source CFD Toolbox           |
|  \\    /   O peration     | Version:  v1612+                                |
|   \\  /    A nd           | Web:      www.OpenFOAM.com                      |
|    \\/     M anipulation  |                                                 |
\*---------------------------------------------------------------------------*/
FoamFile
{
    version     2.0;
    format      ascii;
    class       volScalarField;
    location    "4.45";
    object      alpha.water;
}
// * * * * * * * * * * * * * * * * * * * * * * * * * * * * * * * * * * * * * //

dimensions      [0 0 0 0 0 0 0];

internalField   nonuniform List<scalar> 
1116
(
0.436308
0.436312
0.436313
0.436312
0.436313
0.436312
0.442274
0.442277
0.442279
0.442278
0.442278
0.44228
0.469244
0.469246
0.469248
0.469246
0.469247
0.46925
0.524091
0.524091
0.524093
0.524092
0.524093
0.524097
0.633037
0.633039
0.633041
0.63304
0.633042
0.633045
0.792321
0.792321
0.792323
0.792323
0.792323
0.792327
0.973528
0.973528
0.973528
0.973528
0.973528
0.973528
0.973536
0.973536
0.973536
0.973536
0.973536
0.973536
0.973535
0.973535
0.973535
0.973535
0.973535
0.973535
0.973526
0.973526
0.973526
0.973526
0.973526
0.973526
0.973513
0.973513
0.973513
0.973513
0.973513
0.973513
0.97349
0.97349
0.97349
0.97349
0.97349
0.97349
1.52144e-08
1.52141e-08
1.52142e-08
1.52144e-08
1.52144e-08
1.52151e-08
9.5151e-09
9.51483e-09
9.51493e-09
9.51486e-09
9.51478e-09
9.51554e-09
8.35424e-09
8.35422e-09
8.35423e-09
8.35422e-09
8.35422e-09
8.35428e-09
8.34171e-09
8.34172e-09
8.34169e-09
8.34168e-09
8.3417e-09
8.34168e-09
0.00070891
0.000708941
0.000708843
0.000708955
0.000708997
0.00070885
0.016572
0.0165707
0.0165711
0.0165716
0.0165709
0.0165718
0.18952
0.189497
0.189504
0.189505
0.189498
0.189511
0.68746
0.68746
0.687453
0.687454
0.687455
0.687457
0.963744
0.963763
0.963752
0.963752
0.963755
0.963751
0.973515
0.973515
0.973515
0.973515
0.973515
0.973515
0.973492
0.973492
0.973492
0.973492
0.973492
0.973492
0.973607
0.973607
0.973607
0.973607
0.973607
0.973607
1.60267e-07
1.60186e-07
1.60212e-07
1.6022e-07
1.60195e-07
1.60295e-07
4.76274e-07
4.76202e-07
4.76228e-07
4.76225e-07
4.76182e-07
4.76311e-07
5.42623e-08
5.42488e-08
5.42518e-08
5.42474e-08
5.42456e-08
5.42819e-08
8.13297e-09
8.13211e-09
8.13362e-09
8.13411e-09
8.1331e-09
8.13481e-09
2.05675e-09
2.04875e-09
2.05954e-09
2.0608e-09
2.05355e-09
2.05396e-09
1.87339e-05
1.87338e-05
1.87324e-05
1.87346e-05
1.87352e-05
1.87329e-05
0.000459109
0.000459025
0.000459064
0.000459076
0.000459038
0.000459079
0.140178
0.140207
0.140192
0.140186
0.140194
0.140177
0.495351
0.495548
0.495455
0.495436
0.495489
0.495394
0.720529
0.720598
0.720563
0.720558
0.720574
0.720542
0.868011
0.868101
0.86806
0.868058
0.868082
0.868045
0.908383
0.908388
0.908391
0.908416
0.908421
0.908402
1.082e-07
1.0808e-07
1.08113e-07
1.08123e-07
1.08084e-07
1.08226e-07
5.86606e-07
5.86611e-07
5.86617e-07
5.86626e-07
5.86635e-07
5.86635e-07
1.42117e-07
1.42044e-07
1.42061e-07
1.42054e-07
1.42034e-07
1.4215e-07
6.18689e-09
6.18695e-09
6.18787e-09
6.18819e-09
6.18768e-09
6.18848e-09
1.90468e-08
1.90327e-08
1.90419e-08
1.90463e-08
1.90404e-08
1.90482e-08
4.82616e-07
4.82178e-07
4.82447e-07
4.82516e-07
4.82298e-07
4.82569e-07
4.93632e-05
4.93258e-05
4.93486e-05
4.93514e-05
4.9334e-05
4.93532e-05
0.0160092
0.0160343
0.0160282
0.0160228
0.0160216
0.0160188
0.17246
0.172721
0.17262
0.1726
0.17265
0.172554
0.269119
0.269551
0.269368
0.269347
0.26946
0.269269
0.237423
0.237689
0.237582
0.237574
0.237646
0.237545
0.233831
0.233815
0.233837
0.233876
0.233887
0.233868
1.44024e-13
1.42149e-13
1.4394e-13
1.43579e-13
1.45675e-13
1.44812e-13
7.5647e-13
7.46127e-13
7.66631e-13
7.31986e-13
7.34933e-13
7.83844e-13
9.20054e-11
9.01581e-11
9.30057e-11
8.81355e-11
8.87094e-11
9.53912e-11
6.45159e-09
6.32255e-09
6.51935e-09
6.17921e-09
6.21719e-09
6.68339e-09
2.47605e-07
2.43236e-07
2.63848e-07
2.2111e-07
2.11649e-07
2.74229e-07
6.58775e-06
6.46552e-06
6.64509e-06
6.29019e-06
6.28858e-06
6.83377e-06
0.000472828
0.000449065
0.000489288
0.000365509
0.000316034
0.000586389
0.0122588
0.0121758
0.0124546
0.0118707
0.0116054
0.0127647
0.0189709
0.0188495
0.0188989
0.0191574
0.019222
0.0189959
0.0152532
0.0152313
0.0154694
0.0147383
0.0142117
0.0159505
0.00137358
0.00138766
0.00141407
0.00125877
0.00110138
0.00150669
1.99792e-05
1.91788e-05
2.02637e-05
1.63941e-05
1.63162e-05
2.11286e-05
9.19099e-15
9.0808e-15
9.22673e-15
9.12498e-15
9.29785e-15
9.33273e-15
7.98633e-14
7.88385e-14
7.96049e-14
8.00118e-14
8.11407e-14
8.00209e-14
1.2675e-11
1.2511e-11
1.26572e-11
1.26305e-11
1.27854e-11
1.27178e-11
6.05666e-10
6.07995e-10
7.8085e-10
4.20859e-10
3.02849e-10
8.31663e-10
3.20689e-08
3.16565e-08
3.18924e-08
3.17896e-08
3.2266e-08
4.76736e-08
1.36324e-06
1.34008e-06
1.57362e-06
1.03547e-06
9.05502e-07
1.86768e-06
5.0033e-06
5.06699e-06
4.95565e-06
5.16033e-06
5.1706e-06
4.87902e-06
0.000975803
0.000955024
0.000898563
0.00105646
0.00113586
0.000842584
0.0192868
0.019087
0.0190674
0.0194211
0.0194827
0.0191895
0.0310981
0.0308517
0.0311174
0.0312996
0.0311478
0.0317925
0.00568064
0.0059101
0.0061782
0.00499691
0.0044028
0.0068991
1.91788e-05
1.84002e-05
1.63941e-05
1.29371e-05
1.29368e-05
1.63163e-05
4.94506e-17
4.91293e-17
4.94921e-17
4.99316e-17
5.05168e-17
4.97645e-17
2.45715e-15
2.43142e-15
2.43175e-15
2.50127e-15
2.53784e-15
2.43085e-15
3.59253e-13
3.55441e-13
3.55374e-13
3.65457e-13
3.70669e-13
3.55134e-13
2.59954e-11
2.56846e-11
2.5831e-11
2.62935e-11
2.66771e-11
2.60957e-11
1.21771e-09
1.20238e-09
1.20608e-09
1.22916e-09
1.24671e-09
1.21477e-09
3.63926e-08
3.63081e-08
3.60501e-08
3.71246e-08
3.72395e-08
3.5881e-08
4.19199e-07
4.35368e-07
4.04461e-07
4.51528e-07
4.89983e-07
3.95995e-07
4.94905e-09
5.03998e-09
4.94024e-09
5.05794e-09
5.01835e-09
4.84935e-09
1.83128e-05
1.8242e-05
1.83017e-05
1.85873e-05
1.84615e-05
1.84868e-05
0.031135
0.0308777
0.0311297
0.0314114
0.0311856
0.031828
0.0729986
0.0732404
0.0752633
0.0697992
0.0656476
0.078508
1.84002e-05
1.80106e-05
1.52789e-05
1.29368e-05
1.29368e-05
4.2245e-05
1.2178e-17
1.21261e-17
1.23554e-17
1.21272e-17
1.23268e-17
1.24028e-17
4.5847e-17
4.55139e-17
4.59503e-17
4.62182e-17
4.67876e-17
4.62872e-17
4.67524e-15
4.62594e-15
4.65311e-15
4.74359e-15
4.80545e-15
4.70042e-15
4.22747e-13
4.18028e-13
4.20495e-13
4.28384e-13
4.34297e-13
4.24832e-13
2.60647e-11
2.57498e-11
2.58953e-11
2.63504e-11
2.67263e-11
2.61668e-11
1.17323e-09
1.15949e-09
1.16533e-09
1.17767e-09
1.18722e-09
1.17801e-09
-1.98556e-10
-3.06758e-10
-3.72573e-10
-2.94997e-11
1.58091e-10
-4.94547e-10
3.40925e-11
2.28876e-11
1.76808e-11
3.74865e-11
4.03686e-11
5.13855e-12
4.89381e-09
4.83635e-09
4.27299e-09
4.73688e-09
4.81464e-09
4.04114e-09
3.0321e-05
3.08426e-05
3.12365e-05
2.97308e-05
2.78705e-05
3.20524e-05
0.0906199
0.0905652
0.0928222
0.0882237
0.0827768
0.0962146
0.222093
0.222142
0.222095
0.221931
0.222234
0.222582
3.55225e-10
3.52453e-10
3.53349e-10
3.53165e-10
3.51386e-10
3.55717e-10
3.51419e-10
3.48666e-10
3.49556e-10
3.49371e-10
3.47601e-10
3.51906e-10
-1.13794e-16
-1.2464e-16
-1.27954e-16
-1.25101e-16
-1.24357e-16
-1.27372e-16
3.10112e-07
3.09712e-07
3.0983e-07
3.09808e-07
3.09578e-07
3.1016e-07
1.28476e-22
1.28585e-22
1.28575e-22
1.28601e-22
1.28659e-22
1.28498e-22
-6.3147e-16
-7.02071e-16
-7.23669e-16
-7.05091e-16
-7.00263e-16
-7.19882e-16
2.17039e-08
2.16798e-08
2.16825e-08
2.16835e-08
2.16818e-08
2.17019e-08
6.67254e-15
6.66997e-15
6.67138e-15
6.67219e-15
6.67034e-15
6.67484e-15
3.65962e-18
3.66075e-18
3.66039e-18
3.66031e-18
3.66035e-18
3.6596e-18
3.2845e-10
3.28415e-10
3.28515e-10
3.28556e-10
3.28475e-10
3.28588e-10
2.34538e-12
2.34465e-12
2.34513e-12
2.34542e-12
2.3448e-12
2.34617e-12
-5.46904e-18
-5.90901e-18
-5.47659e-18
-5.64159e-18
-5.76368e-18
-5.71788e-18
4.26934e-09
4.26843e-09
4.27001e-09
4.27055e-09
4.26946e-09
4.27127e-09
3.05751e-10
3.05666e-10
3.0573e-10
3.05768e-10
3.05691e-10
3.05849e-10
2.30334e-12
2.30262e-12
2.30309e-12
2.30337e-12
2.30277e-12
2.30411e-12
2.05612e-07
2.05741e-07
2.05688e-07
2.05753e-07
2.05798e-07
2.0559e-07
1.2791e-08
1.2786e-08
1.27907e-08
1.27923e-08
1.27887e-08
1.27952e-08
3.05755e-10
3.0567e-10
3.05734e-10
3.05772e-10
3.05696e-10
3.05853e-10
6.89732e-06
6.88249e-06
6.88992e-06
6.88994e-06
6.88483e-06
6.89128e-06
4.05963e-07
4.05701e-07
4.05891e-07
4.05931e-07
4.05794e-07
4.06024e-07
1.88729e-08
1.88653e-08
1.88711e-08
1.88733e-08
1.88677e-08
1.88774e-08
1.53177e-06
1.53103e-06
1.52918e-06
1.52787e-06
1.52787e-06
1.52798e-06
4.32177e-06
4.33189e-06
4.32703e-06
4.32726e-06
4.33008e-06
4.32452e-06
1.93067e-06
1.93356e-06
1.9324e-06
1.93225e-06
1.93284e-06
1.93169e-06
8.38933e-07
8.38309e-07
8.36054e-07
8.34811e-07
8.34504e-07
8.34792e-07
1.31944e-05
1.32219e-05
1.32143e-05
1.32107e-05
1.32152e-05
1.31904e-05
3.46571e-06
3.47188e-06
3.47143e-06
3.46912e-06
3.4644e-06
3.46726e-06
1.22395e-07
1.2137e-07
1.19181e-07
1.17631e-07
1.17612e-07
1.17612e-07
9.12528e-08
9.02444e-08
8.80985e-08
8.65876e-08
8.65931e-08
8.63469e-08
1.5237e-08
1.48189e-08
1.41261e-08
1.35838e-08
1.34881e-08
1.54602e-08
1.03813e-06
1.03784e-06
1.03574e-06
1.03188e-06
1.03128e-06
1.03467e-06
1.33275e-07
1.31603e-07
1.27903e-07
1.23621e-07
1.22646e-07
1.29359e-07
4.25184e-05
4.25222e-05
4.25304e-05
4.25435e-05
4.25596e-05
4.25679e-05
1.24322e-07
1.23495e-07
1.23829e-07
1.23419e-07
1.23278e-07
1.25426e-07
-1.07905e-10
-1.10461e-10
-1.10715e-10
-1.11168e-10
-1.18594e-10
-1.07316e-10
5.04197e-06
5.0036e-06
5.01947e-06
5.00148e-06
4.99022e-06
5.0914e-06
0.381425
0.381412
0.381432
0.381393
0.381365
0.381477
1.44957e-07
1.34725e-07
1.29048e-07
2.35542e-07
4.1862e-07
1.3135e-07
4.24802e-06
3.70402e-06
3.68045e-06
2.66252e-06
9.73836e-07
2.97102e-06
0.383163
0.383166
0.383169
0.383154
0.383149
0.383187
-7.84866e-18
-2.70653e-15
-6.03034e-16
-2.07409e-15
-7.60351e-15
-3.5437e-18
-3.68876e-24
-1.57177e-24
-7.27322e-24
-2.71119e-24
-1.92878e-24
-2.77991e-24
0.383352
0.383352
0.38335
0.383352
0.383354
0.383354
0.00369955
0.00369988
0.00368895
0.00376839
0.00388599
0.00357055
-4.62182e-24
-4.46789e-24
-4.44169e-24
-4.09429e-24
-8.22764e-24
-2.52626e-24
0.383352
0.38335
0.383349
0.383348
0.38335
0.383354
0.00183816
0.00189094
0.00182257
0.00201206
0.00226147
0.00157643
-1.50296e-23
-1.89006e-23
-2.05558e-23
-2.06873e-23
-1.95171e-23
-1.49302e-23
0.365211
0.365265
0.365208
0.365456
0.365807
0.364858
-6.27986e-16
-8.06314e-16
-4.0179e-14
-1.58911e-13
-5.25429e-26
-1.26183e-25
-1.10173e-25
-8.9857e-25
-1.50595e-25
-7.37393e-24
-1.36149e-23
-1.02649e-23
0.282652
0.282621
0.282622
0.282776
0.283057
0.282385
-3.48447e-13
-3.21323e-13
-3.39049e-13
-3.02895e-13
-2.31052e-13
-4.0838e-13
9.8392e-18
9.83095e-18
9.82391e-18
9.81132e-18
9.82906e-18
9.84748e-18
7.08367e-18
7.02472e-18
7.2263e-18
7.04893e-18
7.25994e-18
7.23671e-18
9.24913e-19
9.17325e-19
9.31235e-19
9.13419e-19
9.40096e-19
9.33787e-19
1.01301e-19
1.00485e-19
1.01213e-19
1.00025e-19
1.02465e-19
1.01709e-19
1.28989e-17
1.28489e-17
1.30552e-17
1.28596e-17
1.30566e-17
1.3073e-17
1.55174e-17
1.54225e-17
1.53643e-17
1.51765e-17
1.55163e-17
1.54473e-17
2.12658e-18
2.11778e-18
2.10709e-18
2.05484e-18
2.08962e-18
2.12607e-18
9.00882e-17
8.93569e-17
9.00647e-17
9.10858e-17
9.21043e-17
9.0944e-17
2.47514e-17
2.4671e-17
2.46052e-17
2.43976e-17
2.47161e-17
2.46786e-17
3.51696e-17
3.49722e-17
3.47996e-17
3.56746e-17
3.62626e-17
3.49867e-17
7.33728e-15
7.25997e-15
7.31501e-15
7.44052e-15
7.53854e-15
7.40836e-15
9.75919e-16
9.65114e-16
9.71853e-16
9.96535e-16
1.01869e-15
9.85278e-16
1.14201e-16
1.15758e-16
1.1514e-16
1.22165e-16
1.14118e-16
1.31017e-16
7.29042e-13
7.01114e-13
6.95251e-13
7.30448e-13
7.36376e-13
6.75056e-13
1.50068e-13
1.49245e-13
1.48109e-13
1.54306e-13
1.59334e-13
1.48487e-13
8.43409e-15
8.49604e-15
8.41193e-15
8.56001e-15
8.33542e-15
8.68812e-15
3.49307e-11
3.4852e-11
3.45764e-11
3.56067e-11
3.57006e-11
3.43619e-11
1.40941e-12
1.40767e-12
1.39125e-12
1.44221e-12
1.4531e-12
1.38507e-12
1.20946e-13
1.22063e-13
1.21585e-13
1.20112e-13
1.15629e-13
1.25797e-13
8.34551e-11
7.3923e-11
6.70818e-11
1.00374e-10
9.89332e-11
5.23913e-11
4.70616e-12
4.79208e-12
4.67097e-12
4.85854e-12
4.87129e-12
4.64388e-12
1.39233e-12
1.39094e-12
1.374e-12
1.42557e-12
1.43661e-12
1.36965e-12
-9.43387e-11
-8.65251e-11
-7.98987e-11
-1.08984e-10
-1.19949e-10
-6.62676e-11
1.02416e-11
1.03074e-11
9.71069e-12
1.09526e-11
1.12415e-11
9.45206e-12
5.92237e-12
5.98387e-12
5.82366e-12
6.12876e-12
6.22976e-12
5.84115e-12
-1.34977e-09
-1.46814e-09
-1.3413e-09
-1.74925e-09
-2.10892e-09
-1.27861e-09
6.02731e-12
5.95344e-12
5.88848e-12
5.9719e-12
5.97762e-12
5.91251e-12
5.95852e-12
5.89024e-12
5.85132e-12
5.89389e-12
5.90487e-12
5.86746e-12
-4.79379e-07
-4.95506e-07
-5.0164e-07
-4.69435e-07
-4.39219e-07
-5.25299e-07
6.96445e-09
-1.65633e-11
-1.40764e-11
6.20579e-09
4.55078e-09
1.3701e-09
7.44359e-07
5.78056e-07
5.44968e-07
7.48871e-07
7.48459e-07
7.39173e-07
0.000458706
0.000472429
0.000408945
0.000513155
0.00064543
0.000357068
4.19986e-09
3.67058e-09
4.15067e-09
4.4143e-09
1.01185e-08
1.74704e-08
2.87391e-12
4.89473e-18
1.61209e-09
1.34592e-11
1.60179e-07
7.32913e-08
0.222142
0.222222
0.222195
0.221809
0.221775
0.222669
4.42167e-09
3.80777e-09
4.26151e-09
4.64071e-09
1.0084e-08
1.75225e-08
3.0655e-06
2.52071e-06
2.17284e-06
8.21493e-06
1.90055e-05
2.0313e-06
)
;

boundaryField
{
    seabed_topleft_surface
    {
        type            zeroGradient;
    }
    seabed_topright_surface
    {
        type            zeroGradient;
    }
    breakwater_top_surface
    {
        type            zeroGradient;
    }
    breakwater_left_surface
    {
        type            zeroGradient;
    }
    breakwater_right_surface
    {
        type            zeroGradient;
    }
    water_front_surface
    {
        type            zeroGradient;
    }
    water_back_surface
    {
        type            zeroGradient;
    }
    water_left_surface
    {
        type            zeroGradient;
    }
    water_right_surface
    {
        type            zeroGradient;
    }
    water_top_surface
    {
        type            inletOutlet;
        inletValue      uniform 0;
        value           nonuniform List<scalar> 
180
(
0
0
0
0
0
0
0
0
0
0
0
0
0
0
0
0
0
0
0
0
0
0
0
0
2.30334e-12
2.30262e-12
2.30309e-12
2.30337e-12
2.30277e-12
2.30411e-12
3.05755e-10
3.0567e-10
3.05734e-10
3.05772e-10
3.05696e-10
3.05853e-10
1.88729e-08
1.88653e-08
1.88711e-08
1.88733e-08
1.88677e-08
1.88774e-08
1.93067e-06
1.93356e-06
1.9324e-06
1.93225e-06
1.93284e-06
1.93169e-06
3.46571e-06
3.47188e-06
3.47143e-06
3.46912e-06
3.4644e-06
3.46726e-06
0
0
0
0
0
0
0
0
0
0
0
0
0
0
0
0
0
0
0
0
0
0
0
0
0
0
0
0
0
0
0
0
0
0
0
0
0
0
0
0
0
0
0
0
0
0
0
0
0
0
0
0
0
0
1.01301e-19
1.00485e-19
1.01213e-19
1.00025e-19
1.02465e-19
1.01709e-19
2.12658e-18
2.11778e-18
2.10709e-18
2.05484e-18
2.08962e-18
2.12607e-18
3.51696e-17
3.49722e-17
3.47996e-17
3.56746e-17
3.62626e-17
3.49867e-17
1.14201e-16
1.15758e-16
1.1514e-16
1.22165e-16
1.14118e-16
1.31017e-16
8.43409e-15
8.49604e-15
8.41193e-15
8.56001e-15
8.33542e-15
8.68812e-15
1.20946e-13
1.22063e-13
1.21585e-13
1.20112e-13
1.15629e-13
1.25797e-13
1.39233e-12
1.39094e-12
1.374e-12
1.42557e-12
1.43661e-12
1.36965e-12
5.92237e-12
5.98387e-12
5.82366e-12
6.12876e-12
6.22976e-12
5.84115e-12
5.95852e-12
5.89024e-12
5.85132e-12
5.89389e-12
5.90487e-12
5.86746e-12
0
0
0
0
0
0
0
0
0
0
0
0
0
0
0
0
0
0
)
;
    }
}


// ************************************************************************* //
