/*--------------------------------*- C++ -*----------------------------------*\
| =========                 |                                                 |
| \\      /  F ield         | OpenFOAM: The Open Source CFD Toolbox           |
|  \\    /   O peration     | Version:  v1612+                                |
|   \\  /    A nd           | Web:      www.OpenFOAM.com                      |
|    \\/     M anipulation  |                                                 |
\*---------------------------------------------------------------------------*/
FoamFile
{
    version     2.0;
    format      ascii;
    class       surfaceScalarField;
    location    "4.45";
    object      phi;
}
// * * * * * * * * * * * * * * * * * * * * * * * * * * * * * * * * * * * * * //

dimensions      [0 3 -1 0 0 0 0];

internalField   nonuniform List<scalar> 
2916
(
-9.0788e-06
0.190123
-0.190114
-5.91326e-06
0.190126
-0.190129
-4.4444e-06
0.190125
-0.190126
3.01432e-06
0.190126
-0.190133
1.67757e-05
0.190125
-0.190139
0.190122
-0.190105
-4.66553e-06
0.348901
-0.158773
-5.55258e-06
0.348911
-0.158785
-3.10637e-06
0.348908
-0.158786
5.03235e-06
0.34891
-0.158792
1.49314e-05
0.348911
-0.158796
0.348902
-0.158765
6.00438e-08
0.475767
-0.126866
-4.27685e-06
0.475785
-0.126869
-1.35095e-06
0.475779
-0.126874
4.1577e-06
0.475781
-0.126877
7.40301e-06
0.475784
-0.126876
0.475769
-0.12686
2.33584e-06
0.565669
-0.089905
-2.30037e-06
0.565697
-0.0899073
-6.17417e-08
0.565689
-0.0899118
1.80258e-06
0.56569
-0.0899104
-2.85692e-08
0.565694
-0.0899083
0.565673
-0.0899039
2.1519e-06
0.503018
0.0626491
-1.18433e-06
0.503052
0.0626482
-6.2595e-07
0.503043
0.0626458
-2.84348e-06
0.503042
0.0626498
-6.69921e-06
0.503048
0.0626496
0.50302
0.0626459
-3.8938e-07
0.174488
0.32853
-9.28567e-07
0.17453
0.328523
-3.05194e-06
0.17452
0.328524
-6.62038e-06
0.17452
0.328526
-8.09567e-06
0.174529
0.328521
0.174491
0.328521
5.46616e-06
-0.395345
0.569827
1.47461e-06
-0.395313
0.569847
-3.68004e-06
-0.395311
0.569837
-7.23927e-06
-0.395311
0.569835
-1.75995e-05
-0.395303
0.569842
-0.395348
0.569822
-1.78949e-06
-1.01038
0.615042
7.45143e-06
-1.01038
0.615057
-3.92706e-08
-1.01035
0.61505
-7.8605e-06
-1.01035
0.615049
-1.51348e-05
-1.01035
0.615053
-1.01041
0.615044
5.45766e-06
-1.45278
0.442388
1.70162e-05
-1.45281
0.442417
1.16749e-05
-1.45276
0.442414
1.11792e-07
-1.45276
0.442421
-1.64242e-05
-1.45277
0.442434
-1.45281
0.442384
5.75507e-05
-1.40203
-0.0508086
2.83046e-05
-1.40206
-0.0507156
1.40113e-05
-1.40202
-0.0507333
-2.70428e-06
-1.40201
-0.0507307
-3.90668e-05
-1.40202
-0.0507078
-1.40204
-0.050803
0.000108037
-0.78194
-0.620195
1.9898e-05
-0.781931
-0.620044
-5.63556e-06
-0.781918
-0.620071
-1.86188e-05
-0.781921
-0.62008
-6.75781e-05
-0.781917
-0.620056
-0.781941
-0.620169
6.25044e-06
-0.781946
-1.8024e-05
-0.781906
-1.56149e-05
-0.781921
-1.17596e-05
-0.781925
-2.32692e-05
-0.781906
-0.781965
-7.61593e-05
1.46072
-1.65076
-1.9067e-05
1.46074
-1.65092
2.08898e-05
1.46074
-1.65091
5.87198e-05
1.46074
-1.65092
0.000104704
1.46076
-1.65094
1.46075
-1.65075
-6.0575e-05
2.98458
-1.68256
-1.35673e-05
2.98461
-1.68271
2.23501e-05
2.98461
-1.6827
7.11688e-05
2.98461
-1.68271
0.000125114
2.98463
-1.68272
2.98464
-1.68253
-8.46545e-05
4.72272
-1.86492
-3.30242e-05
4.72274
-1.86505
1.33863e-05
4.72274
-1.86505
6.82686e-05
4.72273
-1.86506
0.000134002
4.72275
-1.86507
4.7228
-1.86489
-9.19813e-05
5.48634
-0.853436
-4.46994e-05
5.48635
-0.853562
-4.87802e-05
5.4864
-0.853565
1.76534e-05
5.48632
-0.853562
0.0001044
5.48633
-0.853568
5.48643
-0.853428
-1.98945e-05
3.6323
1.91671
-1.06344e-05
3.6323
1.91668
-4.73397e-05
3.63237
1.91671
-5.35931e-05
3.63227
1.91671
-4.74835e-05
3.63225
1.91672
3.63228
1.91676
-4.18252e-05
1.29141
2.66946
1.35277e-06
1.29175
2.66903
3.2038e-06
1.29163
2.66927
-4.68372e-05
1.29161
2.66924
-6.37591e-05
1.29173
2.66907
1.29147
2.66927
0.000120792
-0.0931943
1.95432
-1.62365e-05
-0.0930605
1.9548
-1.07457e-05
-0.0930949
1.95455
-1.82249e-05
-0.0930777
1.95453
-0.000143584
-0.0930183
1.95471
-0.0931792
1.95433
3.3434e-05
-0.660134
1.18195
-2.14241e-06
-0.660114
1.18215
-1.78959e-05
-0.660097
1.18207
-2.53045e-05
-0.660089
1.18207
-4.25557e-05
-0.660076
1.18213
-0.660148
1.18197
7.40848e-05
-0.821766
0.603945
1.08339e-05
-0.821818
0.604185
1.4333e-05
-0.821763
0.604077
9.74858e-06
-0.821758
0.604094
-3.12531e-05
-0.821768
0.604167
-0.821788
0.603992
0.000225321
-0.7952
-0.0775997
2.719e-05
-0.795234
-0.0771017
1.03445e-05
-0.795177
-0.0773023
1.7067e-05
-0.795203
-0.077293
-7.77902e-05
-0.795224
-0.0771566
-0.795183
-0.0774855
0.000397085
-0.465213
-0.950579
2.54718e-05
-0.465123
-0.949784
-3.98173e-05
-0.465101
-0.950082
-5.16221e-06
-0.46516
-0.950157
-0.000141042
-0.465202
-0.949942
-0.465118
-0.950376
-0.000113759
-1.24704
-3.6947e-05
-1.24711
1.36539e-05
-1.24707
9.43587e-06
-1.24708
1.66393e-05
-1.24711
-1.24707
-1.66163e-05
-0.41491
-1.23583
9.00205e-06
-0.414824
-1.23613
2.69422e-05
-0.414845
-1.23608
2.63506e-05
-0.414836
-1.23608
2.33693e-05
-0.414807
-1.23614
-0.414894
-1.23584
-2.90013e-05
-0.644587
-1.45286
-4.33386e-06
-0.644446
-1.45311
-2.36787e-07
-0.644475
-1.45307
6.71386e-06
-0.644479
-1.45307
3.8792e-05
-0.644446
-1.45312
-0.644547
-1.45284
-0.000120895
-0.518277
-1.99111
-5.45845e-05
-0.51826
-1.9913
-3.59902e-05
-0.51826
-1.99128
-1.1868e-05
-0.518273
-1.99129
7.06251e-05
-0.518271
-1.99132
-0.51825
-1.99111
-0.000143702
1.37006
-2.74163
-0.00011324
1.37003
-2.74189
-8.80062e-05
1.37004
-2.74189
-4.94351e-05
1.37003
-2.7419
1.23074e-05
1.37005
-2.74195
1.37007
-2.74173
0.000185312
2.58016
0.706419
-8.48435e-05
2.58077
0.706213
-8.43204e-05
2.58048
0.706271
-7.05722e-05
2.58044
0.706284
-0.000237053
2.5807
0.706241
2.58032
0.706274
0.000770444
0.582607
4.66625
-4.667e-05
0.584895
4.66572
-5.2511e-05
0.583785
4.66597
-5.94023e-07
0.583697
4.66594
-0.000444815
0.584448
4.66576
0.583395
4.66575
0.000629311
-1.99888
4.53518
-0.000150084
-1.99716
4.53763
-0.000173591
-1.99801
4.53637
-0.000101475
-1.99809
4.53624
-0.000481344
-1.99755
4.5371
-1.99831
4.53554
0.000169356
-1.31214
0.495036
1.4046e-05
-1.31136
0.496502
-1.85079e-05
-1.31173
0.495826
-3.69214e-05
-1.31177
0.49577
-0.000155531
-1.31156
0.496251
-1.31191
0.495419
0.000556034
-0.80877
0.100022
1.72262e-05
-0.807973
0.101337
-3.37214e-05
-0.808316
0.100711
2.92928e-05
-0.808397
0.100659
-0.0002712
-0.808205
0.101115
-0.808512
0.100322
0.000721164
-0.424011
-0.46308
1.07786e-05
-0.422819
-0.461546
-6.99149e-05
-0.423296
-0.462241
4.27859e-05
-0.423462
-0.462341
-0.000301965
-0.423203
-0.461814
-0.423579
-0.46272
7.58536e-05
-0.176143
-1.19852
-4.62028e-05
-0.175387
-1.19709
-6.75759e-05
-0.17567
-1.19769
1.7314e-05
-0.175781
-1.19792
9.58669e-05
-0.175672
-1.19755
-0.175825
-1.19803
-0.000589267
-1.4226
-9.65045e-05
-1.42299
-8.29248e-05
-1.42276
4.49805e-06
-1.42295
0.000562613
-1.42335
-1.42233
1.10965e-05
0.0790078
-1.31485
1.65842e-05
0.0790235
-1.31516
4.86837e-06
0.0790299
-1.3151
-5.33003e-07
0.0790246
-1.3151
-6.02148e-07
0.0790231
-1.31516
0.0790145
-1.31485
-3.75319e-06
0.0782476
-1.4521
-2.1765e-06
0.0782638
-1.45236
-7.13026e-06
0.0782717
-1.45231
-1.09836e-05
0.0782692
-1.45231
-3.9862e-06
0.0782676
-1.45237
0.0782534
-1.45208
-7.43866e-05
-0.326376
-1.58642
-2.08095e-05
-0.326497
-1.58659
-1.40955e-05
-0.326445
-1.58657
-1.47056e-05
-0.326443
-1.58657
1.9486e-05
-0.326474
-1.58661
-0.32642
-1.58642
-0.000102012
-0.966469
-2.10143
-6.18012e-05
-0.966759
-2.10166
-5.81426e-05
-0.966673
-2.10166
-5.63172e-05
-0.966666
-2.10168
-1.914e-05
-0.966735
-2.10172
-0.966594
-2.10158
3.21854e-05
-0.232457
-0.0276246
-0.000238327
-0.232152
-0.0281171
-0.000220562
-0.232369
-0.0280481
-0.000132925
-0.232396
-0.0280737
-0.00023152
-0.232214
-0.0281792
-0.232473
-0.02808
0.000925101
-0.939391
5.37226
-0.000299233
-0.937024
5.37182
-0.000282584
-0.938312
5.3719
-4.34096e-05
-0.938522
5.37182
-0.000586433
-0.93765
5.37174
-0.938848
5.37153
-0.000331232
-2.58969
6.18581
-5.31819e-05
-2.58813
6.18846
-0.000131007
-2.58902
6.18715
-4.79178e-05
-2.58932
6.18695
0.000296459
-2.58865
6.18776
-2.5895
6.18649
-0.00117642
-3.57729
1.48382
-6.85553e-05
-3.57671
1.48398
0.000354244
-3.57697
1.48336
6.34556e-05
-3.57733
1.48407
1.32463e-07
-3.57716
1.48482
-3.57724
1.48316
-0.00153955
-1.99196
-1.48377
1.19666e-05
-1.98975
-1.48718
0.000538456
-1.99074
-1.48605
9.51852e-05
-1.99108
-1.48515
0.000485906
-1.99033
-1.4861
-1.99149
-1.48495
-0.00206078
-1.12165
-1.33133
-1.94379e-05
-1.11835
-1.33499
0.000415259
-1.11988
-1.33353
5.72054e-05
-1.12008
-1.33299
0.000990331
-1.11891
-1.33417
-1.12106
-1.33216
-0.00233911
-0.670951
-1.64689
-0.000123212
-0.66902
-1.64864
7.31599e-05
-0.669967
-1.6478
3.8861e-05
-0.66982
-1.64814
0.00169047
-0.669007
-1.6491
-0.670854
-1.64655
-0.0010472
-2.0925
-0.000154407
-2.0929
-0.000262359
-2.09261
1.72261e-05
-2.09305
0.00125334
-2.09359
-2.09193
-7.19173e-05
-0.363576
0.363648
-0.000126913
-0.36361
0.363663
-0.000131354
-0.363667
0.363671
-9.73188e-05
-0.363716
0.363682
-2.10493e-05
-0.363765
0.36369
-0.363702
0.363682
-0.000150009
-0.775184
0.411757
-0.000277581
-0.775273
0.41179
-0.000249916
-0.775485
0.41179
-0.00020642
-0.775587
0.411828
4.08991e-06
-0.775802
0.411827
-0.775509
0.411811
-0.000420636
-1.31546
0.540699
-0.00109857
-1.31525
0.540656
-0.00100809
-1.31645
0.540879
-0.000811128
-1.31665
0.540871
0.00101516
-1.31867
0.54104
-1.3156
0.541104
-0.000566252
-2.23434
0.919448
-0.00376267
-2.23037
0.918318
-0.00444029
-2.23576
0.919981
-0.00338252
-2.23736
0.919645
0.00869993
-2.253
0.922249
-2.22752
0.920625
9.50599e-06
-3.93448
1.70013
-0.00599494
-3.92395
1.69958
-0.0123947
-3.9283
1.69894
-0.00765376
-3.94495
1.70285
0.027505
-3.99805
1.70989
-3.89481
1.69479
0.000574007
-6.28677
2.35171
-0.0163391
-6.27377
2.36673
-0.0382744
-6.25629
2.34992
-0.024543
-6.33143
2.37274
0.0432408
-6.43027
2.36444
-6.17734
2.32577
0.0108597
-7.77451
1.47688
-0.0160008
-7.76694
1.52003
-0.0378861
-7.71366
1.47926
-0.0428083
-7.8691
1.54259
0.0183749
-7.99596
1.50451
-7.57304
1.41408
0.0146951
-6.19224
-1.59697
0.0155865
-6.19495
-1.57288
0.0326266
-6.16758
-1.56312
-0.00919285
-6.22944
-1.59783
-0.0614684
-6.29082
-1.65286
-6.08667
-1.54784
0.00866777
-2.05079
-4.15011
0.024215
-2.05943
-4.15107
0.104574
-2.08966
-4.15828
0.0118775
-1.98401
-4.15274
-0.166793
-1.92691
-4.18524
-2.11826
-4.1352
-0.00639898
2.31732
-4.36171
0.0331278
2.2768
-4.37576
0.167255
2.1781
-4.40188
0.0329593
2.47102
-4.32073
-0.274601
2.68442
-4.30377
2.0185
-4.41137
0.00961012
3.38836
-1.08065
0.0325409
3.35767
-1.1038
0.0663122
3.28199
-1.13767
0.00174087
3.49377
-0.958183
-0.100882
3.64998
-0.862944
3.14053
-1.22291
0.00132764
3.38703
-0.014507
3.37352
-0.0772658
3.34476
-0.0330264
3.44953
0.103206
3.51374
3.24375
-6.0257e-05
-0.374076
0.737783
-0.000103258
-0.374108
0.737812
-0.000100789
-0.374158
0.737826
-7.39791e-05
-0.374186
0.737842
-9.31469e-06
-0.374227
0.737853
-0.374161
0.737833
-0.000125051
-0.797405
0.83521
-0.000227746
-0.797477
0.835261
-0.000179833
-0.797704
0.835288
-0.000142991
-0.797711
0.835317
4.29343e-05
-0.797908
0.835323
-0.797611
0.835303
-0.000372531
-1.32313
1.0668
-0.000765854
-1.32326
1.06683
-0.000534476
-1.32409
1.06703
-0.000488871
-1.32394
1.06705
0.000701062
-1.32527
1.06721
-1.3229
1.06709
-0.000960004
-2.00396
1.60124
-0.00298775
-2.00345
1.60054
-0.00400195
-2.00458
1.60148
-0.00208737
-2.00886
1.60265
0.00754663
-2.01804
1.60538
-1.99576
1.60104
-0.00261884
-2.92619
2.62497
-0.00464391
-2.92632
2.62447
-0.0145565
-2.91956
2.62383
0.000171474
-2.95177
2.63104
0.0310339
-2.97778
2.63876
-2.88818
2.61824
-0.00754675
-3.92607
3.35913
-0.00507286
-3.93564
3.37358
-0.0321559
-3.9093
3.36674
0.0126866
-3.99003
3.36616
0.0584789
-4.00794
3.3488
-3.85296
3.34903
-0.00558566
-4.48667
2.04307
-0.0090983
-4.49617
2.08407
-0.0682398
-4.46369
2.09279
0.00509916
-4.54429
2.02351
0.0916673
-4.53359
1.9436
-4.43108
2.08387
0.0104074
-4.71347
-1.38057
-0.00122482
-4.7223
-1.33512
-0.0278284
-4.7159
-1.2843
0.00118425
-4.71854
-1.4526
0.0370354
-4.67027
-1.55203
-4.7173
-1.22458
0.00464047
-3.85099
-5.01724
-0.00276667
-3.84521
-5.02074
-0.0284936
-3.83619
-5.01226
-0.0042055
-3.86181
-5.03376
0.0451507
-3.86346
-5.0414
-3.81966
-4.9877
-0.00373909
-2.83574
-5.37323
-0.00529183
-2.83863
-5.38079
-0.0196221
-2.83962
-5.38412
-0.000891186
-2.84182
-5.35945
0.0269093
-2.85202
-5.34302
-2.82405
-5.38007
-0.00580605
-0.830648
-3.07993
-0.0281258
-0.838782
-3.08132
-0.083618
-0.841877
-3.07992
-0.0289307
-0.816456
-3.03824
0.0920424
-0.827684
-3.00825
-0.890552
-3.06437
-0.0161672
2.57254
-0.0660511
2.58462
-0.0429445
2.47978
-0.0789263
2.66905
-0.174576
2.78169
2.17862
-2.76486e-05
-0.27325
1.01106
-4.51029e-05
-0.27327
1.0111
-3.89993e-05
-0.273288
1.01111
-2.69032e-05
-0.273288
1.01112
5.26697e-06
-0.273305
1.01113
-0.273256
1.01109
-4.96299e-05
-0.55237
1.11438
-8.55101e-05
-0.552399
1.11443
-5.84314e-05
-0.552472
1.11444
-3.06181e-05
-0.552461
1.11446
8.02994e-05
-0.552569
1.11447
-0.552297
1.11442
-0.000116185
-0.824507
1.33905
-0.000189248
-0.824612
1.33911
-9.39164e-05
-0.82473
1.3392
-2.32721e-05
-0.824676
1.3392
0.000447369
-0.825106
1.33928
-0.823884
1.33913
-0.000300825
-0.9699
1.74693
-0.000515748
-0.970683
1.74683
-0.000886281
-0.970024
1.74715
-0.000111671
-0.970188
1.74738
0.00300859
-0.971142
1.74829
-0.966496
1.74666
-0.00114684
-0.747862
2.40408
-0.000517039
-0.750927
2.40408
-0.00334494
-0.747023
2.40366
0.0020248
-0.750442
2.40592
0.0113769
-0.750586
2.40886
-0.737604
2.40072
-0.00422857
-0.291193
2.90669
0.00530642
-0.299121
2.91224
0.00912239
-0.293578
2.90949
0.0193374
-0.301302
2.9068
0.00704379
-0.290045
2.90055
-0.284132
2.9026
-0.00374766
-0.227247
1.98287
0.0129067
-0.235502
2.0038
0.0354965
-0.232038
2.00866
0.0325145
-0.241403
1.9666
-0.0169135
-0.223009
1.92599
-0.226798
2.00963
0.00247009
-1.31614
-0.294157
0.0124856
-1.32202
-0.258611
0.0483449
-1.31665
-0.235544
0.011462
-1.32366
-0.333458
-0.0562778
-1.32078
-0.386522
-1.30646
-0.201198
0.000493443
-2.87458
-3.45929
-0.00597816
-2.87796
-3.45833
-0.0145287
-2.87473
-3.44563
-0.0162463
-2.88145
-3.47424
0.00533985
-2.88948
-3.49429
-2.86385
-3.42496
-0.0014407
-3.37747
-4.86889
-0.00530071
-3.38185
-4.87304
-0.0185056
-3.38072
-4.86493
-0.00724737
-3.37572
-4.87644
0.0256798
-3.37339
-4.89203
-3.35976
-4.85848
-0.00338981
-2.58988
-3.86413
-0.00628739
-2.59229
-3.86798
-0.0330013
-2.56998
-3.86395
-0.00724076
-2.58326
-3.85645
0.0577845
-2.59338
-3.85328
-2.50776
-3.85859
0.0101596
-0.0274939
0.0242473
-0.0217731
-0.00838999
-0.0575515
0.070635
0.00676614
0.194229
0.0647213
-0.134908
-4.2198e-06
-0.176112
1.18717
-4.05338e-06
-0.176123
1.18722
1.52463e-06
-0.176121
1.18722
5.65931e-06
-0.176111
1.18722
1.25657e-05
-0.176108
1.18723
-0.176079
1.18718
-5.83543e-07
-0.326823
1.26509
8.69332e-06
-0.32684
1.26513
2.84027e-05
-0.326832
1.26514
3.16957e-05
-0.326789
1.26513
5.44714e-05
-0.326793
1.26514
-0.326683
1.26508
2.54757e-05
-0.408908
1.42111
7.65467e-05
-0.408945
1.42117
0.000137544
-0.408865
1.42117
0.00013104
-0.408731
1.42114
0.000211595
-0.408741
1.42115
-0.408386
1.42104
0.000102171
-0.31195
1.64987
0.000348748
-0.312296
1.64993
0.000471777
-0.311759
1.64992
0.000435437
-0.311115
1.6498
0.000723404
-0.310607
1.64987
-0.310519
1.64952
0.000202259
0.193728
1.8982
0.0015049
0.192153
1.89833
0.00156368
0.193666
1.89818
0.00191152
0.196357
1.89811
0.00190004
0.199716
1.89855
0.195057
1.89705
-0.000362194
1.05693
2.04386
0.00545175
1.05348
2.0451
0.00956593
1.05533
2.04371
0.00919044
1.06051
2.04303
-0.00189295
1.0693
2.04205
1.05502
2.04074
-0.00235611
1.57349
1.46867
0.0103529
1.57027
1.4743
0.0288011
1.57304
1.4725
0.0184233
1.57221
1.46528
-0.023143
1.57942
1.45744
1.57074
1.47077
-0.0096721
1.02369
0.265316
0.00727358
1.0214
0.273317
0.0451014
1.02631
0.273367
0.0105108
1.01726
0.256078
-0.0674716
1.02474
0.246152
1.0242
0.277868
-0.00382776
-0.855159
-1.57661
0.00280722
-0.868527
-1.57503
0.0103473
-0.859392
-1.56747
0.000416743
-0.859512
-1.58753
-0.0189323
-0.854781
-1.59542
-0.855274
-1.56442
-0.00320964
-2.65351
-3.06732
-0.00539968
-2.66324
-3.07614
-0.00391169
-2.6521
-3.07371
-0.00570715
-2.66827
-3.06588
-0.00491866
-2.68555
-3.06205
-2.63397
-3.08471
-0.00169711
-2.47293
-4.04301
-0.00696565
-2.47819
-4.04776
-0.0166576
-2.46172
-4.04463
-0.00449982
-2.48924
-4.04765
0.0220963
-2.51748
-4.04795
-2.42327
-4.04719
-0.00314065
-2.49728
-0.00151203
-2.50159
-0.025657
-2.49513
-0.0041523
-2.50398
0.0584815
-2.5154
-2.4997
5.10554e-05
-1.2303
-0.0846071
2.02241e-05
-1.23048
-0.0846444
4.30976e-06
-1.23045
-0.0846381
-1.38536e-05
-1.23045
-0.084639
-5.24465e-05
-1.23048
-0.0846451
-1.23029
-0.0846069
3.64986e-05
-1.10573
-0.1246
1.04911e-05
-1.10586
-0.124597
-1.96467e-06
-1.10584
-0.124596
-1.58102e-05
-1.10584
-0.124596
-4.15236e-05
-1.10586
-0.124595
-1.10575
-0.124596
2.47132e-05
-0.0262563
8.59248e-06
-0.0262558
8.717e-07
-0.0262566
-7.32675e-06
-0.0262571
-2.62605e-05
-0.0262568
-0.0262585
1.92056e-05
-1.27135
-0.265373
2.85054e-06
-1.27151
-0.265474
-8.75316e-06
-1.27149
-0.265453
-2.02386e-05
-1.27149
-0.265454
-3.65955e-05
-1.27152
-0.265473
-1.27135
-0.265379
2.67065e-05
-1.04444
-0.351543
2.4293e-06
-1.04455
-0.351535
-9.51393e-06
-1.04454
-0.351533
-1.96284e-05
-1.04454
-0.351533
-4.03405e-05
-1.04456
-0.351531
-1.04445
-0.351534
2.07276e-05
-0.0662494
6.25697e-06
-0.066246
-6.81084e-07
-0.0662463
-7.63771e-06
-0.0662463
-2.64887e-05
-0.0662451
-0.0662487
-4.38421e-05
-1.20198
-0.649772
-7.86294e-06
-1.20211
-0.649997
-1.14594e-05
-1.2021
-0.649924
-2.21597e-05
-1.20209
-0.649924
-1.47704e-05
-1.20212
-0.649968
-1.20197
-0.649846
8.76543e-06
-0.867586
-0.685941
-1.23912e-06
-0.867682
-0.68595
-1.44462e-05
-0.867677
-0.685937
-2.24324e-05
-0.867679
-0.685937
-3.67973e-05
-0.867701
-0.68594
-0.867596
-0.685942
1.46613e-05
-0.156996
3.31515e-06
-0.156984
-4.05588e-06
-0.156985
-1.01675e-05
-0.156985
-2.49825e-05
-0.156983
-0.156998
-9.59474e-05
-1.31218
-1.43893
-2.34491e-06
-1.31233
-1.43943
-3.85289e-06
-1.31233
-1.43926
-1.65963e-05
-1.31232
-1.43927
9.74232e-06
-1.31234
-1.43938
-1.31221
-1.4392
-4.69612e-05
-0.603514
-1.39456
4.84285e-06
-0.60358
-1.39475
-7.85012e-06
-0.603583
-1.39467
-1.70055e-05
-0.603579
-1.39467
-5.52306e-06
-0.60359
-1.39471
-0.603494
-1.39467
1.337e-06
-0.433265
-3.18817e-06
-0.433253
-1.22468e-05
-0.433251
-1.72269e-05
-0.43325
-2.39228e-05
-0.433246
-0.433275
2.57887e-05
0.0383117
-1.5049
-8.7765e-05
0.0379421
-1.50537
-0.000111806
0.037976
-1.50526
-7.96722e-05
0.037954
-1.50533
-9.25595e-05
0.0378843
-1.50543
0.0380362
-1.50541
1.93625e-05
0.367003
-1.72327
6.98518e-05
0.366886
-1.72374
4.72449e-05
0.366898
-1.72356
3.86828e-05
0.366906
-1.72361
3.66358e-05
0.366889
-1.72371
0.367008
-1.72361
-1.45313e-06
-0.746118
1.14279e-05
-0.74623
-3.47234e-06
-0.746177
-8.83783e-06
-0.746188
-2.03827e-05
-0.746202
-0.746207
0.000570543
4.18844
-0.321649
-0.000332738
4.18803
-0.320676
-0.000307595
4.18803
-0.321416
-0.000157844
4.18793
-0.321591
-0.000498058
4.18787
-0.321219
4.18792
-0.322294
0.000357307
2.62545
-0.160639
-2.37956e-05
2.62524
-0.160575
-6.52937e-05
2.62522
-0.160714
-5.8234e-05
2.62518
-0.160865
-0.000205044
2.62514
-0.160828
2.62533
-0.161222
7.86186e-05
-0.0374025
9.64383e-05
-0.0376148
6.31968e-05
-0.0375246
4.92446e-05
-0.0375997
1.97928e-05
-0.0376381
-0.0376074
-0.000877482
6.7043
-0.839266
-0.000205256
6.7062
-0.839094
-0.000142235
6.70516
-0.839488
-0.000126282
6.70491
-0.83956
0.000395695
6.7054
-0.839384
6.70487
-0.840281
-0.000424771
5.13853
1.40556
-6.37656e-05
5.13973
1.40553
-1.94535e-05
5.13908
1.40533
-0.000196084
5.13893
1.40529
-2.23565e-05
5.13915
1.40524
5.13907
1.40455
0.000135615
1.51269
0.000111307
1.51308
7.85746e-05
1.51288
-3.72967e-06
1.51279
-7.41514e-05
1.51283
1.51256
-0.000373155
3.4118
-2.76687
-0.000143323
3.4117
-2.76705
-0.000146008
3.41129
-2.76741
-0.000425123
3.41182
-2.76703
-0.000836799
3.41228
-2.76643
3.41085
-2.7688
8.23451e-05
3.9252
0.892075
2.20034e-05
3.92681
0.890487
-0.00028631
3.92594
0.890991
-0.000249
3.92606
0.89102
-5.06358e-05
3.9265
0.890826
3.9258
0.889549
-8.8894e-05
2.0595
8.42924e-05
2.0591
-3.55711e-05
2.05919
-8.87167e-05
2.05922
0.000182232
2.059
2.05867
0.000604807
-0.502694
-3.74856
-0.000179368
-0.506129
-3.74731
-0.000177664
-0.50502
-3.74844
-0.000371901
-0.504229
-3.74775
-0.00132493
-0.505193
-3.74639
-0.504593
-3.75048
0.00348825
0.673291
-0.287399
5.14539e-05
0.674985
-0.287187
-0.000786779
0.674188
-0.287378
-0.000464546
0.674141
-0.287673
-0.00207034
0.674479
-0.287241
0.67306
-0.290175
0.000627592
1.82581
0.000132521
1.82487
-1.47768e-05
1.8251
-7.07325e-05
1.82524
-0.000166505
1.82491
1.82418
-0.000885021
-2.04337
-3.03563
-0.000146361
-2.04805
-3.03498
7.90374e-05
-2.04652
-3.03568
0.00011733
-2.04571
-3.03507
0.000810744
-2.0468
-3.03446
-2.04521
-3.03662
0.0020395
-1.68163
-0.651185
-0.000209062
-1.68292
-0.650072
-0.00018302
-1.68304
-0.650888
8.61374e-05
-1.68268
-0.650977
-0.000358641
-1.68284
-0.650753
-1.68368
-0.652058
0.000878021
1.36837
-0.000110279
1.36663
-0.00052609
1.36707
2.60333e-05
1.36694
0.00154172
1.36547
1.3679
-0.000198689
-3.06964
-1.61268
0.000440374
-3.07167
-1.61259
0.000492555
-3.07072
-1.61281
0.000139307
-3.07056
-1.61229
0.000768669
-3.07216
-1.61203
-3.06922
-1.61318
0.000509026
-2.4618
-1.25953
0.000509102
-2.46282
-1.25893
0.00151478
-2.46242
-1.2602
0.000718216
-2.46258
-1.25816
-0.00156949
-2.46435
-1.25627
-2.46044
-1.26241
0.000255845
0.650012
-0.000141861
0.648119
-0.000546807
0.648916
0.000281335
0.648076
0.00192137
0.645575
0.651461
-0.00025608
-2.2618
-1.44312
2.17614e-05
-2.26276
-1.443
0.000134172
-2.26249
-1.44304
-0.00018676
-2.26192
-1.4431
0.000385817
-2.26313
-1.44306
-2.26169
-1.44303
-0.000125318
-2.64398
-0.877227
0.000471637
-2.64628
-0.876002
0.00211209
-2.64529
-0.879036
0.000607456
-2.64533
-0.873252
-0.00386313
-2.64837
-0.866559
-2.64252
-0.885442
0.000406827
0.0117523
-9.14547e-06
0.0111005
-0.000307868
0.0115389
3.46956e-05
0.0106026
-5.08342e-05
0.00861831
0.0132348
-0.000836249
-0.699439
-1.46182
2.1621
-0.000671638
-0.704806
-1.46091
2.16555
-0.00150362
-0.703346
-1.46051
2.16469
-0.000401312
-0.700822
-1.46227
2.16199
0.00306949
-0.700758
-1.46273
2.16001
-0.705443
-1.45892
2.16743
-0.00141325
-0.710268
-1.50602
1.51826
0.000242964
-0.720764
-1.5002
1.5145
0.000535579
-0.71882
-1.50325
1.51843
0.00278594
-0.713189
-1.50932
1.51943
0.0183031
-0.719917
-1.51325
1.51689
-0.720449
-1.50569
1.539
-0.00389795
-0.201493
0.495622
0.0024894
-0.197462
0.482
0.0134475
-0.198324
0.479163
0.0018638
-0.205699
0.50813
-0.0200199
-0.210275
0.528112
-0.197333
0.46784
-0.00021001
-0.365985
-1.09563
-0.000303367
-0.365038
-1.09578
-0.00070444
-0.364279
-1.09583
1.6221e-05
-0.367704
-1.09529
0.00168001
-0.369821
-1.09457
-0.360742
-1.09649
-0.00292368
-0.439484
-1.42959
-0.000780981
-0.437297
-1.43009
-0.000817635
-0.435329
-1.43216
0.00127486
-0.445305
-1.43381
0.00837736
-0.452527
-1.43765
-0.427173
-1.43089
-0.000564152
0.0411548
0.00207904
0.0415518
0.00458558
0.0407429
0.00157355
0.0379321
-0.00493851
0.0355673
0.039664
-0.000143404
-0.293049
-0.802436
-0.000214383
-0.29333
-0.802379
-0.000533077
-0.293158
-0.802351
-0.00012175
-0.293616
-0.802082
0.00123565
-0.294129
-0.801797
-0.2929
-0.802358
-0.00240515
-0.534021
-1.18622
-0.00271502
-0.535861
-1.18725
-0.00931354
-0.533091
-1.18563
-0.00109071
-0.54467
-1.19098
0.0239673
-0.559009
-1.19783
-0.521937
-1.17788
2.71763e-05
0.00584219
0.000476793
0.00695872
2.40169e-05
0.00620607
0.00103467
0.00450678
0.00272964
0.00429245
0.00602615
-6.81707e-05
-0.37845
-0.423918
-0.000113532
-0.378325
-0.424009
-0.000500107
-0.378092
-0.423872
-0.000207925
-0.378354
-0.424021
0.000882863
-0.378337
-0.42455
-0.378328
-0.423147
-0.00297809
-1.32815
-0.233543
-0.00246119
-1.33091
-0.23518
-0.0100975
-1.32382
-0.232268
-0.000999698
-1.34091
-0.237523
0.0258942
-1.36007
-0.242995
-1.3054
-0.224915
-0.00135411
0.127254
-0.000226752
0.12766
-0.00240119
0.127056
-0.000415053
0.128553
0.00827428
0.130274
0.12458
-0.000156396
-0.483031
0.0592699
-0.000168391
-0.483236
0.0592391
-0.000918761
-0.482378
0.0592562
-4.07424e-05
-0.484173
0.0592741
0.00200754
-0.485614
0.0590152
-0.480603
0.059464
-0.00317227
-1.43173
0.718323
-0.00291772
-1.43602
0.717349
-0.00935712
-1.42872
0.720513
-0.0022787
-1.44252
0.713743
0.0270683
-1.46517
0.707217
-1.40648
0.728028
-0.000303882
0.272521
-0.000221844
0.272799
-0.000536092
0.272591
-0.000135023
0.273354
0.000108101
0.274316
0.271741
-0.000222054
-1.38363
-0.000141859
-1.38384
-0.000527792
-1.3834
-5.19063e-05
-1.3843
0.00121202
-1.3853
-1.38235
-0.00111742
-1.54142
-0.000574355
-1.54304
-0.00130165
-1.5412
-0.000538347
-1.54458
0.00401418
-1.5492
-1.53575
-0.000240817
-0.000193744
-0.000349756
4.30759e-05
0.000760472
3.7372e-06
1.27051
-0.0833368
9.35008e-06
1.27055
-0.0833428
1.3727e-05
1.27055
-0.0833374
1.29683e-05
1.27055
-0.0833294
9.79814e-06
1.27055
-0.083324
1.2705
-0.0833098
4.41997e-06
1.31452
-0.0440231
7.37775e-06
1.31457
-0.0440272
8.73532e-06
1.31457
-0.0440238
7.44795e-06
1.31457
-0.0440203
4.89496e-06
1.31457
-0.0440172
1.31452
-0.0440098
-5.9761e-07
-0.0156744
-1.15136e-06
-0.0156761
-1.61785e-06
-0.0156748
-1.49416e-06
-0.0156738
-1.00004e-06
-0.0156725
-0.0156696
1.14711e-05
1.31705
-0.135311
2.73536e-05
1.3171
-0.135322
3.90792e-05
1.3171
-0.135307
3.56539e-05
1.31709
-0.135281
2.85384e-05
1.31709
-0.135268
1.31703
-0.135233
7.7578e-06
1.34104
-0.0680233
1.73637e-05
1.34109
-0.068031
2.1768e-05
1.34109
-0.0680222
1.96814e-05
1.34108
-0.0680126
1.34767e-05
1.34108
-0.0680037
1.34103
-0.067988
5.02105e-08
-0.0245908
2.97684e-06
-0.0245942
4.14283e-06
-0.024591
4.66632e-06
-0.0245886
3.00382e-06
-0.0245851
-0.0245792
4.21305e-05
1.40097
-0.115207
8.43031e-05
1.40103
-0.115219
0.000113539
1.40102
-0.115183
0.000100025
1.401
-0.115121
8.19884e-05
1.40099
-0.115096
1.40092
-0.115029
2.45247e-05
1.38158
-0.0486579
4.93628e-05
1.38164
-0.0486676
6.00118e-05
1.38163
-0.0486458
5.25799e-05
1.38162
-0.0486247
3.36273e-05
1.38161
-0.0486025
1.38155
-0.0485821
7.62441e-06
-0.0191533
1.5912e-05
-0.0191585
1.79048e-05
-0.0191508
1.65783e-05
-0.019147
9.80306e-06
-0.0191391
-0.0191322
0.000116314
1.49666
0.0378866
0.000206406
1.49674
0.0378859
0.000277436
1.49671
0.0379527
0.000244992
1.49667
0.0380473
0.000193284
1.49666
0.0381641
1.49654
0.0381382
6.09844e-05
1.4077
0.0402496
0.000123748
1.40776
0.0402414
0.000142318
1.40774
0.0403083
0.000129897
1.40771
0.0403436
8.55874e-05
1.40769
0.0404151
1.40761
0.0404417
1.9213e-05
0.0109557
3.96466e-05
0.0109474
4.04178e-05
0.0109694
3.74004e-05
0.0109716
1.94109e-05
0.0109967
0.0110013
0.000283347
1.54807
0.387733
0.000916514
1.54819
0.387395
0.00117288
1.54804
0.387831
0.00097665
1.54784
0.388507
0.000443051
1.54777
0.389476
1.54754
0.38809
0.000148268
1.37916
0.209009
0.000361323
1.37925
0.208968
0.000430178
1.37916
0.209123
0.000374412
1.37908
0.20916
0.000233425
1.379
0.209325
1.37891
0.209309
4.27622e-05
0.0542275
9.83574e-05
0.0542192
0.000109455
0.0542619
9.79524e-05
0.0542625
8.71323e-05
0.0542748
0.0543583
0.000295476
1.47773
0.953563
0.00203061
1.47798
0.952779
0.00271594
1.47761
0.953253
0.00239529
1.47717
0.95469
-0.00011332
1.47699
0.957044
1.4766
0.952122
0.000185921
1.20666
0.479897
0.000653681
1.20678
0.479692
0.000688917
1.2066
0.480085
0.00065469
1.20644
0.479917
0.000132685
1.20626
0.480573
1.20626
0.479775
6.1396e-05
0.15004
0.000179789
0.15
0.000174316
0.150135
0.000169778
0.150024
4.09674e-05
0.150138
0.150171
-0.000570847
1.10532
1.31749
0.00379296
1.10616
1.31656
0.00773795
1.10502
1.31678
0.00496305
1.10413
1.31861
-0.00585751
1.10366
1.32164
1.10353
1.31351
0.000183262
0.890954
0.694076
0.00154878
0.891177
0.693309
0.00213074
0.890815
0.693714
0.00129276
0.890302
0.69459
-0.000892633
0.890324
0.696102
0.890029
0.692392
0.000122814
0.175182
0.000411651
0.174994
0.000492186
0.175213
0.000285287
0.17517
0.000344863
0.175119
0.175451
-0.00151988
0.503037
1.08129
0.0040415
0.505456
1.07886
0.00703237
0.50376
1.0834
0.00331643
0.501112
1.07729
-0.0130552
0.500099
1.08407
0.503303
1.07501
0.000406986
0.287278
0.909431
0.00184852
0.288162
0.909161
0.00230597
0.287089
0.909929
0.00131947
0.286965
0.909724
-0.00655002
0.28751
0.916565
0.286411
0.902736
0.000230639
0.353095
0.000695244
0.352789
0.00119407
0.352789
0.000387546
0.353908
-0.00210019
0.356197
0.350862
-0.00395773
-0.279621
-0.211736
0.00596482
-0.279953
-0.226131
0.00859147
-0.279169
-0.207518
0.00138905
-0.278531
-0.224497
-0.00856687
-0.273103
-0.228296
-0.284644
-0.213331
0.00158982
0.0978519
0.530368
0.00337326
0.0982164
0.529209
0.00328785
0.0970598
0.533788
0.00228326
0.0991635
0.533038
-0.00470452
0.102318
0.548132
0.0931035
0.520284
-0.000226026
0.3241
0.000820766
0.323107
0.00300925
0.322671
0.000499675
0.326369
-0.00263602
0.329047
0.320832
-0.00298295
-1.79845
-1.47762
-0.000828402
-1.80784
-1.49658
0.000673426
-1.81114
-1.47159
-0.00752349
-1.78359
-1.49859
-0.00407266
-1.75812
-1.53568
-1.83643
-1.46568
0.00184863
-1.83916
0.56923
-0.00233464
-1.84534
0.570895
-0.00518923
-1.84586
0.571361
0.00244996
-1.83038
0.572188
0.0155959
-1.8132
0.590065
-1.86203
0.561477
0.00176706
0.337031
-0.00104245
0.337412
-0.00661786
0.337826
0.00107736
0.339738
0.0243458
0.339414
0.340243
0.00221786
-2.12846
-3.39439
0.00647548
-2.1402
-3.40839
0.0172463
-2.13977
-3.38722
0.00130877
-2.11552
-3.41478
-0.0134708
-2.11643
-3.45242
-2.1487
-3.37764
-0.009848
-1.83137
0.28199
-0.00973805
-1.84169
0.272268
-0.00190388
-1.8445
0.268257
-0.0151898
-1.82027
0.290225
-0.0288575
-1.8332
0.320498
-1.84514
0.229059
0.00336649
0.489633
-0.00545879
0.500084
-0.0216868
0.505949
-0.00264588
0.483847
0.0291009
0.466678
0.51912
0.00353886
-3.73311
0.00434913
-3.74524
0.0134791
-3.7268
0.00970639
-3.753
-0.00673479
-3.79136
-3.71664
0.0271153
-1.95998
0.0327104
-1.96407
0.0542816
-1.96168
0.0553101
-1.94438
-0.0154215
-1.88324
-1.964
0.0213181
0.0218545
0.0475391
0.0416702
-0.0492378
)
;

boundaryField
{
    seabed_topleft_surface
    {