/*--------------------------------*- C++ -*----------------------------------*\
| =========                 |                                                 |
| \\      /  F ield         | OpenFOAM: The Open Source CFD Toolbox           |
|  \\    /   O peration     | Version:  v1612+                                |
|   \\  /    A nd           | Web:      www.OpenFOAM.com                      |
|    \\/     M anipulation  |                                                 |
\*---------------------------------------------------------------------------*/
FoamFile
{
    version     2.0;
    format      ascii;
    class       volVectorField;
    location    "4.45";
    object      U;
}
// * * * * * * * * * * * * * * * * * * * * * * * * * * * * * * * * * * * * * //

dimensions      [0 1 -1 0 0 0 0];

internalField   nonuniform List<vector> 
1116
(
(0.178753 -7.73967e-06 -0.203972)
(0.178752 -6.75264e-06 -0.203981)
(0.178753 -5.63814e-06 -0.20397)
(0.178754 -5.34414e-06 -0.203968)
(0.178752 1.29976e-05 -0.203979)
(0.178751 1.61556e-05 -0.203966)
(0.546816 -2.0756e-06 -0.336152)
(0.546826 -5.10238e-06 -0.336169)
(0.546822 -5.45966e-06 -0.33615)
(0.546825 -2.57145e-06 -0.336146)
(0.546825 1.43963e-05 -0.336164)
(0.546815 1.26392e-05 -0.33615)
(0.826915 3.68991e-06 -0.320769)
(0.826942 -3.25769e-06 -0.32079)
(0.826934 -4.04356e-06 -0.320771)
(0.826938 1.8755e-07 -0.320766)
(0.826941 9.48774e-06 -0.320785)
(0.826918 4.65269e-06 -0.320775)
(1.03692 6.64754e-06 -0.246711)
(1.03697 -1.24095e-06 -0.246736)
(1.03696 -2.36263e-06 -0.246719)
(1.03696 1.79283e-06 -0.246714)
(1.03696 2.62781e-06 -0.246733)
(1.03693 -2.4591e-06 -0.246723)
(1.12006 5.90439e-06 -0.171018)
(1.12013 -7.5239e-07 -0.171046)
(1.12011 -1.82699e-06 -0.171031)
(1.12011 1.84556e-07 -0.171028)
(1.12012 -4.94239e-06 -0.171045)
(1.12007 -7.37683e-06 -0.171031)
(0.773579 1.06795e-06 -0.0505788)
(0.773653 -9.38303e-07 -0.0506007)
(0.773633 -1.95281e-06 -0.05059)
(0.773633 -3.05157e-06 -0.0505879)
(0.773645 -8.60693e-06 -0.0506006)
(0.773582 -7.08341e-06 -0.0505861)
(-0.0733855 -8.86617e-07 0.248134)
(-0.0733078 6.6696e-06 0.24814)
(-0.0733231 -1.62201e-06 0.248137)
(-0.0733221 -4.34037e-06 0.248139)
(-0.0733065 -1.49665e-05 0.248136)
(-0.0733787 -1.12368e-05 0.248141)
(-1.2653 -9.19987e-06 0.602595)
(-1.26524 8.15412e-06 0.602622)
(-1.26523 1.47964e-06 0.602607)
(-1.26522 -3.78548e-07 0.602609)
(-1.26521 -1.71766e-05 0.602612)
(-1.26531 -1.13277e-05 0.602612)
(-2.60005 2.695e-06 0.402188)
(-2.60006 1.57559e-05 0.402243)
(-2.59998 7.23069e-06 0.402236)
(-2.59998 1.94228e-05 0.402242)
(-2.59997 -1.78817e-05 0.402261)
(-2.60012 -2.19189e-05 0.402178)
(-3.30731 6.56635e-05 -0.376557)
(-3.30739 4.829e-05 -0.376488)
(-3.30728 -4.52196e-06 -0.376476)
(-3.30728 3.1398e-05 -0.37647)
(-3.30729 -3.31983e-05 -0.376455)
(-3.30738 -4.00577e-05 -0.376602)
(-2.50395 0.000118177 -1.17987)
(-2.50404 7.445e-05 -1.1798)
(-2.50396 -2.85876e-05 -1.1798)
(-2.50396 1.87468e-05 -1.1798)
(-2.50398 -6.06974e-05 -1.1798)
(-2.50399 -6.02817e-05 -1.1799)
(-1.03449 1.81688e-05 -1.12003)
(-1.0343 -8.83517e-06 -1.11996)
(-1.03435 -2.36183e-05 -1.11999)
(-1.03436 -4.90436e-06 -1.12)
(-1.03432 -2.37464e-05 -1.11998)
(-1.03445 -1.40283e-05 -1.12005)
(1.51578 -6.33166e-05 -0.955721)
(1.51579 -6.30061e-05 -0.955795)
(1.51578 1.29912e-05 -0.955791)
(1.51579 3.58086e-05 -0.955829)
(1.51581 9.72706e-05 -0.955849)
(1.51577 7.55053e-05 -0.955682)
(4.37311 -5.38296e-05 -0.661004)
(4.37314 -5.57199e-05 -0.661059)
(4.37314 2.1013e-05 -0.66108)
(4.37315 3.08013e-05 -0.661119)
(4.37318 0.000127477 -0.661119)
(4.3732 9.04091e-05 -0.660954)
(7.44617 -7.11966e-05 -0.466674)
(7.44629 -8.30931e-05 -0.466692)
(7.4463 1.03082e-05 -0.466732)
(7.44625 1.49473e-05 -0.466753)
(7.44629 0.000137423 -0.466729)
(7.44632 0.000106936 -0.466625)
(11.5755 -9.32676e-05 0.256135)
(11.5754 -8.23481e-05 0.256146)
(11.5754 -1.4398e-05 0.256119)
(11.5754 -7.14299e-05 0.256122)
(11.5755 0.000110377 0.256151)
(11.5756 0.000111462 0.256173)
(9.55765 -2.62135e-05 0.815483)
(9.5576 -1.95733e-05 0.815523)
(9.55785 -1.02898e-05 0.81552)
(9.55752 -7.55552e-05 0.815502)
(9.55745 -3.72811e-05 0.81552)
(9.55773 -1.70499e-05 0.815536)
(4.77294 -2.6334e-05 0.980263)
(4.77339 -2.71957e-05 0.980253)
(4.77326 1.84048e-05 0.980252)
(4.77315 -1.74867e-05 0.98025)
(4.77331 -5.99252e-05 0.980243)
(4.77298 -4.43548e-05 0.980242)
(0.771315 9.57852e-05 1.60368)
(0.771667 5.04135e-05 1.60369)
(0.771549 -4.99799e-05 1.60369)
(0.771589 2.52274e-05 1.60368)
(0.771738 -8.28938e-05 1.60369)
(0.771387 -0.000112058 1.60365)
(-0.568477 5.92661e-05 1.61769)
(-0.568378 2.49355e-05 1.61773)
(-0.568379 -3.74998e-05 1.61772)
(-0.568366 3.47945e-06 1.61772)
(-0.568321 -4.14738e-05 1.61773)
(-0.5685 -5.69298e-05 1.61768)
(-1.49466 8.30677e-05 1.1732)
(-1.49468 4.61153e-05 1.17323)
(-1.49461 -1.88851e-05 1.17324)
(-1.49459 4.25025e-05 1.17326)
(-1.49458 -2.27354e-05 1.17329)
(-1.4947 -4.25272e-05 1.17319)
(-1.77075 0.000221405 0.108889)
(-1.77089 0.000129085 0.109243)
(-1.77076 -5.19083e-05 0.109157)
(-1.77076 6.19823e-05 0.109161)
(-1.77078 -4.57978e-05 0.109249)
(-1.7708 -6.26948e-05 0.108956)
(-1.50329 0.000417147 -1.49842)
(-1.5031 0.000239539 -1.49788)
(-1.50305 -0.000160701 -1.49799)
(-1.50314 7.49903e-05 -1.49803)
(-1.50317 -9.18522e-05 -1.49793)
(-1.50315 -0.00015196 -1.4983)
(-1.09961 -0.000145722 -2.1254)
(-1.09926 -0.000100224 -2.12533)
(-1.09928 4.16885e-05 -2.12535)
(-1.09943 -1.021e-05 -2.12536)
(-1.09955 1.94903e-05 -2.12533)
(-1.09933 2.35544e-05 -2.12546)
(-0.501935 -2.12548e-05 -3.98924)
(-0.501834 -7.63255e-06 -3.98973)
(-0.501873 2.03569e-05 -3.98967)
(-0.501846 3.37842e-05 -3.98966)
(-0.501795 1.89527e-05 -3.98974)
(-0.501938 2.67862e-05 -3.98925)
(-1.45692 -3.18569e-05 -4.48341)
(-1.45669 -1.49892e-05 -4.48381)
(-1.45674 2.93178e-06 -4.48377)
(-1.45672 -2.93285e-06 -4.48375)
(-1.45665 2.18543e-05 -4.4838)
(-1.45685 4.60571e-05 -4.48335)
(-1.13953 -0.000113356 -5.59045)
(-1.13927 -9.51698e-05 -5.59081)
(-1.13932 -1.96057e-05 -5.59078)
(-1.13935 -4.88052e-05 -5.59079)
(-1.1393 3.52784e-05 -5.59084)
(-1.13944 8.16311e-05 -5.59039)
(-1.69911 -0.000164577 -4.8899)
(-1.6993 -0.000144784 -4.89044)
(-1.69925 -4.21265e-05 -4.89042)
(-1.69927 -0.000106489 -4.89042)
(-1.69931 -8.85002e-06 -4.89049)
(-1.69905 3.47905e-05 -4.88996)
(5.89709 0.000139718 4.18715)
(5.8971 4.23516e-05 4.18699)
(5.89708 -9.37615e-05 4.18706)
(5.89705 -7.16404e-05 4.18712)
(5.89716 -0.000133835 4.18711)
(5.89705 -0.000170317 4.18717)
(6.88312 0.000640454 8.01605)
(6.88526 0.000331754 8.01453)
(6.88431 -0.000266437 8.01534)
(6.88418 0.000139487 8.01527)
(6.88497 -0.000210926 8.01468)
(6.88375 -0.000396627 8.0153)
(-3.41898 0.000523484 6.74894)
(-3.41286 0.000237195 6.75186)
(-3.41592 -0.000301216 6.75029)
(-3.41615 -1.84719e-05 6.75021)
(-3.41419 -0.000312038 6.75137)
(-3.41693 -0.000338 6.74913)
(-2.29213 0.000237661 2.7232)
(-2.29059 0.00010789 2.72411)
(-2.29136 -8.75345e-05 2.72369)
(-2.29141 5.97991e-05 2.72369)
(-2.29097 -0.000125811 2.72395)
(-2.29171 -0.000169945 2.72339)
(-1.59455 0.000605352 1.32837)
(-1.59309 0.000307473 1.32895)
(-1.59374 -0.000249565 1.32864)
(-1.59382 0.000175543 1.32873)
(-1.59344 -0.000144376 1.32891)
(-1.59412 -0.000295184 1.32847)
(-1.31029 0.000766151 -0.319043)
(-1.30838 0.000394709 -0.317888)
(-1.30917 -0.000340142 -0.31841)
(-1.30939 0.0001949 -0.318384)
(-1.30894 -0.000147227 -0.318056)
(-1.30963 -0.000332687 -0.318763)
(-0.749357 2.47038e-05 -1.85146)
(-0.746024 1.31679e-05 -1.84921)
(-0.747353 -4.68933e-05 -1.85012)
(-0.747797 -8.45799e-05 -1.85036)
(-0.747039 9.45859e-05 -1.84969)
(-0.748207 0.000129454 -1.85088)
(-1.06481 -0.000712168 -2.54982)
(-1.06441 -0.000370108 -2.55016)
(-1.06448 0.000182051 -2.54998)
(-1.06459 -0.000374528 -2.55002)
(-1.06475 0.000393967 -2.55016)
(-1.06444 0.000592776 -2.54984)
(0.174481 1.71016e-05 -1.48949)
(0.174487 1.41074e-05 -1.49019)
(0.174497 6.42519e-06 -1.49006)
(0.174488 1.77956e-06 -1.49007)
(0.174482 2.91021e-06 -1.49022)
(0.174488 -6.082e-06 -1.4895)
(-0.00711784 2.46154e-06 -1.80484)
(-0.00709823 -4.34113e-06 -1.80543)
(-0.00708192 -2.36028e-06 -1.80533)
(-0.00709052 -9.77248e-06 -1.80534)
(-0.00709551 -2.71053e-07 -1.80547)
(-0.00710033 -1.05192e-05 -1.80482)
(0.283968 -6.02277e-05 -2.60019)
(0.284001 -4.94075e-05 -2.60053)
(0.284029 -1.17718e-06 -2.60049)
(0.284024 -2.65752e-05 -2.60051)
(0.284014 1.08285e-05 -2.60058)
(0.283984 1.3648e-05 -2.60023)
(-2.15711 -0.000140352 -4.40594)
(-2.15769 -9.26119e-05 -4.40638)
(-2.1575 3.39594e-06 -4.4064)
(-2.15749 -9.90715e-05 -4.40644)
(-2.15763 -3.13686e-05 -4.40654)
(-2.15734 5.0709e-06 -4.40628)
(-3.06118 7.09245e-05 -0.457337)
(-3.06196 -9.71706e-05 -0.458108)
(-3.06179 -0.000224276 -0.457938)
(-3.06179 -0.000177286 -0.457935)
(-3.06197 -0.000165634 -0.458111)
(-3.06162 -0.00014611 -0.458035)
(3.31772 0.000948773 11.13)
(3.31913 0.000341493 11.1294)
(3.31835 -0.000632729 11.1296)
(3.31825 0.000103697 11.1296)
(3.31899 -0.000280763 11.1295)
(3.31776 -0.000556021 11.1289)
(-3.4829 -0.000120686 9.76379)
(-3.47516 -0.000200858 9.7695)
(-3.47933 -3.87258e-05 9.76683)
(-3.48013 -0.000118971 9.76639)
(-3.47738 0.000116128 9.76812)
(-3.48118 0.000235718 9.76518)
(-7.47235 -0.00101885 -0.300334)
(-7.4717 -0.000826994 -0.295224)
(-7.47206 0.000626571 -0.297647)
(-7.47265 0.000162536 -0.297806)
(-7.47234 -0.000107882 -0.295999)
(-7.47246 0.000165075 -0.299007)
(-4.9789 -0.00128508 -0.889975)
(-4.97521 -0.000937416 -0.88486)
(-4.97686 0.000841413 -0.887247)
(-4.97757 0.000115228 -0.887574)
(-4.97627 0.000160096 -0.885823)
(-4.97806 0.000520897 -0.888755)
(-3.0231 -0.00193763 -1.4521)
(-3.0162 -0.00121397 -1.44667)
(-3.01934 0.0010566 -1.44913)
(-3.02004 -0.000278972 -1.44959)
(-3.0177 0.000470037 -1.44774)
(-3.02162 0.00104919 -1.45077)
(-2.15302 -0.00244975 -2.59244)
(-2.14509 -0.00138558 -2.58851)
(-2.14878 0.00103311 -2.59016)
(-2.14901 -0.000881563 -2.59085)
(-2.14622 0.00100844 -2.58992)
(-2.15162 0.00181222 -2.59089)
(-2.04749 -0.00118717 -2.77753)
(-2.04671 -0.000559594 -2.77845)
(-2.04718 0.000241812 -2.77783)
(-2.04672 -0.000867506 -2.77852)
(-2.04617 0.000915073 -2.77975)
(-2.04787 0.0013537 -2.77647)
(0.353167 -3.67767e-05 0.361811)
(0.353201 -0.000101358 0.361825)
(0.353242 -0.000131662 0.361833)
(0.353272 -0.000115012 0.361845)
(0.353308 -5.71325e-05 0.361854)
(0.353267 -8.4121e-06 0.361843)
(1.10637 -8.84027e-05 0.408494)
(1.10647 -0.000217611 0.408532)
(1.10675 -0.000276234 0.408506)
(1.10693 -0.000234593 0.4086)
(1.10724 -7.41776e-05 0.408612)
(1.10682 2.35872e-05 0.408504)
(2.0623 -0.000197274 0.53812)
(2.06228 -0.000764593 0.538009)
(2.06329 -0.00110002 0.53838)
(2.06406 -0.00122562 0.538204)
(2.06547 0.000272719 0.538378)
(2.06283 0.000969235 0.53877)
(3.14954 0.000563641 0.963641)
(3.14873 -0.00237483 0.96202)
(3.15112 -0.00386276 0.965759)
(3.15016 -0.00601751 0.961285)
(3.15616 0.0030381 0.963614)
(3.14594 0.00794161 0.96804)
(5.02438 0.00389753 1.90523)
(5.01234 -0.00409366 1.90623)
(5.02985 -0.00788122 1.90514)
(5.03303 -0.0170579 1.90787)
(5.08847 0.0101927 1.91494)
(5.00556 0.027211 1.89806)
(10.8863 0.0103985 2.0411)
(10.8455 -0.00673012 2.07031)
(10.8579 -0.0302991 2.01246)
(10.9312 -0.0528981 2.12427)
(11.1033 0.0162438 2.12889)
(10.7538 0.0556558 1.94028)
(16.7877 0.0214603 -1.35285)
(16.7642 0.000793719 -1.28736)
(16.6743 -0.0343236 -1.44582)
(16.9153 -0.0479464 -1.06814)
(17.1516 -0.00652017 -1.0209)
(16.4249 0.0196267 -1.61894)
(14.2516 0.0193607 -6.01572)
(14.254 0.00585827 -5.99711)
(14.179 0.0175386 -6.0936)
(14.3638 0.0582519 -5.87317)
(14.5579 -0.0647568 -5.91117)
(13.9699 -0.0895407 -6.11064)
(8.7632 0.0105082 -8.67685)
(8.76608 -0.00289399 -8.68491)
(8.80221 0.0582666 -8.72719)
(8.69698 0.146597 -8.64507)
(8.72838 -0.128616 -8.76071)
(8.75505 -0.163937 -8.63253)
(4.62923 -0.00887182 -8.42492)
(4.67101 -0.00566271 -8.45682)
(4.7816 0.0925812 -8.51581)
(4.40835 0.189326 -8.32274)
(4.17536 -0.171131 -8.35012)
(4.904 -0.193494 -8.48763)
(-9.08982 -0.00331682 -2.2966)
(-8.99393 0.0154756 -2.35986)
(-8.75538 0.0413338 -2.46434)
(-9.52424 0.111565 -1.94501)
(-10.0834 -0.109451 -1.67211)
(-8.29011 -0.0854442 -2.71741)
(-7.88988 -0.00419428 3.49467)
(-7.8097 0.0127766 3.46873)
(-7.65049 -0.0481249 3.41988)
(-8.05375 -0.092742 3.64561)
(-8.33394 0.0459034 3.7829)
(-7.36803 0.112819 3.24506)
(0.353872 -2.88049e-05 1.07314)
(0.353906 -8.26225e-05 1.07319)
(0.353941 -0.000102914 1.07321)
(0.353963 -8.84521e-05 1.07323)
(0.353991 -3.57806e-05 1.07325)
(0.353939 -3.44417e-07 1.07322)
(1.09923 -7.03323e-05 1.21934)
(1.09933 -0.000181454 1.21943)
(1.09955 -0.00020899 1.21946)
(1.09961 -0.000167866 1.21951)
(1.09983 -2.41929e-05 1.21949)
(1.09947 5.01549e-05 1.2195)
(2.01025 -0.000146328 1.58827)
(2.0104 -0.000634952 1.58823)
(2.01125 -0.000626715 1.5887)
(2.01161 -0.000652127 1.58874)
(2.01271 0.000150598 1.58912)
(2.01045 0.000652592 1.58898)
(2.99642 0.000163681 2.55932)
(2.99716 -0.00224004 2.55702)
(2.99863 -0.00331596 2.55927)
(2.99836 -0.00481549 2.56219)
(3.00162 0.00312747 2.56944)
(2.99272 0.00683256 2.55889)
(3.73191 0.000234529 4.52583)
(3.73205 -0.00376135 4.52428)
(3.73261 -0.00871422 4.52212)
(3.74663 -0.0149417 4.53812)
(3.77386 0.0177228 4.55728)
(3.70386 0.0279427 4.51111)
(6.20519 -0.004429 6.18985)
(6.20072 -0.00172922 6.22333)
(6.1789 -0.0165427 6.21157)
(6.30136 -0.0303822 6.19793)
(6.39123 0.0473216 6.15216)
(6.09353 0.0614269 6.17897)
(10.1127 -0.00630871 4.71516)
(10.1282 0.00543813 4.79881)
(10.0431 -0.0375355 4.82409)
(10.2658 -0.0641531 4.65749)
(10.282 0.068816 4.46993)
(9.9176 0.0909235 4.79926)
(8.8028 9.16891e-05 -2.35156)
(8.82801 0.0164907 -2.26929)
(8.78391 -0.0142897 -2.14149)
(8.84941 -0.0370743 -2.47881)
(8.74848 0.0335937 -2.66855)
(8.78491 0.046606 -2.05898)
(9.67718 6.43527e-06 -9.89227)
(9.65816 0.00583768 -9.89461)
(9.63012 -0.0108883 -9.87667)
(9.72408 -0.0395211 -9.92804)
(9.73949 0.0321309 -9.93343)
(9.5989 0.0498233 -9.86332)
(10.0095 -0.00392929 -9.80022)
(10.0055 -0.00096462 -9.81927)
(10.0006 -0.00708527 -9.8419)
(10.0224 -0.0373225 -9.7495)
(10.0198 0.0295732 -9.67427)
(9.95906 0.0450706 -9.87419)
(5.17427 -0.0037628 -3.58457)
(5.18146 -0.00661915 -3.60987)
(5.16264 -0.0505932 -3.63668)
(5.17399 -0.101146 -3.42781)
(5.23673 0.0533341 -3.30499)
(5.12288 0.0989417 -3.69585)
(-4.25092 -0.010613 7.22085)
(-4.2155 -0.0255444 7.2069)
(-4.16024 -0.0545323 7.18433)
(-4.3744 -0.0892566 7.33552)
(-4.49037 -0.121927 7.46768)
(-3.9489 -0.0632776 7.18987)
(0.251448 -1.18672e-05 1.67337)
(0.251469 -3.70145e-05 1.67343)
(0.251481 -4.27066e-05 1.67346)
(0.251483 -3.52266e-05 1.67348)
(0.251493 -5.5206e-06 1.6735)
(0.251452 7.69029e-06 1.67345)
(0.749769 -2.57089e-05 1.87361)
(0.749824 -7.10996e-05 1.8737)
(0.74989 -7.1323e-05 1.87375)
(0.749866 -5.68077e-05 1.8738)
(0.749946 3.13408e-05 1.87382)
(0.749726 6.30166e-05 1.87375)
(1.2391 -3.74089e-05 2.33013)
(1.23917 -0.000188707 2.33025)
(1.23935 -0.000105935 2.33051)
(1.23936 -0.000135547 2.33054)
(1.23982 0.000190393 2.33076)
(1.23858 0.000370035 2.33049)
(1.5925 5.87993e-05 3.27445)
(1.59314 -0.000535085 3.2739)
(1.59287 -0.000527518 3.27511)
(1.59271 -0.00122215 3.27627)
(1.59327 0.00144516 3.27924)
(1.58975 0.00267592 3.27416)
(1.21023 -0.00054679 4.98856)
(1.21338 -0.000667018 4.98768)
(1.21086 -0.00111657 4.98734)
(1.20843 -0.00362137 4.996)
(1.20797 0.00787457 5.00622)
(1.20185 0.0104065 4.97937)
(0.185854 -0.00552501 6.45214)
(0.192038 0.00062758 6.46865)
(0.181732 0.0080395 6.4612)
(0.200817 0.00925224 6.46013)
(0.206382 0.0145895 6.44505)
(0.159806 0.008435 6.44002)
(0.204202 -0.0107131 4.88739)
(0.223834 0.00443136 4.95167)
(0.205914 0.0248678 4.96937)
(0.241604 0.0391779 4.8443)
(0.199986 0.00357592 4.72287)
(0.184173 -0.0196424 4.96789)
(0.558168 -0.00348557 -1.43883)
(0.563657 -0.00177128 -1.37091)
(0.55079 0.0295124 -1.31683)
(0.599751 0.0732111 -1.55253)
(0.588549 -0.0457745 -1.70611)
(0.525194 -0.0820773 -1.2025)
(5.51938 -0.000643768 -8.73839)
(5.5231 -0.00146205 -8.74131)
(5.50804 -0.00908067 -8.72057)
(5.54501 -0.0160498 -8.76705)
(5.57764 -0.00786265 -8.80498)
(5.47626 0.0111731 -8.6589)
(9.37925 -0.00233012 -9.9548)
(9.38761 -0.000916093 -9.96579)
(9.38006 -0.00756998 -9.95738)
(9.39869 -0.0286046 -9.94809)
(9.42118 0.0128971 -9.95327)
(9.33776 0.038975 -9.92133)
(8.23264 -0.00359462 -6.60472)
(8.24779 -0.000814335 -6.61745)
(8.25065 -0.013945 -6.62442)
(8.18994 -0.0441978 -6.54428)
(8.14828 0.0346684 -6.47779)
(8.20336 0.059892 -6.60981)
(1.16879 0.00466896 3.6601)
(1.16079 0.0189485 3.69542)
(1.19033 0.0023204 3.39127)
(1.10228 0.0182144 3.86147)
(1.04649 0.149489 4.1761)
(1.31688 0.0942805 2.64193)
(0.155138 -3.85876e-07 2.06189)
(0.155149 -5.3101e-06 2.06196)
(0.155147 -1.70829e-06 2.06198)
(0.15514 2.1355e-06 2.06199)
(0.155135 9.94043e-06 2.062)
(0.155112 7.32825e-06 2.06193)
(0.435931 -5.56771e-07 2.23889)
(0.43596 7.54767e-07 2.23898)
(0.435951 1.80705e-05 2.239)
(0.435908 2.56918e-05 2.23901)
(0.435897 4.45976e-05 2.23903)
(0.435798 3.54769e-05 2.23893)
(0.61619 1.57805e-05 2.60848)
(0.616222 3.7673e-05 2.6086)
(0.616178 0.000113998 2.60866)
(0.616026 0.000113069 2.60865)
(0.616037 0.000171158 2.60873)
(0.615687 0.000149969 2.60846)
(0.559306 7.38072e-05 3.21622)
(0.559456 0.000168987 3.21634)
(0.559063 0.000464428 3.21654)
(0.558622 0.000346751 3.21651)
(0.55849 0.000561363 3.2171)
(0.557594 0.000580035 3.2157)
(-0.0816572 -3.0978e-05 4.07164)
(-0.080309 0.000662259 4.07203)
(-0.0820341 0.00175 4.07176)
(-0.0846853 0.00122844 4.07258)
(-0.0875532 0.00192633 4.07448)
(-0.084632 0.00172721 4.06842)
(-1.63229 -0.00185681 4.74014)
(-1.62814 0.00167219 4.7445)
(-1.63145 0.00797968 4.74049)
(-1.63887 0.0097099 4.73986)
(-1.64822 0.00227285 4.73695)
(-1.63272 -0.00293722 4.73165)
(-3.23058 -0.005825 3.4914)
(-3.22314 0.0018155 3.51003)
(-3.22664 0.020588 3.50569)
(-3.23723 0.0316456 3.48127)
(-3.25638 -0.0064788 3.45448)
(-3.22191 -0.0244134 3.50183)
(-3.02899 -0.00879277 0.622771)
(-3.03289 -0.00480168 0.641879)
(-3.04287 0.0262217 0.644982)
(-3.01198 0.0441102 0.606641)
(-3.01221 -0.0345704 0.578947)
(-3.04787 -0.0568908 0.66146)
(-1.25081 -0.00608706 -3.96968)
(-1.23579 -0.000278132 -3.96134)
(-1.24788 0.00410992 -3.93653)
(-1.2405 0.0153826 -4.01302)
(-1.26463 -0.0135848 -4.05559)
(-1.23197 -0.0240739 -3.90661)
(6.22642 -0.00351739 -7.5209)
(6.2565 -0.00251117 -7.52838)
(6.23293 -0.00441933 -7.5097)
(6.2513 -0.00704793 -7.54789)
(6.27048 -0.00754333 -7.58826)
(6.20979 0.00630804 -7.51532)
(8.18271 -0.00250696 -7.28726)
(8.19985 -0.00158679 -7.29078)
(8.16046 -0.00814826 -7.26734)
(8.22342 -0.0262313 -7.31753)
(8.2846 0.0144327 -7.36917)
(8.08189 0.0349262 -7.25564)
(4.9707 -0.00346959 -3.71256)
(4.97584 -0.000335398 -3.71293)
(4.93424 -0.0081312 -3.6927)
(5.01549 -0.0310561 -3.7373)
(5.10953 0.0316632 -3.78727)
(4.86133 0.0478787 -3.6821)
(-0.0542201 5.23211e-05 -2.83582)
(-0.0542654 4.48766e-05 -2.83624)
(-0.05426 -7.42641e-06 -2.83616)
(-0.0542619 1.70998e-05 -2.83616)
(-0.0542689 -4.30294e-05 -2.83623)
(-0.0542267 -5.77071e-05 -2.83582)
(-0.109236 3.47268e-05 -1.97563)
(-0.109238 2.80842e-05 -1.97589)
(-0.109238 -6.8621e-06 -1.97584)
(-0.109239 4.93948e-06 -1.97584)
(-0.109238 -3.67757e-05 -1.97589)
(-0.109239 -4.4649e-05 -1.97562)
(-0.0251796 2.03349e-05 -1.99861)
(-0.0251787 1.90417e-05 -1.99877)
(-0.0251793 -9.09667e-07 -1.99875)
(-0.0251797 1.37975e-06 -1.99875)
(-0.0251793 -1.91262e-05 -1.99878)
(-0.0251812 -2.04284e-05 -1.99864)
(-0.334597 2.0491e-05 -2.99279)
(-0.334715 1.69277e-05 -2.99314)
(-0.334697 -1.43594e-05 -2.99309)
(-0.3347 2.6056e-06 -2.99308)
(-0.334719 -3.49134e-05 -2.99315)
(-0.334602 -4.11537e-05 -2.99276)
(-0.408521 2.5219e-05 -1.93796)
(-0.408514 1.736e-05 -1.9382)
(-0.408512 -1.37316e-05 -1.93816)
(-0.40851 -7.18342e-07 -1.93816)
(-0.408505 -3.62629e-05 -1.93821)
(-0.40851 -4.08874e-05 -1.93797)
(-0.0847011 1.85617e-05 -1.86014)
(-0.0846985 1.59988e-05 -1.8603)
(-0.0846995 -2.56314e-06 -1.86029)
(-0.0847003 6.99323e-07 -1.86029)
(-0.0846995 -1.91565e-05 -1.86032)
(-0.0847038 -2.12126e-05 -1.86018)
(-0.509947 -4.23571e-05 -2.78911)
(-0.510194 -2.18501e-05 -2.78942)
(-0.510131 -1.02114e-07 -2.78938)
(-0.510134 -1.56514e-05 -2.78937)
(-0.510182 -1.80953e-05 -2.78943)
(-0.509956 -1.61731e-05 -2.78908)
(-0.896206 1.14362e-05 -1.77302)
(-0.896191 9.10669e-06 -1.7732)
(-0.896182 -1.39136e-05 -1.77318)
(-0.896181 -8.86257e-06 -1.77318)
(-0.896181 -3.4241e-05 -1.77323)
(-0.896188 -3.30972e-05 -1.77301)
(-0.1807 1.48522e-05 -1.43767)
(-0.180691 1.11874e-05 -1.43781)
(-0.180691 -4.2067e-06 -1.43781)
(-0.180692 -2.53476e-06 -1.43782)
(-0.180689 -2.00921e-05 -1.43785)
(-0.180701 -2.13831e-05 -1.43771)
(-2.22287 -0.000107149 -2.94342)
(-2.22357 -4.78745e-05 -2.9438)
(-2.22334 3.86827e-05 -2.94378)
(-2.22333 -4.15005e-05 -2.94379)
(-2.22348 3.69689e-06 -2.94385)
(-2.22321 1.96448e-05 -2.94359)
(-1.97206 -4.3035e-05 -1.73944)
(-1.9721 -1.4451e-05 -1.7396)
(-1.97207 1.16995e-05 -1.7396)
(-1.97207 -1.88829e-05 -1.73958)
(-1.97209 -1.14708e-05 -1.73961)
(-1.9721 -1.07298e-06 -1.73939)
(-0.434839 6.43036e-06 -0.619278)
(-0.434804 7.41991e-07 -0.619382)
(-0.434805 -9.39628e-06 -0.619389)
(-0.434806 -1.12869e-05 -0.61939)
(-0.434799 -2.20526e-05 -0.619408)
(-0.434848 -2.01512e-05 -0.619267)
(-4.46089 0.000106679 0.386746)
(-4.46218 -5.372e-05 0.385828)
(-4.46173 -0.00013444 0.385905)
(-4.4618 -6.91307e-05 0.385815)
(-4.46211 -7.92487e-05 0.38564)
(-4.46167 -6.46898e-05 0.3859)
(-3.73249 5.64381e-05 -0.0884865)
(-3.73315 3.29629e-05 -0.088917)
(-3.73288 3.42789e-05 -0.0888629)
(-3.73291 5.7659e-05 -0.0888529)
(-3.73303 3.32441e-05 -0.0889376)
(-3.73286 2.38681e-05 -0.0886381)
(-1.27966 3.21359e-06 1.21585)
(-1.27966 5.10365e-06 1.21584)
(-1.27964 1.86426e-06 1.21582)
(-1.27964 -3.88797e-06 1.21584)
(-1.27964 -1.54441e-05 1.21586)
(-1.27971 -1.6484e-05 1.21597)
(-0.640188 0.000727043 9.58126)
(-0.64097 0.000111317 9.58032)
(-0.640821 -0.00056915 9.58037)
(-0.640991 -2.43057e-05 9.58018)
(-0.64109 -0.000345319 9.58006)
(-0.641321 -0.000442219 9.57979)
(-2.59186 0.000468015 6.07646)
(-2.59318 0.000153066 6.07582)
(-2.59266 -0.000177012 6.07571)
(-2.59283 4.47783e-05 6.07555)
(-2.59309 -0.000163985 6.07539)
(-2.59274 -0.000166844 6.07584)
(-1.43182 9.47657e-05 3.51205)
(-1.43224 8.06553e-05 3.51196)
(-1.43207 5.80762e-05 3.51195)
(-1.43212 7.49495e-05 3.51197)
(-1.43216 2.61774e-05 3.51195)
(-1.43207 1.60775e-05 3.51223)
(-0.144752 -0.000595967 12.4777)
(-0.140517 -0.000618183 12.4814)
(-0.143239 4.63911e-05 12.4794)
(-0.143681 -0.000253107 12.479)
(-0.142291 0.000127437 12.4801)
(-0.145834 0.000366452 12.4785)
(2.19267 -0.000353664 12.5379)
(2.19433 -0.000336875 12.541)
(2.19326 0.000164341 12.5392)
(2.19293 -0.000138068 12.5388)
(2.19333 -0.000157061 12.5394)
(2.19145 1.83647e-05 12.539)
(1.20745 0.000178176 6.66518)
(1.20711 0.000101016 6.66661)
(1.20731 6.40235e-05 6.66594)
(1.20707 0.00011946 6.66578)
(1.20697 -9.54478e-05 6.66602)
(1.20695 -0.000123896 6.66618)
(-4.40469 -0.000300975 4.32635)
(-4.40825 -0.000327064 4.32274)
(-4.40731 -1.61066e-05 4.32289)
(-4.40716 -0.000166038 4.32507)
(-4.40777 -0.000738634 4.32579)
(-4.40822 -0.000596561 4.32294)
(2.39683 -0.000112808 9.23492)
(2.39495 0.000110632 9.23683)
(2.39524 -1.16543e-05 9.23535)
(2.39543 -0.000378423 9.23581)
(2.39486 -0.0001255 9.23669)
(2.39404 -4.51e-05 9.23455)
(4.35441 -0.000391389 6.21865)
(4.3561 4.69696e-05 6.22265)
(4.35514 0.000213769 6.22103)
(4.35506 -0.000274421 6.22091)
(4.35527 0.000127965 6.22162)
(4.35422 0.000125356 6.22128)
(-6.32369 0.000635407 -4.53794)
(-6.32158 0.000174912 -4.55459)
(-6.32375 -0.00039885 -4.54846)
(-6.32225 0.000130823 -4.54513)
(-6.31939 -0.000939 -4.55005)
(-6.32862 -0.00115895 -4.54319)
(0.572598 0.00313169 2.11721)
(0.568542 0.00197246 2.1187)
(0.570222 -0.00164995 2.11748)
(0.570155 5.84549e-05 2.11765)
(0.56998 -0.00121641 2.11834)
(0.566429 -0.00182651 2.1142)
(4.09388 0.00048461 1.51103)
(4.09095 0.000504973 1.5172)
(4.0922 -0.000157768 1.51484)
(4.09228 7.96568e-05 1.51442)
(4.09122 -9.89715e-05 1.51527)
(4.09101 -0.000384239 1.51301)
(-7.38711 -0.000402144 -4.22935)
(-7.38407 -0.000707443 -4.24638)
(-7.38636 0.000234336 -4.23936)
(-7.38526 -5.02013e-05 -4.23724)
(-7.38304 0.000402791 -4.24291)
(-7.38932 0.000810708 -4.233)
(-1.18491 0.00278349 -3.19185)
(-1.18007 0.000871167 -3.19898)
(-1.18237 -0.00114606 -3.19757)
(-1.18324 0.000656079 -3.19565)
(-1.18174 -0.00041042 -3.19601)
(-1.187 -0.000355931 -3.1976)
(3.43494 0.000989813 -2.30385)
(3.43385 0.000446467 -2.30124)
(3.43361 -0.000549215 -2.30297)
(3.43411 -0.000669177 -2.30358)
(3.43399 0.000830959 -2.30356)
(3.43097 0.00147678 -2.30527)
(-5.2189 1.46272e-05 -4.45295)
(-5.21911 -3.09201e-05 -4.46145)
(-5.21943 0.00041052 -4.4575)
(-5.21864 0.000469471 -4.45802)
(-5.21909 0.00029894 -4.46222)
(-5.21931 0.000126115 -4.45274)
(-1.96218 0.000939574 -5.70857)
(-1.96214 0.000180159 -5.71088)
(-1.96338 0.000629702 -5.70999)
(-1.96284 0.00212539 -5.70895)
(-1.9633 -0.000900245 -5.71127)
(-1.96367 -0.0017454 -5.70799)
(2.12022 0.000615399 -3.21561)
(2.11469 2.6368e-05 -3.21605)
(2.11658 -0.000390539 -3.21593)
(2.1155 -0.000641881 -3.21722)
(2.10947 0.0012486 -3.22018)
(2.12258 0.00208509 -3.21251)
(-3.62151 -0.000276235 -2.87263)
(-3.62109 -0.000101418 -2.87359)
(-3.62158 -4.39316e-06 -2.87305)
(-3.62065 0.00018542 -2.87338)
(-3.61976 0.00014248 -2.87503)
(-3.6225 -0.000312919 -2.87138)
(-2.28167 9.10192e-05 -7.34922)
(-2.27955 -0.000366735 -7.35151)
(-2.2832 0.00102048 -7.35095)
(-2.27558 0.00353855 -7.34914)
(-2.26805 -0.00253206 -7.35172)
(-2.29181 -0.00477023 -7.34963)
(0.534892 0.000481612 -3.61329)
(0.532586 0.000343651 -3.61851)
(0.53386 -0.000427418 -3.61614)
(0.532122 1.82442e-05 -3.61728)
(0.528105 5.72601e-05 -3.62327)
(0.538153 -0.000245984 -3.60987)
(3.5505 -0.00121101 -1.16151)
(3.54516 -0.00143112 -1.16111)
(3.54328 -0.000481239 -1.15977)
(3.55434 -0.00416477 -1.16298)
(3.55988 0.00310483 -1.16414)
(3.53269 0.00568789 -1.15566)
(3.58452 -0.00091434 -2.25152)
(3.55037 -0.00474796 -2.28174)
(3.55759 0.00615939 -2.27408)
(3.59796 -0.00522317 -2.25887)
(3.6202 0.016547 -2.26161)
(3.54674 0.0289078 -2.28574)
(1.19806 -0.00488087 -2.93236)
(1.17817 -0.00524649 -2.96718)
(1.18081 0.0136297 -2.96367)
(1.20966 0.0237616 -2.94285)
(1.22311 -0.0206427 -2.97866)
(1.17135 -0.0295333 -2.96512)
(2.46659 -0.000203745 -0.961834)
(2.46777 -0.00038622 -0.962757)
(2.46786 -0.000484917 -0.962652)
(2.46525 -0.00174727 -0.961079)
(2.46272 0.00182382 -0.958932)
(2.47084 0.00321725 -0.963674)
(2.71179 -0.00436544 -1.08827)
(2.7181 -0.00410388 -1.08272)
(2.72413 0.00302002 -1.07786)
(2.71554 -0.00696527 -1.10485)
(2.71636 0.00997758 -1.12554)
(2.73418 0.0197282 -1.05381)
(-0.221001 -0.00137795 -1.96341)
(-0.217706 -0.000542365 -1.95531)
(-0.216604 0.00610471 -1.94888)
(-0.214399 0.00935069 -1.97707)
(-0.207761 -0.00523939 -1.99528)
(-0.211691 -0.00990005 -1.92512)
(1.917 -5e-05 -0.446134)
(1.91678 -0.000311187 -0.447093)
(1.91676 -0.000493365 -0.447165)
(1.9165 -0.00102747 -0.445044)
(1.91576 0.000934664 -0.442354)
(1.91684 0.00178897 -0.448929)
(3.06198 -0.00379108 -1.58078)
(3.05877 -0.00275995 -1.58156)
(3.06114 -0.00559824 -1.58036)
(3.06504 -0.0236667 -1.58583)
(3.06971 0.0225867 -1.59235)
(3.0566 0.0407518 -1.57617)
(0.0989916 -0.000499406 -1.49391)
(0.0942082 0.000803041 -1.50283)
(0.0958549 0.000283659 -1.49147)
(0.104139 -0.000228917 -1.53594)
(0.106117 0.00379556 -1.59022)
(0.0942468 0.00306518 -1.45139)
(1.2326 -6.74937e-05 0.0493045)
(1.23267 -4.10596e-05 0.0484211)
(1.23255 -0.000520669 0.0480353)
(1.23224 -0.000785431 0.0506089)
(1.23242 0.000614862 0.0541006)
(1.23176 0.00104829 0.0447452)
(1.5081 -0.00527944 -2.79318)
(1.51538 -0.0031665 -2.78946)
(1.50704 -0.00456802 -2.7896)
(1.52454 -0.026432 -2.78802)
(1.54637 0.0247501 -2.78388)
(1.48153 0.0476894 -2.79597)
(-0.131897 -0.00213388 -4.36703)
(-0.131726 -0.000871664 -4.38253)
(-0.130335 -0.00053781 -4.34893)
(-0.133198 -0.00549483 -4.43035)
(-0.135385 0.00641865 -4.52323)
(-0.126862 0.0102687 -4.25889)
(0.383341 -0.000406145 0.370666)
(0.383399 6.28562e-05 0.369601)
(0.38321 -0.000754706 0.369669)
(0.383521 -0.00180506 0.370747)
(0.384515 0.00193741 0.372283)
(0.382302 0.00259478 0.368246)
(-0.63365 -0.00542665 -3.47495)
(-0.633683 -0.00348304 -3.47862)
(-0.637044 -0.00412005 -3.46893)
(-0.630814 -0.0288186 -3.4882)
(-0.627682 0.0221193 -3.51702)
(-0.644087 0.0543766 -3.43897)
(-0.471607 -0.000602809 -4.73303)
(-0.472254 -0.000329795 -4.74734)
(-0.471924 -0.000413671 -4.72453)
(-0.472948 -0.000751452 -4.76805)
(-0.473456 0.000344909 -4.83619)
(-0.470272 -0.000121496 -4.66039)
(-0.657091 -0.000560928 0.424272)
(-0.656957 -0.000134306 0.423116)
(-0.656867 -0.000404855 0.423722)
(-0.657261 -0.0011209 0.423478)
(-0.657083 0.00118152 0.421665)
(-0.65691 0.0014542 0.425587)
(-1.91934 -0.00169028 -7.25863)
(-1.91641 -0.00216799 -7.25982)
(-1.92467 0.000899167 -7.2569)
(-1.90899 -0.00522725 -7.26304)
(-1.89054 0.00304573 -7.26948)
(-1.94167 0.0112476 -7.24956)
(-0.349498 -0.000426027 -3.66439)
(-0.350172 -0.000252159 -3.67154)
(-0.349528 -0.000135611 -3.66447)
(-0.351648 -0.00117003 -3.6772)
(-0.355663 0.001145 -3.69571)
(-0.346709 0.00196418 -3.64296)
(0.0864152 3.49683e-06 2.28281)
(0.0864225 5.36946e-06 2.2829)
(0.0864185 9.59533e-06 2.2829)
(0.086412 1.1377e-05 2.2829)
(0.0864069 1.11672e-05 2.2829)
(0.0863943 4.76702e-06 2.28282)
(0.046514 3.3355e-06 2.39198)
(0.0465192 4.92211e-06 2.39207)
(0.0465165 6.46928e-06 2.39207)
(0.0465134 6.96873e-06 2.39207)
(0.0465105 5.89464e-06 2.39206)
(0.0465033 1.79878e-06 2.39197)
(0.0165331 -3.26371e-07 2.45721)
(0.0165353 -1.45205e-06 2.45731)
(0.0165342 -1.47296e-06 2.4573)
(0.016533 -1.62142e-06 2.45729)
(0.0165316 -9.83352e-07 2.45729)
(0.0165284 -7.00313e-07 2.45719)
(0.22981 4.90087e-06 2.39815)
(0.229828 1.66704e-05 2.39824)
(0.229812 3.15696e-05 2.39824)
(0.229786 3.48579e-05 2.39823)
(0.22977 3.09362e-05 2.39823)
(0.229726 1.5779e-05 2.39813)
(0.120673 2.78992e-06 2.45976)
(0.120686 1.1065e-05 2.45985)
(0.120675 1.86737e-05 2.45985)
(0.120664 1.94075e-05 2.45984)