/*--------------------------------*- C++ -*----------------------------------*\
| =========                 |                                                 |
| \\      /  F ield         | OpenFOAM: The Open Source CFD Toolbox           |
|  \\    /   O peration     | Version:  v1612+                                |
|   \\  /    A nd           | Web:      www.OpenFOAM.com                      |
|    \\/     M anipulation  |                                                 |
\*---------------------------------------------------------------------------*/
FoamFile
{
    version     2.0;
    format      ascii;
    class       volScalarField;
    location    "9.4";
    object      p;
}
// * * * * * * * * * * * * * * * * * * * * * * * * * * * * * * * * * * * * * //

dimensions      [1 -1 -2 0 0 0 0];

internalField   nonuniform List<scalar> 
320
(
14724.8
14724.8
14724.8
14724.8
5.00734
5.00736
5.00946
5.009
5.00791
5.00868
5.00705
5.00826
5.007
5.00654
5.00684
5.00684
4914.91
4914.9
4914.91
4914.89
4914.89
4914.92
4914.86
4914.91
4914.92
4914.91
4914.9
4914.91
14724.8
14724.8
14724.8
14724.8
14724.8
14724.8
14724.8
14724.8
14724.8
14724.8
14724.8
14724.8
24534.8
24534.8
24534.8
24534.8
24534.8
24534.8
24534.8
24534.8
24534.8
24534.8
24534.8
24534.8
24534.8
24534.8
24534.8
24534.8
5.00717
5.00629
4.99955
5.011
5.01006
5.00916
5.00928
5.00846
5.00806
5.00837
5.00697
5.00865
5.0077
5.00722
5.0071
5.00689
5.00674
5.00688
5.00658
5.0068
4914.91
4914.91
4914.85
4914.91
4914.87
4914.86
4914.85
4914.85
4914.87
4914.89
4914.87
4914.87
4914.9
4914.89
4914.9
4914.9
4914.9
4914.91
4914.91
4914.89
14724.8
14724.8
14724.8
14724.8
14724.8
14724.8
14724.8
14724.8
14724.8
14724.8
14724.8
14724.8
14724.8
14724.8
14724.8
14724.8
14724.8
14724.8
14724.8
14724.8
24534.8
24534.8
24534.8
24534.8
24534.8
24534.8
24534.8
24534.8
24534.8
24534.8
24534.8
24534.8
24534.8
24534.8
24534.8
24534.8
24534.8
24534.8
24534.8
24534.8
34344.8
34344.8
34344.8
34344.8
34344.8
34344.8
34344.8
34344.8
34344.8
34344.8
34344.8
34344.8
34344.8
34344.8
34344.8
34344.8
34344.8
34344.8
34344.8
34344.8
34344.8
34344.8
34344.8
34344.8
34344.8
34344.8
34344.8
34344.8
34344.8
34344.8
34344.8
34344.8
34344.8
34344.8
34344.8
34344.7
5.00664
5.00731
5.00814
4.99917
5.0133
5.01028
5.01134
5.01091
5.01137
5.01199
5.01089
5.00934
5.01025
5.01306
5.00801
5.00808
5.00733
5.00691
5.00689
5.00752
5.0078
5.00734
5.00722
5.0072
5.00693
5.00672
5.00662
5.00693
4914.91
4914.91
4914.93
4914.84
4914.86
4914.87
4914.92
4914.94
4914.94
4914.92
4914.85
4914.9
4914.9
4914.96
4914.92
4914.91
4914.9
4914.91
4914.93
4914.92
4914.92
4914.92
4914.93
4914.93
4914.93
4914.92
4914.9
4914.92
14724.8
14724.8
14724.8
14724.8
14724.8
14724.8
14724.8
14724.8
14724.8
14724.8
14724.8
14724.8
14724.8
14724.8
14724.8
14724.8
14724.8
14724.8
14724.8
14724.8
14724.8
14724.8
14724.8
14724.8
14724.8
14724.8
14724.8
14724.8
24534.8
24534.9
24534.8
24534.8
24534.8
24534.8
24534.8
24534.8
24534.8
24534.8
24534.8
24534.8
24534.8
24534.8
24534.8
24534.8
24534.8
24534.8
24534.8
24534.8
24534.8
24534.8
24534.8
24534.8
24534.8
24534.8
24534.8
24534.7
34344.8
34344.9
34344.8
34344.8
34344.8
34344.8
34344.8
34344.8
34344.8
34344.8
34344.8
34344.8
34344.8
34344.8
34344.8
34344.8
34344.8
34344.8
34344.8
34344.8
34344.8
34344.8
34344.8
34344.8
34344.8
34344.8
34344.8
34344.7
5.00744
5.00869
5.00735
5.00816
4914.91
4914.9
4914.91
4914.9
)
;

boundaryField
{
    top_fluid_surface
    {
        type            calculated;
        value           nonuniform List<scalar> 
64
(
-6.79021e-09
-1.52306e-09
-1.59727e-09
-9.64411e-12
-1.14022e-09
-9.20691e-09
0
-5.26498e-09
-2.46257e-08
-3.15911e-09
0
-2.97827e-10
-6.09062e-09
-2.29762e-09
0
-4.63941e-09
0
0
0
0
0
-2.36627e-10
0
0
-1.49281e-09
0
0
0
0
0
-2.07123e-09
0
-1.62909e-09
-7.57325e-09
-3.00024e-08
0
0
0
-4.93641e-08
-1.24713e-08
-4.33724e-09
-2.68474e-08
0
-2.52946e-09
-1.3175e-08
-1.73211e-10
-8.96866e-09
-5.87716e-09
-1.97118e-09
-4.44948e-09
-2.01552e-09
-1.44985e-08
-1.59326e-08
-9.16607e-09
-3.05201e-08
-1.55629e-08
-1.1241e-08
-1.89223e-09
-9.56084e-10
-6.24739e-08
-1.33169e-08
-1.36349e-09
-3.77437e-09
-1.14434e-08
)
;
    }
    bottom_fluid_surface
    {
        type            calculated;
        value           nonuniform List<scalar> 
64
(
39249.8
39249.8
39249.8
39249.8
39249.8
39249.8
39249.8
39249.8
39249.8
39249.8
39249.8
39249.8
39249.8
39249.8
39249.8
39249.8
39249.8
39249.8
39249.8
39249.8
39249.8
39249.8
39249.8
39249.8
39249.8
39249.8
39249.8
39249.8
39249.8
39249.8
39249.8
39249.8
39249.8
39249.8
39249.8
39249.7
39249.8
39249.9
39249.8
39249.8
39249.8
39249.8
39249.8
39249.8
39249.8
39249.8
39249.8
39249.8
39249.8
39249.8
39249.8
39249.8
39249.8
39249.8
39249.8
39249.8
39249.8
39249.8
39249.8
39249.8
39249.8
39249.8
39249.8
39249.7
)
;
    }
    lateral_surface_1
    {
        type            calculated;
        value           nonuniform List<scalar> 
40
(
5.00664
5.00731
5.00814
4.99917
5.0133
5.01028
5.01134
5.00693
4914.91
4914.91
4914.93
4914.84
4914.86
4914.87
4914.92
4914.92
14724.8
14724.8
14724.8
14724.8
14724.8
14724.8
14724.8
14724.8
24534.8
24534.9
24534.8
24534.8
24534.8
24534.8
24534.8
24534.7
34344.8
34344.9
34344.8
34344.8
34344.8
34344.8
34344.8
34344.7
)
;
    }
    lateral_surface_2
    {
        type            calculated;
        value           nonuniform List<scalar> 
40
(
5.01306
5.00801
5.00808
5.00733
5.00691
5.00689
5.00752
5.0078
4914.96
4914.92
4914.91
4914.9
4914.91
4914.93
4914.92
4914.92
14724.8
14724.8
14724.8
14724.8
14724.8
14724.8
14724.8
14724.8
24534.8
24534.8
24534.8
24534.8
24534.8
24534.8
24534.8
24534.8
34344.8
34344.8
34344.8
34344.8
34344.8
34344.8
34344.8
34344.8
)
;
    }
    lateral_surface_3
    {
        type            calculated;
        value           nonuniform List<scalar> 
40
(
5.01134
5.01091
5.01137
5.01199
5.01089
5.00934
5.01025
5.01306
4914.92
4914.94
4914.94
4914.92
4914.85
4914.9
4914.9
4914.96
14724.8
14724.8
14724.8
14724.8
14724.8
14724.8
14724.8
14724.8
24534.8
24534.8
24534.8
24534.8
24534.8
24534.8
24534.8
24534.8
34344.8
34344.8
34344.8
34344.8
34344.8
34344.8
34344.8
34344.8
)
;
    }
    lateral_surface_4
    {
        type            calculated;
        value           nonuniform List<scalar> 
40
(
5.0078
5.00734
5.00722
5.0072
5.00693
5.00672
5.00662
5.00693
4914.92
4914.92
4914.93
4914.93
4914.93
4914.92
4914.9
4914.92
14724.8
14724.8
14724.8
14724.8
14724.8
14724.8
14724.8
14724.8
24534.8
24534.8
24534.8
24534.8
24534.8
24534.8
24534.8
24534.7
34344.8
34344.8
34344.8
34344.8
34344.8
34344.8
34344.8
34344.7
)
;
    }
}


// ************************************************************************* //
