/*--------------------------------*- C++ -*----------------------------------*\
| =========                 |                                                 |
| \\      /  F ield         | OpenFOAM: The Open Source CFD Toolbox           |
|  \\    /   O peration     | Version:  v1612+                                |
|   \\  /    A nd           | Web:      www.OpenFOAM.com                      |
|    \\/     M anipulation  |                                                 |
\*---------------------------------------------------------------------------*/
FoamFile
{
    version     2.0;
    format      ascii;
    class       volScalarField;
    location    "0.85";
    object      p_rgh;
}
// * * * * * * * * * * * * * * * * * * * * * * * * * * * * * * * * * * * * * //

dimensions      [1 -1 -2 0 0 0 0];

internalField   nonuniform List<scalar> 
320
(
-9800.2
-9800.2
-9800.22
-9800.21
0.00200575
0.00179933
0.00338659
-0.000324694
-0.00195072
-0.00250175
-0.00119543
-0.000187815
0.000782009
0.00444702
-0.000910878
0.00206775
-9800.17
-9800.18
-9800.19
-9800.17
-9800.15
-9800.16
-9800.17
-9800.18
-9800.12
-9800.2
-9800.18
-9800.21
-9800.21
-9800.21
-9800.21
-9800.2
-9800.21
-9800.22
-9800.2
-9800.22
-9800.21
-9800.21
-9800.21
-9800.21
-9800.2
-9800.2
-9800.21
-9800.21
-9800.21
-9800.21
-9800.21
-9800.2
-9800.21
-9800.21
-9800.21
-9800.22
-9800.21
-9800.21
-9800.21
-9800.21
0.00142798
-0.00427207
0.000148423
0.00185824
0.00389609
0.00269038
0.000284902
0.00184374
0.00313161
-0.000122245
0.00294913
0.00189142
0.00182213
-0.00392028
-0.000575212
0.00127283
-0.0010112
-2.62568e-05
0.000750607
-0.0026952
-9800.21
-9800.15
-9800.21
-9800.21
-9800.21
-9800.21
-9800.21
-9800.22
-9800.21
-9800.17
-9800.2
-9800.18
-9800.16
-9800.14
-9800.21
-9800.18
-9800.15
-9800.17
-9800.15
-9800.14
-9800.2
-9800.2
-9800.2
-9800.21
-9800.21
-9800.21
-9800.21
-9800.21
-9800.22
-9800.22
-9800.22
-9800.22
-9800.22
-9800.21
-9800.21
-9800.21
-9800.2
-9800.19
-9800.2
-9800.2
-9800.2
-9800.2
-9800.2
-9800.21
-9800.21
-9800.21
-9800.2
-9800.21
-9800.21
-9800.22
-9800.21
-9800.21
-9800.22
-9800.21
-9800.21
-9800.2
-9800.2
-9800.2
-9800.2
-9800.2
-9800.2
-9800.2
-9800.21
-9800.21
-9800.21
-9800.21
-9800.21
-9800.2
-9800.21
-9800.21
-9800.21
-9800.21
-9800.21
-9800.21
-9800.21
-9800.2
-9800.2
-9800.2
-9800.2
-9800.21
-9800.21
-9800.21
-9800.21
-9800.21
-9800.21
-9800.21
-9800.21
-9800.21
-9800.21
-9800.21
-9800.21
-9800.21
-9800.2
-9800.2
-9800.2
-9800.2
-0.00187633
-0.000985571
-0.0047602
-0.00254258
-0.0014734
-0.00255897
0.00273869
0.000500738
-0.00299639
-0.000889236
-0.00395549
0.000329376
0.00106128
1.91082e-05
-0.00410435
-0.000499949
-0.00471738
-0.000925799
0.000703778
1.35729e-05
-0.00106063
0.000954789
-0.00273468
-0.000319561
-0.00223727
0.00331551
7.08854e-05
-0.00339783
-9800.14
-9800.15
-9800.14
-9800.16
-9800.17
-9800.17
-9800.17
-9800.18
-9800.17
-9800.17
-9800.12
-9800.18
-9800.21
-9800.17
-9800.13
-9800.18
-9800.14
-9800.11
-9800.17
-9800.17
-9800.15
-9800.18
-9800.17
-9800.17
-9800.13
-9800.17
-9800.12
-9800.13
-9800.2
-9800.2
-9800.19
-9800.2
-9800.2
-9800.21
-9800.22
-9800.22
-9800.2
-9800.2
-9800.21
-9800.22
-9800.21
-9800.21
-9800.21
-9800.22
-9800.21
-9800.22
-9800.22
-9800.2
-9800.2
-9800.21
-9800.2
-9800.2
-9800.2
-9800.21
-9800.2
-9800.2
-9800.2
-9800.2
-9800.2
-9800.2
-9800.2
-9800.21
-9800.22
-9800.22
-9800.2
-9800.21
-9800.21
-9800.22
-9800.21
-9800.21
-9800.21
-9800.22
-9800.21
-9800.22
-9800.22
-9800.2
-9800.2
-9800.21
-9800.2
-9800.2
-9800.2
-9800.21
-9800.2
-9800.2
-9800.2
-9800.2
-9800.2
-9800.2
-9800.2
-9800.21
-9800.21
-9800.21
-9800.21
-9800.21
-9800.21
-9800.21
-9800.21
-9800.21
-9800.21
-9800.21
-9800.21
-9800.21
-9800.21
-9800.21
-9800.21
-9800.21
-9800.2
-9800.2
-9800.2
-9800.2
-9800.2
-9800.2
0.00382836
0.00209202
0.00360052
-0.000438399
-9800.22
-9800.21
-9800.19
-9800.19
)
;

boundaryField
{
    top_fluid_surface
    {
        type            totalPressure;
        rho             rho;
        psi             none;
        gamma           1;
        p0              uniform 0;
        value           nonuniform List<scalar> 
64
(
0
0
0
-2.46885e-11
-3.1556e-10
-1.33832e-09
-1.54222e-10
0
-3.50622e-10
0
-3.02705e-11
0
0
-3.67512e-09
0
0
0
0
0
0
0
0
0
0
0
-2.09087e-09
-7.34121e-12
0
-1.1622e-09
-1.13993e-10
-4.20309e-11
-2.45153e-09
-1.10119e-09
-5.83251e-10
-3.67614e-09
-1.49425e-09
-6.73627e-10
-5.51661e-10
0
0
-1.866e-09
-2.63892e-10
-2.56996e-09
0
0
-2.61066e-10
-5.97329e-09
0
-5.54165e-09
-6.50512e-10
0
-9.52781e-11
-9.48895e-10
0
-1.73136e-09
-6.45855e-10
-2.43377e-09
0
-9.17214e-11
-7.87453e-10
0
0
0
0
)
;
    }
    bottom_fluid_surface
    {
        type            fixedFluxPressure;
        gradient        uniform 0;
        value           nonuniform List<scalar> 
64
(
-9800.2
-9800.2
-9800.21
-9800.21
-9800.21
-9800.21
-9800.21
-9800.2
-9800.21
-9800.21
-9800.21
-9800.21
-9800.21
-9800.21
-9800.21
-9800.2
-9800.2
-9800.2
-9800.2
-9800.21
-9800.21
-9800.21
-9800.21
-9800.21
-9800.21
-9800.21
-9800.21
-9800.21
-9800.21
-9800.21
-9800.21
-9800.21
-9800.2
-9800.2
-9800.2
-9800.2
-9800.2
-9800.2
-9800.2
-9800.2
-9800.2
-9800.21
-9800.21
-9800.21
-9800.21
-9800.21
-9800.21
-9800.21
-9800.21
-9800.21
-9800.21
-9800.21
-9800.21
-9800.21
-9800.21
-9800.21
-9800.21
-9800.21
-9800.2
-9800.2
-9800.2
-9800.2
-9800.2
-9800.2
)
;
    }
    lateral_surface_1
    {
        type            fixedFluxPressure;
        gradient        uniform 0;
        value           nonuniform List<scalar> 
40
(
-0.00187633
-0.000985571
-0.0047602
-0.00254258
-0.0014734
-0.00255897
0.00273869
-0.00339783
-9800.14
-9800.15
-9800.14
-9800.16
-9800.17
-9800.17
-9800.17
-9800.13
-9800.2
-9800.2
-9800.19
-9800.2
-9800.2
-9800.21
-9800.22
-9800.2
-9800.2
-9800.2
-9800.2
-9800.2
-9800.2
-9800.21
-9800.22
-9800.2
-9800.2
-9800.2
-9800.2
-9800.2
-9800.2
-9800.21
-9800.21
-9800.2
)
;
    }
    lateral_surface_2
    {
        type            fixedFluxPressure;
        gradient        uniform 0;
        value           nonuniform List<scalar> 
40
(
1.91082e-05
-0.00410435
-0.000499949
-0.00471738
-0.000925799
0.000703778
1.35729e-05
-0.00106063
-9800.17
-9800.13
-9800.18
-9800.14
-9800.11
-9800.17
-9800.17
-9800.15
-9800.21
-9800.21
-9800.22
-9800.21
-9800.22
-9800.22
-9800.2
-9800.2
-9800.21
-9800.21
-9800.22
-9800.21
-9800.22
-9800.22
-9800.2
-9800.2
-9800.21
-9800.21
-9800.21
-9800.21
-9800.21
-9800.21
-9800.21
-9800.21
)
;
    }
    lateral_surface_3
    {
        type            fixedFluxPressure;
        gradient        uniform 0;
        value           nonuniform List<scalar> 
40
(
0.00273869
0.000500738
-0.00299639
-0.000889236
-0.00395549
0.000329376
0.00106128
1.91082e-05
-9800.17
-9800.18
-9800.17
-9800.17
-9800.12
-9800.18
-9800.21
-9800.17
-9800.22
-9800.22
-9800.2
-9800.2
-9800.21
-9800.22
-9800.21
-9800.21
-9800.22
-9800.22
-9800.2
-9800.21
-9800.21
-9800.22
-9800.21
-9800.21
-9800.21
-9800.21
-9800.21
-9800.21
-9800.21
-9800.21
-9800.21
-9800.21
)
;
    }
    lateral_surface_4
    {
        type            fixedFluxPressure;
        gradient        uniform 0;
        value           nonuniform List<scalar> 
40
(
-0.00106063
0.000954789
-0.00273468
-0.000319561
-0.00223727
0.00331551
7.08854e-05
-0.00339783
-9800.15
-9800.18
-9800.17
-9800.17
-9800.13
-9800.17
-9800.12
-9800.13
-9800.2
-9800.21
-9800.2
-9800.2
-9800.2
-9800.21
-9800.2
-9800.2
-9800.2
-9800.21
-9800.2
-9800.2
-9800.2
-9800.21
-9800.2
-9800.2
-9800.21
-9800.21
-9800.2
-9800.2
-9800.2
-9800.2
-9800.2
-9800.2
)
;
    }
}


// ************************************************************************* //
