/*--------------------------------*- C++ -*----------------------------------*\
| =========                 |                                                 |
| \\      /  F ield         | OpenFOAM: The Open Source CFD Toolbox           |
|  \\    /   O peration     | Version:  v1612+                                |
|   \\  /    A nd           | Web:      www.OpenFOAM.com                      |
|    \\/     M anipulation  |                                                 |
\*---------------------------------------------------------------------------*/
FoamFile
{
    version     2.0;
    format      ascii;
    class       surfaceScalarField;
    location    "5.3";
    object      phi;
}
// * * * * * * * * * * * * * * * * * * * * * * * * * * * * * * * * * * * * * //

dimensions      [0 3 -1 0 0 0 0];

internalField   nonuniform List<scalar> 
816
(
-5.9015e-06
-7.78712e-06
4.1893e-06
-1.59277e-06
-8.86788e-06
1.9974e-05
3.76349e-06
7.55382e-06
-1.00432e-06
1.15583e-05
-2.76985e-05
-6.67695e-06
2.64668e-06
5.63054e-06
7.4473e-06
-1.67834e-05
-2.32985e-06
9.45742e-06
8.59986e-06
-1.88337e-05
9.51621e-05
8.66924e-05
2.08503e-05
6.85829e-05
-9.88127e-05
2.87908e-05
3.98533e-06
6.26274e-05
-0.000142113
-5.07252e-05
-9.97289e-07
-0.000124942
0.00013096
7.21097e-05
0.000189224
-8.31696e-05
0.000102455
0.000143525
1.71199e-06
0.000139976
-2.97919e-05
5.62575e-05
-3.75267e-06
9.81443e-05
0.000312389
0.000129832
-2.54986e-06
0.000124782
0.000131874
0.000379602
0.000188753
-4.49364e-05
-4.92719e-05
0.000102833
1.01743e-05
2.52923e-05
0.00024895
0.000191967
1.44794e-05
0.000162742
-0.000112017
5.61729e-05
1.26943e-06
0.000268706
-0.000491116
3.25069e-06
2.61714e-05
0.000116529
1.15738e-05
9.19414e-06
-1.73232e-05
2.37725e-06
1.28004e-05
1.84126e-05
-2.16477e-05
5.076e-06
8.41027e-06
-4.81657e-07
-7.34161e-06
2.41878e-06
1.35785e-05
-2.3648e-06
1.31387e-05
-7.84713e-06
-4.35281e-07
4.2895e-07
1.88543e-06
-5.00127e-06
-3.87352e-07
6.10797e-06
-2.05979e-05
5.38014e-07
1.08055e-05
3.24155e-06
-1.52613e-05
-3.60923e-07
1.16765e-05
1.15716e-06
1.33735e-05
-1.17486e-05
1.00511e-06
2.16108e-06
-2.79615e-05
1.60499e-05
1.57358e-05
1.82696e-05
-1.99616e-05
2.17029e-06
1.04726e-05
4.56838e-06
1.46099e-05
7.72297e-06
-1.08083e-05
-6.71232e-06
1.14428e-05
1.21449e-05
-4.50329e-06
-1.7293e-07
-9.09686e-06
6.84026e-07
-9.00256e-06
-8.76783e-06
-8.99454e-07
-1.5044e-06
-2.56933e-06
-6.08306e-07
-1.16693e-05
2.35331e-06
5.71873e-06
2.52385e-06
2.27296e-06
9.75969e-07
-1.31125e-06
-1.44134e-06
-9.73478e-06
-3.12818e-06
-4.00452e-06
-1.89787e-06
-7.04375e-06
1.72573e-06
-3.40789e-08
5.6241e-06
8.47526e-06
-3.90506e-06
-1.3008e-05
-2.32498e-06
-8.73501e-06
-8.99824e-06
-9.34722e-06
6.66277e-08
-1.85244e-06
6.48687e-06
-5.70981e-07
-3.34254e-06
-4.7185e-06
-6.2759e-07
-3.16015e-06
-4.18579e-06
2.1632e-06
-1.32983e-06
-2.33161e-06
1.86338e-06
3.67761e-06
-1.02929e-06
3.81563e-06
-4.02726e-06
2.11167e-06
3.17021e-06
1.94394e-06
-1.67749e-06
4.86344e-06
3.31085e-06
-2.7445e-06
-6.23308e-07
-5.60932e-07
-2.91776e-06
-5.52037e-06
-9.68619e-07
-1.30228e-06
-1.04767e-06
-2.08155e-07
-6.49483e-06
-3.55511e-07
1.88334e-06
1.12044e-06
7.02758e-07
1.53871e-06
-6.6234e-07
3.36381e-07
-3.59577e-07
-2.38563e-06
-2.59729e-06
-2.83201e-06
-8.70909e-07
5.92036e-07
-2.26546e-06
1.18378e-07
5.59788e-06
1.18413e-06
-2.19256e-06
-1.60197e-06
-5.17831e-06
-3.88502e-06
-5.49361e-06
-2.2624e-07
-2.59335e-06
-1.74382e-06
-3.86117e-07
1.83011e-06
-3.6347e-06
-9.04178e-07
-1.17199e-06
-0.000318653
0.000170213
-5.45894e-06
5.79155e-05
-0.000113128
1.24534e-05
9.07401e-05
-0.000221268
-1.29117e-06
3.3498e-05
-8.47452e-05
-6.07753e-07
-9.37864e-05
0.000143518
-5.20077e-06
-0.000246359
-0.000196739
-3.16093e-05
1.18178e-05
-0.000212428
-6.95242e-06
9.07513e-06
-0.000331991
-0.000126835
8.61617e-06
-0.000203428
2.72026e-05
-6.89653e-07
-4.6348e-05
7.36223e-05
-2.36006e-06
-0.000158405
4.56366e-06
-9.41515e-05
-2.65094e-06
6.23577e-05
-0.000269004
-4.03724e-06
-0.000153441
0.000122819
4.06905e-06
-3.83106e-05
0.000108531
-1.45744e-06
-0.000218593
0.00018533
3.74937e-06
-0.000338955
-2.27552e-05
4.04698e-05
1.04558e-05
0.000133902
-8.01038e-05
9.16904e-06
-2.139e-05
-3.33865e-05
-9.16284e-06
0.000129585
-4.69921e-05
-9.64141e-06
7.08185e-05
-1.46635e-06
-0.000219826
-7.63659e-05
-1.34592e-05
-2.98618e-06
1.15144e-05
7.4965e-06
1.16683e-06
-6.8622e-06
5.8033e-06
5.15554e-06
-1.58347e-05
1.18085e-05
-9.01939e-07
-1.08874e-06
6.91025e-06
6.19714e-06
2.21566e-05
-1.60469e-05
-2.2421e-05
-2.6378e-06
3.4125e-05
-1.05613e-05
-6.12012e-06
2.31154e-05
-2.37292e-05
-2.14055e-05
4.98353e-05
-3.32484e-05
-1.38171e-05
2.72003e-06
-8.39413e-06
9.55201e-06
-1.90184e-05
1.24947e-06
-7.39582e-06
1.72835e-06
1.75966e-05
8.64335e-07
-1.39725e-05
2.61824e-05
-1.72492e-05
5.59342e-06
-2.9714e-05
-3.05411e-06
7.2936e-07
1.64097e-05
-6.20328e-06
6.16539e-06
6.13208e-06
-8.12987e-06
-1.06137e-05
2.75581e-06
1.81688e-05
8.76212e-06
-3.76596e-06
2.87038e-05
-1.35492e-05
-9.46428e-06
7.78445e-06
-8.65013e-06
-8.78193e-06
-4.42689e-06
1.23042e-06
1.88041e-05
-1.49645e-05
-1.68108e-05
4.12884e-06
1.81927e-06
5.81167e-06
-4.96804e-06
-6.22233e-07
-3.3309e-06
1.95245e-06
-3.89014e-06
-6.1341e-06
-7.34062e-06
-9.96986e-07
-9.7913e-07
-3.60417e-06
-7.42618e-06
1.06525e-05
8.9779e-06
8.95467e-06
-6.55501e-07
1.57128e-05
1.29535e-08
3.40115e-06
1.05833e-05
1.09553e-05
1.47954e-05
2.24737e-05
1.46726e-05
1.1869e-05
1.29781e-06
1.24534e-06
-3.77675e-06
-8.5964e-06
-2.85993e-06
8.0778e-06
1.30144e-06
8.41575e-06
1.14323e-07
8.45464e-06
1.2345e-05
8.40922e-06
-4.81845e-07
-1.43266e-05
2.03678e-06
-1.07535e-06
7.29771e-06
7.41089e-06
-9.603e-06
2.88585e-06
9.40036e-06
2.36004e-06
-2.80545e-06
7.78033e-06
-5.12787e-06
5.55935e-06
1.25372e-05
7.87565e-06
4.20873e-06
4.36319e-06
4.19498e-06
7.53494e-07
-2.07797e-06
4.8155e-07
8.79975e-06
3.51102e-06
9.07382e-06
2.69169e-06
1.17038e-06
2.10307e-06
-3.79217e-06
2.73919e-07
-1.44134e-06
-2.49808e-08
-1.88604e-06
-3.38755e-07
-4.59521e-06
-4.87336e-07
-4.25637e-07
-2.15119e-06
-4.03984e-06
3.05494e-06
5.71412e-06
5.418e-06
-3.95069e-07
5.63012e-06
-7.93252e-08
1.81711e-06
3.79867e-06
5.69932e-06
8.06803e-06
7.17074e-06
8.39773e-06
6.5133e-06
1.96669e-07
2.81091e-07
-1.93481e-06
-1.42864e-06
-2.67244e-06
3.96593e-06
1.36858e-06
2.54921e-06
-5.45152e-08
5.72468e-06
3.86706e-06
4.71597e-06
-4.83385e-07
-3.71906e-06
1.20472e-06
-9.59962e-07
1.93558e-06
4.23093e-06
-5.36586e-06
6.07577e-07
5.70094e-06
9.46592e-07
-2.11861e-06
2.90548e-06
-3.51305e-06
2.44961e-06
3.60846e-06
4.12927e-06
2.2495e-06
1.52968e-06
2.65065e-06
1.86373e-07
-7.20553e-07
-2.12025e-07
2.14149e-06
2.16509e-06
5.84987e-06
-1.64744e-06
-1.61034e-06
1.14729e-06
-1.58299e-07
1.90397e-06
4.23997e-07
-1.31261e-07
-3.02079e-06
1.27586e-06
2.10055e-06
-1.36154e-06
3.55519e-06
-2.70142e-06
6.42393e-07
2.91386e-07
-2.75757e-06
-8.11645e-07
-1.94466e-07
3.36444e-07
-3.24239e-06
3.68529e-07
1.28366e-08
7.76033e-07
-1.42329e-06
5.9963e-08
-1.2701e-06
-8.39134e-07
1.94153e-07
1.15625e-06
2.17389e-07
2.4274e-06
-2.12513e-06
5.1597e-07
-2.05201e-06
-3.20796e-06
5.9352e-07
-1.4024e-06
-1.60287e-07
-2.38368e-06
4.37253e-07
8.08397e-07
8.50477e-07
-1.94122e-06
-7.76292e-07
4.16666e-07
-3.82962e-07
-1.54137e-06
-1.3436e-07
-3.11466e-07
-1.82978e-06
2.17962e-06
2.59826e-06
2.52685e-07
3.07628e-07
1.53804e-06
2.53848e-06
4.53296e-06
2.75063e-06
3.11477e-06
3.33326e-07
-5.45827e-09
-8.97872e-07
2.58894e-06
1.25622e-06
4.49313e-07
3.31458e-06
2.95718e-06
8.40282e-07
1.18907e-06
3.75157e-07
2.91973e-06
-3.06969e-06
3.0929e-06
9.60416e-07
-1.31134e-06
-9.23652e-07
7.66672e-07
2.10306e-06
1.04324e-06
1.08987e-06
1.88078e-07
5.61533e-07
8.05665e-07
2.36018e-06
0.000152719
-0.000169754
1.44955e-05
-6.63728e-05
-2.32119e-06
-8.96923e-05
-8.97781e-06
-0.000309782
3.82907e-06
-0.000127284
8.31855e-07
-9.80221e-05
-7.64965e-07
9.78596e-05
-8.03754e-06
1.97568e-05
1.25848e-05
-4.66977e-05
3.74727e-05
0.000132483
2.12595e-05
0.000180284
1.29178e-05
0.000209507
1.27881e-05
0.000160765
2.76461e-06
-3.23781e-05
-2.9222e-06
-0.000126109
-7.47587e-06
-0.000162049
-1.9728e-06
-0.00010315
5.71621e-06
5.08382e-05
7.6578e-06
5.49063e-05
3.24352e-06
0.000118182
-6.79495e-06
0.000251407
1.07585e-06
8.27063e-05
1.42061e-05
8.48642e-05
1.08222e-05
0.000110612
2.58685e-06
-4.35006e-05
-2.61076e-06
-0.000218146
-8.60774e-06
-0.000236229
-1.58272e-06
1.67748e-05
1.51822e-05
-1.20913e-05
-4.67869e-06
1.32283e-06
1.91232e-05
8.10088e-06
-1.52191e-05
-7.06926e-08
2.36364e-05
-1.35058e-05
2.18828e-05
-1.74682e-05
-1.14716e-05
6.61688e-06
-3.62537e-05
5.09525e-06
-1.62055e-05
-1.24377e-05
2.78003e-05
-7.19542e-06
-2.26143e-05
1.27092e-05
-4.27896e-05
2.3744e-05
-7.60062e-06
1.12357e-05
1.75336e-05
-1.00066e-05
1.51718e-05
-2.93683e-06
-2.49687e-05
-3.11054e-06
1.48491e-06
-1.26144e-06
-1.24099e-05
5.86348e-06
-6.15031e-06
1.59653e-06
-1.60058e-05
-9.89972e-06
-1.53687e-05
1.54221e-05
-3.49793e-05
3.95256e-06
1.05165e-05
-7.33983e-06
3.00786e-05
5.38066e-06
-2.3057e-05
1.7456e-06
-8.0735e-06
-1.26979e-05
2.72964e-06
-9.23456e-06
-2.20272e-05
-6.64497e-06
-2.84875e-06
4.53901e-06
-2.84155e-06
7.38738e-07
1.05494e-05
-6.62293e-06
-5.9143e-06
-1.15756e-06
1.08494e-05
8.16312e-06
8.98775e-06
1.12051e-05
-5.52558e-06
-9.37959e-06
-1.56803e-05
-8.08883e-06
-8.52566e-06
7.3638e-06
1.23886e-05
4.99437e-06
-9.26617e-06
-4.49733e-06
-1.86078e-05
-6.94837e-06
-3.8934e-06
-1.28685e-06
9.03281e-06
6.44714e-06
7.42077e-06
4.57795e-07
-1.09503e-05
1.13586e-06
9.00118e-07
3.49703e-06
-6.34263e-06
2.94384e-06
-3.54252e-06
2.9308e-06
-8.58523e-06
4.68378e-06
-7.70535e-06
-1.4726e-05
-1.55653e-05
-6.63738e-06
4.83668e-06
5.05793e-06
1.32773e-05
1.53381e-07
-1.02751e-05
-1.55652e-07
-3.57796e-06
1.72516e-06
1.3343e-06
-1.12549e-06
-1.01015e-05
-3.21372e-06
-2.60758e-06
2.83283e-06
-8.9547e-07
5.43989e-07
3.61886e-06
-2.89224e-06
-2.51492e-06
5.18833e-08
3.29714e-06
4.99685e-06
1.89097e-06
6.11701e-06
-8.97239e-07
-4.84454e-06
-4.73184e-06
-5.07637e-06
-2.98365e-06
3.84908e-06
3.36303e-06
3.09659e-06
-2.79042e-06
-3.10052e-06
-4.00768e-06
-5.08761e-06
-1.63855e-06
-1.199e-06
2.48662e-06
4.54329e-06
1.71101e-06
1.03368e-06
-3.4911e-06
1.75281e-06
1.36139e-07
2.5564e-06
-2.44499e-06
1.79875e-06
-1.57911e-06
1.21084e-06
-3.78613e-06
1.83043e-06
-2.64086e-06
-8.40523e-06
-5.35316e-06
-3.4053e-06
8.3757e-07
3.04076e-06
3.33837e-06
-1.84392e-07
-2.92042e-06
-5.14291e-07
-6.09271e-07
9.52668e-07
-3.37873e-07
-5.47466e-07
-2.75915e-06
-9.23998e-07
-1.53407e-06
1.45327e-06
1.53312e-07
-1.95104e-06
-1.999e-07
1.37549e-06
2.6906e-06
-2.00119e-06
-2.38544e-06
1.29372e-06
1.05144e-06
-2.00854e-07
-1.5254e-06
3.2414e-08
1.72715e-06
8.29275e-07
1.41448e-06
1.92438e-06
1.53057e-06
6.86914e-07
1.18149e-06
-4.17572e-06
-2.39426e-06
-5.22574e-11
-8.26204e-07
-3.49018e-07
-1.20044e-07
-5.18609e-07
-0.000192519
0.000122618
1.37334e-05
-7.99439e-05
2.97554e-05
0.0001599
7.28944e-06
9.71473e-06
2.48322e-06
1.81576e-05
-1.27257e-06
1.1498e-05
)
;

boundaryField
{
    top_fluid_surface
    {
        type            calculated;
        value           nonuniform List<scalar> 
64
(
-0.000186309
0.000129397
6.6573e-05
-8.56314e-05
-0.000230898
-0.000303976
-0.000322611
-9.20039e-05
-8.23837e-05
-0.000167485
0.000349915
-1.13543e-05
0.000143019
-0.000251845
0.000136278
-0.000175458
0.00024357
0.000477945
0.000130304
0.000476721
-2.52506e-06
0.000107504
0.00042156
0.0004641
-0.000460017
0.000279052
0.000263371
0.000229159
0.000289457
0.000129354
9.4606e-05
0.000410031
-0.000224167
0.000274583
0.000148044
0.000247475
-0.000275506
-0.000263897
-0.000174222
-0.000150278
-0.000103794
-0.000672529
-0.000256799
-9.21678e-05
-0.000116018
0.000201174
0.000118614
9.68299e-05
-0.000217012
-0.000214515
-0.000230019
-0.000315115
-0.000185977
0.000105654
0.000123498
-5.13878e-05
0.000286149
0.000267526
-5.46129e-05
-0.000432091
-0.000557702
-0.000188111
-0.000201863
6.74957e-05
)
;
    }
    bottom_fluid_surface
    {
        type            calculated;
        value           uniform 0;
    }
    lateral_surface_1
    {
        type            calculated;
        value           uniform 0;
    }
    lateral_surface_2
    {
        type            calculated;
        value           uniform 0;
    }
    lateral_surface_3
    {
        type            calculated;
        value           uniform 0;
    }
    lateral_surface_4
    {
        type            calculated;
        value           uniform 0;
    }
}


// ************************************************************************* //
