/*--------------------------------*- C++ -*----------------------------------*\
| =========                 |                                                 |
| \\      /  F ield         | OpenFOAM: The Open Source CFD Toolbox           |
|  \\    /   O peration     | Version:  v1612+                                |
|   \\  /    A nd           | Web:      www.OpenFOAM.com                      |
|    \\/     M anipulation  |                                                 |
\*---------------------------------------------------------------------------*/
FoamFile
{
    version     2.0;
    format      ascii;
    class       surfaceScalarField;
    location    "1.55";
    object      alphaPhi;
}
// * * * * * * * * * * * * * * * * * * * * * * * * * * * * * * * * * * * * * //

dimensions      [0 3 -1 0 0 0 0];

internalField   nonuniform List<scalar> 
2916
(
-1.8516e-07
0.424122
-0.424121
-1.44102e-07
0.424124
-0.424123
4.37198e-08
0.424124
-0.424123
4.25175e-07
0.424124
-0.424123
6.16098e-07
0.424124
-0.424123
0.424123
-0.424121
-2.90143e-08
0.955699
-0.531575
7.15249e-07
0.955703
-0.531578
8.90531e-07
0.955701
-0.531577
7.89623e-07
0.955701
-0.531576
8.76948e-07
0.955701
-0.531576
0.955697
-0.531572
7.15347e-07
1.47886
-0.52316
2.30272e-06
1.47887
-0.523163
6.26294e-07
1.47887
-0.523159
-5.04326e-07
1.47887
-0.523158
1.55284e-07
1.47886
-0.523159
1.47886
-0.523155
-2.94769e-06
2.04832
-0.569411
-3.1776e-07
2.04833
-0.569417
-3.22168e-06
2.04832
-0.56941
-4.93829e-06
2.04832
-0.569411
-3.21679e-06
2.04832
-0.569415
2.04831
-0.569413
-1.52788e-05
2.60788
-0.559172
-1.05083e-05
2.60788
-0.55919
-1.04522e-05
2.60788
-0.559186
-1.05182e-05
2.60788
-0.559187
-6.70121e-06
2.60788
-0.559192
2.60787
-0.559195
-2.74574e-05
3.19108
-0.607237
-1.83412e-05
3.19108
-0.607277
-1.31312e-05
3.19108
-0.607276
-1.07677e-05
3.19108
-0.607275
-4.91777e-06
3.19108
-0.607279
3.19108
-0.607281
-2.69336e-05
3.42144
-0.304863
-2.09796e-05
3.42142
-0.304883
-1.1637e-05
3.42142
-0.304889
-6.12899e-06
3.42143
-0.304891
-1.27865e-06
3.42143
-0.304891
3.42144
-0.304892
-1.65689e-05
3.55249
-0.115682
-1.51013e-05
3.55246
-0.115689
-5.76924e-06
3.55246
-0.115691
-1.04927e-06
3.55248
-0.11569
-3.43101e-07
3.55248
-0.11569
3.55249
-0.11569
-6.58913e-06
3.55075
-0.0589187
-1.067e-05
3.55076
-0.058915
-6.81784e-06
3.55077
-0.058916
-5.41483e-06
3.55078
-0.0589171
-5.95979e-06
3.55078
-0.0589175
3.55077
-0.0589179
-3.00796e-05
1.92274
-0.00840228
-1.64163e-05
1.92295
-0.00840266
-1.14377e-05
1.92297
-0.00840262
-7.03831e-06
1.92298
-0.00840286
6.76459e-06
1.92296
-0.00840329
1.92283
-0.0084028
-9.21585e-06
0.222232
0.165601
-6.0543e-06
0.222252
0.1656
-5.65018e-06
0.222258
0.165602
-3.83335e-06
0.222257
0.1656
2.67248e-06
0.222254
0.165596
0.222245
0.165594
-1.18905e-05
0.0852259
-6.72874e-06
0.0852267
-1.13235e-06
0.0852286
4.59075e-06
0.085229
9.67896e-06
0.0852271
0.0852301
1.1016e-06
0.484499
-0.90862
1.09744e-06
0.484503
-0.908625
7.97464e-07
0.484501
-0.908622
3.54347e-07
0.4845
-0.908622
2.34326e-07
0.484499
-0.908621
0.484496
-0.908616
2.70201e-06
0.950655
-0.997728
3.11372e-06
0.950666
-0.997736
1.0209e-06
0.950664
-0.997732
-4.2614e-07
0.950662
-0.997731
9.50298e-07
0.95066
-0.997732
0.950655
-0.997724
4.96463e-06
1.44245
-1.01491
4.89106e-06
1.44246
-1.01492
3.70019e-07
1.44246
-1.01491
-2.01204e-06
1.44246
-1.01491
3.63924e-07
1.44245
-1.01491
1.44245
-1.0149
-2.81332e-06
1.94816
-1.00532
-3.1534e-07
1.94819
-1.00535
-4.94556e-07
1.94819
-1.00535
-2.36541e-07
1.94819
-1.00535
1.3121e-06
1.94818
-1.00535
1.94817
-1.00535
-1.03885e-05
1.7138
-0.310977
-8.86202e-06
1.71381
-0.310994
-2.55034e-06
1.71382
-0.311
-1.74268e-06
1.71382
-0.311
-4.80531e-06
1.71382
-0.311002
1.71382
-0.311014
8.44307e-07
1.02334
-0.0778964
1.05058e-06
1.02332
-0.0779016
5.38273e-06
1.02333
-0.0779051
5.83281e-06
1.02334
-0.077906
1.08928e-06
1.02334
-0.0779072
1.02334
-0.0779121
6.46126e-06
0.250621
-0.00633643
8.9401e-07
0.25059
-0.00633717
4.18317e-07
0.250597
-0.00633754
6.97566e-07
0.250605
-0.00633768
-1.78524e-06
0.250605
-0.00633783
0.250609
-0.00633824
9.50222e-07
0.0692162
-0.000392037
2.19377e-07
0.0692125
-0.000392094
-1.24513e-07
0.0692137
-0.000392112
-1.65865e-07
0.0692151
-0.000392122
-2.19202e-07
0.0692158
-0.000392142
0.069216
-0.000392155
-1.74045e-07
0.010303
-5.27078e-06
-1.05453e-07
0.0103027
-5.27629e-06
-1.17981e-08
0.0103028
-5.27336e-06
9.21948e-08
0.0103031
-5.27134e-06
5.4745e-08
0.0103036
-5.27386e-06
0.0103034
-5.27276e-06
5.12141e-08
0.00309441
-4.95259e-06
4.3362e-08
0.00309359
-4.95281e-06
1.73342e-09
0.00309381
-4.96336e-06
-4.35593e-08
0.00309388
-4.9614e-06
-4.84998e-08
0.00309361
-4.93896e-06
0.00309405
-4.94624e-06
1.9648e-06
0.114254
-0.0172126
-1.00031e-07
0.114266
-0.0172115
-3.03174e-06
0.114268
-0.0172121
-5.69051e-06
0.114269
-0.0172117
-4.9221e-06
0.11427
-0.0172101
0.114256
-0.017212
-5.78173e-06
0.0373355
-1.86641e-06
0.0373374
-4.94937e-07
0.037339
2.21516e-06
0.0373391
1.07143e-05
0.0373382
0.0373376
5.21373e-06
0.467321
-1.37594
4.08713e-06
0.467329
-1.37594
2.30508e-06
0.467327
-1.37594
8.7528e-07
0.467327
-1.37594
9.56957e-07
0.467326
-1.37594
0.467327
-1.37593
5.1468e-06
0.867372
-1.38643
4.82268e-06
0.867391
-1.38644
1.40434e-06
0.867392
-1.38644
-2.23787e-06
0.86739
-1.38644
-1.09988e-06
0.867387
-1.38644
0.867384
-1.38643
-2.94475e-06
0.863867
-0.600966
-3.90103e-06
0.863901
-0.600984
-2.92519e-06
0.863907
-0.600986
-4.24433e-06
0.863907
-0.600988
-6.26098e-06
0.863906
-0.60099
0.863917
-0.601002
4.29583e-07
0.328822
-0.109918
1.7605e-06
0.328842
-0.109922
6.32682e-06
0.328849
-0.109924
5.22882e-06
0.32885
-0.109924
-8.09138e-07
0.328852
-0.109925
0.328864
-0.109929
9.63841e-07
0.0845462
-0.00374168
1.25782e-06
0.0845522
-0.00374188
1.76805e-06
0.084556
-0.00374206
1.42719e-06
0.084557
-0.00374216
1.84961e-07
0.0845583
-0.00374226
0.0845638
-0.00374247
9.60351e-08
0.00674154
-8.7403e-05
1.47331e-07
0.00674233
-8.74162e-05
1.5826e-07
0.00674272
-8.74252e-05
9.90457e-08
0.00674287
-8.74301e-05
-3.45967e-09
0.00674304
-8.74342e-05
0.00674348
-8.74368e-05
2.33971e-09
0.000405812
-6.69592e-07
3.66188e-09
0.000405871
-6.69858e-07
3.45376e-09
0.00040589
-6.70013e-07
-6.90341e-10
0.000405901
-6.70168e-07
-7.02608e-09
0.000405921
-6.70397e-07
0.000405935
-6.70643e-07
4.17797e-10
1.40638e-05
-2.00296e-07
-3.65209e-10
1.40665e-05
-2.0052e-07
-4.67999e-10
1.40668e-05
-2.00544e-07
-1.30593e-10
1.40671e-05
-2.00519e-07
-3.69698e-10
1.40686e-05
-2.00412e-07
1.40687e-05
-2.00379e-07
1.25679e-10
1.40159e-05
-6.14068e-06
8.80677e-11
1.39811e-05
-6.14098e-06
1.38372e-10
1.40155e-05
-6.14013e-06
2.16554e-10
1.40147e-05
-6.13913e-06
1.3357e-10
1.39301e-05
-6.1392e-06
1.39727e-05
-6.13944e-06
-7.22907e-09
0.00207217
3.91692e-06
-2.49362e-09
0.00207166
3.91053e-06
3.87053e-09
0.00207172
3.91873e-06
6.08187e-09
0.00207174
3.9191e-06
5.11749e-09
0.00207119
3.89868e-06
0.00207161
3.91098e-06
8.01513e-08
0.00742991
-0.00078554
-3.18621e-07
0.00743013
-0.000785386
-9.69841e-07
0.00742916
-0.000785472
-1.58422e-06
0.00742946
-0.000785438
-9.21197e-07
0.00743098
-0.000785162
0.00742778
-0.000785728
2.55847e-07
0.00183974
-2.02836e-07
0.0018394
-1.32295e-06
0.00183938
-1.67924e-06
0.00183933
6.0857e-07
0.00183925
0.00183937
4.71933e-06
0.182944
-1.55846
5.62308e-06
0.182948
-1.55847
4.16491e-06
0.18295
-1.55847
1.59128e-06
0.182951
-1.55846
1.17109e-06
0.182949
-1.55846
0.182959
-1.55847
-1.1942e-06
0.224216
-5.26406e-08
-2.01202e-06
0.22422
-5.26457e-08
7.03567e-07
0.224221
-5.26493e-08
-7.56319e-07
0.224223
-5.26477e-08
-1.01407e-05
0.224222
-5.26441e-08
0.224228
-5.26402e-08
-2.73277e-06
0.113702
-1.49958e-06
-1.82778e-06
0.113707
-1.49975e-06
9.17668e-08
0.113708
-1.49988e-06
-3.22408e-08
0.113709
-1.49984e-06
-2.7503e-06
0.11371
-1.49975e-06
0.113714
-1.49959e-06
-1.49555e-07
0.00380267
-1.97044e-05
-1.01057e-10
0.00380287
-1.97064e-05
7.21822e-08
0.00380305
-1.97068e-05
5.19411e-08
0.00380316
-1.97065e-05
-1.06234e-08
0.00380326
-1.9706e-05
0.00380348
-1.97052e-05
1.27751e-08
8.80398e-05
-2.68335e-05
1.61926e-08
8.80531e-05
-2.68336e-05
1.26713e-08
8.80623e-05
-2.68331e-05
7.87404e-09
8.80673e-05
-2.68323e-05
5.16471e-09
8.80717e-05
-2.68326e-05
8.80747e-05
-2.68331e-05
1.26914e-10
6.40023e-07
-3.52932e-09
6.20327e-11
6.40273e-07
-3.53545e-09
5.38474e-11
6.40433e-07
-3.53349e-09
3.85394e-11
6.40595e-07
-3.52943e-09
-1.12424e-11
6.40835e-07
-3.52431e-09
6.41103e-07
-3.51241e-09
-1.59912e-12
1.05054e-09
-1.33289e-08
-1.21267e-12
1.05114e-09
-1.33401e-08
-4.23444e-13
1.0508e-09
-1.33387e-08
4.93788e-13
1.05081e-09
-1.33342e-08
2.81516e-13
1.05254e-09
-1.33297e-08
1.05249e-09
-1.33161e-08
-8.31676e-13
8.16988e-08
-1.47178e-07
-4.64266e-13
8.15867e-08
-1.47216e-07
2.70639e-13
8.15345e-08
-1.47196e-07
6.93411e-13
8.15409e-08
-1.47185e-07
-9.79933e-13
8.17022e-08
-1.47208e-07
8.16917e-08
-1.47158e-07
2.94845e-10
-1.23606e-07
-1.04002e-06
1.27112e-10
-1.23695e-07
-1.03988e-06
1.6856e-10
-1.2394e-07
-1.03971e-06
1.28263e-10
-1.23874e-07
-1.03964e-06
-1.85956e-10
-1.23133e-07
-1.03972e-06
-1.2338e-07
-1.03988e-06
7.08181e-09
-5.33918e-08
5.76684e-06
4.87028e-09
-4.85551e-08
5.77142e-06
7.8009e-09
-4.94064e-08
5.76954e-06
8.76009e-09
-4.93452e-08
5.7702e-06
-9.72189e-10
-4.33676e-08
5.77223e-06
-5.02683e-08
5.77262e-06
9.81647e-08
-0.000651093
-8.71829e-05
8.64447e-08
-0.000650832
-8.71652e-05
8.89316e-08
-0.000650936
-8.71744e-05
8.35861e-08
-0.000650884
-8.71794e-05
4.03679e-08
-0.000650524
-8.71853e-05
-0.00065111
-8.72235e-05
1.76027e-07
0.000334129
1.80934e-07
0.000334136
5.54615e-08
0.000334133
-1.48711e-08
0.000334106
2.74571e-07
0.000334072
0.000334093
-1.84992e-72
-4.161e-65
2.23838e-69
-5.47715e-73
-4.16826e-65
2.2425e-69
-5.18544e-74
-4.16799e-65
2.24244e-69
1.8726e-73
-4.1687e-65
2.24286e-69
2.47689e-73
-4.17085e-65
2.24403e-69
-4.16485e-65
2.24087e-69
-3.1198e-68
-7.55316e-61
4.31691e-65
-6.96334e-69
-7.56646e-61
4.3248e-65
2.54827e-69
-7.56629e-61
4.32477e-65
8.36601e-69
-7.56776e-61
4.32564e-65
1.2934e-68
-7.57207e-61
4.3281e-65
-7.56206e-61
4.32238e-65
-3.14348e-64
-6.55879e-57
4.10755e-61
-5.45962e-65
-6.57015e-57
4.11495e-61
4.71429e-65
-6.57009e-57
4.11498e-61
1.08005e-64
-6.57147e-57
4.11589e-61
1.48877e-64
-6.57547e-57
4.11841e-61
-6.56723e-57
4.11331e-61
-2.00458e-60
-3.58673e-53
2.51029e-57
-2.18495e-61
-3.59286e-53
2.51483e-57
5.06223e-61
-3.59291e-53
2.51493e-57
8.97991e-61
-3.59374e-53
2.51558e-57
1.12041e-60
-3.59609e-53
2.51727e-57
-3.59187e-53
2.5144e-57
-7.70264e-57
-1.37535e-49
1.08196e-53
3.77771e-58
-1.37769e-49
1.08402e-53
3.67972e-57
-1.37776e-49
1.08412e-53
5.18892e-57
-1.37812e-49
1.08447e-53
5.92152e-57
-1.37909e-49
1.08527e-53
-1.37761e-49
1.08414e-53
-1.50645e-53
-3.9149e-46
3.43792e-50
9.30466e-54
-3.92167e-46
3.44514e-50
1.67267e-53
-3.922e-46
3.44582e-50
1.91191e-53
-3.92318e-46
3.4471e-50
2.01739e-53
-3.92617e-46
3.44978e-50
-3.92233e-46
3.44642e-50
-6.46092e-51
-8.57342e-43
8.1886e-47
3.39755e-50
-8.58864e-43
8.20774e-47
3.84755e-50
-8.58968e-43
8.20997e-47
3.47051e-50
-8.59256e-43
8.21309e-47
3.55211e-50
-8.59948e-43
8.21919e-47
-8.59185e-43
8.21069e-47
3.81943e-47
-1.48352e-39
1.33502e-43
5.84558e-47
-1.48623e-39
1.33862e-43
2.82529e-47
-1.48645e-39
1.33906e-43
1.34889e-48
-1.48697e-39
1.33947e-43
5.5382e-48
-1.48821e-39
1.34027e-43
-1.48699e-39
1.33861e-43
1.01504e-43
-2.10494e-36
1.00198e-40
3.10338e-44
-2.10884e-36
1.00606e-40
-8.00338e-44
-2.10916e-36
1.00653e-40
-1.50323e-43
-2.10991e-36
1.00649e-40
-1.25077e-43
-2.11167e-36
1.00643e-40
-2.11004e-36
1.00427e-40
3.14443e-41
-2.25375e-33
-3.72831e-34
-1.48587e-40
-2.25845e-33
-3.72934e-34
-3.20908e-40
-2.25881e-33
-3.72946e-34
-4.03285e-40
-2.25942e-33
-3.73228e-34
-3.2351e-40
-2.26098e-33
-3.73828e-34
-2.25889e-33
-3.73965e-34
-2.16059e-37
-1.31611e-30
-1.48662e-30
-4.23234e-37
-1.31878e-30
-1.4897e-30
-5.5761e-37
-1.31883e-30
-1.48999e-30
-6.0084e-37
-1.31894e-30
-1.49051e-30
-4.72782e-37
-1.31949e-30
-1.49174e-30
-1.31785e-30
-1.49073e-30
-2.29601e-34
-2.10088e-27
-2.30757e-34
-2.10513e-27
-1.82493e-34
-2.10517e-27
-1.06444e-34
-2.10524e-27
-3.14342e-35
-2.10593e-27
-2.10307e-27
-4.3348e-69
-1.31513e-61
1.43286e-65
-8.59937e-70
-1.31716e-61
1.43514e-65
5.31731e-70
-1.31702e-61
1.43499e-65
1.4089e-69
-1.31721e-61
1.4352e-65
2.10115e-69
-1.3179e-61
1.43592e-65
-1.31604e-61
1.43384e-65
-6.81404e-65
-2.34124e-57
2.72781e-61
-4.78988e-66
-2.34485e-57
2.73211e-61
2.00874e-65
-2.34465e-57
2.73186e-61
4.0259e-65
-2.34504e-57
2.73231e-61
6.33519e-65
-2.3464e-57
2.73382e-61
-2.34334e-57
2.7301e-61
-6.58901e-61
-1.97882e-53
2.55169e-57
-3.04608e-63
-1.98179e-53
2.55562e-57
2.55562e-61
-1.98164e-53
2.55541e-57
4.58678e-61
-1.98201e-53
2.55587e-57
6.75178e-61
-1.98323e-53
2.55739e-57
-1.98079e-53
2.5541e-57
-3.993e-57
-1.04226e-49
1.51937e-53
2.88275e-58
-1.04379e-49
1.5217e-53
2.03286e-57
-1.04373e-49
1.52161e-53
3.32637e-57
-1.04394e-49
1.52193e-53
4.7179e-57
-1.04464e-49
1.52291e-53
-1.04344e-49
1.52108e-53
-1.42914e-53
-3.80027e-46
6.28357e-50
4.19081e-54
-3.80581e-46
6.29347e-50
1.12626e-53
-3.80569e-46
6.29339e-50
1.65913e-53
-3.8066e-46
6.29496e-50
2.25718e-53
-3.80933e-46
6.29935e-50
-3.80537e-46
6.29238e-50
-2.75234e-50
-1.01526e-42
1.85535e-46
2.15758e-50
-1.01675e-42
1.85848e-46
3.88902e-50
-1.01675e-42
1.85857e-46
5.14573e-50
-1.01703e-42
1.85911e-46
6.83093e-50
-1.01782e-42
1.86047e-46
-1.01687e-42
1.85852e-46
-1.72547e-47
-2.07645e-39
3.8888e-43
5.40853e-47
-2.07955e-39
3.89606e-43
6.8927e-47
-2.07962e-39
3.89646e-43
8.39163e-47
-2.08027e-39
3.89763e-43
1.17562e-46
-2.08197e-39
3.90044e-43
-2.08023e-39
3.8963e-43
3.31865e-44
-3.41609e-36
5.55627e-40
5.77472e-44
-3.42125e-36
5.56822e-40
1.53218e-44
-3.42144e-36
5.56907e-40
-3.12537e-46
-3.42256e-36
5.57045e-40
4.96436e-44
-3.42544e-36
5.57386e-40
-3.42284e-36
5.56721e-40
4.53121e-41
-4.76847e-33
4.27661e-37
-5.99845e-41
-4.77565e-33
4.28929e-37
-2.15929e-40
-4.77591e-33
4.29036e-37
-3.02414e-40
-4.77744e-33
4.29055e-37
-2.28999e-40
-4.78143e-33
4.29147e-37
-4.77801e-33
4.28393e-37
1.68725e-38
-4.89384e-30
-1.01963e-30
-3.62181e-37
-4.90269e-30
-1.01944e-30
-7.61287e-37
-4.903e-30
-1.01932e-30
-9.92684e-37
-4.90397e-30
-1.02e-30
-8.34569e-37
-4.90703e-30
-1.02161e-30
-4.90231e-30
-1.02209e-30
-5.65805e-34
-2.06362e-27
-3.64501e-27
-7.7172e-34
-2.06721e-27
-3.65172e-27
-9.48094e-34
-2.06717e-27
-3.65192e-27
-1.0558e-33
-2.06729e-27
-3.65252e-27
-8.8833e-34
-2.06815e-27
-3.65462e-27
-2.06569e-27
-3.65118e-27
-4.18661e-31
-2.99545e-24
-1.87747e-31
-3.00088e-24
7.77855e-32
-3.00074e-24
2.80043e-31
-3.00063e-24
3.20364e-31
-3.00131e-24
-2.99707e-24
-1.92202e-65
-7.35631e-58
1.17518e-61
-1.83838e-66
-7.36802e-58
1.1771e-61
5.22877e-66
-7.36717e-58
1.17697e-61
9.77511e-66
-7.36785e-58
1.17709e-61
1.31917e-65
-7.37104e-58
1.17759e-61
-7.35956e-58
1.17573e-61
-3.05338e-61
-1.37128e-53
2.35525e-57
2.85552e-62
-1.37347e-53
2.35907e-57
1.59648e-61
-1.37333e-53
2.35883e-57
2.66104e-61
-1.37347e-53
2.35908e-57
3.85718e-61
-1.37412e-53
2.36017e-57
-1.37209e-53
2.3566e-57
-3.00516e-57
-1.20561e-49
2.31741e-53
4.46265e-58
-1.20749e-49
2.3211e-53
1.82526e-57
-1.20737e-49
2.32088e-53
2.93126e-57
-1.2075e-49
2.32114e-53
4.10838e-57
-1.20809e-49
2.32226e-53
-1.20636e-49
2.31886e-53
-1.76598e-53
-6.5257e-46
1.44371e-49
4.40859e-54
-6.5357e-46
1.446e-49
1.31575e-53
-6.53512e-46
1.44588e-49
2.01513e-53
-6.53589e-46
1.44606e-49
2.80176e-53
-6.53921e-46
1.44679e-49
-6.5302e-46
1.44474e-49
-5.73212e-50
-2.39787e-42
6.19442e-46
2.98953e-50
-2.40153e-42
6.20439e-46
6.37877e-50
-2.40135e-42
6.20401e-46
9.16205e-50
-2.40166e-42
6.20488e-46
1.26084e-49
-2.40293e-42
6.20812e-46
-2.39975e-42
6.19962e-46
-8.40692e-47
-6.25333e-39
1.89125e-42
1.12281e-46
-6.26293e-39
1.89441e-42
1.77483e-46
-6.26255e-39
1.89434e-42
2.4723e-46
-6.26342e-39
1.89462e-42
3.44135e-46
-6.2668e-39
1.8956e-42
-6.25879e-39
1.89303e-42
4.98557e-45
-1.17545e-35
4.14289e-39
2.06224e-43
-1.17727e-35
4.15012e-39
2.2922e-43
-1.17721e-35
4.15002e-39
3.06103e-43
-1.17737e-35
4.15055e-39
4.79558e-43
-1.178e-35
4.15255e-39
-1.17653e-35
4.1468e-39
1.23272e-40
-1.57835e-32
6.01959e-36
1.35167e-40
-1.58082e-32
6.03066e-36
-2.55824e-41
-1.58074e-32
6.03054e-36
-5.53672e-41
-1.58093e-32
6.03103e-36
1.37699e-40
-1.58174e-32
6.03351e-36
-1.57978e-32
6.02478e-36
1.32441e-37
-1.51414e-29
4.80386e-33
-2.59845e-38
-1.51649e-29
4.81376e-33
-3.58913e-37
-1.51641e-29
4.81377e-33
-5.65223e-37
-1.51655e-29
4.81379e-33
-4.11101e-37
-1.51726e-29
4.81508e-33
-1.5154e-29
4.80735e-33
-3.61404e-34
-1.06432e-26
-1.97851e-28
-1.86896e-34
-1.06601e-26
-1.97294e-28
-1.3677e-34
-1.06594e-26
-1.97258e-28
-1.45075e-34
-1.06598e-26
-1.97491e-28
-1.097e-34
-1.06638e-26
-1.98031e-28
-1.06502e-26
-1.98629e-28
-6.22275e-31
-2.91415e-24
-3.48473e-24
-1.80798e-31
-2.91879e-24
-3.49013e-24
1.51855e-31
-2.91853e-24
-3.48987e-24
2.86697e-31
-2.91838e-24
-3.48993e-24
2.66428e-31
-2.91905e-24
-3.49118e-24
-2.91497e-24
-3.48702e-24
-4.15394e-28
-1.84117e-21
1.87509e-29
-1.84409e-21
4.82741e-28
-1.84388e-21
7.5849e-28
-1.84365e-21
7.08594e-28
-1.84383e-21
-1.84108e-21
-8.52759e-63
-4.13678e-55
8.75486e-59
-1.12309e-65
-4.14384e-55
8.77006e-59
3.55375e-63
-4.14354e-55
8.76942e-59
5.82628e-63
-4.1439e-55
8.77023e-59
7.48734e-63
-4.14557e-55
8.77376e-59
-4.13891e-55
8.75955e-59
-1.38069e-58
-8.20505e-51
1.89092e-54
3.73271e-59
-8.21917e-51
1.89421e-54
1.06019e-58
-8.21867e-51
1.89409e-54
1.62453e-58
-8.21948e-51
1.89428e-54
2.25461e-58
-8.22303e-51
1.89509e-54
-8.21036e-51
1.89213e-54
-1.41386e-54
-7.545e-47
1.98839e-50
4.12903e-55
-7.55787e-47
1.99182e-50
1.15489e-54
-7.55745e-47
1.99171e-50
1.76241e-54
-7.55821e-47
1.99191e-50
2.4365e-54
-7.56154e-47
1.99279e-50
-7.55015e-47
1.98974e-50
-8.51077e-51
-4.16046e-43
1.30204e-46
2.50911e-51
-4.16752e-43
1.30428e-46
7.24157e-51
-4.16733e-43
1.30422e-46
1.13911e-50
-4.16777e-43
1.30436e-46
1.61154e-50
-4.16964e-43
1.30495e-46
-4.1635e-43
1.30299e-46
-2.86211e-47
-1.50141e-39
5.70302e-43
1.02186e-47
-1.50397e-39
5.71292e-43
2.83879e-47
-1.50391e-39
5.71271e-43
4.65416e-47
-1.50408e-39
5.71336e-43
6.74318e-47
-1.50476e-39
5.71594e-43
-1.50259e-39
5.70752e-43
-5.96792e-44
-3.68503e-36
1.6975e-39
1.33588e-44
-3.69133e-36
1.70049e-39
5.89535e-44
-3.69123e-36
1.70044e-39
1.09403e-43
-3.69162e-36
1.70062e-39
1.66524e-43
-3.69327e-36
1.70137e-39
-3.68805e-36
1.69887e-39
-1.21163e-40
-6.32765e-33
3.44315e-36
-4.31348e-41
-6.33844e-33
3.44928e-36
3.51085e-41
-6.33824e-33
3.44918e-36
1.2984e-40
-6.33882e-33
3.44948e-36
2.1792e-40
-6.34151e-33
3.45089e-36
-6.33262e-33
3.44578e-36
-3.27999e-37
-7.87907e-30
4.68071e-33
-2.30056e-37
-7.89221e-30
4.6891e-33
-9.39663e-38
-7.89183e-30
4.68891e-33
4.47405e-38
-7.8923e-30
4.68915e-33
1.49083e-37
-7.89533e-30
4.69081e-33
-7.8843e-30
4.68374e-33
-5.82234e-34
-7.36866e-27
3.83521e-30
-3.18221e-34
-7.38039e-27
3.84223e-30
-7.11125e-35
-7.37981e-27
3.84205e-30
1.04328e-34
-7.3799e-27
3.84204e-30
1.93589e-34
-7.38231e-27
3.84309e-30
-7.37208e-27
3.83707e-30
-5.03715e-31
-5.33237e-24
5.04315e-28
-4.0866e-32
-5.34028e-24
5.05759e-28
2.74191e-31
-5.33967e-24
5.05762e-28
4.14887e-31
-5.33944e-24
5.05593e-28
4.23591e-31
-5.3408e-24
5.05376e-28
-5.33348e-24
5.04009e-28
-1.42794e-29
-6.89159e-22
-2.39201e-21
5.12922e-28
-6.90206e-22
-2.39506e-21
8.98292e-28
-6.90111e-22
-2.39467e-21
9.91156e-28
-6.90006e-22
-2.39447e-21
7.21491e-28
-6.90073e-22
-2.39491e-21
-6.891e-22
-2.39168e-21
2.31547e-26
-4.12086e-19
1.47197e-25
-4.1262e-19
2.76155e-25
-4.12537e-19
3.46271e-25
-4.12451e-19
2.86129e-25
-4.12437e-19
-4.11814e-19
-3.21153e-06
-0.686845
-1.38155e-08
-9.47214e-07
-0.686853
-1.38168e-08
2.93028e-07
-0.686853
-1.38177e-08
3.6148e-08
-0.686849
-1.38173e-08
-9.93252e-08
-0.686848
-1.38165e-08
-0.686859
-1.38153e-08
3.98556e-06
-0.0459953
-1.01993e-06
3.64887e-06
-0.0459945
-1.02004e-06
2.9606e-06
-0.045994
-1.02013e-06
5.25675e-06
-0.0459947
-1.02011e-06
7.07851e-06
-0.0459946
-1.02003e-06
-0.0459928
-1.0199e-06
4.00637e-07
3.00641e-12
3.25583e-07
3.29319e-12
2.43244e-07
3.38024e-12
3.54807e-07
3.30501e-12
5.42721e-07
3.28554e-12
3.36382e-12
-9.10347e-14
-4.75891e-08
-1.90839e-10
-1.02166e-13
-4.75953e-08
-1.91135e-10
-1.83599e-14
-4.75999e-08
-1.91284e-10
5.22487e-14
-4.75984e-08
-1.91331e-10
-3.31894e-14
-4.75937e-08
-1.90886e-10
-4.75883e-08
-1.91202e-10
-4.6521e-13
2.56633e-12
-1.06752e-06
2.45205e-13
2.81115e-12
-1.06764e-06
8.43265e-13
2.88547e-12
-1.06774e-06
1.07626e-12
2.82122e-12
-1.06771e-06
1.44531e-12
2.80458e-12
-1.06762e-06
2.87138e-12
-1.06749e-06
4.80597e-18
6.52005e-12
2.28213e-17
7.14194e-12
4.1709e-17
7.33077e-12
4.82212e-17
7.16759e-12
2.52118e-17
7.12536e-12
7.29512e-12
8.75115e-15
-1.38214e-06
-8.02828e-08
9.34589e-13
-1.38229e-06
-8.02975e-08
1.51455e-12
-1.38243e-06
-8.02953e-08
2.01459e-12
-1.3824e-06
-8.02884e-08
2.52776e-12
-1.38232e-06
-8.02717e-08
-1.38218e-06
-8.02437e-08
1.02535e-12
6.96919e-12
-4.14436e-06
9.49898e-12
7.63403e-12
-4.14471e-06
9.81107e-12
7.83582e-12
-4.1456e-06
1.3922e-11
7.66142e-12
-4.14537e-06
2.16464e-11
7.61642e-12
-4.14471e-06
7.79781e-12
-4.14382e-06
-1.45296e-17
1.20197e-11
-3.28553e-17
1.3166e-11
-4.39432e-17
1.35142e-11
-4.25627e-17
1.32133e-11
-2.72002e-17
1.31356e-11
1.34484e-11
2.71353e-11
-1.95094e-05
-2.9789e-07
3.21929e-11
-1.95114e-05
-2.97881e-07
2.5653e-11
-1.95118e-05
-2.97858e-07
1.91359e-11
-1.95115e-05
-2.97839e-07
1.71958e-11
-1.9511e-05
-2.97829e-07
-1.95102e-05
-2.97795e-07
9.74344e-10
1.48781e-11
-2.53416e-05
7.22277e-10
1.62969e-11
-2.53428e-05
3.2943e-10
1.67273e-11
-2.5343e-05
1.14418e-10
1.63549e-11
-2.53436e-05
2.15379e-10
1.62589e-11
-2.53436e-05
1.66457e-11
-2.53434e-05
1.42362e-16
1.6012e-15
2.00334e-16
1.90095e-15
1.42745e-16
2.14758e-15
1.56049e-17
2.04796e-15
-1.40698e-16
1.95015e-15
-2.6731e-19
5.02119e-12
-2.71308e-05
-9.11529e-11
-2.24926e-13
-2.71308e-05
-9.13132e-11
-3.35468e-12
-2.71303e-05
-9.12581e-11
-7.23892e-12
-2.71295e-05
-9.11499e-11
-7.46067e-12
-2.71297e-05
-9.10144e-11
-2.71302e-05
-9.0698e-11
2.80937e-10
3.1873e-15
-1.33491e-12
-2.98021e-10
3.78379e-15
-1.33561e-12
-4.11638e-10
4.27452e-15
-1.3356e-12
-1.44607e-10
4.07614e-15
-1.33567e-12
8.0075e-11
3.88139e-15
-1.3356e-12
-1.86298e-17
-1.33576e-12
5.60975e-20
-1.88959e-17
6.46346e-20
-1.89054e-17
6.97354e-20
-1.89074e-17
4.50219e-20
-1.89101e-17
-1.0329e-20
-1.89125e-17
-1.89074e-17
-5.38567e-15
-2.58632e-14
-3.63366e-09
-2.81905e-15
-2.58754e-14
-3.63997e-09
2.07125e-16
-2.5874e-14
-3.63795e-09
2.62618e-15
-2.58739e-14
-3.63378e-09
2.66629e-15
-2.58722e-14
-3.62851e-09
-2.61161e-14
-3.61629e-09
-9.45352e-19
-5.8351e-17
-1.36107e-12
-1.02515e-18
-5.83756e-17
-1.36178e-12
-5.8014e-19
-5.83791e-17
-1.36177e-12
2.42462e-19
-5.83851e-17
-1.36184e-12
9.36942e-19
-5.83909e-17
-1.36178e-12
-5.83767e-17
-1.36171e-12
-6.81957e-22
-7.41423e-17
-6.76812e-22
-7.41801e-17
-6.20355e-22
-7.41874e-17
-3.22379e-22
-7.41963e-17
1.51762e-22
-7.42031e-17
-7.42141e-17
3.37101e-14
-4.4105e-11
1.17764e-08
1.81113e-13
-4.41979e-11
1.17728e-08
2.49815e-13
-4.41736e-11
1.17695e-08
2.89967e-13
-4.41114e-11
1.17716e-08
2.09748e-13
-4.40219e-11
1.17723e-08
-4.38424e-11
1.17791e-08
-2.5248e-17
-3.58372e-14
-4.54269e-11
1.0985e-18
-3.59324e-14
-4.55206e-11
2.74359e-17
-3.59079e-14
-4.54962e-11
5.67221e-17
-3.58488e-14
-4.54342e-11
7.39141e-17
-3.57657e-14
-4.53447e-11
-3.55855e-14
-4.51652e-11
-5.55408e-20
-3.60518e-14
-3.32515e-20
-3.61473e-14
1.55729e-21
-3.61227e-14
3.34017e-20
-3.60634e-14
5.69345e-20
-3.59801e-14
-3.57994e-14
4.1043e-12
-3.4414e-09
4.6741e-08
7.85398e-12
-3.44266e-09
4.67026e-08
8.76961e-12
-3.44244e-09
4.66994e-08
8.19496e-12
-3.4424e-09
4.67232e-08
2.71976e-12
-3.44254e-09
4.67271e-08
-3.44218e-09
4.6799e-08
-1.22819e-15
-1.29432e-11
-3.47371e-09
3.17775e-15
-1.29483e-11
-3.47507e-09
4.57605e-15
-1.29484e-11
-3.47482e-09
5.44104e-15
-1.29498e-11
-3.47472e-09
7.33864e-15
-1.29511e-11
-3.47477e-09
-1.29513e-11
-3.47422e-09
-1.53264e-17
-1.29793e-11
-8.9668e-18
-1.29845e-11
-1.43355e-18
-1.29846e-11
5.84716e-18
-1.2986e-11
1.57029e-17
-1.29871e-11
-1.29872e-11
3.42228e-11
-7.3292e-08
-1.28728e-06
2.64609e-11
-7.32838e-08
-1.28726e-06
2.15391e-11
-7.32763e-08
-1.28654e-06
1.51234e-11
-7.32767e-08
-1.28649e-06
-1.8305e-11
-7.32748e-08
-1.2875e-06
-7.32991e-08
-1.28706e-06
3.39174e-14
-5.14282e-10
-7.62358e-08
1.68879e-14
-5.14225e-10
-7.6229e-08
-1.22695e-13
-5.14228e-10
-7.62212e-08
-1.58142e-13
-5.14286e-10
-7.62215e-08
-3.35669e-14
-5.14268e-10
-7.62198e-08
-5.14568e-10
-7.62432e-08
-1.65704e-15
-5.27295e-10
-1.45015e-15
-5.27245e-10
-1.60859e-15
-5.27248e-10
-1.1883e-15
-5.27308e-10
1.41512e-15
-5.27293e-10
-5.2759e-10
6.33434e-10
-1.2104e-07
5.94749e-07
4.47518e-10
-1.21009e-07
5.96545e-07
4.73198e-10
-1.21028e-07
5.96824e-07
3.69568e-10
-1.21039e-07
5.96795e-07
-5.06149e-10
-1.20912e-07
5.98035e-07
-1.21004e-07
5.95864e-07
3.10408e-12
2.39245e-10
-2.22424e-07
-3.42846e-12
2.4189e-10
-2.22379e-07
-9.84526e-12
2.42507e-10
-2.22396e-07
-1.22118e-11
2.42922e-10
-2.22414e-07
-2.04312e-11
2.44673e-10
-2.22264e-07
2.4233e-10
-2.2244e-07
-1.72625e-13
-8.65252e-09
-2.75279e-13
-8.65075e-09
-4.03155e-13
-8.65158e-09
-4.08926e-13
-8.65256e-09
-1.47247e-13
-8.65107e-09
-8.65798e-09
6.53194e-09
-1.02677e-05
-7.54814e-05
5.28087e-09
-1.02681e-05
-7.54532e-05
4.975e-09
-1.02687e-05
-7.54636e-05
3.15682e-09
-1.02688e-05
-7.54665e-05
-5.53264e-09
-1.02696e-05
-7.54604e-05
-1.02707e-05
-7.55191e-05
7.97436e-11
-1.2373e-07
-1.04128e-05
3.36261e-11
-1.23796e-07
-1.04129e-05
-2.58486e-11
-1.23798e-07
-1.04136e-05
-1.16471e-10
-1.23793e-07
-1.04137e-05
-4.58398e-10
-1.23823e-07
-1.0414e-05
-1.23781e-07
-1.04164e-05
-6.69696e-12
-2.56952e-07
-1.02664e-11
-2.57061e-07
-1.35603e-11
-2.57078e-07
-1.38451e-11
-2.57095e-07
-1.11082e-11
-2.57137e-07
-2.57131e-07
4.41633e-08
3.98221e-05
0.000112544
5.76391e-08
3.98334e-05
0.000112574
6.89626e-08
3.98344e-05
0.000112566
6.11139e-08
3.98341e-05
0.000112561
2.38295e-08
3.98346e-05
0.000112561
3.98444e-05
0.000112524
-3.84518e-10
4.13172e-06
1.5413e-05
3.97542e-11
4.13377e-06
1.54178e-05
-1.33191e-10
4.13403e-06
1.5418e-05
-1.26021e-09
4.13428e-06
1.5418e-05
-3.5412e-09
4.13485e-06
1.54188e-05
4.13482e-06
1.54175e-05
-1.67449e-10
9.27473e-07
-1.99117e-10
9.27921e-07
-2.335e-10
9.27918e-07
-2.5078e-10
9.27929e-07
-2.12425e-10
9.28039e-07
9.27731e-07
1.96841e-22
3.58111e-18
-3.69987e-17
1.96205e-17
6.44294e-22
3.58507e-18
-3.70361e-17
1.96419e-17
9.45126e-22
3.58335e-18
-3.70154e-17
1.96328e-17
9.61354e-22
3.58182e-18
-3.69948e-17
1.96246e-17
6.86043e-22
3.58069e-18
-3.69754e-17
1.96185e-17
3.57368e-18
-3.6899e-17
1.95809e-17
-1.25118e-20
9.79979e-16
-5.02762e-15
3.88987e-16
2.66169e-21
9.80916e-16
-5.03208e-15
3.89361e-16
2.09137e-20
9.80905e-16
-5.03206e-15
3.89359e-16
3.09554e-20
9.80883e-16
-5.03193e-15
3.89352e-16
2.93652e-20
9.80976e-16
-5.0323e-15
3.8939e-16
9.80028e-16
-5.02779e-15
3.89014e-16
-4.48159e-22
-9.34655e-17
3.40593e-17
-1.61812e-22
-9.35679e-17
3.40948e-17
2.14307e-22
-9.35685e-17
3.40947e-17
4.73221e-22
-9.35685e-17
3.40946e-17
5.8889e-22
-9.35826e-17
3.40994e-17
-9.34791e-17
3.40629e-17
5.71145e-20
2.33253e-16
-1.38253e-15
1.34485e-19
2.33443e-16
-1.38318e-15
1.81644e-19
2.33249e-16
-1.38299e-15
1.76846e-19
2.33048e-16
-1.38265e-15
1.16338e-19
2.32826e-16
-1.3823e-15
2.32251e-16
-1.38132e-15
-2.99193e-18
1.59559e-13
-2.39003e-13
-1.73594e-19
1.59701e-13
-2.3919e-13
3.41143e-18
1.59697e-13
-2.39025e-13
5.53889e-18
1.59693e-13
-2.38853e-13
5.81892e-18
1.59708e-13
-2.38661e-13
1.59563e-13
-2.38142e-13
-9.40267e-20
-2.1795e-14
-5.43238e-20
-2.18128e-14
6.03378e-21
-2.18153e-14
6.23596e-20
-2.18171e-14
9.74716e-20
-2.1821e-14
-2.18097e-14
1.17889e-17
-1.2667e-12
1.62862e-12
2.31197e-17
-1.2679e-12
1.63028e-12
2.99047e-17
-1.26819e-12
1.63047e-12
2.96663e-17
-1.2685e-12
1.63066e-12
1.90086e-17
-1.26893e-12
1.6311e-12
-1.26823e-12
1.62963e-12
-5.63868e-16
1.6943e-11
-2.86516e-11
-1.54929e-16
1.69566e-11
-2.86759e-11
2.31062e-16
1.6956e-11
-2.86751e-11
6.23071e-16
1.69556e-11
-2.86744e-11
9.66968e-16
1.69573e-11
-2.86769e-11
1.69432e-11
-2.86518e-11
-2.20216e-17
5.40609e-12
-1.66227e-17
5.41539e-12
-7.83314e-18
5.41512e-12
3.36429e-18
5.4153e-12
1.54103e-17
5.41744e-12
5.40788e-12
5.89374e-15
-4.33676e-10
4.97685e-10
1.21172e-14
-4.34046e-10
4.98092e-10
1.52473e-14
-4.34072e-10
4.98115e-10
1.62137e-14
-4.3411e-10
4.98149e-10
1.30733e-14
-4.34224e-10
4.98268e-10
-4.33877e-10
4.9789e-10
-7.93236e-14
1.1602e-09
-2.42497e-09
-5.46157e-14
1.16101e-09
-2.42687e-09
-3.71193e-14
1.16096e-09
-2.42681e-09
1.5439e-14
1.16092e-09
-2.42683e-09
1.12282e-13
1.16104e-09
-2.42718e-09
1.16015e-09
-2.42514e-09
-2.98414e-15
9.08747e-10
-2.83688e-15
9.09391e-10
-2.51154e-15
9.09678e-10
-1.41632e-15
9.0991e-10
1.17512e-15
9.10229e-10
9.10696e-10
3.63641e-12
1.11276e-08
-1.65876e-07
3.15708e-12
1.11364e-08
-1.6598e-07
2.35744e-12
1.11333e-08
-1.65908e-07
1.12332e-12
1.11314e-08
-1.65856e-07
-9.83589e-13
1.11312e-08
-1.65829e-07
1.11173e-08
-1.65571e-07
-4.45145e-12
8.25042e-08
-1.60625e-06
-3.16426e-12
8.2565e-08
-1.60717e-06
-3.11457e-12
8.25596e-08
-1.60706e-06
-2.81417e-12
8.25582e-08
-1.60702e-06
-9.03371e-14
8.25706e-08
-1.60718e-06
8.25007e-08
-1.60609e-06
-4.25632e-13
5.25982e-09
-4.34011e-13
5.25883e-09
-4.42277e-13
5.259e-09
-3.61505e-13
5.25893e-09
-3.17896e-14
5.25813e-09
5.26265e-09
2.68793e-09
1.49949e-05
3.17192e-09
1.50029e-05
3.24055e-09
1.50018e-05
2.95683e-09
1.50014e-05
2.21364e-09
1.50029e-05
1.49952e-05
-5.57971e-11
-6.029e-07
1.03174e-10
-6.03151e-07
1.00716e-10
-6.03101e-07
4.84758e-11
-6.03073e-07
3.42803e-11
-6.03115e-07
-6.02736e-07
-1.3264e-11
-1.39605e-11
-1.51413e-11
-1.43138e-11
-5.98458e-12
-8.41486e-60
1.58696e-55
-6.43414e-52
1.47373e-60
1.58966e-55
-6.4448e-52
5.62002e-60
1.58953e-55
-6.44422e-52
8.32159e-60
1.58964e-55
-6.44459e-52
1.0433e-59
1.59021e-55
-6.44685e-52
1.58749e-55
-6.4358e-52
-1.26879e-62
6.96603e-58
-2.76713e-54
1.01888e-62
6.97875e-58
-2.77208e-54
1.96489e-62
6.97825e-58
-2.77187e-54
2.65142e-62
6.97881e-58
-2.77206e-54
3.2687e-62
6.98154e-58
-2.77313e-54
6.96858e-58
-2.76797e-54
6.1042e-67
-4.30099e-58
2.94568e-66
-4.30885e-58
3.96631e-66