/*--------------------------------*- C++ -*----------------------------------*\
| =========                 |                                                 |
| \\      /  F ield         | OpenFOAM: The Open Source CFD Toolbox           |
|  \\    /   O peration     | Version:  v1612+                                |
|   \\  /    A nd           | Web:      www.OpenFOAM.com                      |
|    \\/     M anipulation  |                                                 |
\*---------------------------------------------------------------------------*/
FoamFile
{
    version     2.0;
    format      ascii;
    class       volScalarField;
    location    "1.55";
    object      p_rgh;
}
// * * * * * * * * * * * * * * * * * * * * * * * * * * * * * * * * * * * * * //

dimensions      [1 -1 -2 0 0 0 0];

internalField   nonuniform List<scalar> 
1116
(
37550.4
37550.5
37550.5
37550.5
37550.5
37550.5
36478.1
36478.1
36478.1
36478
36478
36478
33238.9
33238.9
33238.9
33238.9
33238.8
33238.8
29067.4
29067.4
29067.4
29067.4
29067.4
29067.3
24141.9
24141.9
24141.9
24141.9
24141.9
24141.9
19261.1
19261.1
19261.1
19261.1
19261.2
19261.2
14003.6
14003.6
14003.6
14003.6
14003.6
14003.7
9294.22
9294.05
9294.07
9294.11
9294.12
9294.16
8216.76
8216.56
8216.59
8216.63
8216.65
8216.73
6730.55
6730.64
6730.7
6730.76
6730.8
6730.81
4404.89
4405.05
4405.07
4405.13
4405.17
4405.07
4127.45
4127.57
4127.66
4127.72
4127.75
4127.73
37548.3
37548.3
37548.3
37548.4
37548.4
37548.4
35658.3
35658.3
35658.3
35658.3
35658.3
35658.3
31670.7
31670.7
31670.7
31670.7
31670.7
31670.7
26260.7
26260.7
26260.8
26260.8
26260.8
26260.8
17919.4
17919.4
17919.5
17919.5
17919.5
17919.6
10947.1
10946.9
10947
10947.1
10947.1
10947.2
3920.04
3919.74
3919.82
3919.88
3919.88
3919.95
53.6936
53.6525
53.6558
53.6631
53.6624
53.6671
-104.118
-104.105
-104.105
-104.109
-104.111
-104.111
29.4285
29.4199
29.4179
29.42
29.4237
29.4273
359.616
359.573
359.594
359.644
359.709
359.805
1646.42
1646.58
1646.63
1646.68
1646.79
1646.75
38020.9
38020.9
38020.9
38020.9
38020.9
38020.9
34964.8
34964.8
34964.8
34964.9
34964.9
34964.9
26223.1
26223.3
26223.4
26223.4
26223.4
26223.6
12171.9
12172.1
12172.3
12172.3
12172.4
12172.6
644.869
644.895
644.957
644.974
644.995
645.093
-35.1119
-35.1113
-35.111
-35.1101
-35.1093
-35.1086
-28.7106
-28.71
-28.7089
-28.7077
-28.7069
-28.7067
-22.9564
-22.9558
-22.9562
-22.9567
-22.9571
-22.9578
-59.2692
-59.2687
-59.2708
-59.2741
-59.2768
-59.2796
-75.9636
-75.9605
-75.9576
-75.958
-75.9619
-75.9634
-128.561
-128.56
-128.555
-128.543
-128.529
-128.521
132.441
132.451
132.451
132.469
132.511
132.506
40363.4
40363.4
40363.4
40363.4
40363.4
40363.4
23170.2
23170.3
23170.4
23170.4
23170.4
23170.7
3253.18
3253.32
3253.38
3253.42
3253.43
3253.6
-11.2422
-11.2377
-11.2365
-11.2348
-11.2343
-11.2362
-5.77843
-5.77849
-5.77847
-5.77866
-5.7793
-5.78035
-12.6023
-12.6038
-12.604
-12.6038
-12.6039
-12.6041
-21.2134
-21.2131
-21.2124
-21.2114
-21.2105
-21.2103
-32.0974
-32.0957
-32.0949
-32.0947
-32.0958
-32.0973
-64.2123
-64.2125
-64.2129
-64.2125
-64.2113
-64.2125
-107.362
-107.36
-107.359
-107.36
-107.363
-107.365
-140.418
-140.421
-140.425
-140.431
-140.44
-140.446
-70.3289
-70.3347
-70.3394
-70.3399
-70.337
-70.3509
-0.0903308
-0.0903761
-0.0903948
-0.0903982
-0.0903964
-0.0903928
-0.0946132
-0.0946567
-0.0946712
-0.0946703
-0.0946613
-0.0946458
-0.103178
-0.10323
-0.103246
-0.103242
-0.103228
-0.103207
-0.116326
-0.116383
-0.116397
-0.116387
-0.116365
-0.116336
-0.134457
-0.134508
-0.134513
-0.134492
-0.13446
-0.134421
-0.15806
-0.158089
-0.158078
-0.158048
-0.158007
-0.157963
-0.187468
-0.187469
-0.187447
-0.187414
-0.187376
-0.187339
-0.222993
-0.222976
-0.222957
-0.222939
-0.222921
-0.222905
-0.264637
-0.264625
-0.26463
-0.264643
-0.26466
-0.264675
-0.310717
-0.31073
-0.310765
-0.310811
-0.310858
-0.310896
-0.35728
-0.357313
-0.357365
-0.357421
-0.357474
-0.357513
-0.393882
-0.393914
-0.393953
-0.393992
-0.394026
-0.394047
-0.0859762
-0.086007
-0.0860165
-0.0860139
-0.086005
-0.0859906
-0.0902462
-0.0902752
-0.0902817
-0.0902747
-0.0902586
-0.0902325
-0.098834
-0.0988686
-0.0988737
-0.098862
-0.0988389
-0.098804
-0.112084
-0.11212
-0.11212
-0.1121
-0.112066
-0.112019
-0.130544
-0.130572
-0.130561
-0.13053
-0.130484
-0.130426
-0.1551
-0.155109
-0.155087
-0.155048
-0.154997
-0.154938
-0.187223
-0.187216
-0.187191
-0.187157
-0.187118
-0.187075
-0.228419
-0.228415
-0.228406
-0.228397
-0.228386
-0.228378
-0.278871
-0.278892
-0.278917
-0.278943
-0.278968
-0.278992
-0.336421
-0.336478
-0.33653
-0.336578
-0.336619
-0.336649
-0.398725
-0.398792
-0.398843
-0.398881
-0.398906
-0.398914
-0.455698
-0.455734
-0.455755
-0.455768
-0.455773
-0.455766
-0.0772874
-0.0773114
-0.0773171
-0.0773117
-0.0773007
-0.0772855
-0.0813248
-0.0813466
-0.0813487
-0.0813388
-0.0813208
-0.0812946
-0.0894821
-0.0895065
-0.0895052
-0.0894897
-0.0894642
-0.0894295
-0.102141
-0.102164
-0.102155
-0.102131
-0.102095
-0.102049
-0.119908
-0.11992
-0.119902
-0.119867
-0.119822
-0.119767
-0.143631
-0.143629
-0.143603
-0.143565
-0.143519
-0.143468
-0.17403
-0.174025
-0.174005
-0.173979
-0.173949
-0.173919
-0.211747
-0.211762
-0.211769
-0.211771
-0.21177
-0.211768
-0.260101
-0.260159
-0.260199
-0.260227
-0.260247
-0.260258
-0.323441
-0.323525
-0.323577
-0.323607
-0.32362
-0.323618
-0.398392
-0.39848
-0.398513
-0.398514
-0.39849
-0.398447
-0.485162
-0.485192
-0.485184
-0.485161
-0.485129
-0.485089
-0.0647023
-0.0647198
-0.0647224
-0.0647157
-0.0647044
-0.0646898
-0.0682603
-0.0682753
-0.0682738
-0.068263
-0.0682454
-0.0682213
-0.0754928
-0.0755078
-0.0755024
-0.075486
-0.0754615
-0.0754302
-0.08685
-0.0868601
-0.0868476
-0.0868232
-0.0867903
-0.0867505
-0.103153
-0.103153
-0.103132
-0.103101
-0.103062
-0.103019
-0.126022
-0.126013
-0.12599
-0.12596
-0.125926
-0.125891
-0.158686
-0.158685
-0.158675
-0.15866
-0.158644
-0.158627
-0.205854
-0.205883
-0.205897
-0.205904
-0.205905
-0.205902
-0.27166
-0.271727
-0.271757
-0.271767
-0.271762
-0.271742
-0.361051
-0.361139
-0.361157
-0.361136
-0.361088
-0.361018
-0.487022
-0.487084
-0.487068
-0.487014
-0.486934
-0.486844
-0.709089
-0.70911
-0.709069
-0.709004
-0.708932
-0.708859
34336.9
34336.9
34337
34337
34336.9
34337.2
14632.3
14632.4
14632.4
14632.4
14632.4
14632.6
188.521
188.543
188.552
188.536
188.531
188.589
16.8053
16.807
16.8076
16.808
16.8077
16.8064
12.7612
12.7617
12.7625
12.7633
12.7632
12.7617
-45.015
-45.0145
-45.0143
-45.0143
-45.0136
-45.0126
-2.40525
-2.40507
-2.40456
-2.4038
-2.40335
-2.4035
-15.9059
-15.9041
-15.9035
-15.9034
-15.9033
-15.9033
-27.7941
-27.7938
-27.7938
-27.7938
-27.7938
-27.7939
-0.546166
-0.545012
-0.544471
-0.544415
-0.544507
-0.54478
-4.99821
-4.99732
-4.99673
-4.99662
-4.99667
-4.99692
-7.35629
-7.35648
-7.35651
-7.35652
-7.35655
-7.35667
-10.851
-10.8503
-10.85
-10.8499
-10.8501
-10.8504
-8.67454
-8.67476
-8.67491
-8.67512
-8.67535
-8.67566
-7.35298
-7.3531
-7.35315
-7.35318
-7.35321
-7.3533
-14.0551
-14.0554
-14.0554
-14.0554
-14.0553
-14.0553
-9.42168
-9.4218
-9.42197
-9.42218
-9.42241
-9.42269
-5.78676
-5.78677
-5.78677
-5.78673
-5.78671
-5.78671
-17.6036
-17.6032
-17.6028
-17.6025
-17.6025
-17.6026
-11.4904
-11.4898
-11.4896
-11.4897
-11.4899
-11.4902
-5.11154
-5.11135
-5.11135
-5.11142
-5.11153
-5.11165
-25.703
-25.7016
-25.701
-25.7011
-25.7019
-25.7027
-14.4692
-14.4683
-14.468
-14.4681
-14.4685
-14.4692
-4.30521
-4.30503
-4.30509
-4.30524
-4.30538
-4.30562
-44.2294
-44.2287
-44.2284
-44.2286
-44.2294
-44.2301
-19.9275
-19.9269
-19.9269
-19.9272
-19.9278
-19.9284
-3.41536
-3.41526
-3.41533
-3.41541
-3.41544
-3.41576
-64.8899
-64.8897
-64.8894
-64.8899
-64.8915
-64.8917
-23.2615
-23.2611
-23.2609
-23.2609
-23.2617
-23.2616
-1.56764
-1.56728
-1.56716
-1.5671
-1.56716
-1.56737
-70.2645
-70.2666
-70.268
-70.271
-70.2764
-70.273
-14.798
-14.7983
-14.7982
-14.7982
-14.8
-14.7964
2.93061
2.93112
2.93136
2.93136
2.93094
2.93123
-12.7217
-12.726
-12.7279
-12.7276
-12.7262
-12.7265
16.8772
16.8782
16.8784
16.8783
16.8771
16.8781
11.8462
11.8473
11.8476
11.8474
11.8468
11.8476
-2.08915
-2.08919
-2.08902
-2.08877
-2.08853
-2.08835
-0.364345
-0.36435
-0.364238
-0.364085
-0.363913
-0.363782
0.20244
0.202438
0.202495
0.202569
0.202646
0.202704
-3.24042
-3.24029
-3.23993
-3.23944
-3.23898
-3.23865
-0.362305
-0.362123
-0.36193
-0.361747
-0.361561
-0.361435
0.493615
0.493676
0.493749
0.493818
0.493889
0.493921
-5.03656
-5.0363
-5.03565
-5.03471
-5.03369
-5.03286
-0.447093
-0.446759
-0.446567
-0.446434
-0.446326
-0.446306
1.08879
1.08893
1.089
1.08903
1.08904
1.08899
-11.5034
-11.5035
-11.5033
-11.5031
-11.5027
-11.5022
-0.389744
-0.389486
-0.389452
-0.389574
-0.389793
-0.39005
2.41281
2.41305
2.41308
2.41303
2.41293
2.41269
-5.62338
-5.62334
-5.62369
-5.62418
-5.6248
-5.62533
0.0898904
0.0901441
0.089852
0.0893193
0.0885049
0.0875231
4.44587
4.44622
4.44617
4.44599
4.44574
4.44512
-36.5973
-36.5991
-36.6008
-36.6027
-36.6051
-36.6089
0.0101708
0.0121564
0.0119902
0.011293
0.0101658
0.00839689
7.05999
7.06062
7.06059
7.06038
7.05997
7.05927
-0.0488517
-0.0488626
-0.0488623
-0.0488555
-0.0488449
-0.0488318
-0.0304979
-0.0305022
-0.0305001
-0.0304943
-0.0304861
-0.030476
-0.0105129
-0.0105129
-0.0105112
-0.0105086
-0.0105049
-0.0104999
-0.0516062
-0.0516144
-0.0516107
-0.0516003
-0.0515846
-0.0515641
-0.0322276
-0.03223
-0.0322256
-0.0322174
-0.0322058
-0.0321907
-0.011112
-0.0111113
-0.011109
-0.0111055
-0.0111006
-0.0110938
-0.0572226
-0.0572292
-0.0572217
-0.0572067
-0.0571859
-0.0571601
-0.0357644
-0.0357649
-0.0357579
-0.0357468
-0.0357319
-0.0357137
-0.0123398
-0.0123383
-0.0123349
-0.0123304
-0.0123243
-0.0123164
-0.0660862
-0.0660873
-0.066074
-0.0660533
-0.0660269
-0.0659963
-0.0413734
-0.0413699
-0.0413595
-0.0413452
-0.0413278
-0.0413079
-0.0142871
-0.0142843
-0.0142799
-0.0142744
-0.0142677
-0.0142597
-0.0788926
-0.0788856
-0.0788675
-0.0788437
-0.0788159
-0.0787862
-0.0495539
-0.0495462
-0.0495341
-0.0495198
-0.0495039
-0.0494875
-0.0171205
-0.0171169
-0.0171125
-0.0171077
-0.0171024
-0.017097
-0.0967913
-0.0967816
-0.0967659
-0.0967474
-0.0967275
-0.0967081
-0.0612162
-0.0612101
-0.0612024
-0.0611944
-0.0611865
-0.0611795
-0.021109
-0.0211073
-0.0211056
-0.0211039
-0.0211026
-0.0211019
-0.121693
-0.121697
-0.121695
-0.12169
-0.121685
-0.121679
-0.0780089
-0.0780149
-0.0780181
-0.0780202
-0.0780216
-0.0780219
-0.0265854
-0.0265887
-0.0265912
-0.0265933
-0.0265949
-0.0265953
-0.157421
-0.157451
-0.157465
-0.157471
-0.157471
-0.157464
-0.102924
-0.102947
-0.102957
-0.102961
-0.102958
-0.102946
-0.0336486
-0.0336554
-0.0336579
-0.0336581
-0.0336546
-0.0336451
-0.213837
-0.213887
-0.213898
-0.213889
-0.213866
-0.213827
-0.140485
-0.140512
-0.140509
-0.140492
-0.140461
-0.140417
-0.0407993
-0.040801
-0.0407945
-0.0407829
-0.040765
-0.0407401
-0.316735
-0.316779
-0.316761
-0.316715
-0.31665
-0.316575
-0.196688
-0.1967
-0.196672
-0.196624
-0.196564
-0.1965
-0.0437182
-0.043713
-0.0436968
-0.0436746
-0.0436488
-0.0436241
-0.527365
-0.527389
-0.527339
-0.527262
-0.527173
-0.527088
-0.266736
-0.26674
-0.266695
-0.266629
-0.266555
-0.266482
-0.028456
-0.0284536
-0.0284359
-0.0284125
-0.0283839
-0.0283488
-1.07345
-1.07342
-1.07332
-1.07319
-1.07305
-1.07292
-0.328627
-0.328596
-0.328513
-0.328404
-0.328281
-0.328157
0.029279
0.0293017
0.0293352
0.0293818
0.0294476
0.0295245
)
;

boundaryField
{
    seabed_topleft_surface
    {
        type            fixedFluxPressure;
        gradient        uniform 0;
        value           nonuniform List<scalar> 
72
(
37550.4
37550.5
37550.5
37550.5
37550.5
37550.5
36478.1
36478.1
36478.1
36478
36478
36478
33238.9
33238.9
33238.9
33238.9
33238.8
33238.8
29067.4
29067.4
29067.4
29067.4
29067.4
29067.3
24141.9
24141.9
24141.9
24141.9
24141.9
24141.9
19261.1
19261.1
19261.1
19261.1
19261.2
19261.2
14003.6
14003.6
14003.6
14003.6
14003.6
14003.7
9294.22
9294.05
9294.07
9294.11
9294.12
9294.16
8216.76
8216.56
8216.59
8216.63
8216.65
8216.73
6730.55
6730.64
6730.7
6730.76
6730.8
6730.81
4404.89
4405.05
4405.07
4405.13
4405.17
4405.07
4127.45
4127.57
4127.66
4127.72
4127.75
4127.73
)
;
    }
    seabed_topright_surface
    {
        type            fixedFluxPressure;
        gradient        uniform 0;
        value           nonuniform List<scalar> 
72
(
-0.0903308
-0.0903761
-0.0903948
-0.0903982
-0.0903964
-0.0903928
-0.0946132
-0.0946567
-0.0946712
-0.0946703
-0.0946613
-0.0946458
-0.103178
-0.10323
-0.103246
-0.103242
-0.103228
-0.103207
-0.116326
-0.116383
-0.116397
-0.116387
-0.116365
-0.116336
-0.134457
-0.134508
-0.134513
-0.134492
-0.13446
-0.134421
-0.15806
-0.158089
-0.158078
-0.158048
-0.158007
-0.157963
-0.187468
-0.187469
-0.187447
-0.187414
-0.187376
-0.187339
-0.222993
-0.222976
-0.222957
-0.222939
-0.222921
-0.222905
-0.264637
-0.264625
-0.26463
-0.264643
-0.26466
-0.264675
-0.310717
-0.31073
-0.310765
-0.310811
-0.310858
-0.310896
-0.35728
-0.357313
-0.357365
-0.357421
-0.357474
-0.357513
-0.393882
-0.393914
-0.393953
-0.393992
-0.394026
-0.394047
)
;
    }
    breakwater_top_surface
    {
        type            fixedFluxPressure;
        gradient        uniform 0;
        value           nonuniform List<scalar> 
36
(
-2.08915
-2.08919
-2.08902
-2.08877
-2.08853
-2.08835
-3.24042
-3.24029
-3.23993
-3.23944
-3.23898
-3.23865
-5.03656
-5.0363
-5.03565
-5.03471
-5.03369
-5.03286
-11.5034
-11.5035
-11.5033
-11.5031
-11.5027
-11.5022
-5.62338
-5.62334
-5.62369
-5.62418
-5.6248
-5.62533
-36.5973
-36.5991
-36.6008
-36.6027
-36.6051
-36.6089
)
;
    }
    breakwater_left_surface
    {
        type            fixedFluxPressure;
        gradient        uniform 0;
        value           nonuniform List<scalar> 
24
(
4127.45
4127.57
4127.66
4127.72
4127.75
4127.73
1646.42
1646.58
1646.63
1646.68
1646.79
1646.75
132.441
132.451
132.451
132.469
132.511
132.506
-70.3289
-70.3347
-70.3394
-70.3399
-70.337
-70.3509
)
;
    }
    breakwater_right_surface
    {
        type            fixedFluxPressure;
        gradient        uniform 0;
        value           nonuniform List<scalar> 
24
(
-0.393882
-0.393914
-0.393953
-0.393992
-0.394026
-0.394047
-0.455698
-0.455734
-0.455755
-0.455768
-0.455773
-0.455766
-0.485162
-0.485192
-0.485184
-0.485161
-0.485129
-0.485089
-0.709089
-0.70911
-0.709069
-0.709004
-0.708932
-0.708859
)
;
    }
    water_front_surface
    {
        type            fixedFluxPressure;
        gradient        uniform 0;
        value           nonuniform List<scalar> 
186
(
37550.4
36478.1
33238.9
29067.4
24141.9
19261.1
14003.6
9294.22
8216.76
6730.55
4404.89
4127.45
37548.3
35658.3
31670.7
26260.7
17919.4
10947.1
3920.04
53.6936
-104.118
29.4285
359.616
1646.42
38020.9
34964.8
26223.1
12171.9
644.869
-35.1119
-28.7106
-22.9564
-59.2692
-75.9636
-128.561
132.441
40363.4
23170.2
3253.18
-11.2422
-5.77843
-12.6023
-21.2134
-32.0974
-64.2123
-107.362
-140.418
-70.3289
-0.0903308
-0.0946132
-0.103178
-0.116326
-0.134457
-0.15806
-0.187468
-0.222993
-0.264637
-0.310717
-0.35728
-0.393882
-0.0859762
-0.0902462
-0.098834
-0.112084
-0.130544
-0.1551
-0.187223
-0.228419
-0.278871
-0.336421
-0.398725
-0.455698
-0.0772874
-0.0813248
-0.0894821
-0.102141
-0.119908
-0.143631
-0.17403
-0.211747
-0.260101
-0.323441
-0.398392
-0.485162
-0.0647023
-0.0682603
-0.0754928
-0.08685
-0.103153
-0.126022
-0.158686
-0.205854
-0.27166
-0.361051
-0.487022
-0.709089
34336.9
14632.3
188.521
16.8053
12.7612
-45.015
-2.40525
-15.9059
-27.7941
-0.546166
-4.99821
-7.35629
-10.851
-8.67454
-7.35298
-14.0551
-9.42168
-5.78676
-17.6036
-11.4904
-5.11154
-25.703
-14.4692
-4.30521
-44.2294
-19.9275
-3.41536
-64.8899
-23.2615
-1.56764
-70.2645
-14.798
2.93061
-12.7217
16.8772
11.8462
-2.08915
-0.364345
0.20244
-3.24042
-0.362305
0.493615
-5.03656
-0.447093
1.08879
-11.5034
-0.389744
2.41281
-5.62338
0.0898904
4.44587
-36.5973
0.0101708
7.05999
-0.0488517
-0.0304979
-0.0105129
-0.0516062
-0.0322276
-0.011112
-0.0572226
-0.0357644
-0.0123398
-0.0660862
-0.0413734
-0.0142871
-0.0788926
-0.0495539
-0.0171205
-0.0967913
-0.0612162
-0.021109
-0.121693
-0.0780089
-0.0265854
-0.157421
-0.102924
-0.0336486
-0.213837
-0.140485
-0.0407993
-0.316735
-0.196688
-0.0437182
-0.527365
-0.266736
-0.028456
-1.07345
-0.328627
0.029279
)
;
    }
    water_back_surface
    {
        type            fixedFluxPressure;
        gradient        uniform 0;
        value           nonuniform List<scalar> 
186
(
37550.5
36478
33238.8
29067.3
24141.9
19261.2
14003.7
9294.16
8216.73
6730.81
4405.07
4127.73
37548.4
35658.3
31670.7
26260.8
17919.6
10947.2
3919.95
53.6671
-104.111
29.4273
359.805
1646.75
38020.9
34964.9
26223.6
12172.6
645.093
-35.1086
-28.7067
-22.9578
-59.2796
-75.9634
-128.521
132.506
40363.4
23170.7
3253.6
-11.2362
-5.78035
-12.6041
-21.2103
-32.0973
-64.2125
-107.365
-140.446
-70.3509
-0.0903928
-0.0946458
-0.103207
-0.116336
-0.134421
-0.157963
-0.187339
-0.222905
-0.264675
-0.310896
-0.357513
-0.394047
-0.0859906
-0.0902325
-0.098804
-0.112019
-0.130426
-0.154938
-0.187075
-0.228378
-0.278992
-0.336649
-0.398914
-0.455766
-0.0772855
-0.0812946
-0.0894295
-0.102049
-0.119767
-0.143468
-0.173919
-0.211768
-0.260258
-0.323618
-0.398447
-0.485089
-0.0646898
-0.0682213
-0.0754302
-0.0867505
-0.103019
-0.125891
-0.158627
-0.205902
-0.271742
-0.361018
-0.486844
-0.708859
34337.2
14632.6
188.589
16.8064
12.7617
-45.0126
-2.4035
-15.9033
-27.7939
-0.54478
-4.99692
-7.35667
-10.8504
-8.67566
-7.3533
-14.0553
-9.42269
-5.78671
-17.6026
-11.4902
-5.11165
-25.7027
-14.4692
-4.30562
-44.2301
-19.9284
-3.41576
-64.8917
-23.2616
-1.56737
-70.273
-14.7964
2.93123
-12.7265
16.8781
11.8476
-2.08835
-0.363782
0.202704
-3.23865
-0.361435
0.493921
-5.03286
-0.446306
1.08899
-11.5022
-0.39005
2.41269
-5.62533
0.0875231
4.44512
-36.6089
0.00839689
7.05927
-0.0488318
-0.030476
-0.0104999
-0.0515641
-0.0321907
-0.0110938
-0.0571601
-0.0357137
-0.0123164
-0.0659963
-0.0413079
-0.0142597
-0.0787862
-0.0494875
-0.017097
-0.0967081
-0.0611795
-0.0211019
-0.121679
-0.0780219
-0.0265953
-0.157464
-0.102946
-0.0336451
-0.213827
-0.140417
-0.0407401
-0.316575
-0.1965
-0.0436241
-0.527088
-0.266482
-0.0283488
-1.07292
-0.328157
0.0295245
)
;
    }
    water_left_surface
    {
        type            fixedFluxPressure;
        gradient        uniform 0;
        value           nonuniform List<scalar> 
42
(
37550.4
37550.5
37550.5
37550.5
37550.5
37550.5
37548.3
37548.3
37548.3
37548.4
37548.4
37548.4
38020.9
38020.9
38020.9
38020.9
38020.9
38020.9
40363.4
40363.4
40363.4
40363.4
40363.4
40363.4
34336.9
34336.9
34337
34337
34336.9
34337.2
14632.3
14632.4
14632.4
14632.4
14632.4
14632.6
188.521
188.543
188.552
188.536
188.531
188.589
)
;
    }
    water_right_surface
    {
        type            fixedFluxPressure;
        gradient        uniform 0;
        value           nonuniform List<scalar> 
42
(
-0.0903308
-0.0903761
-0.0903948
-0.0903982
-0.0903964
-0.0903928
-0.0859762
-0.086007
-0.0860165
-0.0860139
-0.086005
-0.0859906
-0.0772874
-0.0773114
-0.0773171
-0.0773117
-0.0773007
-0.0772855
-0.0647023
-0.0647198
-0.0647224
-0.0647157
-0.0647044
-0.0646898
-0.0488517
-0.0488626
-0.0488623
-0.0488555
-0.0488449
-0.0488318
-0.0304979
-0.0305022
-0.0305001
-0.0304943
-0.0304861
-0.030476
-0.0105129
-0.0105129
-0.0105112
-0.0105086
-0.0105049
-0.0104999
)
;
    }
    water_top_surface
    {
        type            totalPressure;
        rho             rho;
        psi             none;
        gamma           1;
        p0              uniform 0;
        value           nonuniform List<scalar> 
180
(
0
0
0
0
0
0
-57.2963
-57.2957
-57.2962
-57.2962
-57.2948
-57.2896
-19.3773
-19.378
-19.3783
-19.3787
-19.3791
-19.3789
-6.69357
-6.6947
-6.6947
-6.69476
-6.69489
-6.69472
-6.39936
-6.39979
-6.39968
-6.39962
-6.39954
-6.39912
-4.17086
-4.17079
-4.17054
-4.17036
-4.17022
-4.17003
-3.31395
-3.31409
-3.31409
-3.31409
-3.31408
-3.31405
-1.40012
-1.40018
-1.40024
-1.40025
-1.40017
-1.40008
-0.127599
-0.127539
-0.127535
-0.127511
-0.127437
-0.127445
0
0
0
0
0
0
0
0
0
0
0
0
0
0
0
0
0
0
0
0
0
0
0
0
0
0
0
0
0
0
0
0
0
0
0
0
0
0
0
0
0
0
0
0
0
0
0
0
0
0
0
0
0
0
0
0
0
0
0
0
0
0
0
0
0
0
0
0
0
0
0
0
0
0
0
0
0
0
0
0
0
0
0
0
0
0
0
0
0
0
0
0
0
0
0
0
0
0
0
0
0
0
0
0
0
0
0
0
0
0
0
0
0
0
0
0
0
0
0
0
0
0
0
0
0
0
)
;
    }
}


// ************************************************************************* //
