/*--------------------------------*- C++ -*----------------------------------*\
| =========                 |                                                 |
| \\      /  F ield         | OpenFOAM: The Open Source CFD Toolbox           |
|  \\    /   O peration     | Version:  v1612+                                |
|   \\  /    A nd           | Web:      www.OpenFOAM.com                      |
|    \\/     M anipulation  |                                                 |
\*---------------------------------------------------------------------------*/
FoamFile
{
    version     2.0;
    format      ascii;
    class       surfaceScalarField;
    location    "1.55";
    object      phi;
}
// * * * * * * * * * * * * * * * * * * * * * * * * * * * * * * * * * * * * * //

dimensions      [0 3 -1 0 0 0 0];

internalField   nonuniform List<scalar> 
2916
(
-4.93533e-07
0.426861
-0.426861
-3.7379e-07
0.426863
-0.426863
-1.04373e-07
0.426863
-0.426863
2.85299e-07
0.426863
-0.426863
5.5418e-07
0.426863
-0.426863
0.426862
-0.426861
-6.11163e-08
0.961178
-0.534317
5.37571e-07
0.961182
-0.53432
6.83793e-07
0.961181
-0.534318
5.81829e-07
0.96118
-0.534317
6.4246e-07
0.96118
-0.534317
0.961177
-0.534314
6.56181e-07
1.48339
-0.522213
2.22889e-06
1.4834
-0.522215
4.68431e-07
1.48339
-0.522211
-6.64312e-07
1.48339
-0.522211
8.45849e-08
1.48339
-0.522212
1.48338
-0.522207
-2.98513e-06
2.0493
-0.565902
-3.99372e-07
2.0493
-0.565908
-3.43881e-06
2.0493
-0.565901
-5.12647e-06
2.0493
-0.565902
-3.18518e-06
2.0493
-0.565906
2.04929
-0.565904
-1.51207e-05
2.60435
-0.555038
-1.05565e-05
2.60435
-0.555056
-1.06725e-05
2.60435
-0.555052
-1.07553e-05
2.60435
-0.555052
-6.80971e-06
2.60435
-0.555058
2.60434
-0.555061
-2.73262e-05
3.23163
-0.627255
-1.85338e-05
3.23164
-0.627301
-1.35422e-05
3.23164
-0.627298
-1.12173e-05
3.23164
-0.627297
-5.31948e-06
3.23164
-0.6273
3.23163
-0.627301
-2.843e-05
3.74785
-0.516195
-2.25085e-05
3.74789
-0.516248
-1.3013e-05
3.74789
-0.516253
-7.24709e-06
3.74789
-0.516252
-1.90879e-06
3.74789
-0.516252
3.74788
-0.51625
-1.82114e-05
4.17553
-0.427655
-1.78808e-05
4.17557
-0.427687
-7.52131e-06
4.17557
-0.427696
-1.62432e-06
4.17558
-0.427693
-4.54765e-07
4.17558
-0.427692
4.17557
-0.42769
-4.80189e-06
4.8693
-0.693769
-1.19254e-05
4.86935
-0.693769
-8.07071e-06
4.86934
-0.693773
-6.5111e-06
4.86934
-0.69377
-8.02675e-06
4.86936
-0.693778
4.86934
-0.693779
-4.10332e-05
5.21662
-0.347275
-2.41446e-05
5.21674
-0.347409
-1.73566e-05
5.21673
-0.347397
-1.13659e-05
5.21674
-0.347402
6.56523e-06
5.21677
-0.347424
5.21672
-0.347366
-6.3799e-05
3.93167
1.28502
-4.21643e-05
3.93192
1.2848
-3.99239e-05
3.93193
1.2848
-2.7292e-05
3.93195
1.28478
1.87052e-05
3.93196
1.28476
3.93188
1.28486
-0.000490927
3.93215
-0.000293767
3.93173
-8.09788e-05
3.93172
0.000143126
3.93173
0.000352791
3.93175
3.93223
1.21403e-06
0.490524
-0.917386
1.08398e-06
0.490528
-0.917391
7.60655e-07
0.490526
-0.917389
2.37649e-07
0.490525
-0.917388
1.13682e-08
0.490524
-0.917388
0.490521
-0.917383
2.67506e-06
0.960681
-1.00448
3.19126e-06
0.960692
-1.00448
1.03827e-06
0.96069
-1.00448
-4.15615e-07
0.960688
-1.00448
9.85964e-07
0.960686
-1.00448
0.96068
-1.00447
4.3688e-06
1.45805
-1.01958
4.31721e-06
1.45807
-1.01959
-5.54553e-08
1.45806
-1.01958
-2.26147e-06
1.45806
-1.01958
3.77213e-07
1.45806
-1.01959
1.45805
-1.01957
-2.75242e-06
2.08694
-1.19479
-3.3852e-07
2.08696
-1.19481
-4.66197e-07
2.08696
-1.19479
-1.89024e-07
2.08695
-1.19479
1.49285e-06
2.08695
-1.1948
2.08693
-1.19479
-1.28332e-05
2.6227
-1.09079
-1.12965e-05
2.62275
-1.09085
-3.50703e-06
2.62275
-1.09085
-2.57382e-06
2.62274
-1.09084
-6.46443e-06
2.62274
-1.09085
2.62273
-1.09086
1.40192e-06
3.3919
-1.39646
1.63471e-06
3.39198
-1.39653
9.50137e-06
3.39197
-1.39653
9.95049e-06
3.39197
-1.39652
1.20943e-06
3.39197
-1.39652
3.39194
-1.39651
3.34816e-05
4.48488
-1.6092
5.14003e-06
4.48498
-1.60921
2.29546e-06
4.48496
-1.60924
3.88076e-06
4.48496
-1.60924
-8.44681e-06
4.48497
-1.60924
4.48493
-1.60925
9.76036e-05
5.38344
-1.32631
2.56154e-05
5.38373
-1.32636
-9.17811e-06
5.3837
-1.3264
-1.45985e-05
5.38369
-1.32641
-2.19703e-05
5.38374
-1.32645
5.38368
-1.32646
-0.000115339
6.99689
-2.30711
-6.59724e-05
6.99702
-2.30712
-1.70477e-06
6.99702
-2.30716
6.60723e-05
6.99703
-2.30719
4.0347e-05
6.99726
-2.30727
6.99726
-2.30731
0.000289416
6.58117
0.0681656
0.000238646
6.58145
0.0682114
4.54031e-05
6.58148
0.0683414
-0.000171456
6.58153
0.0683145
-0.000208918
6.58183
0.0680355
6.58158
0.0680904
0.000135492
4.84988
3.01616
-3.38018e-06
4.85043
3.01595
-0.000196682
4.85043
3.01604
-0.000366357
4.85049
3.01599
-0.000313328
4.85075
3.0158
4.85015
3.01598
-0.000348093
8.78239
-0.000126499
8.78194
-3.35715e-05
8.78205
0.000133482
8.78206
0.000591365
8.78204
8.78297
5.05423e-06
0.476773
-1.39416
3.9692e-06
0.476781
-1.39417
2.2314e-06
0.476779
-1.39417
8.31254e-07
0.476779
-1.39417
8.49616e-07
0.476778
-1.39417
0.476779
-1.39416
4.48016e-06
0.925985
-1.45369
4.34574e-06
0.926004
-1.45371
1.13097e-06
0.926003
-1.4537
-2.46468e-06
0.926001
-1.4537
-1.44216e-06
0.925997
-1.4537
0.925993
-1.45369
-5.38112e-06
1.49299
-1.58659
-6.1799e-06
1.49302
-1.58661
-4.43727e-06
1.49302
-1.5866
-5.98919e-06
1.49302
-1.5866
-8.77289e-06
1.49302
-1.5866
1.49301
-1.5866
-5.42893e-07
2.46647
-2.16826
3.31555e-06
2.46652
-2.16831
1.4824e-05
2.46651
-2.16829
1.1323e-05
2.46651
-2.16828
-4.16666e-06
2.46651
-2.16827
2.46648
-2.16827
2.79712e-05
3.01419
-1.63854
4.00572e-05
3.0143
-1.63864
5.91284e-05
3.01431
-1.63867
4.71972e-05
3.01432
-1.63864
5.35681e-06
3.01433
-1.63863
3.01432
-1.63869
4.35362e-05
3.46987
-1.85218
6.96501e-05
3.47002
-1.85227
7.57906e-05
3.47001
-1.85224
4.51432e-05
3.47003
-1.8522
-5.59474e-06
3.47005
-1.85219
3.46999
-1.85218
3.2262e-05
3.50449
-1.64386
4.11931e-05
3.50461
-1.64381
3.23613e-05
3.50457
-1.64379
-2.46358e-06
3.50459
-1.64376
-4.79667e-05
3.50467
-1.64382
3.50458
-1.64389
7.78529e-05
3.87024
-1.69214
-1.10598e-05
3.8704
-1.69206
-3.05208e-05
3.8703
-1.69211
4.36887e-06
3.87029
-1.69216
-3.44016e-05
3.87053
-1.69227
3.87044
-1.69236
0.000139067
3.33332
-1.77032
0.000113506
3.33359
-1.77028
0.000162187
3.33341
-1.77031
0.000228599
3.33338
-1.77034
0.000141223
3.33379
-1.77046
3.3338
-1.77053
-0.000258031
3.11099
0.29076
-9.28049e-05
3.11087
0.290755
0.000144846
3.11058
0.290933
0.000253049
3.1106
0.290988
0.000232794
3.11119
0.290669
3.1111
0.291032
7.65105e-06
1.42706
4.70008
-0.000191222
1.42709
4.69994
-0.000521679
1.42691
4.70004
-0.000824048
1.42699
4.6999
-0.000438909
1.42739
4.69922
1.42679
4.69985
4.42625e-05
10.2094
-6.33651e-05
10.2091
-0.00028092
10.2092
-0.000363213
10.2091
5.385e-05
10.209
10.2098
4.27038e-06
0.207092
-1.60126
5.32089e-06
0.207097
-1.60127
3.97027e-06
0.207099
-1.60126
1.4266e-06
0.207099
-1.60126
9.51539e-07
0.207097
-1.60126
0.207108
-1.60127
-2.45543e-06
0.967789
-2.21439
-4.17579e-06
0.967795
-2.2144
8.53112e-07
0.967793
-2.2144
-1.22573e-06
0.96779
-2.21439
-1.76702e-05
0.967791
-2.21438
0.967783
-2.21438
-3.27291e-05
1.78792
-2.40669
-2.12523e-05
1.78792
-2.40675
1.79937e-06
1.78793
-2.40676
8.60364e-07
1.78793
-2.40674
-3.0058e-05
1.78795
-2.40673
1.78794
-2.40679
-6.21897e-05
1.44075
-1.82103
-8.43611e-06
1.44074
-1.82118
2.18098e-05
1.44077
-1.82116
1.65135e-05
1.4408
-1.82114
-4.52504e-06
1.44083
-1.82114
1.44083
-1.82115
0.000174008
1.18045
-1.37841
0.000220545
1.18055
-1.3785
0.000170379
1.18063
-1.37848
0.000104592
1.18067
-1.37844
6.78388e-05
1.18069
-1.37845
1.18066
-1.37846
9.46738e-05
0.434656
-1.10648
4.79124e-05
0.434809
-1.10648
3.71844e-05
0.434837
-1.10644
2.76657e-05
0.434863
-1.10638
-9.79982e-07
0.434926
-1.10639
0.434935
-1.10645
-0.000115633
0.0880692
-1.29715
-9.66203e-05
0.0880582
-1.29708
-4.31359e-05
0.0880423
-1.29705
2.34825e-05
0.0880655
-1.29702
2.11033e-05
0.0881935
-1.29707
0.0882659
-1.29719
-6.82481e-05
0.198482
-1.80249
-3.5071e-05
0.198303
-1.80234
2.12724e-05
0.198248
-1.80237
6.00142e-05
0.198279
-1.80241
-3.80824e-05
0.198518
-1.80249
0.198525
-1.80266
0.000133735
0.0265973
-1.59858
7.01862e-05
0.0265342
-1.59846
6.33804e-05
0.0264802
-1.59854
2.17209e-05
0.0265176
-1.59854
-7.24933e-05
0.0266954
-1.59855
0.0266496
-1.59873
0.000198472
-0.246566
0.56373
0.000149739
-0.246501
0.563846
0.000281345
-0.246601
0.563881
0.000345984
-0.246517
0.563957
1.38643e-05
-0.246136
0.563833
-0.246418
0.564111
0.000499467
-0.683505
5.13651
0.000446622
-0.683105
5.13659
0.000494236
-0.68326
5.13665
0.000507363
-0.683196
5.13656
0.000272449
-0.682664
5.13598
-0.683532
5.13723
0.000221462
9.52569
0.000183309
9.52607
-2.14261e-06
9.52611
-0.000102863
9.52602
0.000308999
9.52593
9.52659
1.11371e-07
-0.00102425
0.00102414
8.21593e-08
-0.0010243
0.00102421
5.7253e-08
-0.00102429
0.00102421
4.72012e-08
-0.00102429
0.0010242
4.02521e-08
-0.0010243
0.0010242
-0.00102423
0.00102416
1.58956e-07
-0.0020859
0.00106145
8.58473e-08
-0.00208604
0.0010615
5.30661e-08
-0.00208602
0.00106149
2.76602e-08
-0.00208602
0.00106148
-1.04771e-09
-0.00208603
0.00106147
-0.00208591
0.00106141
2.48877e-07
-0.00321872
0.00113245
1.16254e-07
-0.00321895
0.0011325
5.86025e-08
-0.00321892
0.00113247
1.99706e-08
-0.00321893
0.00113246
-1.54134e-08
-0.00321893
0.00113245
-0.00321874
0.0011324
2.43836e-07
-0.00444861
0.00122939
1.01895e-07
-0.00444892
0.00122947
5.17376e-08
-0.00444889
0.00122944
2.40015e-09
-0.00444888
0.00122944
-4.81733e-08
-0.00444888
0.00122945
-0.00444859
0.00122941
1.36967e-07
-0.00578801
0.00133891
7.07883e-08
-0.00578834
0.00133912
5.62604e-08
-0.00578832
0.00133913
-2.1208e-09
-0.00578829
0.00133918
-5.76055e-08
-0.00578828
0.00133921
-0.00578789
0.00133921
1.73917e-08
-0.00723289
0.00144464
1.43918e-07
-0.00723323
0.00144514
9.71689e-08
-0.0072332
0.00144527
3.43097e-09
-0.00723318
0.00144537
-4.65103e-08
-0.0072332
0.00144542
-0.00723277
0.0014454
-6.59161e-08
-0.00874444
0.00151175
1.64262e-07
-0.00874476
0.00151263
5.54523e-08
-0.00874476
0.00151286
-1.04575e-07
-0.00874478
0.00151296
-1.10721e-07
-0.00874489
0.00151294
-0.00874452
0.00151276
3.81041e-08
-0.0101027
0.00135886
2.18589e-07
-0.0101031
0.00136018
-7.06012e-08
-0.0101032
0.0013605
-3.21702e-07
-0.0101033
0.00136052
-2.65164e-07
-0.0101036
0.00136031
-0.0101034
0.00135986
4.12401e-07
-0.0107766
0.00067443
3.03187e-07
-0.0107771
0.000676187
-2.84776e-07
-0.0107774
0.000676555
-6.98763e-07
-0.0107777
0.000676406
-5.5226e-07
-0.0107781
0.000675909
-0.0107782
0.000675088
3.45975e-07
-0.00996601
-0.000809869
-6.09801e-08
-0.00996679
-0.000808546
-7.52431e-07
-0.00996717
-0.000808352
-1.15438e-06
-0.00996763
-0.00080863
-8.8724e-07
-0.00996831
-0.000809238
-0.0099688
-0.000810083
-3.06075e-07
-0.00695442
-0.00301056
-8.58226e-07
-0.0069548
-0.00301096
-1.3752e-06
-0.00695502
-0.00301131
-1.64816e-06
-0.00695528
-0.00301192
-1.31857e-06
-0.00695577
-0.00301287
-0.00695643
-0.00301408
-5.71138e-07
-0.00695358
-4.60889e-07
-0.00695516
-1.88618e-07
-0.00695559
1.07107e-07
-0.00695595
2.63829e-07
-0.00695639
-0.00695672
5.0083e-08
-0.00103286
0.00205689
3.91603e-08
-0.00103291
0.00205701
3.39186e-08
-0.0010329
0.00205701
2.29397e-08
-0.00103291
0.00205701
-2.05963e-09
-0.00103292
0.00205701
-0.00103286
0.00205688
1.05001e-07
-0.00211068
0.00213901
4.92752e-08
-0.00211082
0.00213912
2.47336e-08
-0.00211081
0.0021391
-5.83798e-09
-0.00211083
0.00213909
-5.29254e-08
-0.00211084
0.00213909
-0.00211074
0.00213895
1.69953e-07
-0.0032743
0.00229553
5.30231e-08
-0.00327452
0.00229565
-7.46269e-10
-0.00327451
0.00229561
-5.51674e-08
-0.00327453
0.00229561
-1.26638e-07
-0.00327455
0.00229562
-0.00327436
0.0022955
1.33796e-07
-0.0045529
0.00250732
-4.94881e-09
-0.00455319
0.00250749
-6.56904e-08
-0.00455318
0.00250747
-1.35183e-07
-0.00455318
0.0025075
-2.14923e-07
-0.00455319
0.00250753
-0.00455289
0.00250744
-9.87568e-09
-0.00594988
0.00273547
-7.4529e-08
-0.00595018
0.00273581
-1.36945e-07
-0.00595015
0.00273586
-1.94875e-07
-0.00595013
0.00273594
-2.4044e-07
-0.00595013
0.00273601
-0.00594971
0.00273592
-1.96052e-07
-0.00739654
0.00289155
-1.50381e-07
-0.00739678
0.00289224
-1.84919e-07
-0.00739672
0.00289242
-2.14561e-07
-0.00739668
0.00289255
-1.74466e-07
-0.00739669
0.00289262
-0.00739625
0.00289245
-2.40482e-07
-0.0086983
0.00281459
-1.3e-07
-0.00869847
0.00281577
-1.89682e-07
-0.00869841
0.00281606
-1.89251e-07
-0.00869843
0.00281617
-2.96437e-08
-0.00869855
0.00281611
-0.00869821
0.00281569
4.24906e-08
-0.00964336
0.0023054
7.22653e-08
-0.0096434
0.0023071
-1.26102e-07
-0.00964337
0.00230748
-1.88931e-07
-0.00964355
0.00230745
2.66821e-08
-0.00964392
0.00230712
-0.00964392
0.00230632
5.58691e-07
-0.0101511
0.00118331
3.37683e-07
-0.0101508
0.00118542
-8.77708e-08
-0.0101509
0.00118584
-3.42562e-07
-0.0101514
0.00118563
-1.58533e-07
-0.0101522
0.00118499
-0.0101528
0.00118383
1.14937e-06
-0.00979015
-0.00117074
2.78745e-07
-0.00978982
-0.00116829
-6.81683e-07
-0.00978999
-0.00116804
-1.32652e-06
-0.00979061
-0.00116867
-1.17933e-06
-0.00979172
-0.00117001
-0.00979284
-0.00117202
2.29869e-07
-0.00673661
-0.00606392
-5.42254e-07
-0.00673596
-0.00606489
-1.15964e-06
-0.00673601
-0.00606551
-1.66502e-06
-0.00673647
-0.00606652
-1.6369e-06
-0.0067375
-0.00606822
-0.00673903
-0.0060707
-5.9192e-07
-0.0136899
-2.11005e-07
-0.0136929
5.42311e-07
-0.0136936
1.04663e-06
-0.0136942
9.14189e-07
-0.0136951
-0.0136959
3.73927e-08
-0.00100022
0.00305704
3.16758e-08
-0.00100027
0.00305724
3.34302e-08
-0.00100027
0.00305722
2.92068e-08
-0.00100028
0.00305722
1.62341e-08
-0.00100028
0.00305722
-0.00100022
0.00305703
7.94009e-08
-0.0020581
0.0031967
3.9604e-08
-0.00205823
0.00319689
1.81768e-08
-0.00205823
0.00319686
-6.58554e-09
-0.00205825
0.00319685
-3.75638e-08
-0.00205827
0.00319685
-0.00205815
0.00319666
1.05268e-07
-0.00323326
0.00347029
9.60856e-09
-0.00323348
0.00347049
-4.17434e-08
-0.00323348
0.00347046
-8.68451e-08
-0.0032335
0.00347047
-1.30004e-07
-0.00323353
0.00347048
-0.00323334
0.00347029
3.49633e-08
-0.00458787
0.00386146
-8.23247e-08
-0.00458814
0.00386173
-1.51644e-07
-0.00458814
0.00386173
-2.07017e-07
-0.00458816
0.00386176
-2.3777e-07
-0.00458818
0.00386181
-0.0045879
0.00386164
-1.18646e-07
-0.00619416
0.00434154
-2.03735e-07
-0.00619443
0.004342
-2.67028e-07
-0.00619442
0.00434207
-3.03865e-07
-0.00619442
0.00434216
-2.78149e-07
-0.00619445
0.00434224
-0.00619409
0.00434204
-2.36602e-07
-0.00817293
0.00487067
-2.69857e-07
-0.00817317
0.00487149
-3.32311e-07
-0.00817313
0.00487166
-3.16429e-07
-0.00817314
0.00487178
-2.00419e-07
-0.00817321
0.00487183
-0.00817283
0.00487148
-1.03713e-07
-0.0107551
0.00539757
-1.493e-07
-0.0107553
0.00539886
-2.42421e-07
-0.0107552
0.00539911
-2.15989e-07
-0.0107553
0.00539915
-3.13764e-08
-0.0107555
0.00539902
-0.0107551
0.00539834
4.45461e-07
-0.0139244
0.00547534
2.57517e-07
-0.0139245
0.0054772
2.46794e-08
-0.0139244
0.0054775
-5.84514e-08
-0.0139246
0.00547736
7.49206e-08
-0.013925
0.00547691
-0.0139248
0.00547577
1.3255e-06
-0.0169235
0.00418181
7.94317e-07
-0.0169233
0.00418438
2.85731e-07
-0.0169232
0.00418474
-8.56961e-08
-0.0169235
0.00418436
-1.49471e-07
-0.0169242
0.00418345
-0.016924
0.00418178
1.36592e-06
-0.0176584
-0.000437255
8.55231e-07
-0.0176575
-0.000435536
4.76235e-07
-0.0176573
-0.000435325
1.05718e-07
-0.0176578
-0.000435828
-1.56985e-07
-0.0176588
-0.000436892
-0.0176595
-0.000438373
8.89587e-07
-0.0133714
-0.0103527
3.60573e-07
-0.0133709
-0.0103539
2.75567e-07
-0.0133708
-0.0103545
-1.84129e-08
-0.0133712
-0.0103554
-4.59998e-07
-0.013372
-0.0103571
-0.0133731
-0.0103594
-1.24795e-06
-0.0270615
-1.11992e-07
-0.0270678
1.78112e-06
-0.0270688
2.88869e-06
-0.0270689
2.45511e-06
-0.027069
-0.0270681
1.87088e-08
-0.000917488
0.00397451
2.10567e-08
-0.000917535
0.00397477
2.81881e-08
-0.000917542
0.00397475
2.79911e-08
-0.000917547
0.00397475
1.98721e-08
-0.000917551
0.00397475
-0.000917492
0.0039745
4.3635e-08
-0.00190595
0.00418506
2.74681e-08
-0.00190608
0.00418532
9.18674e-09
-0.00190608
0.0041853
-8.14136e-09
-0.0019061
0.00418529
-2.74684e-08
-0.00190612
0.00418529
-0.00190601
0.00418504
2.26448e-08
-0.00304329
0.0046074
-4.11278e-08
-0.0030435
0.00460769
-7.71744e-08
-0.00304352
0.00460767
-1.05271e-07
-0.00304354
0.00460768
-1.2019e-07
-0.00304357
0.0046077
-0.00304339
0.00460744
-9.70946e-08
-0.00441897
0.00523693
-1.83074e-07
-0.00441925
0.0052373
-2.23868e-07
-0.00441928
0.0052373
-2.38468e-07
-0.0044193
0.00523734
-2.20159e-07
-0.00441933
0.00523739
-0.00441906
0.00523711
-2.86644e-07
-0.00611407
0.00603677
-3.49776e-07
-0.00611443
0.00603729
-3.64555e-07
-0.00611447
0.00603735
-3.25052e-07
-0.0061145
0.00603743
-2.32818e-07
-0.00611453
0.00603751
-0.00611418
0.00603718
-4.14237e-07
-0.00812702
0.00688421
-4.43882e-07
-0.00812749
0.00688497
-3.9478e-07
-0.00812755
0.00688509
-2.7611e-07
-0.00812762
0.00688519
-9.89353e-08
-0.0081277
0.00688525
-0.00812732
0.00688478
-2.83476e-07
-0.0102866
0.00755795
-3.26348e-07
-0.0102873
0.007559
-2.34024e-07
-0.0102874
0.00755916
-6.54326e-08
-0.0102876
0.0075592
1.13675e-07
-0.0102879
0.00755914
-0.0102875
0.00755841
1.06739e-07
-0.0123761
0.00756507
-8.52655e-08
-0.0123771
0.00756644
-1.03873e-08
-0.0123773
0.00756661
1.09828e-07
-0.0123777
0.00756652
1.76477e-07
-0.0123781
0.00756623
-0.0123778
0.00756522
5.5355e-07
-0.0141442
0.00594893
1.2104e-07
-0.0141451
0.00595063
1.03144e-07
-0.0141454
0.0059508
5.54297e-08
-0.0141459
0.00595056
-1.1808e-07
-0.0141466
0.00595002
-0.0141466
0.00594874
1.00553e-06
-0.0153565
0.000772574
2.42686e-07
-0.0153577
0.000774054
9.55062e-08
-0.0153579
0.000774105
-2.22302e-07
-0.0153581
0.0007737
-7.08146e-07
-0.0153588
0.000772876
-0.0153592
0.000771433
1.38984e-06
-0.00976598
-0.0159469
1.16548e-06
-0.00976736
-0.0159487
1.52353e-06
-0.00976745
-0.0159492
1.26619e-06
-0.00976731
-0.0159497
2.20058e-07
-0.00976766
-0.0159508
-0.00976867
-0.0159523
8.20654e-07
-0.036831
1.32456e-06
-0.0368398
2.77331e-06
-0.0368413
3.70207e-06
-0.0368406
2.71066e-06
-0.036839
-0.036836
-3.76175e-06
-1.07369
-0.527568
-1.06349e-06
-1.0737
-0.527574
5.47322e-07
-1.0737
-0.527569
3.77992e-07
-1.07369
-0.52757
5.74584e-07
-1.07369
-0.527572
-1.0737
-0.527567
1.57593e-05
2.47599
-3.5497
1.40605e-05
2.47603
-3.54973
1.13096e-05
2.47602
-3.54971
2.02319e-05
2.47602
-3.54972
2.75311e-05
2.47602
-3.54971
2.47604
-3.54972
3.37269e-05
-4.33017
2.60144e-05
-4.33018
1.74926e-05
-4.33017
2.75675e-05
-4.33018
4.65183e-05
-4.33018
-4.33018
-3.59418e-05
-2.73803
-0.00388968
-4.02108e-05
-2.73807
-0.00390383
-2.71663e-06
-2.73809
-0.00391208
3.23227e-05
-2.73808
-0.00391338
-2.41911e-06
-2.73803
-0.00389137
-2.73805
-0.00390582
-2.61421e-05
-3.77146
-2.51625
9.43736e-06
-3.77149
-2.51636
3.97578e-05
-3.77149
-2.51636
5.34288e-05
-3.77147
-2.51635
7.64474e-05
-3.77145
-2.51632
-3.7714
-2.51629
-6.55603e-06
-2.23688
-2.72856e-05
-2.23689
-5.31476e-05
-2.2369
-6.4973e-05
-2.23689
-3.91178e-05
-2.23688
-2.23687
-2.3591e-06
-2.04465
-0.365929
4.18312e-05
-2.04474
-0.365966
6.85564e-05
-2.04476
-0.36595
9.39461e-05
-2.04476
-0.365927
0.000119226
-2.04478
-0.365869
-2.0448
-0.365772
1.25524e-05
-2.41421
-2.14671
4.4903e-05
-2.41425
-2.14688
4.10717e-05
-2.41423
-2.14688
5.66025e-05
-2.41424
-2.14689
8.73797e-05
-2.41427
-2.14687
-2.41423
-2.14677
4.79865e-07
-1.21462
7.28308e-06
-1.21464
1.33318e-05
-1.21466
1.39013e-05
-1.21466
7.56403e-06
-1.21465
-1.21465
0.000106835
-1.1665
-1.02056
0.000128251
-1.16662
-1.02055
0.000100254
-1.16659
-1.02049
7.56213e-05
-1.16658
-1.02046
7.03393e-05
-1.16658
-1.02041
-1.16657
-1.02027
7.93078e-05
-1.54435
-1.76895
5.94001e-05
-1.54436
-1.76911
2.70887e-05
-1.54433
-1.7691
1.00093e-05
-1.54433
-1.76912
1.88776e-05
-1.54433
-1.76913
-1.5443
-1.76902
-1.59524e-05
-0.770834
-2.15555e-05
-0.77087
-1.55676e-05
-0.770891
-2.74585e-06
-0.770902
1.38772e-05
-0.770907
-0.770904
1.22427e-05
-1.0863
-1.31269
8.68808e-07
-1.08631
-1.31273
-7.7736e-06
-1.08628
-1.31268
-1.80773e-05
-1.08624
-1.31264
-1.85566e-05
-1.08624
-1.31261
-1.08625
-1.3125
8.81777e-06
-1.61375
-1.2415
-2.46427e-05
-1.61374
-1.24164
-2.81808e-05
-1.61372
-1.24165
-9.50721e-06
-1.6137
-1.24168
8.05108e-06
-1.61369
-1.24169
-1.61367
-1.2416
-1.93224e-05
-0.449659
-2.09424e-05
-0.449694
-2.47718e-05
-0.449708
-1.67204e-05
-0.449721
5.92846e-06
-0.449731
-0.449716
-7.70492e-05
-1.13212
-1.28697
-3.97008e-05
-1.13207
-1.28719
6.90302e-06
-1.13202
-1.28715
4.40825e-05
-1.13196
-1.28711
4.54709e-05
-1.13194
-1.28707
-1.132
-1.28691
-3.61995e-05
-1.47486
-0.898725
-3.99351e-05
-1.47486
-0.898836
-2.2033e-05
-1.47484
-0.898849
1.20829e-05
-1.47482
-0.898854
4.22626e-05
-1.47481
-0.89886
-1.4748
-0.898764
-1.40169e-05
-0.363704
-1.50251e-05
-0.363739
-1.45121e-05
-0.363745
-7.74064e-06
-0.363749
3.54979e-06
-0.363749
-0.363718
2.02341e-05
-1.4393
-1.14484
9.50968e-05
-1.43925
-1.1451
0.000129626
-1.43922
-1.14502
0.000150114
-1.4392
-1.14495
0.000107936
-1.43922
-1.14488
-1.4393
-1.1447
-2.59667e-05
-1.43112
-0.906892
1.6207e-06
-1.43109
-0.90703
2.76501e-05
-1.43107
-0.907024
5.60347e-05
-1.43108
-0.907012
7.28875e-05
-1.43109
-0.907012
-1.43112
-0.906873
-2.6062e-05
-0.410166
-1.40221e-05
-0.410216
1.54761e-06
-0.410221
1.53082e-05
-0.410221
2.43423e-05
-0.41022
-0.410173
6.48047e-05
-1.44038
-1.50702
0.000129008
-1.44024
-1.50726
0.000144411
-1.44024
-1.50715
0.000135417
-1.44027
-1.50708
4.81591e-05
-1.4403
-1.50698
-1.44045
-1.50686
-2.01624e-05
-1.02164
-1.32562
3.01399e-05
-1.02153
-1.32579
4.66585e-05
-1.02152
-1.32576
5.66226e-05
-1.02154
-1.32575
7.92402e-05
-1.02156
-1.32577
-1.02165
-1.32559
-3.70547e-05
-0.539472
-1.96786e-05
-0.539546
-1.80956e-06
-0.539555
1.42089e-05
-0.539563
3.57029e-05
-0.539581
-0.539508
0.000144129
-1.18376
-1.92198
0.000115866
-1.18358
-1.92211
9.61204e-05
-1.18363
-1.92204
7.01595e-05
-1.18363
-1.92197
-6.52654e-05
-1.18359
-1.9218
-1.18383
-1.92182
8.15144e-06
-0.524516
-1.98486
2.63351e-06
-0.524363
-1.985
-3.44434e-05
-0.524372
-1.98498
-4.40011e-05
-0.524382
-1.98499
-1.24697e-05
-0.524363
-1.98503
-0.524545
-1.98489
-3.88205e-05
-0.819077
-3.25363e-05
-0.819172
-3.66889e-05
-0.819189
-2.81689e-05
-0.819216
3.14209e-05
-0.819272
-0.81917
0.000260588
0.514146
-1.87266
0.00018844
0.514381
-1.87257
0.000211146
0.514371
-1.87256
0.000172865
0.514484
-1.87246
-0.000200032
0.514619
-1.87221
0.514537
-1.87245
3.8098e-05
0.730494
-2.20125
-3.00842e-05
0.730715
-2.20126
-9.66772e-05
0.730735
-2.20127
-0.000125423
0.730818
-2.20129
-0.000231729
0.731001
-2.20131
0.730741
-2.20132
-7.07959e-05
-0.938236
-0.000111111
-0.938315
-0.000163508
-0.938333
-0.000166119
-0.93837
-6.41649e-05
-0.938443
-0.938364
0.000470137
3.94213
-0.678749
0.000368377
3.94253
-0.678413
0.000365471
3.9426
-0.678501
0.000249311
3.94276
-0.678535
-0.000418364
3.94287
-0.678435
3.94345
-0.679078
9.40075e-05
2.82159
-1.08081
5.18318e-05
2.82199
-1.08068
5.11859e-06
2.82208
-1.08071
-9.11461e-05
2.82229
-1.08072
-0.000466891
2.82264
-1.0807
2.82249
-1.08083
-0.000121853
-0.36313
-0.000185884
-0.363161
-0.000246777
-0.36317
-0.000256662
-0.363181
-0.000227152
-0.363207
-0.36319
0.000459932
7.39188
1.4546
0.000602498
7.39272
1.4548
0.000723591
7.39279
1.4547
0.000658414
7.39289
1.45466
0.000308384
7.39316
1.45469
7.3936
1.45422
-7.95899e-06
4.78275
1.52833
4.5623e-05
4.78351
1.52848
3.5363e-05
4.78363
1.52847
-7.42948e-05
4.78381
1.52847
-0.000323424
4.78422
1.52849
4.78411
1.52834
-0.000190476
0.832583
-0.000219479
0.832671
-0.000257536
0.832694
-0.000288991
0.832715
-0.00027806
0.832754
0.83271
2.12039e-06
0.0239767
-0.165019
0.14104
2.53535e-06
0.0239793
-0.165036
0.141052
3.78484e-06
0.0239791
-0.165036
0.141052
4.01653e-06
0.0239787
-0.165033
0.14105
2.81725e-06
0.0239784
-0.165029
0.141048
0.0239752
-0.165012
0.141036
-1.2119e-06
0.115901
-0.279554
0.18763
-1.09295e-06
0.115908
-0.279575
0.187642
4.90646e-07
0.115908
-0.279577
0.187642
1.51221e-06
0.115908
-0.279576
0.187642
1.96024e-06
0.115907
-0.279574
0.187641
0.1159
-0.279555
0.187629
-1.22975e-06
-0.143568
0.091102
-1.30516e-06
-0.143577
0.091107
-4.70094e-07
-0.143578
0.0911074
2.88913e-07
-0.143578
0.0911074
8.77863e-07
-0.143577
0.0911072
-0.143569
0.0911021
3.18536e-06
0.014318
-0.179344
6.05284e-06
0.0143197
-0.179364
7.98414e-06
0.0143192
-0.179362
7.84754e-06
0.0143188
-0.179355
4.77475e-06
0.0143186
-0.179349
0.0143157
-0.179326
-4.058e-06
0.160407
-0.425644
-1.96372e-06
0.160418
-0.42568
1.33895e-06
0.160418
-0.425683
3.43043e-06
0.160417
-0.42568
4.53765e-06
0.160416
-0.425676
0.160405
-0.425643
-2.96521e-06
-0.231155
-2.32668e-06
-0.231172
-8.80932e-07
-0.231175
8.05671e-07
-0.231175
2.3566e-06
-0.231175
-0.231159
9.21025e-06
-0.0295596
-0.149796
1.49569e-05
-0.029564
-0.14981
1.7835e-05
-0.0295676
-0.149801
1.642e-05
-0.0295701
-0.149787
8.12947e-06
-0.029572
-0.149773
-0.0295735
-0.149747
-7.86354e-06
0.211181
-0.666379
-3.63713e-06
0.211193
-0.666443
4.64188e-07
0.211191
-0.666449
4.95603e-06
0.211187
-0.666445
9.93672e-06
0.211183
-0.66644
0.211168
-0.666376
-6.88722e-06
-0.38659
-5.32066e-06
-0.386627
-3.05724e-06
-0.386634
5.16181e-07
-0.386637
4.81718e-06
-0.386638
-0.386605
3.32377e-05
-0.129641
-0.0201901
6.21956e-05
-0.12965
-0.0201924
7.72563e-05
-0.129661
-0.0201587
7.97826e-05
-0.129672
-0.0201225
5.94716e-05
-0.129683
-0.0200747
-0.129694
-0.0199964
-1.18968e-05
0.280255
-1.07627
-9.11561e-06
0.280269
-1.07637
-6.7803e-06
0.280264
-1.07638
6.28316e-07
0.280257
-1.07638
1.34833e-05
0.280249
-1.07639
0.28022
-1.07628
-1.8548e-05
-0.647237
-1.72011e-05
-0.647311
-1.54635e-05
-0.647326
-8.76742e-06
-0.647338
6.81288e-06
-0.647351
-0.647284
4.67451e-05
0.144913
-0.165152
4.67781e-05
0.144975
-0.165169
3.76434e-05
0.144969
-0.16512
2.27573e-05
0.144974
-0.165084
-3.21016e-06
0.144993
-0.165044
0.144931
-0.164932
-2.77508e-05
0.515428
-1.44676
-1.59544e-05
0.515501
-1.44691
-1.42607e-05
0.515497
-1.44691
-1.1845e-05
0.515496
-1.44691
2.21022e-06
0.515505
-1.44692
0.515415
-1.44676
-5.0743e-05
-0.927813
-4.97997e-05
-0.927926
-5.01867e-05
-0.92795
-4.09202e-05
-0.927974
-3.30217e-06
-0.928009
-0.927922
0.000181389
1.28926
0.00020896
1.2896
0.000214304
1.28957
0.000199805
1.28959
0.000160211
1.28968
1.28945
-8.60153e-06
1.37084
4.55882e-05
1.37112
4.68131e-05
1.37113
2.85852e-05
1.37117
1.82481e-05
1.37127
1.37105
-9.64522e-05
-9.74997e-05
-0.000105024
-0.000100696
-4.50602e-05
9.75248e-09
0.0046474
-0.00067288
1.75596e-08
0.0046477
-0.000672914
2.21357e-08
0.00464768
-0.000672922
2.14207e-08
0.00464768
-0.000672928
1.70069e-08
0.00464768
-0.000672934
0.0046474
-0.000672893
9.64498e-09
0.00508403
-0.000436618
2.17118e-08
0.00508436
-0.000436642
2.21979e-08
0.00508435
-0.000436646
1.98024e-08
0.00508435
-0.00043665
1.55276e-08
0.00508435
-0.000436655
0.00508404
-0.000436627
1.24662e-08
-0.000157614
2.12415e-08
-0.000157623
2.16261e-08
-0.000157625
2.04152e-08
-0.000157626
1.56293e-08
-0.000157627
-0.000157617
1.32186e-08
0.00492119
-0.00140904
1.0566e-08
0.0049215
-0.00140914
4.62313e-10
0.00492149
-0.00140915
-9.47837e-09
0.00492149
-0.00140916
-1.85966e-08
0.00492149
-0.00140918
0.00492119
-0.00140911
5.02965e-09
0.00540617
-0.000921602
1.00556e-08
0.00540652
-0.000921663
6.07415e-09
0.00540651
-0.00092167
1.42811e-09
0.00540652
-0.000921679
-5.09315e-09
0.00540652
-0.000921686
0.00540619
-0.000921635
7.66409e-09
-0.000335468
1.53792e-08
-0.00033549
1.55801e-08
-0.000335492
1.45496e-08
-0.000335494
8.98411e-09
-0.000335496
-0.000335477
-2.80548e-08
0.00548579
-0.00228751
-5.61699e-08
0.00548614
-0.00228767
-7.22951e-08
0.00548613
-0.00228769
-8.18454e-08
0.00548614
-0.00228771
-8.03852e-08
0.00548616
-0.00228773
0.00548583
-0.00228759
-2.51379e-08
0.00608166
-0.00151748
-2.63165e-08
0.00608206
-0.00151758
-3.16387e-08
0.00608205
-0.00151759
-3.33725e-08
0.00608206
-0.0015176
-3.15891e-08
0.00608208
-0.0015176
0.00608171
-0.00151751
-2.33336e-09
-0.000560479
5.23712e-09
-0.000560514
5.75756e-09
-0.000560516
6.32536e-09
-0.000560517
3.84022e-09
-0.000560517
-0.000560482
-1.31696e-07
0.00637682
-0.00342739
-1.60474e-07
0.00637724
-0.00342761
-1.66775e-07
0.00637725
-0.00342764
-1.55212e-07
0.00637728
-0.00342764
-1.20856e-07
0.0063773
-0.00342764
0.00637693
-0.00342742
-7.23311e-08
0.00718107
-0.00232166
-6.60114e-08
0.00718153
-0.00232179
-6.47617e-08
0.00718154
-0.0023218
-5.2788e-08
0.00718156
-0.00232179
-3.11832e-08
0.00718157
-0.00232179
0.00718114
-0.00232164
-1.19885e-08
-0.000876206
-1.20715e-09
-0.000876255
1.64604e-09
-0.000876255
7.65889e-09
-0.000876253
1.38489e-08
-0.000876249
-0.000876194
-2.41222e-07
0.00765207
-0.00504244
-2.31311e-07
0.0076526
-0.00504272
-2.03293e-07
0.00765263
-0.00504273
-1.44482e-07
0.00765267
-0.0050427
-5.89044e-08
0.00765271
-0.00504267
0.00765226
-0.00504234
-9.55521e-08
0.00883306
-0.00350243
-6.78163e-08
0.00883363
-0.00350261
-4.87938e-08
0.00883364
-0.0035026
-1.43083e-08
0.00883366
-0.00350259
3.27257e-08
0.00883367
-0.00350257
0.00883313
-0.00350235
-5.31466e-09
-0.00136109
7.33085e-09
-0.00136116
1.42337e-08
-0.00136115
2.7085e-08
-0.00136115
4.43702e-08
-0.00136114
-0.00136107
-2.30595e-07
0.00940155
-0.00755931
-1.84868e-07
0.0094022
-0.00755971
-1.01395e-07
0.00940225
-0.00755969
1.35207e-08
0.00940229
-0.00755964
1.20966e-07
0.00940231
-0.00755959
0.00940172
-0.00755913
-6.13104e-09
0.0112623
-0.00536293
1.04769e-08
0.0112629
-0.0053632
3.41369e-08
0.011263
-0.00536318
7.63027e-08
0.011263
-0.00536317
1.16477e-07
0.0112629
-0.00536316
0.0112622
-0.00536286
2.89934e-08
-0.00216553
3.03946e-08
-0.00216565
3.62619e-08
-0.00216565
4.55538e-08
-0.00216565
5.71169e-08
-0.00216565
-0.00216555
-2.71033e-08
0.0117651
-0.0117662
-2.5977e-08
0.0117659
-0.0117669
1.02569e-07
0.011766
-0.0117669
2.33742e-07
0.011766
-0.0117668
2.81663e-07
0.0117659
-0.0117668
0.0117652
-0.0117661
1.64889e-07
0.0148573
-0.00845526
9.62111e-08
0.0148581
-0.00845574
9.91037e-08
0.0148581
-0.00845574
1.05368e-07
0.0148581
-0.00845575
7.79656e-08
0.0148581
-0.00845578
0.0148572
-0.00845533
7.35702e-08
-0.00359086
3.61376e-08
-0.00359107
2.28214e-08
-0.00359108
3.53324e-09
-0.00359109
-2.5346e-08
-0.00359112
-0.00359095
2.08661e-07
0.0148316
-0.0190334
5.79795e-08
0.0148326
-0.0190345
2.01865e-07
0.0148327
-0.0190345