/*--------------------------------*- C++ -*----------------------------------*\
| =========                 |                                                 |
| \\      /  F ield         | OpenFOAM: The Open Source CFD Toolbox           |
|  \\    /   O peration     | Version:  v1612+                                |
|   \\  /    A nd           | Web:      www.OpenFOAM.com                      |
|    \\/     M anipulation  |                                                 |
\*---------------------------------------------------------------------------*/
FoamFile
{
    version     2.0;
    format      ascii;
    class       volVectorField;
    location    "1.55";
    object      U;
}
// * * * * * * * * * * * * * * * * * * * * * * * * * * * * * * * * * * * * * //

dimensions      [0 1 -1 0 0 0 0];

internalField   nonuniform List<vector> 
1116
(
(0.448976 -3.10284e-07 -0.443268)
(0.448977 -4.03398e-07 -0.44327)
(0.448977 -2.05216e-07 -0.44327)
(0.448977 -5.56676e-09 -0.44327)
(0.448978 4.40859e-07 -0.44327)
(0.448977 4.46859e-07 -0.443268)
(1.31482 6.04031e-08 -0.577129)
(1.31482 -8.18919e-08 -0.577132)
(1.31482 8.54327e-07 -0.577131)
(1.31482 9.84993e-08 -0.57713)
(1.31482 8.41994e-07 -0.57713)
(1.31482 3.88113e-07 -0.577125)
(2.4084 6.66979e-09 -0.590363)
(2.40841 1.89029e-06 -0.590367)
(2.40841 1.76751e-06 -0.590364)
(2.4084 -8.1966e-07 -0.590362)
(2.4084 -5.87488e-07 -0.590362)
(2.40839 2.61452e-07 -0.590358)
(3.48975 -4.13633e-06 -0.609109)
(3.48976 -5.30183e-07 -0.609112)
(3.48976 -6.70913e-07 -0.609107)
(3.48975 -5.2872e-06 -0.609106)
(3.48975 -5.5483e-06 -0.609109)
(3.48973 -1.07247e-06 -0.60911)
(4.54229 -1.45111e-05 -0.543491)
(4.5423 -1.3408e-05 -0.543507)
(4.5423 -8.74117e-06 -0.543502)
(4.54229 -1.16273e-05 -0.543502)
(4.54229 -1.04845e-05 -0.543509)
(4.54227 -2.06677e-06 -0.543517)
(5.72321 -2.53253e-05 -0.538418)
(5.72322 -2.5787e-05 -0.538475)
(5.72321 -1.23696e-05 -0.538472)
(5.72321 -1.38187e-05 -0.538471)
(5.72321 -9.03743e-06 -0.538477)
(5.72319 -1.60194e-07 -0.538483)
(6.91533 -2.89989e-05 -0.505486)
(6.91536 -3.0624e-05 -0.505557)
(6.91536 -1.30317e-05 -0.505557)
(6.91536 -1.12482e-05 -0.505554)
(6.91536 -4.12073e-06 -0.505554)
(6.91535 1.2438e-06 -0.505552)
(7.7676 -1.92555e-05 -0.748684)
(7.76769 -2.25301e-05 -0.748738)
(7.76769 -9.65674e-06 -0.748736)
(7.7677 -4.26558e-06 -0.748732)
(7.7677 2.11586e-07 -0.748733)
(7.76768 -5.27445e-07 -0.748726)
(8.59773 -5.66273e-06 -1.17314)
(8.59782 -1.01018e-05 -1.17317)
(8.59782 -9.52634e-06 -1.17316)
(8.59783 -6.59151e-06 -1.17316)
(8.59784 -7.24272e-06 -1.17317)
(8.59782 -5.73646e-06 -1.17314)
(9.73254 -3.2205e-05 -1.46734)
(9.73268 -3.70189e-05 -1.46738)
(9.73267 -1.6694e-05 -1.46736)
(9.73267 -1.78063e-05 -1.46736)
(9.73271 -1.72893e-06 -1.46737)
(9.73264 1.1727e-05 -1.46731)
(9.74251 -5.7949e-05 -1.05337)
(9.7428 -6.03719e-05 -1.0535)
(9.74278 -2.88042e-05 -1.05349)
(9.7428 -3.9563e-05 -1.0535)
(9.74283 -3.26352e-06 -1.05352)
(9.74271 2.83995e-05 -1.05342)
(7.58442 -0.000298073 1.93578)
(7.58508 -0.000430588 1.93538)
(7.58513 -0.00018795 1.93536)
(7.58517 3.68121e-05 1.93535)
(7.58513 0.000301813 1.93532)
(7.58498 0.000231647 1.93559)
(0.519696 4.45471e-08 -1.26638)
(0.519698 1.54464e-06 -1.26639)
(0.519695 1.43635e-06 -1.26639)
(0.519694 -5.03201e-08 -1.26639)
(0.519693 1.7356e-07 -1.26639)
(0.519691 4.90417e-07 -1.26638)
(1.39161 -1.24013e-07 -1.59218)
(1.39163 5.62467e-06 -1.59219)
(1.39162 1.22829e-06 -1.59219)
(1.39162 2.22696e-07 -1.59218)
(1.39162 -1.18188e-06 -1.59218)
(1.39161 3.64056e-06 -1.59217)
(2.30653 1.80064e-07 -1.51991)
(2.30656 8.21107e-06 -1.51992)
(2.30656 7.86091e-07 -1.51991)
(2.30656 -1.11314e-06 -1.51991)
(2.30655 -3.67056e-06 -1.51991)
(2.30654 4.50319e-06 -1.51989)
(3.323 -3.32535e-06 -1.71214)
(3.32305 -1.32332e-06 -1.71216)
(3.32304 7.87988e-07 -1.71214)
(3.32303 -1.39485e-06 -1.71215)
(3.32302 5.67942e-07 -1.71216)
(3.323 3.49249e-06 -1.71215)
(4.44757 -5.74676e-06 -1.88367)
(4.44763 -1.7149e-05 -1.88373)
(4.44762 -2.72833e-06 -1.88371)
(4.44761 -4.65924e-06 -1.88371)
(4.44761 -1.89985e-06 -1.88372)
(4.44758 -6.88364e-06 -1.88373)
(5.59795 9.33837e-06 -2.22172)
(5.59807 -8.77702e-06 -2.22185)
(5.59805 1.40197e-05 -2.22184)
(5.59805 3.71625e-06 -2.22184)
(5.59804 1.2436e-05 -2.22185)
(5.59801 -8.1592e-06 -2.22184)
(7.07783 3.79334e-05 -1.86205)
(7.07798 6.18551e-06 -1.86223)
(7.07795 9.96722e-06 -1.86224)
(7.07795 -4.20451e-06 -1.86224)
(7.07796 8.70327e-06 -1.86224)
(7.07789 -1.99582e-05 -1.86223)
(9.19077 9.82667e-05 -1.48019)
(9.19105 5.81117e-05 -1.48034)
(9.19099 2.61483e-06 -1.48037)
(9.19097 -1.99955e-05 -1.48036)
(9.19101 -5.53585e-06 -1.48037)
(9.19089 -3.84391e-05 -1.48036)
(11.7112 3.93869e-06 -2.29126)
(11.712 -0.000104104 -2.29128)
(11.7119 -6.81314e-05 -2.29134)
(11.7118 3.63606e-05 -2.29135)
(11.712 9.91479e-05 -2.29141)
(11.7119 -1.61443e-05 -2.29148)
(14.9407 0.000134828 0.334971)
(14.9407 0.00026086 0.334769)
(14.9408 0.000188454 0.334799)
(14.9409 -8.61325e-05 0.334749)
(14.9415 -0.000172526 0.334586)
(14.9416 -0.000221723 0.334653)
(14.3106 9.5476e-05 4.1382)
(14.3113 0.000102732 4.13767)
(14.3112 -0.000108093 4.13768)
(14.3113 -0.000265465 4.13763)
(14.312 -0.000355829 4.13758)
(14.3109 -0.000199423 4.13786)
(11.6771 -0.000170478 10.0079)
(11.6784 -0.000257149 10.007)
(11.6785 -8.57702e-05 10.007)
(11.6786 -1.01679e-05 10.0071)
(11.6789 0.000406189 10.0072)
(11.6777 0.000480798 10.0084)
(0.471479 3.65336e-06 -2.35354)
(0.471485 5.58407e-06 -2.35355)
(0.471483 2.7604e-06 -2.35355)
(0.471483 9.14106e-07 -2.35354)
(0.471483 9.83995e-07 -2.35354)
(0.471484 1.2821e-06 -2.35353)
(1.28181 -3.70312e-06 -2.35687)
(1.28183 1.14644e-05 -2.35689)
(1.28183 -1.68736e-06 -2.35688)
(1.28183 3.80706e-06 -2.35687)
(1.28182 -9.09186e-06 -2.35688)
(1.28183 6.89175e-06 -2.35686)
(2.10235 -4.80863e-08 -2.48114)
(2.10239 -7.89462e-06 -2.48115)
(2.10239 -4.14443e-06 -2.48113)
(2.10239 -4.98683e-06 -2.48113)
(2.10238 -7.32532e-06 -2.48114)
(2.10237 -6.69422e-06 -2.48111)
(3.27645 1.19594e-05 -3.18009)
(3.27652 -1.14289e-05 -3.18014)
(3.27652 1.87299e-05 -3.18011)
(3.27651 6.32755e-06 -3.18011)
(3.27651 1.18111e-05 -3.18011)
(3.2765 -1.72534e-05 -3.18007)
(5.20679 4.10959e-05 -2.88157)
(5.20692 1.39754e-05 -2.88173)
(5.2069 6.78983e-05 -2.88174)
(5.20691 3.98085e-05 -2.88172)
(5.20692 4.23449e-05 -2.88171)
(5.20688 -2.38024e-05 -2.88175)
(5.99157 6.0787e-05 -3.19001)
(5.99188 2.72298e-05 -3.1902)
(5.99189 9.95091e-05 -3.19019)
(5.99193 4.75001e-05 -3.19014)
(5.99194 3.94395e-05 -3.19011)
(5.99186 -4.80799e-05 -3.19012)
(7.04881 5.55616e-05 -3.79749)
(7.04907 9.20386e-06 -3.79738)
(7.04902 7.00917e-05 -3.79744)
(7.04907 1.69031e-06 -3.79743)
(7.04915 -3.17525e-06 -3.79744)
(7.049 -8.00514e-05 -3.79745)
(7.4742 0.000128428 -3.07543)
(7.47443 4.2931e-05 -3.07539)
(7.47434 -5.60454e-05 -3.07547)
(7.47435 4.51556e-06 -3.07552)
(7.47458 5.54216e-06 -3.07564)
(7.4743 -9.64065e-05 -3.07568)
(5.97133 0.0001662 -5.30563)
(5.97174 0.000159334 -5.30562)
(5.97139 2.85837e-05 -5.30562)
(5.97133 0.000245132 -5.30569)
(5.97192 0.000211747 -5.30593)
(5.97182 -1.57056e-05 -5.306)
(7.24333 -0.00017603 -0.49173)
(7.24347 -0.000184483 -0.491604)
(7.24305 2.60415e-06 -0.491128)
(7.24303 0.00023735 -0.491137)
(7.24392 0.000273076 -0.491993)
(7.24434 8.72734e-05 -0.491718)
(4.42297 7.56119e-05 8.16353)
(4.42251 -2.12432e-05 8.16325)
(4.42199 -0.000401331 8.16351)
(4.42216 -0.000620137 8.16336)
(4.4233 -0.000702559 8.16271)
(4.42262 -0.00030768 8.16289)
(9.4729 7.15553e-05 19.6856)
(9.47342 1.09667e-05 19.6847)
(9.47329 -0.000166574 19.685)
(9.47331 -0.000378944 19.685)
(9.4736 -0.000153905 19.6848)
(9.47192 0.000196799 19.6869)
(0.126915 2.60027e-06 -2.97692)
(0.126928 5.11792e-06 -2.97693)
(0.126934 5.12998e-06 -2.97692)
(0.126934 2.28005e-06 -2.97692)
(0.126932 6.4516e-07 -2.97692)
(0.126941 9.50443e-07 -2.97692)
(0.472894 1.26389e-05 -2.99664)
(0.472899 -1.62632e-05 -2.99667)
(0.472903 7.62242e-06 -2.99666)
(0.472902 -5.27261e-06 -2.99666)
(0.472896 1.66571e-06 -2.99667)
(0.472929 -2.93393e-05 -2.99664)
(2.68569 8.14261e-06 -3.7223)
(2.68571 -5.95451e-05 -3.72235)
(2.6857 1.65902e-05 -3.72234)
(2.6857 -1.31054e-05 -3.72233)
(2.68571 1.26646e-05 -3.72235)
(2.68566 -5.71242e-05 -3.72235)
(2.83147 -1.18148e-05 -4.34597)
(2.83142 -7.32353e-05 -4.34614)
(2.83146 4.54428e-05 -4.34612)
(2.83147 2.34516e-06 -4.34608)
(2.83152 3.34038e-05 -4.34607)
(2.83154 -5.50843e-05 -4.34609)
(3.33791 0.000126789 -2.97586)
(3.33787 0.000187032 -2.97606)
(3.33796 0.000221051 -2.97613)
(3.33805 0.000105626 -2.97607)
(3.33812 0.000100221 -2.97603)
(3.33809 -8.77552e-06 -2.97617)
(1.44567 6.92532e-05 -3.34406)
(1.44615 4.87929e-05 -3.34416)
(1.44638 5.96984e-05 -3.34408)
(1.44647 2.48778e-05 -3.344)
(1.4465 2.04622e-05 -3.34399)
(1.4464 -2.73611e-05 -3.34395)
(-0.289428 -9.26923e-05 -2.39196)
(-0.289246 -0.000109522 -2.3918)
(-0.289297 -7.65137e-05 -2.39172)
(-0.289232 4.50839e-06 -2.39166)
(-0.288969 3.56631e-05 -2.39182)
(-0.288806 -2.82117e-06 -2.39212)
(-0.00235327 -4.43346e-05 -3.15199)
(-0.00254699 -3.38806e-05 -3.15168)
(-0.0025742 -3.17372e-05 -3.15177)
(-0.00254617 8.07756e-05 -3.15189)
(-0.00224323 4.59822e-06 -3.15215)
(-0.0021539 -9.54204e-05 -3.15244)
(-0.270704 0.000126414 -2.52495)
(-0.271099 0.000133855 -2.5248)
(-0.271325 -1.01615e-05 -2.52492)
(-0.271267 0.000128989 -2.52497)
(-0.270765 -3.96396e-05 -2.52513)
(-0.270898 -0.000163224 -2.5253)
(0.147 0.00017857 1.81312)
(0.146942 0.00021828 1.81319)
(0.146763 0.000120683 1.81338)
(0.146996 0.000411798 1.81352)
(0.147729 0.000139465 1.81298)
(0.147577 -0.000135003 1.81399)
(0.792537 0.000308085 11.1834)
(0.792907 0.000512142 11.1832)
(0.792676 0.000389698 11.1834)
(0.792826 0.000525274 11.183)
(0.793601 0.000328265 11.1811)
(0.793228 7.37842e-05 11.1836)
(5.24551 0.000103941 20.9627)
(5.24629 0.000186048 20.9627)
(5.24601 8.64358e-05 20.9628)
(5.24588 -6.90568e-05 20.9626)
(5.24621 3.29553e-05 20.9624)
(5.24415 0.00018237 20.9638)
(0.00101033 -1.52153e-07 0.00102412)
(0.00101038 -1.64504e-08 0.00102418)
(0.00101037 1.7316e-07 0.00102416)
(0.00101039 4.93294e-08 0.00102415)
(0.00101039 5.44084e-08 0.00102414)
(0.00101034 4.34191e-08 0.00102409)
(0.00306784 -1.37308e-07 0.00106131)
(0.00306803 3.92144e-08 0.00106135)
(0.003068 1.82276e-07 0.00106132)
(0.00306802 2.39077e-08 0.00106131)
(0.00306803 5.05318e-08 0.00106129)
(0.00306786 6.41497e-08 0.00106122)
(0.00523227 -1.40362e-07 0.00113148)
(0.00523264 9.62097e-08 0.00113151)
(0.00523258 2.32404e-07 0.00113148)
(0.00523261 1.94438e-08 0.00113147)
(0.00523261 5.18156e-08 0.00113145)
(0.00523231 6.18908e-08 0.00113139)
(0.00756316 -2.18528e-07 0.0012259)
(0.0075637 8.77545e-08 0.00122596)
(0.00756364 2.77731e-07 0.00122593)
(0.00756365 -4.33771e-09 0.00122593)
(0.00756364 4.3495e-08 0.00122593)
(0.00756317 5.54772e-08 0.00122589)
(0.0100999 -3.31389e-07 0.00133158)
(0.0101005 3.03763e-08 0.00133178)
(0.0101005 3.22556e-07 0.00133179)
(0.0101004 -1.30278e-08 0.00133184)
(0.0101004 5.65083e-08 0.00133188)
(0.0100997 6.91368e-08 0.00133188)
(0.0128505 -3.71635e-07 0.00143476)
(0.0128511 -1.80313e-08 0.00143525)
(0.012851 3.42273e-07 0.00143538)
(0.012851 6.8436e-09 0.00143548)
(0.012851 7.13743e-08 0.00143554)
(0.0128502 9.42178e-08 0.00143554)
(0.0157693 -3.18007e-07 0.00156126)
(0.0157699 -1.11494e-09 0.00156225)
(0.0157698 2.84757e-07 0.00156253)
(0.0157698 -9.97999e-08 0.00156266)
(0.0157699 -6.59679e-08 0.00156267)
(0.0157691 4.42651e-08 0.00156255)
(0.0186203 -6.83575e-08 0.00182211)
(0.0186208 1.8624e-07 0.00182364)
(0.0186208 1.87431e-07 0.00182403)
(0.0186209 -2.81995e-07 0.00182408)
(0.0186213 -3.37319e-07 0.00182388)
(0.0186208 -7.9248e-08 0.00182345)
(0.0207936 3.08472e-07 0.00224643)
(0.0207942 4.92922e-07 0.00224836)
(0.0207944 1.6877e-08 0.00224875)
(0.0207949 -5.55443e-07 0.00224859)
(0.0207957 -7.52193e-07 0.00224808)
(0.0207957 -3.2603e-07 0.00224724)
(0.020724 3.87659e-07 0.00234493)
(0.020725 3.23243e-07 0.00234687)
(0.0207256 -4.63751e-07 0.00234704)
(0.0207265 -9.92729e-07 0.0023465)
(0.0207278 -1.20071e-06 0.00234549)
(0.0207286 -5.70097e-07 0.00234405)
(0.0184711 -1.08701e-07 0.000771506)
(0.0184725 -6.00072e-07 0.000770961)
(0.0184732 -1.15671e-06 0.000770396)
(0.0184741 -1.51266e-06 0.000769492)
(0.0184756 -1.66458e-06 0.000768195)
(0.0184772 -8.46495e-07 0.000766451)
(0.00921199 -4.48366e-07 -0.00292593)
(0.0092129 -6.43193e-07 -0.00292775)
(0.00921325 -3.45965e-07 -0.00292828)
(0.0092136 -1.14267e-08 -0.00292873)
(0.00921426 2.14459e-07 -0.00292925)
(0.00921514 2.22809e-07 -0.00292979)
(0.000997473 -1.42156e-07 0.00300002)
(0.000997525 -3.45408e-08 0.0030002)
(0.000997518 1.42257e-07 0.00300018)
(0.000997529 1.4205e-08 0.00300017)
(0.000997538 5.36837e-08 0.00300016)
(0.000997486 4.64523e-08 0.00299999)
(0.00303432 -1.18328e-07 0.00311523)
(0.00303451 3.13686e-08 0.00311537)
(0.00303449 1.55155e-07 0.00311533)
(0.00303452 -7.04784e-09 0.00311531)
(0.00303455 4.23038e-08 0.00311529)
(0.00303439 5.58453e-08 0.0031151)
(0.00519339 -1.21411e-07 0.00333474)
(0.00519376 6.37473e-08 0.00333489)
(0.00519374 1.65777e-07 0.00333482)
(0.00519378 -5.35665e-08 0.00333481)
(0.00519381 -5.9951e-09 0.0033348)
(0.00519353 2.89957e-08 0.00333463)
(0.00754204 -1.90532e-07 0.00363046)
(0.00754254 1.27006e-08 0.00363068)
(0.00754252 1.36172e-07 0.00363063)
(0.00754254 -1.39982e-07 0.00363066)
(0.00754257 -6.57347e-08 0.0036307)
(0.00754209 7.3829e-09 0.00363057)
(0.0101169 -2.91634e-07 0.00394133)
(0.0101174 -1.18786e-07 0.00394187)
(0.0101174 6.62572e-08 0.00394192)
(0.0101173 -2.20969e-07 0.00394205)
(0.0101173 -8.15964e-08 0.00394216)
(0.0101166 3.15256e-08 0.00394208)
(0.0128661 -3.61893e-07 0.0041395)
(0.0128665 -2.4918e-07 0.00414067)
(0.0128664 -1.90217e-08 0.00414097)
(0.0128663 -2.86296e-07 0.00414121)
(0.0128663 -5.82198e-08 0.00414133)
(0.0128654 9.15554e-08 0.00414116)
(0.0155772 -2.9841e-07 0.00395151)
(0.0155773 -2.31438e-07 0.00395366)
(0.0155771 -3.82167e-08 0.00395424)
(0.0155771 -2.79404e-07 0.00395448)
(0.0155772 -1.35751e-08 0.00395442)
(0.0155765 1.48564e-07 0.00395386)
(0.0179715 -1.31996e-08 0.00276103)
(0.0179712 6.89573e-08 0.00276428)
(0.017971 2.9589e-08 0.00276506)
(0.0179712 -2.61984e-07 0.00276508)
(0.0179718 -6.91184e-08 0.00276453)
(0.0179717 1.18293e-07 0.00276325)
(0.0199809 3.46713e-07 -0.000355582)
(0.01998 5.02158e-07 -0.000351474)
(0.0199799 1.12672e-07 -0.000350621)
(0.0199806 -2.75267e-07 -0.000351004)
(0.0199821 -2.55429e-07 -0.000352241)
(0.0199831 -5.2491e-08 -0.000354307)
(0.0215771 7.62613e-07 -0.00650313)
(0.0215758 8.46e-07 -0.00649953)
(0.021576 -2.47588e-07 -0.00649911)
(0.0215773 -1.00307e-06 -0.00650003)
(0.0215796 -1.40068e-06 -0.00650194)
(0.0215819 -7.67729e-07 -0.00650451)
(0.0217224 1.33727e-07 -0.0147825)
(0.0217218 -2.11636e-07 -0.0147841)
(0.0217223 -8.5324e-07 -0.0147852)
(0.0217238 -1.32951e-06 -0.0147869)
(0.0217267 -1.75108e-06 -0.0147897)
(0.0217302 -1.03168e-06 -0.0147932)
(0.015184 -5.5888e-07 -0.0280253)
(0.0151845 -5.86437e-07 -0.0280301)
(0.0151848 1.71e-07 -0.0280313)
(0.0151855 8.5827e-07 -0.0280322)
(0.015187 1.12172e-06 -0.0280335)
(0.0151889 5.99547e-07 -0.0280343)
(0.000943619 -1.30599e-07 0.00487815)
(0.000943666 -1.99527e-08 0.00487846)
(0.000943666 1.43329e-07 0.00487844)
(0.000943675 2.37022e-08 0.00487844)
(0.000943681 6.95693e-08 0.00487844)
(0.000943626 5.32015e-08 0.00487814)
(0.00288187 -1.08779e-07 0.00508704)
(0.00288204 2.0564e-08 0.00508733)
(0.00288204 1.32514e-07 0.00508728)
(0.00288207 -4.06825e-09 0.00508727)
(0.00288209 5.03286e-08 0.00508727)
(0.00288193 5.87463e-08 0.00508695)
(0.00497582 -1.18143e-07 0.00549309)
(0.00497615 1.08443e-08 0.0054934)
(0.00497616 9.52706e-08 0.00549334)
(0.0049762 -8.12839e-08 0.00549334)
(0.00497624 -2.45407e-08 0.00549336)
(0.00497595 2.42079e-08 0.00549307)
(0.00733746 -1.80696e-07 0.00606376)
(0.00733791 -7.64453e-08 0.00606419)
(0.00733792 5.48922e-09 0.00606416)
(0.00733795 -2.08223e-07 0.00606422)
(0.00733799 -1.17602e-07 0.0060643)
(0.00733753 -7.01313e-09 0.00606405)
(0.0100968 -2.58434e-07 0.00671924)
(0.0100973 -2.15618e-07 0.00672001)
(0.0100973 -1.18431e-07 0.00672013)
(0.0100973 -3.3389e-07 0.00672029)
(0.0100973 -1.69042e-07 0.00672044)
(0.0100967 4.81161e-09 0.00672017)
(0.0134472 -2.73525e-07 0.00730667)
(0.0134475 -2.96745e-07 0.00730812)
(0.0134475 -2.00846e-07 0.00730845)
(0.0134474 -3.85113e-07 0.0073087)
(0.0134475 -1.49811e-07 0.00730881)
(0.0134468 6.09221e-08 0.00730831)
(0.0177791 -1.31967e-07 0.0075957)
(0.0177792 -1.50363e-07 0.00759812)
(0.017779 -1.42445e-07 0.00759865)
(0.0177791 -2.9103e-07 0.00759878)
(0.0177794 -5.31159e-08 0.00759858)
(0.0177788 1.2593e-07 0.00759747)
(0.0234488 2.32623e-07 0.00732963)
(0.0234484 3.6727e-07 0.00733319)
(0.0234482 1.32039e-07 0.00733384)
(0.0234485 -8.05949e-08 0.00733363)
(0.0234493 1.12009e-08 0.00733281)
(0.023449 1.19525e-07 0.00733081)
(0.0301548 6.76755e-07 0.00616288)
(0.0301539 1.06859e-06 0.00616764)
(0.0301536 5.05202e-07 0.00616841)
(0.0301543 7.26081e-08 0.00616778)
(0.0301556 -1.43252e-07 0.00616615)
(0.0301557 -7.18459e-08 0.00616315)
(0.0344972 5.58871e-07 0.00344473)
(0.0344953 1.00315e-06 0.00344944)
(0.034495 6.46237e-07 0.00344987)
(0.034496 2.91547e-07 0.00344867)
(0.0344982 -1.72424e-08 0.00344614)
(0.0344995 -5.58898e-08 0.00344205)
(0.0366519 2.11992e-07 -0.00447738)
(0.0366513 4.66174e-07 -0.00447913)
(0.0366513 3.51326e-07 -0.00448031)
(0.0366526 2.14263e-07 -0.00448224)
(0.0366553 -1.99367e-07 -0.00448567)
(0.0366583 -1.91283e-07 -0.00449117)
(0.0207226 -1.42383e-06 -0.0164472)
(0.0207236 -9.4474e-07 -0.0164528)
(0.0207239 9.05398e-07 -0.0164542)
(0.0207245 2.40452e-06 -0.0164554)
(0.0207259 2.81133e-06 -0.0164572)
(0.0207276 1.71406e-06 -0.0164593)
(0.000841069 -1.13547e-07 0.00658129)
(0.000841113 -2.18655e-08 0.00658171)
(0.00084112 1.19723e-07 0.00658168)
(0.000841127 2.49787e-08 0.00658167)
(0.000841131 6.80279e-08 0.00658168)
(0.000841079 4.95651e-08 0.00658127)
(0.00258298 -9.74918e-08 0.00690736)
(0.00258315 -7.46952e-09 0.00690777)
(0.00258316 9.03665e-08 0.00690772)
(0.00258319 -4.7846e-09 0.00690772)
(0.00258321 4.8305e-08 0.00690772)
(0.00258306 5.51703e-08 0.00690729)
(0.00451109 -1.2052e-07 0.00755458)
(0.00451141 -5.11747e-08 0.00755504)
(0.00451144 2.22269e-08 0.007555)
(0.00451148 -1.00863e-07 0.00755501)
(0.00451151 -3.53346e-08 0.00755504)
(0.00451125 2.07043e-08 0.00755462)
(0.00677355 -1.9083e-07 0.00850305)
(0.006774 -1.75197e-07 0.00850365)
(0.00677404 -1.0467e-07 0.00850365)
(0.00677408 -2.46196e-07 0.00850372)
(0.00677412 -1.36451e-07 0.00850381)
(0.00677371 -7.54535e-09 0.00850339)
(0.00953567 -2.71962e-07 0.00968478)
(0.00953621 -3.45337e-07 0.0096857)
(0.00953626 -2.56306e-07 0.00968582)
(0.00953629 -3.6522e-07 0.00968598)
(0.00953633 -1.7531e-07 0.00968613)
(0.00953576 9.76194e-09 0.00968564)
(0.0129041 -2.96183e-07 0.0109097)
(0.0129048 -4.45879e-07 0.0109111)
(0.0129048 -3.35969e-07 0.0109114)
(0.0129049 -3.54639e-07 0.0109116)
(0.012905 -8.77787e-08 0.0109117)
(0.0129044 7.81423e-08 0.010911)
(0.0167762 -1.8844e-07 0.0117009)
(0.0167771 -3.44686e-07 0.0117031)
(0.0167772 -2.46796e-07 0.0117035)
(0.0167775 -1.65092e-07 0.0117036)
(0.0167778 9.99607e-08 0.0117034)
(0.0167773 1.53858e-07 0.0117021)
(0.0209155 9.46731e-09 0.0110664)
(0.0209166 -6.84883e-08 0.0110694)
(0.0209169 -4.71538e-08 0.0110698)
(0.0209175 4.71095e-08 0.0110696)
(0.0209183 1.98282e-07 0.0110688)
(0.020918 1.25331e-07 0.0110668)
(0.025269 1.5131e-07 0.00673878)
(0.0252701 1.95809e-07 0.00674273)
(0.0252705 1.29523e-07 0.00674322)
(0.0252715 9.16031e-08 0.00674261)
(0.0252729 5.46042e-08 0.00674119)
(0.0252732 -3.57057e-08 0.00673848)
(0.031723 2.79495e-07 -0.0060877)
(0.0317241 4.53186e-07 -0.00608396)
(0.0317244 2.87169e-07 -0.00608367)
(0.0317255 -2.42671e-09 -0.0060848)
(0.0317275 -3.44282e-07 -0.00608719)
(0.0317286 -3.46368e-07 -0.00609074)
(0.0361372 3.37207e-07 -0.0402757)
(0.036141 8.63352e-07 -0.0402798)
(0.0361416 1.41275e-06 -0.0402809)
(0.0361419 1.41848e-06 -0.0402823)
(0.0361434 9.75784e-07 -0.040285)
(0.0361456 1.88747e-07 -0.0402882)
(0.0402231 5.89212e-08 -0.0958199)
(0.0402308 7.55268e-07 -0.0958391)
(0.0402317 2.02472e-06 -0.095842)
(0.0402311 3.15218e-06 -0.0958409)
(0.0402307 3.44071e-06 -0.0958389)
(0.0402296 1.55104e-06 -0.0958323)
(-1.17711 -1.23286e-06 -2.76119)
(-1.17711 -4.43224e-06 -2.76121)
(-1.1771 2.05206e-06 -2.7612)
(-1.1771 -9.27151e-07 -2.76119)
(-1.17711 1.5511e-06 -2.76119)
(-1.17709 -4.46918e-07 -2.76121)
(-3.56154 1.55269e-05 -0.966319)
(-3.56157 1.53741e-05 -0.966343)
(-3.56154 9.7434e-06 -0.966345)
(-3.56155 1.09082e-05 -0.966337)
(-3.56156 2.74157e-05 -0.966332)
(-3.56153 2.12089e-05 -0.966361)
(-5.06932 2.63289e-05 11.9436)
(-5.06933 3.00967e-05 11.9438)
(-5.06928 1.89375e-05 11.9437)
(-5.06931 1.69156e-05 11.9437)
(-5.06933 4.05324e-05 11.9437)
(-5.06922 2.8465e-05 11.9439)
(-1.6926 0.000137597 -4.94398)
(-1.69264 -0.000162003 -4.94405)
(-1.69263 7.62126e-05 -4.94405)
(-1.69264 -8.03024e-05 -4.94402)
(-1.69263 0.000143606 -4.94398)
(-1.69264 -0.000174901 -4.94408)
(-9.50321 1.86787e-05 -4.56594)
(-9.50334 -5.60186e-05 -4.56601)
(-9.50334 8.23583e-05 -4.56606)
(-9.50333 9.18199e-06 -4.566)
(-9.50328 0.000105276 -4.56586)
(-9.50328 -2.16452e-05 -4.56582)
(-9.34981 3.18951e-06 -10.7025)
(-9.34983 -6.17178e-06 -10.7026)
(-9.34984 -5.04346e-05 -10.7026)
(-9.34984 -5.85525e-05 -10.7026)
(-9.34983 -5.24765e-05 -10.7026)
(-9.34985 -1.55223e-06 -10.7025)
(1.86646 3.0445e-05 -4.54296)
(1.86645 -3.62692e-05 -4.54314)
(1.86641 0.000119203 -4.5432)
(1.86641 2.47608e-05 -4.54315)
(1.86649 0.000167365 -4.54311)
(1.86646 1.05963e-05 -4.54329)
(-2.06367 3.64214e-06 -3.43391)
(-2.06394 4.74203e-05 -3.43403)
(-2.06397 1.96865e-05 -3.43403)
(-2.06395 4.64847e-05 -3.43405)
(-2.06388 6.77017e-05 -3.43413)
(-2.06376 7.95265e-05 -3.43411)
(-1.883 6.73343e-06 -6.22402)
(-1.88304 3.18143e-07 -6.22407)
(-1.88304 8.8665e-06 -6.22402)
(-1.88303 1.39272e-05 -6.22401)
(-1.88299 1.21432e-05 -6.22404)
(-1.88299 -8.26992e-07 -6.22395)
(-2.91484 9.52095e-05 -2.72992)
(-2.91494 0.000141078 -2.73029)
(-2.91484 0.000106115 -2.73023)
(-2.91478 7.37332e-05 -2.7302)
(-2.91468 7.24746e-05 -2.73019)
(-2.91434 3.67151e-05 -2.7302)
(-5.24637 7.99717e-05 -2.10521)
(-5.24677 9.17791e-05 -2.10523)
(-5.24674 2.46564e-05 -2.10518)
(-5.24676 1.49871e-05 -2.10516)
(-5.24676 7.40528e-06 -2.10518)
(-5.24653 1.69946e-05 -2.10518)
(-2.45678 -1.63281e-05 -3.65683)
(-2.45685 -2.15249e-05 -3.65686)
(-2.4569 -1.53401e-05 -3.65681)
(-2.45692 -1.12495e-05 -3.6568)
(-2.45692 7.08051e-06 -3.65679)
(-2.45693 1.40688e-05 -3.6567)
(-1.81157 3.11366e-05 -1.66949)
(-1.81141 4.89634e-06 -1.66962)
(-1.81124 -4.15231e-06 -1.66956)
(-1.81114 -1.20041e-05 -1.6695)
(-1.81106 -1.8872e-05 -1.66953)
(-1.81081 -3.04065e-05 -1.66956)
(-2.53284 1.37556e-05 -2.2398)
(-2.53313 -6.7212e-06 -2.23971)
(-2.53315 -3.51212e-05 -2.23967)
(-2.5332 -1.81425e-05 -2.2396)
(-2.53323 6.4925e-07 -2.23955)
(-2.53302 9.44234e-06 -2.23956)
(-1.07006 -1.62667e-05 -3.57393)
(-1.07013 -2.06889e-05 -3.57397)
(-1.07017 -1.88879e-05 -3.57394)
(-1.0702 -2.52571e-05 -3.57392)
(-1.07022 -2.74796e-06 -3.57392)
(-1.0702 1.14929e-05 -3.57384)
(-3.04364 -8.09844e-05 -1.38827)
(-3.04399 -6.35414e-05 -1.38814)
(-3.04396 -7.97897e-06 -1.38803)
(-3.04391 2.25716e-05 -1.3879)
(-3.04386 5.77677e-05 -1.38792)
(-3.04364 3.18385e-05 -1.38819)
(-2.12612 -2.77165e-05 -2.54661)
(-2.12633 -3.60875e-05 -2.54658)
(-2.12638 -3.25362e-05 -2.54653)
(-2.12642 -9.85995e-06 -2.54646)
(-2.12644 3.2496e-05 -2.5464)
(-2.12626 3.70833e-05 -2.54637)
(-0.723702 -7.43297e-06 -2.88334)
(-0.723766 -1.43238e-05 -2.88338)
(-0.723785 -1.36556e-05 -2.88336)
(-0.723807 -1.26311e-05 -2.88335)
(-0.723824 -5.03006e-07 -2.88335)
(-0.723781 5.4623e-06 -2.88333)
(-1.85147 -7.52817e-06 -2.62593)
(-1.85193 5.79036e-05 -2.6258)
(-1.8518 0.000119237 -2.62575)
(-1.85168 0.000127259 -2.62571)
(-1.85156 0.000136577 -2.62575)
(-1.85118 5.56756e-05 -2.62595)
(-1.55313 -1.25206e-05 -2.55961)
(-1.55334 -1.47403e-05 -2.55952)
(-1.55334 1.5401e-05 -2.55949)
(-1.55332 3.27843e-05 -2.55948)
(-1.55331 6.80606e-05 -2.55951)
(-1.55311 4.76137e-05 -2.55959)
(-0.774335 -1.54419e-05 -2.56919)
(-0.774411 -2.34462e-05 -2.56917)
(-0.774417 -5.1042e-06 -2.56915)
(-0.774411 7.51543e-06 -2.56916)
(-0.774402 2.20347e-05 -2.56919)
(-0.774324 1.52856e-05 -2.56921)
(-2.70662 4.9804e-05 -3.17023)
(-2.70717 0.000118006 -3.16995)
(-2.70695 0.000129186 -3.17)
(-2.70682 0.000143435 -3.17004)
(-2.70666 7.52998e-05 -3.17009)
(-2.70633 -2.28765e-06 -3.17042)
(-2.16023 -1.71397e-05 -1.99639)
(-2.16058 1.16715e-07 -1.99615)
(-2.16055 4.62476e-05 -1.99614)
(-2.16053 3.90831e-05 -1.99618)
(-2.16053 6.33323e-05 -1.99625)
(-2.16018 5.17714e-05 -1.99647)
(-0.878137 -2.34087e-05 -1.668)
(-0.878265 -3.37487e-05 -1.66785)
(-0.878284 -7.3805e-06 -1.66783)
(-0.878289 3.22428e-06 -1.66784)
(-0.878298 2.74573e-05 -1.66787)
(-0.878182 2.5383e-05 -1.66797)
(-3.75622 0.000132188 -2.69053)
(-3.75666 0.000171972 -2.69022)
(-3.75645 6.37271e-05 -2.69037)
(-3.75631 0.000124397 -2.69035)
(-3.75604 -1.95476e-05 -2.69026)
(-3.75589 -0.000109692 -2.69073)
(-3.38135 1.61962e-05 -1.47144)
(-3.38171 1.28214e-05 -1.47111)
(-3.38164 -1.32943e-05 -1.47115)
(-3.38163 -5.00567e-05 -1.47117)
(-3.38171 -3.59648e-05 -1.47109)
(-3.38132 2.82311e-06 -1.47155)
(-1.36196 -2.4602e-05 -0.500565)
(-1.36214 -3.85144e-05 -0.500324)
(-1.36216 -2.4614e-05 -0.500309)
(-1.36218 -4.51469e-05 -0.500318)
(-1.36224 3.6006e-06 -0.50031)
(-1.36206 3.66004e-05 -0.500531)
(-4.55696 0.000195979 1.1501)
(-4.55699 0.000269812 1.15053)
(-4.55692 0.000125441 1.15048)
(-4.55673 0.000290403 1.1507)
(-4.5563 -4.61249e-05 1.15076)
(-4.55653 -0.000255535 1.151)
(-4.72091 5.22388e-05 0.917796)
(-4.72108 3.40349e-05 0.918269)
(-4.72107 -7.86464e-05 0.918284)
(-4.72111 -8.26119e-05 0.918503)
(-4.72121 -0.000204062 0.918986)
(-4.72102 -0.000177269 0.918404)
(-1.90393 -2.44965e-05 1.47875)
(-1.90412 -8.33179e-05 1.47907)
(-1.90416 -0.000128429 1.47913)
(-1.90424 -0.000174088 1.47921)
(-1.9044 -0.000118967 1.47938)
(-1.90418 -1.76118e-05 1.47902)
(-3.1183 0.00029082 9.01151)
(-3.11796 0.000468906 9.01215)
(-3.11803 0.000297496 9.01221)
(-3.11795 0.000412602 9.01236)
(-3.1176 -0.000142351 9.01201)
(-3.11818 -0.000382326 9.01398)
(-3.97157 5.54292e-05 5.78408)
(-3.97149 0.00010278 5.78499)
(-3.97155 7.78571e-06 5.78515)
(-3.97159 2.6114e-05 5.78562)
(-3.97158 -0.000304009 5.78638)
(-3.97169 -0.000354374 5.78625)
(-1.80526 -5.28228e-05 4.03606)
(-1.8054 -0.000138604 4.03659)
(-1.80544 -0.000206268 4.03673)
(-1.80551 -0.000245619 4.03698)
(-1.80565 -0.00026113 4.03747)
(-1.80553 -0.000138276 4.03695)
(1.66401 0.000171057 16.8725)
(1.66475 0.00051798 16.8739)
(1.66452 0.000637117 16.8738)
(1.66439 0.000730611 16.8737)
(1.66449 0.000480429 16.8736)
(1.66285 9.44693e-05 16.8748)
(0.568332 -2.52577e-05 10.6579)
(0.568752 4.07274e-05 10.6598)
(0.568703 3.92617e-05 10.66)
(0.568681 3.74033e-05 10.6604)
(0.568752 -0.000240364 10.6614)
(0.568349 -0.000281523 10.6615)
(0.612639 -9.54548e-05 6.53629)
(0.612675 -0.000193485 6.53718)
(0.612685 -0.000227898 6.53735)
(0.612708 -0.000259417 6.53761)
(0.612751 -0.000308808 6.53817)
(0.612708 -0.000173823 6.53758)
(0.299867 9.04372e-07 0.00997605)
(0.299894 3.514e-06 0.00997983)
(0.299894 4.42829e-06 0.00997868)
(0.29989 6.51591e-06 0.00997735)
(0.299885 5.0782e-06 0.00997609)
(0.299856 3.29044e-06 0.00997065)
(0.454191 -1.64954e-06 0.183464)
(0.454223 -2.3074e-06 0.183478)
(0.454225 -3.6847e-07 0.183477)
(0.454223 1.54139e-06 0.183476)
(0.45422 3.21246e-06 0.183474)
(0.45419 2.78832e-06 0.183457)
(0.22686 -1.35699e-06 0.500278)
(0.226874 -2.47336e-06 0.500307)
(0.226875 -1.28952e-06 0.500308)
(0.226874 -1.74366e-07 0.500307)
(0.226874 1.36265e-06 0.500306)
(0.22686 1.27608e-06 0.500278)
(0.339898 2.94714e-06 -0.0564582)
(0.339936 7.33211e-06 -0.0564588)
(0.339932 9.71817e-06 -0.0564622)
(0.339922 1.31602e-05 -0.0564648)
(0.339912 9.49747e-06 -0.0564667)
(0.33987 4.79181e-06 -0.0564709)
(0.684426 -3.22236e-06 0.193357)
(0.684478 -5.097e-06 0.193372)
(0.684482 -7.27407e-07 0.193369)
(0.684476 3.52771e-06 0.193364)
(0.684468 7.06717e-06 0.193361)
(0.684417 5.7662e-06 0.19334)
(0.361211 -2.30621e-06 0.734879)
(0.361235 -4.72241e-06 0.734923)
(0.361238 -2.58664e-06 0.734925)
(0.361237 -1.83148e-07 0.734923)
(0.361235 3.27176e-06 0.734919)
(0.361212 3.08701e-06 0.734877)
(0.343839 1.02426e-05 -0.235211)
(0.343876 1.95042e-05 -0.235229)
(0.34385 2.29083e-05 -0.235237)
(0.343809 2.77134e-05 -0.235242)
(0.343764 1.95362e-05 -0.235245)
(0.34368 7.67768e-06 -0.235238)
(1.04428 -4.76836e-06 0.119832)
(1.04436 -9.39664e-06 0.11983)
(1.04437 -3.61838e-06 0.119818)
(1.04436 3.28361e-06 0.119806)
(1.04434 1.27223e-05 0.119795)
(1.04425 1.19984e-05 0.119776)
(0.588463 -4.37695e-06 1.08162)
(0.588508 -1.02364e-05 1.08169)
(0.588516 -7.56405e-06 1.08169)
(0.588516 -3.17075e-06 1.08168)
(0.588515 5.17511e-06 1.08168)
(0.588469 6.22426e-06 1.08161)
(0.541994 3.24056e-05 -0.54092)
(0.542032 7.57336e-05 -0.540955)
(0.542032 0.000101313 -0.540977)
(0.542032 0.000120907 -0.540999)
(0.542029 0.000108533 -0.541022)
(0.542006 4.86702e-05 -0.54102)
(1.60341 -6.98635e-06 -0.00910368)
(1.60358 -1.64623e-05 -0.00911029)
(1.6036 -1.57177e-05 -0.00914471)
(1.60361 -8.35043e-06 -0.00917733)
(1.60361 1.03789e-05 -0.00920828)
(1.60345 1.76382e-05 -0.0092677)
(0.970822 -1.25201e-05 1.58563)
(0.97092 -2.92767e-05 1.58572)
(0.970941 -2.80336e-05 1.58573)
(0.970953 -2.23761e-05 1.58572)
(0.970961 7.22233e-07 1.5857)
(0.97087 1.12045e-05 1.58559)
(-0.83237 4.54117e-05 0.161552)
(-0.832417 8.68129e-05 0.161686)
(-0.832559 5.89297e-05 0.161659)
(-0.832709 5.51715e-05 0.161658)
(-0.832901 4.71678e-06 0.161677)
(-0.833202 -9.88193e-06 0.16155)
(2.62851 -2.67853e-05 0.88926)
(2.62879 -3.45677e-05 0.889534)
(2.62882 -2.37621e-05 0.889518)
(2.62884 -2.03135e-05 0.889539)
(2.62886 -9.59285e-06 0.889625)
(2.62859 5.37605e-06 0.889327)
(1.60973 -4.32477e-05 2.32456)
(1.60994 -8.33367e-05 2.32474)
(1.60999 -7.76067e-05 2.32475)
(1.61002 -7.71509e-05 2.32475)