/*--------------------------------*- C++ -*----------------------------------*\
| =========                 |                                                 |
| \\      /  F ield         | OpenFOAM: The Open Source CFD Toolbox           |
|  \\    /   O peration     | Version:  v1612+                                |
|   \\  /    A nd           | Web:      www.OpenFOAM.com                      |
|    \\/     M anipulation  |                                                 |
\*---------------------------------------------------------------------------*/
FoamFile
{
    version     2.0;
    format      ascii;
    class       volScalarField;
    location    "1.85";
    object      alpha.water;
}
// * * * * * * * * * * * * * * * * * * * * * * * * * * * * * * * * * * * * * //

dimensions      [0 0 0 0 0 0 0];

internalField   nonuniform List<scalar> 
1116
(
0.99999
0.99999
0.99999
0.99999
0.99999
0.99999
0.99999
0.99999
0.99999
0.99999
0.99999
0.99999
0.999945
0.999945
0.999945
0.999945
0.999945
0.999945
0.999887
0.999887
0.999887
0.999887
0.999887
0.999887
0.999544
0.999544
0.999544
0.999544
0.999544
0.999544
0.99837
0.99837
0.99837
0.99837
0.99837
0.99837
0.978454
0.978452
0.978452
0.978453
0.978453
0.978452
0.925096
0.925087
0.925088
0.925088
0.925088
0.925088
0.823321
0.823304
0.823307
0.823306
0.823305
0.823308
0.825798
0.82579
0.825785
0.825784
0.825784
0.825786
0.824671
0.824659
0.824658
0.824658
0.824657
0.824659
0.594502
0.594534
0.594534
0.594539
0.594541
0.594521
0.99999
0.99999
0.99999
0.99999
0.99999
0.99999
0.999958
0.999958
0.999958
0.999958
0.999958
0.999958
0.997186
0.997186
0.997186
0.997186
0.997186
0.997186
0.933555
0.933554
0.933556
0.933557
0.933557
0.933559
0.822066
0.822065
0.822066
0.822066
0.822064
0.822065
0.626686
0.626677
0.626678
0.62668
0.626679
0.626676
0.371914
0.371901
0.371903
0.371905
0.371905
0.371902
0.152033
0.152024
0.152023
0.152024
0.152024
0.152022
0.019091
0.0190903
0.0190897
0.0190893
0.0190892
0.0190887
0.0297743
0.0297721
0.0297739
0.0297733
0.0297732
0.0297717
0.0748928
0.0748885
0.0748877
0.0748857
0.0748761
0.074889
0.403365
0.403378
0.403381
0.403382
0.403381
0.403368
0.999932
0.999932
0.999932
0.999932
0.999932
0.999932
0.766471
0.766467
0.766469
0.766471
0.766471
0.766475
0.518848
0.518843
0.518845
0.518847
0.518847
0.518851
0.227027
0.227023
0.227026
0.227029
0.227029
0.227032
0.00523635
0.00523475
0.00523555
0.00523645
0.00523647
0.00523677
1.33553e-08
1.33568e-08
1.33586e-08
1.33602e-08
1.33609e-08
1.33616e-08
5.62112e-11
5.62419e-11
5.62774e-11
5.62965e-11
5.63045e-11
5.63223e-11
7.89697e-11
7.90257e-11
7.90883e-11
7.91254e-11
7.91393e-11
7.91808e-11
3.29054e-09
3.29116e-09
3.291e-09
3.29064e-09
3.28737e-09
3.28784e-09
2.92042e-07
2.92022e-07
2.92037e-07
2.92051e-07
2.92049e-07
2.91996e-07
0.000102265
0.00010226
0.000102266
0.000102261
0.000102174
0.000102314
0.181533
0.181521
0.181525
0.181521
0.181541
0.181483
0.855711
0.85571
0.855712
0.855712
0.855712
0.855716
0.0517389
0.0517366
0.0517372
0.0517387
0.0517392
0.0517404
5.98787e-07
5.98773e-07
5.9877e-07
5.98769e-07
5.98769e-07
5.98781e-07
3.54893e-07
3.54888e-07
3.54881e-07
3.54882e-07
3.54883e-07
3.54886e-07
1.30466e-08
1.30481e-08
1.30498e-08
1.30513e-08
1.3052e-08
1.30528e-08
-8.33799e-13
-8.34148e-13
-8.34467e-13
-8.3467e-13
-8.34755e-13
-8.3434e-13
1.62388e-12
1.62838e-12
1.62705e-12
1.62653e-12
1.62492e-12
1.62208e-12
1.0347e-10
1.03509e-10
1.03586e-10
1.03627e-10
1.03652e-10
1.037e-10
2.13523e-09
2.13617e-09
2.1362e-09
2.13614e-09
2.13172e-09
2.13405e-09
-3.64485e-08
-3.6407e-08
-3.64267e-08
-3.64098e-08
-3.64127e-08
-3.63388e-08
4.86744e-06
4.86909e-06
4.86967e-06
4.86933e-06
4.86948e-06
4.86595e-06
0.00116402
0.00115989
0.00116101
0.00115977
0.00116434
0.00115182
6.13996e-64
6.15155e-64
6.15143e-64
6.15273e-64
6.15699e-64
6.14766e-64
9.62039e-60
9.63939e-60
9.63958e-60
9.64229e-60
9.64959e-60
9.63673e-60
7.24931e-56
7.26346e-56
7.26381e-56
7.26598e-56
7.27171e-56
7.26262e-56
3.44452e-52
3.45099e-52
3.45115e-52
3.45215e-52
3.45495e-52
3.45089e-52
1.1473e-48
1.1492e-48
1.14918e-48
1.14949e-48
1.15042e-48
1.14918e-48
2.78533e-45
2.78877e-45
2.7884e-45
2.78905e-45
2.79143e-45
2.78891e-45
4.92776e-42
4.93062e-42
4.9292e-42
4.93047e-42
4.93536e-42
4.93264e-42
6.35626e-39
6.35435e-39
6.35149e-39
6.35374e-39
6.3618e-39
6.36162e-39
6.37799e-36
6.37034e-36
6.36645e-36
6.36985e-36
6.38064e-36
6.38481e-36
5.02607e-33
5.02842e-33
5.02788e-33
5.03083e-33
5.03829e-33
5.03992e-33
4.16754e-30
4.17564e-30
4.17652e-30
4.17888e-30
4.18431e-30
4.18502e-30
1.98598e-27
1.99082e-27
1.99105e-27
1.99121e-27
1.99196e-27
1.98951e-27
2.3943e-60
2.39842e-60
2.39827e-60
2.39867e-60
2.40016e-60
2.39643e-60
3.78201e-56
3.78869e-56
3.78855e-56
3.78936e-56
3.79189e-56
3.78653e-56
2.88994e-52
2.89491e-52
2.89483e-52
2.89545e-52
2.89741e-52
2.89347e-52
1.40103e-48
1.40328e-48
1.4032e-48
1.40347e-48
1.4044e-48
1.40256e-48
4.77736e-45
4.78382e-45
4.78318e-45
4.78387e-45
4.7869e-45
4.78093e-45
1.17031e-41
1.17129e-41
1.17095e-41
1.17105e-41
1.1718e-41
1.17053e-41
1.94169e-38
1.94154e-38
1.94054e-38
1.94071e-38
1.94223e-38
1.94091e-38
1.96352e-35
1.9604e-35
1.9587e-35
1.95905e-35
1.96134e-35
1.96148e-35
1.40104e-32
1.39752e-32
1.3961e-32
1.39663e-32
1.39895e-32
1.40011e-32
7.96095e-30
7.95213e-30
7.94838e-30
7.95268e-30
7.96562e-30
7.97245e-30
6.21073e-27
6.22038e-27
6.22091e-27
6.22362e-27
6.2308e-27
6.23147e-27
1.93892e-24
1.94296e-24
1.94299e-24
1.94297e-24
1.9435e-24
1.94099e-24
7.50677e-57
7.52074e-57
7.52016e-57
7.52103e-57
7.52492e-57
7.51145e-57
1.20934e-52
1.21162e-52
1.21155e-52
1.21173e-52
1.21239e-52
1.21038e-52
9.27045e-49
9.28752e-49
9.28699e-49
9.28832e-49
9.29339e-49
9.2784e-49
4.44466e-45
4.45242e-45
4.45207e-45
4.45262e-45
4.45498e-45
4.44806e-45
1.48106e-41
1.4834e-41
1.48323e-41
1.48336e-41
1.48411e-41
1.48192e-41
3.51434e-38
3.51907e-38
3.51843e-38
3.51864e-38
3.52034e-38
3.51549e-38
5.58813e-35
5.59362e-35
5.59212e-35
5.59238e-35
5.59524e-35
5.58854e-35
5.57556e-32
5.57831e-32
5.57623e-32
5.57657e-32
5.57994e-32
5.57468e-32
3.6133e-29
3.61352e-29
3.61188e-29
3.61224e-29
3.61494e-29
3.61267e-29
1.48679e-26
1.48659e-26
1.486e-26
1.48635e-26
1.48786e-26
1.4877e-26
6.14187e-24
6.15105e-24
6.15092e-24
6.15195e-24
6.15635e-24
6.15354e-24
9.33438e-22
9.3514e-22
9.35075e-22
9.34961e-22
9.3505e-22
9.33661e-22
4.35075e-54
4.35936e-54
4.35917e-54
4.35954e-54
4.36137e-54
4.35313e-54
8.18018e-50
8.1962e-50
8.19592e-50
8.19671e-50
8.20015e-50
8.18546e-50
7.48953e-46
7.50361e-46
7.50322e-46
7.50375e-46
7.50665e-46
7.49344e-46
4.33809e-42
4.3456e-42
4.34522e-42
4.34534e-42
4.3468e-42
4.33939e-42
1.69982e-38
1.7025e-38
1.70227e-38
1.70223e-38
1.7027e-38
1.69986e-38
4.39762e-35
4.40385e-35
4.403e-35
4.40274e-35
4.4038e-35
4.39664e-35
6.7661e-32
6.77373e-32
6.77192e-32
6.77133e-32
6.77296e-32
6.76285e-32
5.46493e-29
5.46901e-29
5.46702e-29
5.46648e-29
5.46805e-29
5.4609e-29
2.44447e-26
2.44536e-26
2.44427e-26
2.44407e-26
2.44501e-26
2.44246e-26
6.51244e-24
6.51304e-24
6.51021e-24
6.5105e-24
6.5149e-24
6.51174e-24
2.01252e-21
2.01542e-21
2.01525e-21
2.01524e-21
2.01596e-21
2.01399e-21
1.76986e-19
1.77254e-19
1.77234e-19
1.77208e-19
1.77209e-19
1.76943e-19
0.20858
0.208583
0.208585
0.208582
0.208582
0.208595
3.03775e-20
3.25476e-20
3.36321e-20
3.14621e-20
3.25466e-20
3.58021e-20
-1.2815e-13
-1.40376e-13
-1.44087e-13
-1.40881e-13
-1.40052e-13
-1.43389e-13
5.9879e-07
5.98775e-07
5.98769e-07
5.98772e-07
5.98768e-07
5.98783e-07
0.000783181
0.000783179
0.000783207
0.000783177
0.000783184
0.000783325
-3.88241e-13
-4.25256e-13
-4.3651e-13
-4.26798e-13
-4.24281e-13
-4.344e-13
5.98775e-07
5.98769e-07
5.98771e-07
5.98768e-07
5.98771e-07
5.98768e-07
4.00943e-06
4.00743e-06
4.00766e-06
4.00777e-06
4.00653e-06
4.00724e-06
-1.94073e-12
-2.12578e-12
-2.18203e-12
-2.13346e-12
-2.1209e-12
-2.17147e-12
5.98787e-07
5.98772e-07
5.9877e-07
5.98769e-07
5.98769e-07
5.9878e-07
4.92916e-06
4.9291e-06
4.9291e-06
4.92913e-06
4.92914e-06
4.92917e-06
-3.62083e-12
-3.966e-12
-4.07085e-12
-3.98021e-12
-3.9568e-12
-4.05095e-12
8.12208e-07
8.12119e-07
8.12108e-07
8.12077e-07
8.12042e-07
8.12033e-07
3.75485e-06
3.75417e-06
3.75433e-06
3.75427e-06
3.75412e-06
3.75442e-06
-7.28295e-16
-8.6528e-16
-9.78009e-16
-9.32449e-16
-8.87714e-16
1.90173e-30
-5.49574e-18
-5.7095e-18
-5.63622e-18
-5.59481e-18
-5.46021e-18
-5.32176e-18
3.54142e-17
3.54253e-17
3.54398e-17
3.54464e-17
3.54504e-17
3.54409e-17
3.44397e-17
3.44607e-17
3.4467e-17
3.44731e-17
3.4483e-17
3.44647e-17
1.14538e-14
1.14461e-14
1.14488e-14
1.14537e-14
1.14718e-14
1.14865e-14
-6.08212e-16
-6.08046e-16
-6.08251e-16
-6.08534e-16
-6.09422e-16
-6.09962e-16
1.18836e-17
1.1875e-17
1.18762e-17
1.18763e-17
1.18782e-17
1.18838e-17
1.12373e-10
1.12457e-10
1.12243e-10
1.1213e-10
1.13353e-10
1.12975e-10
1.65238e-14
1.65243e-14
1.65283e-14
1.65342e-14
1.65493e-14
1.65533e-14
1.17292e-17
1.17243e-17
1.17227e-17
1.17207e-17
1.17162e-17
1.1719e-17
1.64719e-07
1.64789e-07
1.64753e-07
1.64746e-07
1.64615e-07
1.64662e-07
3.06596e-12
3.06342e-12
3.06426e-12
3.06555e-12
3.06958e-12
3.07403e-12
-4.09385e-17
-4.09729e-17
-4.09929e-17
-4.10143e-17
-4.10385e-17
-4.10323e-17
2.86501e-07
2.86778e-07
2.86879e-07
2.86961e-07
2.85512e-07
2.86173e-07
7.55421e-08
7.53885e-08
7.54218e-08
7.54458e-08
7.55263e-08
7.58064e-08
1.34018e-07
1.33959e-07
1.33988e-07
1.34011e-07
1.33976e-07
1.34188e-07
3.24068e-07
3.2417e-07
3.24293e-07
3.24334e-07
3.23458e-07
3.24139e-07
2.38808e-07
2.37779e-07
2.38075e-07
2.38144e-07
2.37178e-07
2.39591e-07
6.98971e-06
6.9871e-06
6.98821e-06
6.98868e-06
6.98933e-06
6.99404e-06
7.13545e-06
7.13498e-06
7.13647e-06
7.13608e-06
7.12389e-06
7.14288e-06
6.64838e-07
6.63686e-07
6.64167e-07
6.64202e-07
6.62037e-07
6.6659e-07
6.43051e-06
6.42731e-06
6.42864e-06
6.4291e-06
6.42822e-06
6.4354e-06
5.59771e-15
5.6038e-15
5.60194e-15
5.6e-15
5.59851e-15
5.58767e-15
8.32638e-14
8.34246e-14
8.33646e-14
8.3343e-14
8.343e-14
8.30879e-14
1.59602e-14
1.59864e-14
1.59781e-14
1.59733e-14
1.59799e-14
1.593e-14
5.64049e-15
5.64664e-15
5.64477e-15
5.64279e-15
5.64142e-15
5.63016e-15
7.51639e-12
7.52689e-12
7.51918e-12
7.52222e-12
7.51825e-12
7.53413e-12
9.2255e-12
9.24102e-12
9.23213e-12
9.23342e-12
9.23409e-12
9.2302e-12
1.33238e-13
1.33581e-13
1.33531e-13
1.33381e-13
1.33909e-13
1.32038e-13
1.5206e-11
1.52453e-11
1.52397e-11
1.52223e-11
1.52857e-11
1.50658e-11
1.44653e-09
1.44938e-09
1.44839e-09
1.44783e-09
1.45042e-09
1.44144e-09
1.75196e-07
1.75212e-07
1.75196e-07
1.75142e-07
1.75604e-07
1.74417e-07
8.09842e-09
8.10437e-09
8.10421e-09
8.0971e-09
8.13987e-09
8.02409e-09
3.178e-06
3.18301e-06
3.18102e-06
3.18019e-06
3.18459e-06
3.17018e-06
6.64561e-08
6.64327e-08
6.64163e-08
6.63755e-08
6.63346e-08
6.63346e-08
0.000183493
0.000183582
0.000183541
0.000183525
0.000183821
0.000183107
7.24052e-05
7.24884e-05
7.24548e-05
7.24429e-05
7.25555e-05
7.22515e-05
0.00140059
0.00140104
0.00140085
0.00140082
0.00140316
0.00139821
0.000954205
0.000954547
0.000954412
0.000954369
0.000955499
0.000952912
7.61875e-05
7.62637e-05
7.62348e-05
7.62234e-05
7.62757e-05
7.60963e-05
4.7016e-51
4.7107e-51
4.71025e-51
4.71042e-51
4.71203e-51
4.7024e-51
8.10986e-53
8.12647e-53
8.12636e-53
8.12667e-53
8.12895e-53
8.11172e-53
3.24398e-56
3.25099e-56
3.2509e-56
3.25104e-56
3.25202e-56
3.24485e-56
1.06552e-46
1.06757e-46
1.06748e-46
1.06752e-46
1.06788e-46
1.06578e-46
3.71315e-48
3.72057e-48
3.72056e-48
3.7207e-48
3.72166e-48
3.7142e-48
1.70628e-51
1.70985e-51
1.70981e-51
1.70987e-51
1.71034e-51
1.70673e-51
1.10253e-42
1.10459e-42
1.10448e-42
1.10449e-42
1.10483e-42
1.1027e-42
8.0153e-44
8.03054e-44
8.03046e-44
8.03058e-44
8.03233e-44
8.01693e-44
4.60046e-47
4.60969e-47
4.60958e-47
4.60966e-47
4.61076e-47
4.60139e-47
6.6603e-39
6.67227e-39
6.67145e-39
6.67137e-39
6.67321e-39
6.66055e-39
1.03092e-39
1.03278e-39
1.03276e-39
1.03276e-39
1.03295e-39
1.03107e-39
8.13729e-43
8.15276e-43
8.15258e-43
8.15265e-43
8.15434e-43
8.13868e-43
2.51227e-35
2.51659e-35
2.51623e-35
2.51614e-35
2.51675e-35
2.51209e-35
8.37992e-36
8.39421e-36
8.39403e-36
8.3939e-36
8.3951e-36
8.38068e-36
1.04251e-38
1.0444e-38
1.04438e-38
1.04437e-38
1.04455e-38
1.04265e-38
5.8605e-32
5.87009e-32
5.86914e-32
5.86881e-32
5.87005e-32
5.85948e-32
4.33144e-32
4.33857e-32
4.33846e-32
4.33832e-32
4.33877e-32
4.33161e-32
1.0577e-34
1.05957e-34
1.05955e-34
1.05953e-34
1.05967e-34
1.05779e-34
7.95356e-29
7.96586e-29
7.96444e-29
7.9638e-29
7.96525e-29
7.95131e-29
1.41973e-28
1.42193e-28
1.42187e-28
1.42179e-28
1.42186e-28
1.41964e-28
9.07631e-31
9.0924e-31
9.09169e-31
9.09105e-31
9.09161e-31
9.07506e-31
5.83114e-26
5.8396e-26
5.83844e-26
5.83783e-26
5.8387e-26
5.82881e-26
2.98071e-25
2.98514e-25
2.98492e-25
2.98464e-25
2.98462e-25
2.98011e-25
8.50115e-27
8.5193e-27
8.51658e-27
8.51477e-27
8.51502e-27
8.49394e-27
2.252e-23
2.25502e-23
2.25453e-23
2.25425e-23
2.25451e-23
2.25086e-23
3.72569e-22
3.73094e-22
3.73048e-22
3.72996e-22
3.7297e-22
3.72424e-22
5.72034e-23
5.73352e-23
5.73047e-23
5.72864e-23
5.72969e-23
5.71151e-23
5.06764e-21
5.07396e-21
5.07286e-21
5.07209e-21
5.07239e-21
5.06468e-21
2.32525e-19
2.32841e-19
2.328e-19
2.32757e-19
2.3273e-19
2.32388e-19
1.41742e-19
1.4207e-19
1.4198e-19
1.41927e-19
1.41992e-19
1.41441e-19
8.55146e-19
8.56231e-19
8.56049e-19
8.55891e-19
8.55855e-19
8.54598e-19
5.77989e-17
5.78778e-17
5.78639e-17
5.78503e-17
5.78414e-17
5.77471e-17
4.861e-17
4.8715e-17
4.86852e-17
4.86688e-17
4.86845e-17
4.8521e-17
8.80045e-17
8.81281e-17
8.81064e-17
8.80839e-17
8.80737e-17
8.79119e-17
3.39239e-15
3.39712e-15
3.39597e-15
3.39496e-15
3.39479e-15
3.38757e-15
1.97226e-14
1.97599e-14
1.97478e-14
1.97406e-14
1.97541e-14
1.96743e-14
)
;

boundaryField
{
    seabed_topleft_surface
    {
        type            zeroGradient;
    }
    seabed_topright_surface
    {
        type            zeroGradient;
    }
    breakwater_top_surface
    {
        type            zeroGradient;
    }
    breakwater_left_surface
    {
        type            zeroGradient;
    }
    breakwater_right_surface
    {
        type            zeroGradient;
    }
    water_front_surface
    {
        type            zeroGradient;
    }
    water_back_surface
    {
        type            zeroGradient;
    }
    water_left_surface
    {
        type            zeroGradient;
    }
    water_right_surface
    {
        type            zeroGradient;
    }
    water_top_surface
    {
        type            inletOutlet;
        inletValue      uniform 0;
        value           nonuniform List<scalar> 
180
(
0
0
0
0
0
0
0
0
0
0
0
0
0
0
0
0
0
0
0
0
0
0
0
0
0
0
0
0
0
0
0
0
0
0
0
0
0
0
0
0
0
0
0
0
0
0
0
0
0
0
0
0
0
0
0
0
0
0
0
0
0
0
0
0
0
0
6.43051e-06
6.42731e-06
6.42864e-06
6.4291e-06
6.42822e-06
6.4354e-06
0
0
0
0
0
0
9.2255e-12
9.24102e-12
9.23213e-12
9.23342e-12
9.23409e-12
9.2302e-12
1.44653e-09
1.44938e-09
1.44839e-09
1.44783e-09
1.45042e-09
1.44144e-09
3.178e-06
3.18301e-06
3.18102e-06
3.18019e-06
3.18459e-06
3.17018e-06
7.24052e-05
7.24884e-05
7.24548e-05
7.24429e-05
7.25555e-05
7.22515e-05
7.61875e-05
7.62637e-05
7.62348e-05
7.62234e-05
7.62757e-05
7.60963e-05
0
0
0
0
0
0
0
0
0
0
0
0
0
0
0
0
0
0
0
0
0
0
0
0
0
0
0
0
0
0
0
0
0
0
0
0
0
0
0
0
0
0
0
0
0
0
0
0
0
0
0
0
0
0
0
0
0
0
0
0
0
0
0
0
0
0
0
0
0
0
0
0
)
;
    }
}


// ************************************************************************* //
