/*--------------------------------*- C++ -*----------------------------------*\
| =========                 |                                                 |
| \\      /  F ield         | OpenFOAM: The Open Source CFD Toolbox           |
|  \\    /   O peration     | Version:  v1612+                                |
|   \\  /    A nd           | Web:      www.OpenFOAM.com                      |
|    \\/     M anipulation  |                                                 |
\*---------------------------------------------------------------------------*/
FoamFile
{
    version     2.0;
    format      ascii;
    class       volScalarField;
    location    "3.25";
    object      p;
}
// * * * * * * * * * * * * * * * * * * * * * * * * * * * * * * * * * * * * * //

dimensions      [1 -1 -2 0 0 0 0];

internalField   nonuniform List<scalar> 
320
(
14724.8
14724.8
14724.8
14724.8
4.94483
4.94543
4.94555
4.94537
4.94492
4.9452
4.94518
4.94578
4.94613
4.93936
4.94587
4.94596
4914.83
4914.8
4914.81
4914.85
4914.87
4914.86
4914.87
4914.81
4914.86
4914.79
4914.83
4914.85
14724.8
14724.8
14724.8
14724.8
14724.8
14724.8
14724.8
14724.8
14724.8
14724.8
14724.8
14724.8
24534.8
24534.8
24534.8
24534.8
24534.8
24534.8
24534.8
24534.8
24534.8
24534.8
24534.8
24534.8
24534.8
24534.8
24534.8
24534.8
4.94476
4.94458
4.94526
4.94452
4.94519
4.94453
4.94449
4.94414
4.94387
4.94363
4.94458
4.94487
4.94616
4.94618
4.94587
4.94661
4.94567
4.94626
4.94583
4.94619
4914.82
4914.83
4914.79
4914.79
4914.81
4914.82
4914.86
4914.82
4914.83
4914.79
4914.81
4914.84
4914.85
4914.82
4914.83
4914.88
4914.83
4914.87
4914.86
4914.82
14724.8
14724.8
14724.8
14724.8
14724.8
14724.8
14724.8
14724.8
14724.8
14724.8
14724.8
14724.8
14724.8
14724.8
14724.8
14724.8
14724.8
14724.8
14724.8
14724.8
24534.8
24534.8
24534.8
24534.8
24534.8
24534.8
24534.8
24534.8
24534.8
24534.8
24534.8
24534.8
24534.8
24534.8
24534.8
24534.8
24534.8
24534.8
24534.8
24534.8
34344.8
34344.8
34344.8
34344.8
34344.8
34344.8
34344.8
34344.8
34344.8
34344.8
34344.8
34344.8
34344.8
34344.8
34344.8
34344.8
34344.8
34344.8
34344.8
34344.8
34344.8
34344.8
34344.8
34344.8
34344.8
34344.8
34344.8
34344.8
34344.8
34344.8
34344.8
34344.8
34344.8
34344.8
34344.8
34344.8
4.94529
4.94499
4.94589
4.94618
4.94433
4.94477
4.94505
4.94461
4.9443
4.94567
4.94531
4.94389
4.94377
4.94447
4.94464
4.94542
4.94573
4.94551
4.94548
4.94345
4.94354
4.94675
4.94676
4.94681
4.94566
4.94587
4.94455
4.9447
4914.8
4914.83
4914.84
4914.81
4914.82
4914.85
4914.84
4914.83
4914.86
4914.9
4914.84
4914.76
4914.79
4914.81
4914.84
4914.82
4914.8
4914.86
4914.88
4914.78
4914.76
4914.81
4914.85
4914.89
4914.87
4914.87
4914.79
4914.78
14724.8
14724.8
14724.8
14724.8
14724.8
14724.8
14724.8
14724.8
14724.8
14724.8
14724.8
14724.8
14724.8
14724.8
14724.8
14724.8
14724.8
14724.8
14724.8
14724.8
14724.8
14724.8
14724.8
14724.8
14724.8
14724.8
14724.8
14724.8
24534.8
24534.8
24534.8
24534.8
24534.8
24534.8
24534.8
24534.8
24534.8
24534.8
24534.8
24534.8
24534.8
24534.8
24534.8
24534.8
24534.8
24534.8
24534.8
24534.8
24534.8
24534.8
24534.8
24534.8
24534.8
24534.8
24534.8
24534.8
34344.8
34344.8
34344.8
34344.8
34344.8
34344.8
34344.8
34344.8
34344.8
34344.8
34344.8
34344.8
34344.8
34344.8
34344.8
34344.8
34344.8
34344.8
34344.8
34344.8
34344.8
34344.8
34344.8
34344.8
34344.8
34344.8
34344.8
34344.8
4.94561
4.94585
4.94701
4.94564
4914.82
4914.81
4914.84
4914.88
)
;

boundaryField
{
    top_fluid_surface
    {
        type            calculated;
        value           nonuniform List<scalar> 
64
(
-1.00136e-09
0
0
-1.4009e-09
-1.07142e-09
-8.94407e-09
-3.7279e-09
0
-8.9158e-09
-4.61467e-09
0
-2.60184e-10
0
-1.09818e-10
0
0
0
0
-5.09244e-10
0
-3.36451e-11
0
0
0
-9.6088e-09
0
0
-8.95294e-10
0
-1.2221e-09
-5.35009e-09
0
0
0
-3.14927e-10
0
0
-2.66921e-09
-1.65071e-09
-8.30056e-11
-8.23776e-10
-4.44573e-08
-9.63154e-09
0
0
0
-4.24021e-09
0
0
-8.3072e-10
-2.43072e-08
0
0
0
0
-4.69305e-08
-6.66071e-09
-3.02528e-12
0
0
-1.94123e-11
0
0
-2.91174e-10
)
;
    }
    bottom_fluid_surface
    {
        type            calculated;
        value           nonuniform List<scalar> 
64
(
39249.8
39249.8
39249.8
39249.8
39249.8
39249.8
39249.8
39249.8
39249.8
39249.8
39249.8
39249.8
39249.8
39249.8
39249.8
39249.8
39249.8
39249.8
39249.8
39249.8
39249.8
39249.8
39249.8
39249.8
39249.8
39249.8
39249.8
39249.8
39249.8
39249.8
39249.8
39249.8
39249.8
39249.8
39249.8
39249.8
39249.8
39249.8
39249.8
39249.8
39249.8
39249.8
39249.8
39249.8
39249.8
39249.8
39249.8
39249.8
39249.8
39249.8
39249.8
39249.8
39249.8
39249.8
39249.8
39249.8
39249.8
39249.8
39249.8
39249.8
39249.8
39249.8
39249.8
39249.8
)
;
    }
    lateral_surface_1
    {
        type            calculated;
        value           nonuniform List<scalar> 
40
(
4.94529
4.94499
4.94589
4.94618
4.94433
4.94477
4.94505
4.9447
4914.8
4914.83
4914.84
4914.81
4914.82
4914.85
4914.84
4914.78
14724.8
14724.8
14724.8
14724.8
14724.8
14724.8
14724.8
14724.8
24534.8
24534.8
24534.8
24534.8
24534.8
24534.8
24534.8
24534.8
34344.8
34344.8
34344.8
34344.8
34344.8
34344.8
34344.8
34344.8
)
;
    }
    lateral_surface_2
    {
        type            calculated;
        value           nonuniform List<scalar> 
40
(
4.94447
4.94464
4.94542
4.94573
4.94551
4.94548
4.94345
4.94354
4914.81
4914.84
4914.82
4914.8
4914.86
4914.88
4914.78
4914.76
14724.8
14724.8
14724.8
14724.8
14724.8
14724.8
14724.8
14724.8
24534.8
24534.8
24534.8
24534.8
24534.8
24534.8
24534.8
24534.8
34344.8
34344.8
34344.8
34344.8
34344.8
34344.8
34344.8
34344.8
)
;
    }
    lateral_surface_3
    {
        type            calculated;
        value           nonuniform List<scalar> 
40
(
4.94505
4.94461
4.9443
4.94567
4.94531
4.94389
4.94377
4.94447
4914.84
4914.83
4914.86
4914.9
4914.84
4914.76
4914.79
4914.81
14724.8
14724.8
14724.8
14724.8
14724.8
14724.8
14724.8
14724.8
24534.8
24534.8
24534.8
24534.8
24534.8
24534.8
24534.8
24534.8
34344.8
34344.8
34344.8
34344.8
34344.8
34344.8
34344.8
34344.8
)
;
    }
    lateral_surface_4
    {
        type            calculated;
        value           nonuniform List<scalar> 
40
(
4.94354
4.94675
4.94676
4.94681
4.94566
4.94587
4.94455
4.9447
4914.76
4914.81
4914.85
4914.89
4914.87
4914.87
4914.79
4914.78
14724.8
14724.8
14724.8
14724.8
14724.8
14724.8
14724.8
14724.8
24534.8
24534.8
24534.8
24534.8
24534.8
24534.8
24534.8
24534.8
34344.8
34344.8
34344.8
34344.8
34344.8
34344.8
34344.8
34344.8
)
;
    }
}


// ************************************************************************* //
