/*--------------------------------*- C++ -*----------------------------------*\
| =========                 |                                                 |
| \\      /  F ield         | OpenFOAM: The Open Source CFD Toolbox           |
|  \\    /   O peration     | Version:  v1612+                                |
|   \\  /    A nd           | Web:      www.OpenFOAM.com                      |
|    \\/     M anipulation  |                                                 |
\*---------------------------------------------------------------------------*/
FoamFile
{
    version     2.0;
    format      ascii;
    class       volScalarField;
    location    "1.1";
    object      p;
}
// * * * * * * * * * * * * * * * * * * * * * * * * * * * * * * * * * * * * * //

dimensions      [1 -1 -2 0 0 0 0];

internalField   nonuniform List<scalar> 
320
(
14724.8
14724.8
14724.8
14724.8
4.91856
4.91774
4.91679
4.91711
4.91691
4.9176
4.9177
4.91794
4.91764
4.91765
4.91899
4.91687
4914.83
4914.84
4914.78
4914.82
4914.79
4914.76
4914.83
4914.83
4914.76
4914.79
4914.84
4914.78
14724.8
14724.8
14724.8
14724.8
14724.8
14724.8
14724.8
14724.8
14724.8
14724.8
14724.8
14724.8
24534.8
24534.8
24534.8
24534.8
24534.8
24534.8
24534.8
24534.8
24534.8
24534.8
24534.8
24534.8
24534.8
24534.8
24534.8
24534.8
4.91762
4.91645
4.92221
4.91689
4.91746
4.91712
4.91704
4.91739
4.91773
4.91663
4.91682
4.91718
4.91738
4.91782
4.92236
4.91687
4.91681
4.91691
4.9187
4.92277
4914.8
4914.82
4914.86
4914.8
4914.79
4914.78
4914.79
4914.79
4914.79
4914.82
4914.78
4914.77
4914.77
4914.81
4914.86
4914.78
4914.78
4914.79
4914.77
4914.84
14724.8
14724.8
14724.8
14724.8
14724.8
14724.8
14724.8
14724.8
14724.8
14724.8
14724.8
14724.8
14724.8
14724.8
14724.8
14724.8
14724.8
14724.8
14724.8
14724.8
24534.8
24534.8
24534.8
24534.8
24534.8
24534.8
24534.8
24534.8
24534.8
24534.8
24534.8
24534.8
24534.8
24534.8
24534.8
24534.8
24534.8
24534.8
24534.8
24534.8
34344.8
34344.8
34344.8
34344.8
34344.8
34344.8
34344.8
34344.8
34344.8
34344.8
34344.8
34344.8
34344.8
34344.8
34344.8
34344.8
34344.8
34344.8
34344.8
34344.8
34344.8
34344.8
34344.8
34344.8
34344.8
34344.8
34344.8
34344.8
34344.8
34344.8
34344.8
34344.8
34344.8
34344.8
34344.8
34344.8
4.92138
4.91462
4.9151
4.91604
4.9158
4.91664
4.91781
4.9178
4.91624
4.9172
4.91603
4.9177
4.91629
4.91597
4.91584
4.91644
4.91653
4.91707
4.91705
4.91658
4.91677
4.91735
4.91646
4.91711
4.91416
4.91975
4.91621
4.91484
4914.84
4914.77
4914.83
4914.78
4914.78
4914.82
4914.78
4914.83
4914.78
4914.82
4914.81
4914.83
4914.79
4914.82
4914.81
4914.83
4914.82
4914.76
4914.82
4914.82
4914.82
4914.84
4914.84
4914.83
4914.75
4914.79
4914.77
4914.83
14724.8
14724.8
14724.8
14724.8
14724.8
14724.8
14724.8
14724.8
14724.8
14724.8
14724.8
14724.8
14724.8
14724.8
14724.8
14724.8
14724.8
14724.8
14724.8
14724.8
14724.8
14724.8
14724.8
14724.8
14724.8
14724.8
14724.8
14724.8
24534.8
24534.8
24534.8
24534.8
24534.8
24534.8
24534.8
24534.8
24534.8
24534.8
24534.8
24534.8
24534.8
24534.8
24534.8
24534.8
24534.8
24534.8
24534.8
24534.8
24534.8
24534.8
24534.8
24534.8
24534.8
24534.8
24534.8
24534.8
34344.8
34344.8
34344.8
34344.8
34344.8
34344.8
34344.8
34344.8
34344.8
34344.8
34344.8
34344.8
34344.8
34344.8
34344.8
34344.8
34344.8
34344.8
34344.8
34344.8
34344.8
34344.8
34344.8
34344.8
34344.8
34344.8
34344.8
34344.8
4.92338
4.91672
4.91745
4.91725
4914.87
4914.84
4914.83
4914.83
)
;

boundaryField
{
    top_fluid_surface
    {
        type            calculated;
        value           nonuniform List<scalar> 
64
(
-1.39656e-09
-3.01725e-09
0
-1.77833e-10
0
0
-4.9628e-09
-1.49868e-10
0
0
-1.05532e-09
0
0
-5.26204e-10
-7.25667e-09
0
0
0
0
0
0
-8.04542e-10
0
0
0
-2.29692e-10
-1.01989e-08
0
0
0
0
-1.29814e-09
-1.49547e-09
0
-4.14467e-09
0
0
-1.05842e-09
0
-1.77504e-11
0
-2.69005e-09
-2.72963e-10
-2.01097e-09
0
0
-5.79142e-11
-8.9995e-10
-2.29982e-10
0
-1.07115e-09
-3.64294e-10
-4.56408e-10
-3.46494e-09
-1.92679e-09
-2.62901e-11
-1.60173e-09
0
-1.84421e-11
-9.3466e-09
-7.93052e-09
-4.414e-10
-4.70447e-10
-1.10966e-11
)
;
    }
    bottom_fluid_surface
    {
        type            calculated;
        value           nonuniform List<scalar> 
64
(
39249.8
39249.8
39249.8
39249.8
39249.8
39249.8
39249.8
39249.8
39249.8
39249.8
39249.8
39249.8
39249.8
39249.8
39249.8
39249.8
39249.8
39249.8
39249.8
39249.8
39249.8
39249.8
39249.8
39249.8
39249.8
39249.8
39249.8
39249.8
39249.8
39249.8
39249.8
39249.8
39249.8
39249.8
39249.8
39249.8
39249.8
39249.8
39249.8
39249.8
39249.8
39249.8
39249.8
39249.8
39249.8
39249.8
39249.8
39249.8
39249.8
39249.8
39249.8
39249.8
39249.8
39249.8
39249.8
39249.8
39249.8
39249.8
39249.8
39249.8
39249.8
39249.8
39249.8
39249.8
)
;
    }
    lateral_surface_1
    {
        type            calculated;
        value           nonuniform List<scalar> 
40
(
4.92138
4.91462
4.9151
4.91604
4.9158
4.91664
4.91781
4.91484
4914.84
4914.77
4914.83
4914.78
4914.78
4914.82
4914.78
4914.83
14724.8
14724.8
14724.8
14724.8
14724.8
14724.8
14724.8
14724.8
24534.8
24534.8
24534.8
24534.8
24534.8
24534.8
24534.8
24534.8
34344.8
34344.8
34344.8
34344.8
34344.8
34344.8
34344.8
34344.8
)
;
    }
    lateral_surface_2
    {
        type            calculated;
        value           nonuniform List<scalar> 
40
(
4.91597
4.91584
4.91644
4.91653
4.91707
4.91705
4.91658
4.91677
4914.82
4914.81
4914.83
4914.82
4914.76
4914.82
4914.82
4914.82
14724.8
14724.8
14724.8
14724.8
14724.8
14724.8
14724.8
14724.8
24534.8
24534.8
24534.8
24534.8
24534.8
24534.8
24534.8
24534.8
34344.8
34344.8
34344.8
34344.8
34344.8
34344.8
34344.8
34344.8
)
;
    }
    lateral_surface_3
    {
        type            calculated;
        value           nonuniform List<scalar> 
40
(
4.91781
4.9178
4.91624
4.9172
4.91603
4.9177
4.91629
4.91597
4914.78
4914.83
4914.78
4914.82
4914.81
4914.83
4914.79
4914.82
14724.8
14724.8
14724.8
14724.8
14724.8
14724.8
14724.8
14724.8
24534.8
24534.8
24534.8
24534.8
24534.8
24534.8
24534.8
24534.8
34344.8
34344.8
34344.8
34344.8
34344.8
34344.8
34344.8
34344.8
)
;
    }
    lateral_surface_4
    {
        type            calculated;
        value           nonuniform List<scalar> 
40
(
4.91677
4.91735
4.91646
4.91711
4.91416
4.91975
4.91621
4.91484
4914.82
4914.84
4914.84
4914.83
4914.75
4914.79
4914.77
4914.83
14724.8
14724.8
14724.8
14724.8
14724.8
14724.8
14724.8
14724.8
24534.8
24534.8
24534.8
24534.8
24534.8
24534.8
24534.8
24534.8
34344.8
34344.8
34344.8
34344.8
34344.8
34344.8
34344.8
34344.8
)
;
    }
}


// ************************************************************************* //
