/*--------------------------------*- C++ -*----------------------------------*\
| =========                 |                                                 |
| \\      /  F ield         | OpenFOAM: The Open Source CFD Toolbox           |
|  \\    /   O peration     | Version:  v1612+                                |
|   \\  /    A nd           | Web:      www.OpenFOAM.com                      |
|    \\/     M anipulation  |                                                 |
\*---------------------------------------------------------------------------*/
FoamFile
{
    version     2.0;
    format      ascii;
    class       surfaceScalarField;
    location    "1.1";
    object      phi;
}
// * * * * * * * * * * * * * * * * * * * * * * * * * * * * * * * * * * * * * //

dimensions      [0 3 -1 0 0 0 0];

internalField   nonuniform List<scalar> 
816
(
-3.53934e-07
5.94436e-07
-6.1737e-08
3.85919e-08
-3.66257e-07
1.51082e-07
-5.498e-07
6.10717e-07
-5.09051e-08
2.4943e-08
-4.28678e-07
-3.90033e-07
6.56554e-07
-9.15914e-07
-2.37335e-06
3.5829e-06
-3.91539e-07
-2.30053e-07
-5.41777e-07
2.54045e-07
3.93867e-05
0.000105069
-4.3775e-06
-9.87008e-06
-2.14966e-05
0.000173288
-5.78797e-06
1.4862e-05
7.36391e-06
-3.34339e-05
-1.55954e-05
-6.30871e-07
0.000109659
2.80473e-05
9.07219e-06
0.000110092
-0.000159578
5.5661e-05
4.63466e-06
4.09538e-05
-9.35306e-05
-0.000166319
-3.75366e-06
4.8072e-05
4.62125e-05
-4.33171e-05
1.26107e-05
4.33455e-05
-3.8352e-06
-1.00394e-05
3.37415e-07
7.12099e-05
-7.55417e-05
3.52384e-05
-1.35176e-05
-8.05489e-05
-7.95899e-05
-1.90563e-05
-1.12814e-05
-8.89886e-06
-1.67086e-05
7.97944e-05
6.03148e-06
-5.19505e-06
-1.94562e-05
-1.05522e-06
-1.92276e-06
2.0123e-06
6.54586e-07
-8.23888e-07
-5.99657e-06
-6.25882e-06
2.98205e-06
1.12109e-06
-5.53313e-06
-3.87729e-06
-8.54216e-07
-6.47575e-06
-2.9709e-06
-1.34085e-07
-3.30454e-06
-1.90389e-06
3.53643e-06
-5.12119e-07
3.30588e-06
2.81232e-06
-3.14031e-07
3.42787e-07
1.0047e-06
-3.61833e-06
-1.72014e-06
3.02422e-06
7.46603e-07
1.86713e-06
3.82682e-06
-3.08606e-07
2.70308e-06
2.75397e-06
-1.19228e-06
-1.44411e-07
3.26589e-06
2.10842e-06
-5.38357e-06
-4.40283e-06
-2.64048e-06
-9.68301e-07
-1.8729e-06
-6.50175e-06
6.96323e-07
1.30466e-06
-2.23341e-06
-3.71877e-06
4.46677e-06
4.39643e-07
-1.57858e-06
-1.20994e-06
3.09939e-08
-9.1344e-07
-3.37644e-06
-1.83453e-06
-5.89844e-07
-3.13988e-06
-1.12519e-06
-8.01252e-07
-1.34347e-06
-3.28401e-07
-1.10165e-06
6.83157e-07
1.64733e-06
3.74439e-07
6.84684e-07
-2.12435e-07
-4.78153e-07
-7.64957e-07
-4.70003e-07
6.59565e-07
-4.46221e-07
9.34634e-07
1.71077e-06
2.09719e-07
6.2227e-07
-1.19529e-06
9.90049e-07
-4.42127e-07
-2.03896e-06
-1.61684e-07
-2.11487e-06
-3.93957e-07
-9.52506e-07
-1.86516e-06
-7.05776e-08
-1.77924e-06
-7.68311e-07
3.60379e-08
-6.30348e-07
7.36969e-08
-4.12384e-07
3.0201e-07
-1.72959e-07
-1.74285e-07
5.77379e-08
-4.50721e-07
3.86339e-07
-3.44792e-07
5.71441e-08
-2.86716e-07
1.27939e-07
-1.06816e-06
-8.18907e-07
-4.85245e-07
-5.68306e-07
-1.92659e-07
1.41102e-07
-1.09025e-06
-1.63174e-06
-9.55542e-07
-6.05993e-07
-1.11967e-06
-8.79473e-07
-5.83101e-07
-2.15525e-07
-7.82969e-07
-3.57913e-07
2.00246e-07
5.66422e-08
4.89904e-07
1.53328e-07
-5.04921e-07
-1.22713e-07
-2.08532e-07
4.92454e-07
-3.608e-07
-2.24944e-07
6.69619e-07
-1.91616e-07
4.7515e-07
-9.24715e-08
7.17645e-08
-3.68699e-07
1.35524e-07
-5.84269e-08
-1.53852e-06
-6.61576e-07
9.59465e-08
-1.68571e-06
-2.70806e-07
-1.74984e-07
-1.21033e-06
-4.55705e-07
-7.13277e-07
-3.50719e-07
-1.65051e-07
6.92082e-06
-7.76687e-05
2.62779e-06
1.35715e-05
3.87207e-05
1.36522e-05
-3.54676e-05
0.000178823
5.45122e-06
9.65316e-05
0.00012511
-1.07224e-05
3.2627e-06
6.12932e-05
-1.02903e-05
-7.85961e-05
-1.12113e-05
-3.3456e-05
-4.94892e-06
2.21421e-06
-3.48609e-05
-7.05781e-08
-4.26855e-05
-7.62604e-05
-5.23309e-06
-1.23015e-05
-5.78439e-05
-1.08132e-05
-7.1158e-05
2.90569e-05
1.16554e-06
1.75427e-05
-3.2313e-05
-4.50099e-05
-5.92104e-06
-5.34134e-05
-0.000134807
-9.65275e-06
-3.29787e-05
-0.000141297
-1.00836e-05
2.08737e-05
-0.000170856
1.66197e-05
-5.47564e-05
0.000117749
5.18245e-06
1.15847e-05
-5.45095e-05
6.08678e-05
-1.22823e-05
-0.000104081
1.57092e-05
5.69023e-06
-5.78692e-05
1.09516e-05
-4.60199e-06
-7.52635e-05
-8.89181e-05
7.9077e-06
-7.51245e-05
1.70964e-05
-4.77528e-05
-1.05924e-05
6.81446e-08
-2.12862e-06
6.99434e-07
-3.11377e-06
2.25003e-06
2.96441e-06
-3.97791e-06
5.37665e-06
1.80181e-06
-2.80959e-06
1.08539e-06
-2.91238e-07
-4.76638e-06
7.68902e-07
-1.70602e-06
-5.90769e-06
-2.65549e-06
-1.56548e-06
-5.10792e-07
-6.05418e-06
2.80553e-07
7.01136e-07
-4.10747e-06
-8.89914e-07
4.61509e-07
-4.76603e-06
-7.2132e-06
-1.22499e-06
1.81515e-07
2.8031e-06
-3.03121e-06
-1.93996e-07
-5.5588e-06
8.82372e-07
1.18959e-07
-3.66969e-06
-1.61836e-06
-1.5256e-06
-5.9471e-06
-4.40197e-06
-6.63119e-06
-1.23704e-06
-2.37604e-07
7.89961e-07
1.39299e-06
3.12908e-06
3.62952e-06
-3.38071e-06
2.33219e-06
-2.01314e-06
-2.41129e-06
-6.20659e-06
-4.06956e-08
2.57473e-06
-5.55455e-06
4.22578e-07
3.56219e-06
-3.27104e-06
-3.63636e-06
3.18494e-07
1.18514e-06
2.19211e-06
-1.72224e-06
1.44659e-06
-4.1873e-07
7.12359e-07
1.64923e-07
-3.9787e-07
3.34284e-07
1.68068e-06
-1.32785e-06
1.05171e-06
6.58765e-07
-6.80587e-07
1.37271e-06
-1.86602e-07
-7.43148e-07
-4.59278e-07
-9.81632e-07
2.38296e-07
8.70264e-07
-6.32258e-07
-3.9239e-07
-1.0344e-06
5.71883e-08
4.46024e-07
-3.80354e-08
4.34829e-07
9.32507e-08
-4.7156e-07
-3.46358e-07
-6.61028e-07
8.89765e-07
4.57185e-07
-1.86184e-06
-8.90353e-07
-1.07915e-06
6.9657e-07
-1.22859e-07
-4.28148e-07
9.0457e-07
-6.4948e-07
-8.66525e-07
-1.90899e-06
-3.09272e-06
2.69563e-07
-1.88977e-06
3.71245e-07
2.43551e-07
1.07575e-06
1.64993e-06
-7.9379e-07
-1.83911e-07
-1.91375e-07
-7.26482e-07
-2.5244e-06
9.32404e-08
1.7217e-06
-1.29356e-06
9.60265e-07
1.89371e-06
3.58552e-08
-3.29866e-07
2.66807e-07
1.44855e-06
1.4747e-06
-5.68931e-07
1.67782e-06
-3.75533e-08
9.3674e-08
-3.5916e-08
-5.99903e-07
4.66724e-07
5.7031e-07
-1.02218e-06
6.93501e-07
1.76771e-07
-8.56225e-07
9.77727e-07
-6.91137e-10
-6.7475e-07
-4.30634e-07
-3.28647e-07
9.72949e-08
6.6152e-07
-5.66498e-07
-1.48969e-07
-8.80524e-07
-1.56409e-08
8.89933e-08
-1.17707e-07
2.94126e-07
2.32189e-09
-7.12892e-07
-3.92067e-07
-1.6456e-07
7.04449e-07
3.20832e-07
-4.47171e-07
-8.18962e-07
-1.29098e-06
2.91099e-07
-7.69965e-08
-3.51413e-07
5.75654e-07
-2.46025e-07
-8.6012e-07
-1.16113e-06
-1.07217e-06
-1.98733e-07
-1.00199e-06
-1.24344e-07
2.73995e-07
5.6722e-07
5.30145e-07
-6.0879e-07
1.64461e-07
-1.73037e-07
-3.1386e-08
-1.48425e-06
1.14458e-07
5.15813e-07
-7.59633e-07
5.62831e-07
6.07813e-07
-3.5348e-07
-3.95782e-07
-3.01941e-08
8.84555e-07
4.5771e-07
-3.14701e-07
1.00953e-06
-4.40667e-08
2.4633e-07
-4.74612e-08
-8.80746e-08
-1.54012e-07
1.71111e-07
1.31531e-08
-9.60485e-08
7.91881e-08
-5.46053e-07
-1.99743e-07
-2.27485e-07
7.48811e-08
-3.54534e-07
-7.06211e-07
-1.77903e-07
-4.39879e-07
-2.75048e-07
-3.8583e-08
-2.17624e-07
9.33079e-08
1.48662e-07
2.42816e-08
-2.44096e-07
-1.40332e-07
1.48199e-07
-1.95138e-07
1.87247e-07
-5.9659e-08
-1.48358e-07
5.35843e-08
4.5884e-08
-1.61625e-08
-8.37284e-07
6.24483e-08
-8.2884e-07
1.08369e-08
-4.89846e-07
-2.92994e-07
-2.10639e-07
-2.26914e-08
-1.48473e-08
-2.79867e-07
3.05295e-07
-4.43809e-07
3.85893e-07
-3.35569e-07
5.72792e-07
-2.18088e-07
-2.28392e-07
8.37602e-08
3.92084e-07
-3.15975e-07
-2.67235e-07
-8.5346e-08
2.26135e-08
-1.12905e-08
-3.00191e-07
-2.12009e-07
2.08734e-07
2.55564e-07
-3.67579e-07
-5.27869e-07
2.2335e-07
-2.12839e-07
2.71407e-07
-3.40798e-07
-6.4372e-07
-9.22324e-08
-7.85475e-07
8.28326e-09
2.58933e-07
-2.85745e-07
-2.26093e-07
6.63265e-08
-6.84214e-07
1.26183e-07
-3.86816e-07
3.34138e-07
-9.4217e-08
-2.11518e-07
3.09934e-07
-1.86139e-07
4.243e-07
0.000118122
-8.44978e-05
6.26647e-06
-1.23784e-05
1.17757e-06
9.57297e-05
1.05954e-05
0.000100571
3.11439e-06
3.24793e-05
8.76591e-06
1.9597e-05
9.56698e-06
9.68395e-06
-1.87853e-05
3.06627e-07
1.82765e-06
-7.91116e-05
1.10686e-05
-1.85523e-05
1.52197e-05
-4.424e-06
5.59398e-06
7.25053e-05
-9.82171e-06
2.18055e-06
-3.9264e-06
-1.93578e-05
1.28288e-05
-5.49291e-05
8.27149e-06
-4.02946e-05
5.20913e-06
-7.201e-05
1.33189e-05
-0.000125668
-1.11412e-05
-7.87632e-05
-8.943e-06
-6.41773e-05
1.04734e-05
-1.2521e-05
3.74465e-06
9.93471e-05
-8.90218e-06
8.41112e-05
1.40144e-05
5.22273e-05
4.04132e-06
1.67102e-05
3.79883e-06
-3.27606e-05
-1.54066e-05
-9.93217e-05
-1.43782e-05
3.70375e-06
1.06394e-06
1.62356e-07
2.99637e-06
-9.87448e-07
1.63553e-06
1.87014e-06
4.71837e-06
1.23242e-06
2.4983e-06
2.05014e-06
3.75297e-06
6.50212e-06
-9.38068e-08
-5.12394e-06
-7.76418e-06
-4.06305e-06
-2.68615e-06
-4.20235e-06
4.04966e-06
2.22542e-06
4.11861e-06
3.01617e-06
6.12703e-07
-7.04534e-07
-5.66024e-06
-6.50715e-06
1.50402e-06
8.67431e-07
5.15622e-06
8.78053e-07
2.57055e-06
1.24356e-06
7.40486e-07
4.87663e-06
4.50045e-06
-3.1639e-07
-5.95983e-06
-3.5148e-06
-4.01752e-06
-1.30674e-06
5.25088e-06
1.2742e-06
2.99511e-06
-2.57696e-06
-1.76446e-06
-1.65331e-06
6.59529e-06
4.23897e-06
5.74848e-06
5.48153e-06
1.24629e-06
-3.23526e-07
-6.67518e-06
-5.46767e-06
-5.44811e-06
-1.5017e-06
-5.61892e-07
1.28892e-06
1.70242e-06
-5.35452e-07
1.1831e-06
4.54828e-07
2.39028e-06
7.75162e-07
1.50611e-06
1.86483e-06
1.9243e-06
2.2898e-06
-2.81319e-07
-1.98506e-06
-3.48757e-06
-1.85009e-06
-1.94518e-06
-1.05671e-06
2.22477e-06
1.18505e-06
1.85088e-06
4.59855e-07
8.75449e-07
-1.1989e-06
-3.10065e-06
-1.72544e-06
1.15425e-06
9.13621e-07
2.521e-06
5.79402e-07
1.84666e-06
6.63077e-07
2.40421e-07
1.97637e-06
2.33072e-06
-1.16012e-06
-2.54579e-06
-2.7173e-06
-2.21931e-06
-9.89809e-07
2.73384e-06
1.56705e-07
1.84695e-06
-5.36977e-07
-1.25001e-06
4.50678e-07
3.08921e-06
2.23196e-06
2.67643e-06
2.42017e-06
1.07138e-06
4.02125e-07
-3.23788e-06
-1.0384e-06
-2.35771e-06
-1.2543e-06
-3.98373e-07
1.21763e-06
5.70244e-07
-1.41738e-07
3.51299e-07
4.30875e-07
8.01817e-07
6.75202e-07
4.1295e-07
1.38678e-06
5.49142e-07
1.39956e-06
-1.93352e-07
-1.02542e-06
-1.06087e-06
-1.58576e-06
-7.15248e-07
-7.86535e-07
5.50525e-07
5.23787e-07
4.38948e-07
4.24689e-07
2.75661e-07
-1.15427e-06
-7.959e-07
-1.19118e-06
4.02074e-07
5.71114e-07
7.68459e-07
5.55178e-07
5.87787e-07
3.9326e-07
6.96234e-08
1.27017e-06
6.04874e-07
-6.04668e-07
-8.56616e-07
-1.95677e-06
-5.84927e-07
-7.0075e-07
8.7566e-07
4.96936e-07
6.47313e-07
-5.81035e-07
-1.84021e-08
1.64173e-08
1.00854e-06
1.2244e-06
7.50269e-07
1.68277e-06
2.58916e-07
3.24875e-07
-1.00024e-06
-3.12572e-07
-7.07212e-07
-3.39918e-07
-1.2197e-07
5.0954e-07
-3.07353e-08
3.34303e-07
4.11921e-07
7.45838e-07
6.40549e-07
-4.2005e-07
-7.35382e-07
-4.45352e-07
2.9573e-08
1.43667e-08
-5.62687e-07
-5.05114e-07
2.76609e-07
3.51538e-07
2.1303e-07
4.81516e-07
-4.62591e-07
-1.04037e-06
-4.47075e-07
2.02472e-07
-4.93493e-08
2.57149e-07
6.18787e-07
7.88861e-07
1.06588e-07
-1.71798e-07
0.000133522
9.7435e-05
-1.18741e-05
1.04435e-05
-4.20702e-06
6.00083e-05
-9.79374e-06
3.2213e-06
-1.33114e-06
-1.32579e-06
-3.58844e-06
-3.66106e-06
)
;

boundaryField
{
    top_fluid_surface
    {
        type            calculated;
        value           nonuniform List<scalar> 
64
(
-0.00010845
-0.000161264
0.000103897
-1.81414e-05
2.24956e-05
0.000157915
-0.00017684
-3.12615e-05
0.000131075
9.05702e-05
-7.67639e-05
0.000162152
5.08298e-05
-3.94939e-05
-0.000222101
3.10125e-05
0.000167672
0.000210133
0.000156115
0.000124863
0.000108335
-7.39804e-05
0.000178112
0.000172564
6.75627e-05
-9.84576e-06
-0.000253596
6.6555e-05
9.08468e-05
6.71886e-05
0.000191033
-0.000126732
-0.000154943
5.39574e-05
-0.000163974
6.2211e-05
6.48444e-05
-7.22598e-05
3.17252e-05
-5.14817e-06
6.96466e-05
-0.000119582
-3.5875e-05
-0.000140485
9.12395e-05
8.74937e-06
-4.84661e-06
-7.4566e-05
-1.51303e-05
8.30755e-05
-0.000106387
-3.71708e-05
-5.5109e-05
-0.000181539
-0.000100863
-2.68078e-05
-5.23892e-05
4.74212e-05
-1.53754e-05
-0.000262951
-0.000262823
-6.8076e-05
-7.74223e-05
-2.49859e-06
)
;
    }
    bottom_fluid_surface
    {
        type            calculated;
        value           uniform 0;
    }
    lateral_surface_1
    {
        type            calculated;
        value           uniform 0;
    }
    lateral_surface_2
    {
        type            calculated;
        value           uniform 0;
    }
    lateral_surface_3
    {
        type            calculated;
        value           uniform 0;
    }
    lateral_surface_4
    {
        type            calculated;
        value           uniform 0;
    }
}


// ************************************************************************* //
