/*--------------------------------*- C++ -*----------------------------------*\
| =========                 |                                                 |
| \\      /  F ield         | OpenFOAM: The Open Source CFD Toolbox           |
|  \\    /   O peration     | Version:  v1612+                                |
|   \\  /    A nd           | Web:      www.OpenFOAM.com                      |
|    \\/     M anipulation  |                                                 |
\*---------------------------------------------------------------------------*/
FoamFile
{
    version     2.0;
    format      ascii;
    class       volVectorField;
    location    "1.1";
    object      U;
}
// * * * * * * * * * * * * * * * * * * * * * * * * * * * * * * * * * * * * * //

dimensions      [0 1 -1 0 0 0 0];

internalField   nonuniform List<vector> 
320
(
(-6.09334e-07 -1.25042e-07 8.87385e-07)
(-3.72376e-07 -9.68838e-07 1.43842e-08)
(-6.41864e-08 9.11634e-07 4.1878e-06)
(-8.50978e-07 -4.70467e-07 5.97815e-07)
(-7.61246e-05 -2.93724e-05 -5.285e-05)
(0.000141571 -1.50406e-05 -7.7682e-05)
(0.000178871 -3.01283e-05 6.66946e-05)
(0.000177649 -1.88314e-05 -1.88591e-05)
(9.93672e-05 5.65071e-05 6.70615e-06)
(0.000161552 8.53296e-05 8.22564e-05)
(0.000114231 3.59934e-05 -9.96273e-05)
(-1.45094e-05 7.85783e-05 -1.73129e-05)
(2.83252e-05 -0.000112535 7.71016e-05)
(-2.75071e-05 5.13603e-05 5.61057e-05)
(-4.98216e-05 -3.71167e-05 -4.59417e-05)
(-9.09023e-05 -7.81068e-05 8.27401e-05)
(3.89941e-07 6.04026e-06 5.88573e-06)
(1.25983e-06 1.57016e-06 5.54197e-06)
(5.97297e-08 -4.92452e-06 1.82259e-06)
(-6.31369e-07 -5.21505e-06 -2.86355e-06)
(2.3792e-06 6.48155e-07 4.21838e-07)
(5.26685e-06 3.61663e-06 1.19715e-06)
(-4.14929e-07 1.19511e-06 -2.96057e-06)
(-2.75183e-06 -9.095e-07 1.54774e-06)
(-9.45191e-07 -5.78227e-06 4.20561e-06)
(5.17387e-06 3.78642e-07 9.93984e-07)
(5.24289e-06 6.22208e-07 2.88904e-06)
(2.18287e-06 -1.8709e-06 -1.12655e-06)
(8.84413e-07 5.10653e-07 6.24152e-06)
(-7.22254e-07 5.71186e-08 5.87639e-06)
(-8.79569e-07 -8.42289e-07 2.92541e-06)
(2.61301e-07 -2.53759e-07 -3.1612e-06)
(-1.69246e-07 1.2644e-06 1.59792e-07)
(1.02515e-06 -1.01905e-07 1.02845e-06)
(-1.96194e-08 2.64902e-07 -3.3612e-06)
(-1.67563e-06 6.6431e-07 1.60075e-06)
(8.09439e-07 2.40763e-08 4.23441e-06)
(2.123e-06 5.9584e-07 2.0372e-06)
(6.81234e-07 -2.02362e-08 2.76728e-06)
(1.18818e-06 2.61468e-07 -1.27344e-07)
(-4.49143e-07 -8.45439e-08 -3.74563e-07)
(-5.04533e-07 -6.83797e-07 -2.78885e-07)
(2.31722e-07 4.06772e-07 7.69358e-07)
(-6.97155e-07 -5.32639e-07 7.62676e-08)
(9.38338e-07 6.82894e-07 9.17823e-07)
(-5.92849e-07 1.99291e-07 7.62753e-07)
(-8.4576e-07 -6.01193e-07 3.16311e-07)
(-9.25894e-08 -1.88849e-07 -6.43414e-07)
(-4.32128e-07 4.74335e-07 1.56811e-07)
(6.26688e-07 -2.70406e-07 3.16875e-07)
(-4.36971e-07 -2.4345e-07 -6.54892e-07)
(-6.65425e-07 -3.89385e-08 3.05496e-07)
(1.01197e-06 -9.62419e-08 8.40662e-07)
(1.84059e-06 -3.16357e-07 2.35824e-07)
(9.1828e-07 2.28186e-08 2.44695e-07)
(1.27563e-06 5.38876e-07 1.49049e-07)
(1.49623e-06 4.88296e-05 2.32542e-05)
(-2.39016e-06 4.74692e-05 -3.24408e-05)
(0.000136021 -4.87626e-05 -0.000120471)
(0.00017689 2.33875e-05 2.62428e-05)
(5.16244e-05 0.00010432 9.389e-05)
(4.26259e-05 -1.42153e-05 0.000110251)
(3.11832e-05 -3.84905e-05 7.88429e-05)
(1.45894e-05 -4.00564e-05 6.82097e-05)
(-4.37107e-05 -7.69838e-05 6.48793e-05)
(-3.18021e-05 -6.54002e-05 -4.01134e-05)
(-1.3617e-05 -9.71303e-06 9.54572e-05)
(9.61291e-05 3.12846e-05 9.5722e-05)
(0.000150495 6.83055e-05 4.13293e-05)
(0.000179186 -6.38671e-05 -2.14333e-05)
(9.21709e-05 -4.15331e-05 -0.000142821)
(0.000121551 -0.000128186 4.46182e-05)
(6.05673e-05 -7.62543e-07 4.12426e-05)
(4.53577e-05 -2.98903e-05 3.98009e-05)
(7.86877e-05 2.19116e-05 8.8147e-05)
(7.56061e-05 0.000125946 -5.09537e-05)
(1.38747e-06 3.74417e-06 -9.30142e-07)
(-8.38958e-07 5.9375e-06 -1.9698e-06)
(5.81467e-06 4.52483e-06 -1.23389e-06)
(3.11257e-06 4.72762e-06 -2.4194e-08)
(-1.4148e-06 4.03943e-06 5.63815e-07)
(-5.64503e-06 -2.17394e-06 -3.38876e-07)
(-1.18164e-06 -4.08249e-07 -1.34429e-06)
(-1.75887e-06 9.22967e-07 -1.05905e-06)
(2.39985e-06 -3.3003e-06 2.77267e-07)
(-1.72477e-06 -8.60511e-06 3.83052e-06)
(-2.11623e-06 -1.71067e-06 -8.12995e-07)
(-1.12564e-07 -2.84088e-06 6.2486e-07)
(4.01734e-06 1.41257e-07 5.25631e-06)
(3.293e-06 -7.98992e-07 -3.96399e-07)
(-2.95447e-06 -5.3292e-06 -2.76105e-06)
(5.14526e-06 9.71439e-07 2.02228e-06)
(7.2776e-06 2.1013e-06 -2.87573e-06)
(3.80205e-06 -2.30748e-06 -3.20686e-06)
(-1.76002e-07 2.18489e-06 -8.89413e-07)
(1.82021e-06 3.63219e-06 -1.88972e-06)
(-2.83762e-07 6.30801e-07 -2.97558e-07)
(-4.04986e-07 2.57215e-06 -3.10688e-06)
(9.80562e-07 1.6986e-06 -1.33794e-06)
(1.06343e-06 1.16769e-06 5.391e-07)
(1.36439e-06 -4.1935e-07 2.10492e-06)
(-1.10141e-06 -7.44989e-07 9.29779e-07)
(3.70878e-07 -2.58505e-07 -4.98626e-07)
(-6.19973e-07 2.93379e-07 -8.79443e-08)
(7.37588e-07 5.4596e-07 1.56204e-06)
(-8.39706e-07 -1.10071e-06 3.11979e-06)
(1.11807e-07 -5.68987e-07 3.07182e-07)
(-1.61719e-06 -6.57251e-08 1.44953e-06)
(1.76656e-07 9.36652e-07 5.89839e-06)
(3.05673e-06 -1.77549e-07 -9.97034e-07)
(9.50982e-07 -1.47996e-06 -3.15581e-06)
(2.86394e-06 -2.69409e-07 1.74631e-06)
(1.69689e-06 7.83397e-07 -2.93257e-06)
(6.89671e-07 -1.05986e-06 -3.4665e-06)
(-1.34397e-06 -4.54346e-07 -2.93843e-07)
(-1.1578e-06 9.52755e-07 -2.67183e-06)
(1.46141e-07 6.25341e-07 -2.92406e-08)
(-1.09558e-07 1.95283e-06 -7.12856e-07)
(7.79553e-07 1.58139e-06 -3.52886e-07)
(7.35154e-07 8.23296e-07 -1.09648e-07)
(9.83835e-07 -3.71954e-07 2.50072e-07)
(-8.44392e-07 -6.28452e-07 1.06568e-07)
(1.63817e-07 -2.70166e-07 -1.73911e-07)
(-7.39264e-07 1.86638e-07 -2.56567e-08)
(6.95575e-07 3.83635e-07 8.70091e-08)
(-6.76003e-07 -1.16384e-06 4.35072e-07)
(1.94957e-07 -3.52982e-07 8.77433e-08)
(-9.28623e-07 -3.82274e-07 2.92108e-07)
(8.45137e-08 4.88221e-08 1.33269e-06)
(1.8022e-06 6.46895e-08 1.96188e-07)
(3.57815e-07 -9.19346e-07 -7.20896e-07)
(1.67947e-06 -5.58235e-10 7.97391e-08)
(1.30041e-06 3.13084e-07 -5.01834e-07)
(1.14693e-06 -6.49497e-07 -6.9912e-07)
(-6.25038e-07 -8.92445e-08 1.19935e-07)
(-4.23569e-07 5.84244e-07 -4.0921e-07)
(-9.25556e-08 2.1381e-08 2.21531e-07)
(-4.99668e-08 -2.62646e-07 1.92116e-07)
(1.39532e-07 2.45942e-07 6.09295e-07)
(-2.99336e-07 -1.99081e-07 3.13889e-07)
(3.19107e-07 2.23692e-07 7.14023e-07)
(-1.72606e-07 5.87868e-08 7.26079e-07)
(-2.50705e-07 -2.6175e-07 2.6621e-07)
(8.46422e-08 -1.05349e-07 -2.17209e-07)
(-1.86012e-07 2.06632e-07 1.69682e-07)
(2.4724e-07 -1.476e-07 -1.75866e-09)
(-8.92776e-08 -7.11371e-08 -2.04808e-07)
(-2.07628e-07 4.89127e-09 3.77735e-07)
(6.19561e-07 1.42035e-08 2.68634e-07)
(9.10813e-07 -8.40084e-08 2.0518e-07)
(3.84018e-07 -8.30706e-08 5.43655e-07)
(5.13556e-07 1.20444e-07 7.84341e-08)
(8.80745e-08 3.29556e-07 5.14577e-08)
(-3.08985e-08 8.43191e-07 -2.80266e-07)
(4.35475e-07 6.19215e-07 6.52623e-09)
(4.56369e-07 2.70027e-07 9.95195e-08)
(5.54378e-07 -2.31432e-07 2.85213e-07)
(-2.37066e-07 -3.1294e-07 1.16625e-07)
(1.50628e-07 -1.97952e-07 -3.02557e-08)
(-3.27504e-07 -3.64832e-08 5.73318e-09)
(1.63796e-07 3.95473e-08 1.52387e-07)
(-3.53115e-07 -5.43433e-07 3.22919e-07)
(-7.53271e-08 -2.81589e-07 -1.26309e-08)
(-4.51827e-07 -1.44474e-07 7.92799e-08)
(5.41914e-08 3.10349e-08 5.0874e-07)
(1.01451e-06 -2.79012e-08 6.37761e-08)
(5.46629e-07 -4.11012e-07 -2.80534e-07)
(8.61361e-07 -9.8809e-08 -2.97503e-08)
(6.6128e-07 1.03987e-08 -3.57078e-07)
(4.12958e-07 -3.75877e-07 -3.40777e-07)
(-1.58274e-07 -7.22516e-08 -1.22885e-07)
(-1.36298e-07 3.26101e-07 -3.75534e-07)
(0.00016524 -2.53482e-06 -5.46895e-05)
(-1.22672e-05 -3.66385e-05 2.6918e-05)
(2.14571e-05 1.11518e-05 -9.10458e-05)
(0.000165863 -6.05139e-05 2.93326e-05)
(2.56597e-05 -1.85497e-05 2.54702e-05)
(3.49337e-05 9.06308e-05 -4.60091e-05)
(2.47666e-05 -1.96856e-06 3.16054e-05)
(-6.79391e-05 3.08348e-05 -5.95826e-06)
(-4.85752e-05 -5.05176e-05 2.57299e-05)
(-0.000104222 -4.68117e-05 -7.33491e-05)
(-5.68677e-05 -1.83394e-05 -2.33651e-05)
(-8.25361e-05 3.89478e-05 -6.34188e-05)
(5.89277e-05 5.14907e-05 5.05967e-05)
(3.40871e-05 -4.23634e-05 -2.81903e-06)
(1.74626e-05 -1.7525e-05 -1.07624e-05)
(6.50251e-05 -9.15818e-05 -4.24252e-05)
(3.64771e-05 -9.61737e-05 -2.14468e-05)
(8.05875e-05 -3.20189e-05 5.05054e-05)
(0.000138294 -2.63429e-05 -4.62851e-05)
(5.71402e-05 8.96302e-06 -2.69924e-05)
(4.46377e-05 8.79931e-06 -3.02128e-05)
(4.44021e-05 4.13963e-07 -8.32459e-05)
(8.66092e-05 -0.00014415 -6.20773e-05)
(2.8356e-05 -2.48824e-05 -7.25122e-06)
(6.23988e-05 -1.90408e-05 -5.6493e-05)
(3.90221e-05 -4.76915e-05 3.76065e-05)
(-7.0927e-06 0.000135621 6.06527e-06)
(4.8404e-05 5.29584e-05 -0.000136723)
(1.32484e-06 2.47477e-07 -2.57987e-06)
(-1.22509e-07 3.64457e-06 -2.09572e-06)
(-3.90774e-07 1.7575e-06 -3.21072e-06)
(2.46978e-06 3.1964e-06 -2.56678e-06)
(5.45248e-07 5.10248e-06 -3.53997e-06)
(5.18674e-06 5.76385e-06 5.08418e-07)
(4.85704e-06 -1.49902e-06 6.26085e-06)
(-2.40577e-06 -6.10398e-06 3.02e-06)
(-5.28651e-06 -4.69141e-06 -3.8718e-06)
(-4.92324e-06 -1.32891e-06 -3.40932e-06)
(-6.20723e-06 4.22967e-06 -2.79056e-07)
(-1.61649e-06 3.6506e-06 5.86769e-06)
(7.43876e-07 -6.13201e-06 -2.03009e-06)
(8.56798e-07 -4.31049e-06 -4.42632e-06)
(-2.02149e-06 -4.42342e-06 -1.60025e-06)
(-4.97713e-07 -4.01376e-06 -2.74201e-07)
(-2.26698e-06 -6.04195e-06 -3.40761e-06)
(-4.79368e-06 -1.85937e-06 4.6175e-06)
(4.52509e-06 2.76919e-06 3.99143e-06)
(3.79257e-06 -3.09162e-06 -4.1873e-06)
(-8.78759e-07 -3.97789e-06 -2.20021e-06)
(-1.76503e-06 5.53776e-07 2.54218e-06)
(5.00422e-06 4.44977e-06 -4.91195e-06)
(1.71341e-06 -9.64509e-07 -4.83375e-06)
(1.93849e-06 -6.83142e-06 -1.19598e-06)
(-2.81039e-06 -3.85284e-06 5.69058e-06)
(-4.09925e-06 5.24489e-06 4.60646e-06)
(-1.19749e-06 3.14921e-06 2.86209e-06)
(-9.72722e-07 3.09672e-07 -3.17345e-06)
(-4.31194e-07 4.76014e-07 -1.95533e-06)
(-1.83385e-07 4.571e-07 -4.66655e-06)
(6.82187e-07 2.5441e-07 -2.76719e-06)
(1.23836e-06 7.55443e-07 -3.61282e-06)
(2.69504e-06 7.94657e-08 1.6535e-09)
(1.35015e-06 -5.752e-07 6.86324e-06)
(6.95485e-07 -2.62877e-06 3.14118e-06)
(-8.59249e-07 -1.83579e-06 -4.11692e-06)
(-3.95314e-07 2.27683e-07 -3.70073e-06)
(-3.73073e-07 1.63111e-06 -1.33736e-06)
(9.42409e-07 -3.21631e-07 5.62405e-06)
(-1.24068e-06 -2.53223e-06 -1.6218e-06)
(-4.89144e-07 -5.89399e-07 -4.83638e-06)
(-1.22566e-06 -1.34094e-06 -3.39062e-06)
(-9.80035e-09 -2.03453e-07 -6.61521e-07)
(-1.52524e-06 -1.21932e-06 -4.61856e-06)
(-1.56382e-06 -2.95401e-07 4.97424e-06)
(3.22607e-06 5.21126e-07 4.02271e-06)
(2.31627e-06 -4.64724e-07 -5.08434e-06)
(-2.21633e-07 -8.44168e-07 -3.22473e-06)
(-6.01065e-07 3.70107e-07 2.18854e-06)
(1.62842e-06 7.70023e-07 -6.08803e-06)
(4.38335e-07 -1.57842e-06 -5.24029e-06)
(-7.33404e-07 -3.0611e-06 -1.81303e-06)
(-1.56291e-06 -1.586e-06 6.04984e-06)
(-1.86505e-06 1.00208e-06 4.5565e-06)
(-1.51362e-06 6.61107e-07 1.33234e-06)
(-9.16627e-07 1.87182e-07 -5.67239e-07)
(-9.29566e-08 5.94182e-07 -2.94562e-07)
(-1.77089e-08 4.26279e-07 -9.23059e-07)
(5.36686e-07 5.02332e-07 -3.92722e-07)
(1.10758e-06 6.69146e-07 -6.07688e-07)
(1.69902e-06 1.29906e-07 2.46868e-07)
(6.76022e-07 -4.60382e-08 1.26282e-06)
(5.00078e-07 -1.72011e-06 6.91085e-07)
(-6.72138e-07 -1.42121e-06 -5.85163e-07)
(-2.9268e-07 -8.37217e-08 -5.16742e-07)
(-4.85694e-07 1.00609e-06 -1.98219e-07)
(5.26774e-07 -2.07145e-07 8.49436e-07)
(-1.07647e-06 -1.94715e-06 -4.00836e-07)
(-2.56538e-07 -3.97324e-07 -8.0212e-07)
(-8.98594e-07 -1.21726e-06 -5.30104e-07)
(-1.54876e-07 -1.74734e-07 -1.25723e-08)
(-8.38775e-07 -8.67428e-07 -5.99818e-07)
(-1.11239e-06 -2.64582e-07 1.14107e-06)
(1.98014e-06 3.29474e-07 6.55563e-07)
(1.67031e-06 -4.42513e-07 -1.01811e-06)
(-9.62575e-08 -9.83023e-07 -7.55346e-07)
(-6.36767e-07 7.38425e-08 -2.29948e-07)
(8.96931e-07 8.46353e-07 -1.18296e-06)
(2.10144e-07 -8.48897e-07 -8.60689e-07)
(-2.6505e-07 -1.90263e-06 -1.59751e-07)
(-1.04299e-06 -1.03162e-06 1.24417e-06)
(-1.20742e-06 3.33751e-07 9.2545e-07)
(-1.29348e-06 1.01125e-07 3.86245e-07)
(-3.15686e-07 1.55621e-07 -4.10814e-07)
(-3.53484e-09 2.88692e-07 -2.87755e-07)
(2.94489e-08 2.47229e-07 -4.50795e-07)
(4.00557e-07 2.28345e-07 -2.72667e-07)
(5.99941e-07 2.82147e-07 -3.00606e-07)
(8.12552e-07 8.47721e-08 2.32996e-07)
(3.28484e-07 2.39724e-08 5.76311e-07)
(2.67684e-07 -7.79591e-07 5.20535e-07)
(-2.19675e-07 -6.65499e-07 -3.60775e-07)
(-8.48758e-08 -1.95787e-07 -2.54569e-07)
(-2.1751e-07 2.19799e-07 -2.72126e-07)
(1.71406e-07 -1.73211e-07 5.05899e-07)
(-4.30268e-07 -8.85398e-07 -3.32176e-07)
(-1.70559e-07 -1.58538e-07 -5.51468e-07)
(-4.40014e-07 -4.18247e-07 -4.92215e-07)
(-1.51719e-07 -7.1639e-08 -9.1423e-08)
(-4.01901e-07 -3.41855e-07 -4.48714e-07)
(-3.24201e-07 -1.21565e-07 3.60218e-07)
(1.06161e-06 3.65374e-08 3.44226e-07)
(9.09452e-07 -1.68659e-07 -5.54138e-07)
(4.32795e-08 -3.26285e-07 -4.14886e-07)
(-1.14346e-07 -7.5992e-08 2.45801e-07)
(3.783e-07 1.28854e-07 -5.56173e-07)
(1.13317e-07 -5.32411e-07 -4.71471e-07)
(-1.64511e-07 -9.02625e-07 -2.56665e-07)
(-4.13431e-07 -4.28812e-07 4.96761e-07)
(-5.21071e-07 1.72145e-07 3.13416e-07)
(-5.67387e-07 1.09304e-07 3.32931e-07)
(6.05437e-05 3.34198e-05 -0.000125941)
(0.00013545 4.08291e-05 -2.97119e-05)
(1.80395e-06 7.75799e-05 -3.0674e-05)
(8.93734e-05 -2.38726e-05 -4.71097e-06)
(2.60206e-06 6.83486e-07 2.64962e-07)
(-5.15017e-06 -2.72758e-06 -4.37436e-07)
(-2.95987e-06 -4.08703e-06 3.37578e-06)
(-4.63865e-06 -4.97518e-06 3.54004e-07)
)
;

boundaryField
{
    top_fluid_surface
    {
        type            pressureInletOutletVelocity;
        value           nonuniform List<vector> 
64
(
(0 0 -5.285e-05)
(0 0 -7.7682e-05)
(0.000178871 -3.01283e-05 6.66946e-05)
(0 0 -1.88591e-05)
(9.93672e-05 5.65071e-05 6.70615e-06)
(0.000161552 8.53296e-05 8.22564e-05)
(0 0 -9.96273e-05)
(0 0 -1.73129e-05)
(2.83252e-05 -0.000112535 7.71016e-05)
(-2.75071e-05 5.13603e-05 5.61057e-05)
(0 0 -4.59417e-05)
(-9.09023e-05 -7.81068e-05 8.27401e-05)
(1.49623e-06 4.88296e-05 2.32542e-05)
(0 0 -3.24408e-05)
(0 0 -0.000120471)
(0.00017689 2.33875e-05 2.62428e-05)
(5.16244e-05 0.00010432 9.389e-05)
(4.26259e-05 -1.42153e-05 0.000110251)
(3.11832e-05 -3.84905e-05 7.88429e-05)
(1.45894e-05 -4.00564e-05 6.82097e-05)
(-4.37107e-05 -7.69838e-05 6.48793e-05)
(0 0 -4.01134e-05)
(-1.3617e-05 -9.71303e-06 9.54572e-05)
(9.61291e-05 3.12846e-05 9.5722e-05)
(0.000150495 6.83055e-05 4.13293e-05)
(0 0 -2.14333e-05)
(0 0 -0.000142821)
(0.000121551 -0.000128186 4.46182e-05)
(6.05673e-05 -7.62543e-07 4.12426e-05)
(4.53577e-05 -2.98903e-05 3.98009e-05)
(7.86877e-05 2.19116e-05 8.8147e-05)
(0 0 -5.09537e-05)
(0 0 -5.46895e-05)
(-1.22672e-05 -3.66385e-05 2.6918e-05)
(0 0 -9.10458e-05)
(0.000165863 -6.05139e-05 2.93326e-05)
(2.56597e-05 -1.85497e-05 2.54702e-05)
(0 0 -4.60091e-05)
(2.47666e-05 -1.96856e-06 3.16054e-05)
(0 0 -5.95826e-06)
(-4.85752e-05 -5.05176e-05 2.57299e-05)
(0 0 -7.33491e-05)
(0 0 -2.33651e-05)
(0 0 -6.34188e-05)
(5.89277e-05 5.14907e-05 5.05967e-05)
(3.40871e-05 -4.23634e-05 -2.81903e-06)
(0 0 -1.07624e-05)
(0 0 -4.24252e-05)
(0 0 -2.14468e-05)
(8.05875e-05 -3.20189e-05 5.05054e-05)
(0 0 -4.62851e-05)
(0 0 -2.69924e-05)
(0 0 -3.02128e-05)
(0 0 -8.32459e-05)
(0 0 -6.20773e-05)
(0 0 -7.25122e-06)
(0 0 -5.6493e-05)
(3.90221e-05 -4.76915e-05 3.76065e-05)
(0 0 6.06527e-06)
(0 0 -0.000136723)
(0 0 -0.000125941)
(0 0 -2.97119e-05)
(0 0 -3.0674e-05)
(0 0 -4.71097e-06)
)
;
    }
    bottom_fluid_surface
    {
        type            noSlip;
    }
    lateral_surface_1
    {
        type            noSlip;
    }
    lateral_surface_2
    {
        type            noSlip;
    }
    lateral_surface_3
    {
        type            noSlip;
    }
    lateral_surface_4
    {
        type            noSlip;
    }
}


// ************************************************************************* //
