/*--------------------------------*- C++ -*----------------------------------*\
| =========                 |                                                 |
| \\      /  F ield         | OpenFOAM: The Open Source CFD Toolbox           |
|  \\    /   O peration     | Version:  v1612+                                |
|   \\  /    A nd           | Web:      www.OpenFOAM.com                      |
|    \\/     M anipulation  |                                                 |
\*---------------------------------------------------------------------------*/
FoamFile
{
    version     2.0;
    format      ascii;
    class       surfaceScalarField;
    location    "5.35";
    object      phi;
}
// * * * * * * * * * * * * * * * * * * * * * * * * * * * * * * * * * * * * * //

dimensions      [0 3 -1 0 0 0 0];

internalField   nonuniform List<scalar> 
816
(
-6.10637e-06
-8.32407e-06
4.62765e-06
-1.29986e-06
-8.86172e-06
1.99651e-05
3.69104e-06
8.21284e-06
-1.06547e-06
1.24604e-05
-2.93887e-05
-6.72324e-06
2.43178e-06
6.17778e-06
7.85882e-06
-1.80548e-05
-2.09016e-06
9.78788e-06
9.1266e-06
-1.98557e-05
7.22016e-05
8.52282e-05
1.6217e-05
6.40481e-05
-0.000136965
7.74492e-06
-5.5602e-06
7.11683e-05
-0.00014844
-5.56896e-05
-6.3765e-06
-0.000105969
0.000131377
0.000101513
6.27983e-06
-5.21141e-05
0.000111893
0.000166857
-2.73252e-06
0.000181939
-7.2273e-05
6.33508e-06
-7.47928e-06
0.000147567
0.000322784
0.000115529
-8.43276e-07
0.000133528
0.000107691
0.000402139
6.46967e-06
-3.04831e-05
-2.06686e-05
0.000136586
2.16933e-06
-1.27021e-05
0.000272689
0.000191693
6.4562e-06
0.00017514
-0.000126762
7.40153e-05
-6.41057e-06
0.000265836
-0.000508275
-1.51684e-06
2.11289e-05
8.03879e-05
1.23778e-05
9.772e-06
-1.74208e-05
3.3374e-06
1.17715e-05
1.79085e-05
-2.29446e-05
5.67139e-06
7.01312e-06
-1.42628e-06
-7.79209e-06
1.58761e-06
1.27671e-05
-1.82473e-06
1.39168e-05
-6.46536e-06
-9.11986e-07
7.95798e-07
1.68543e-06
-4.55597e-06
-9.2027e-07
5.61566e-06
-2.05735e-05
1.65001e-06
1.20749e-05
2.36384e-06
-1.51941e-05
1.75315e-07
1.08928e-05
2.89073e-06
1.49965e-05
-1.10944e-05
1.7231e-06
2.24665e-06
-2.83941e-05
1.56307e-05
1.61744e-05
1.8421e-05
-2.04632e-05
2.79453e-06
8.88621e-06
5.57374e-06
1.52528e-05
8.60947e-06
-1.25703e-05
-7.44752e-06
1.17217e-05
1.25183e-05
-4.70258e-06
1.26154e-08
-9.01882e-06
9.26621e-07
-9.49341e-06
-9.18964e-06
-7.20517e-07
-1.51619e-06
-2.81438e-06
-8.3025e-07
-1.21234e-05
2.54269e-06
5.98006e-06
2.83554e-06
2.29988e-06
8.97345e-07
-1.05623e-06
-1.81625e-06
-9.79805e-06
-2.76813e-06
-3.8791e-06
-2.18522e-06
-6.98699e-06
1.98093e-06
2.59287e-07
6.3412e-06
8.66793e-06
-3.8509e-06
-1.30606e-05
-2.63891e-06
-8.58503e-06
-8.99777e-06
-9.32273e-06
1.81226e-07
-1.35789e-06
6.75261e-06
-4.27318e-07
-3.54824e-06
-4.54857e-06
-6.86627e-07
-3.40036e-06
-4.43682e-06
2.36492e-06
-1.07865e-06
-2.29595e-06
1.91842e-06
4.10882e-06
-1.0747e-06
4.10849e-06
-4.0696e-06
1.99516e-06
3.39662e-06
2.10346e-06
-1.59613e-06
5.04371e-06
3.53032e-06
-2.91609e-06
-3.84297e-07
-3.93277e-07
-2.93131e-06
-5.74416e-06
-8.64405e-07
-1.38309e-06
-1.02692e-06
-3.25672e-07
-6.81365e-06
-3.91488e-07
1.98209e-06
1.16054e-06
7.51473e-07
1.59895e-06
-6.14942e-07
3.1708e-07
-5.42675e-07
-2.28389e-06
-2.51492e-06
-2.82747e-06
-9.9791e-07
7.25709e-07
-2.215e-06
2.54695e-07
5.67182e-06
1.41014e-06
-2.16513e-06
-1.67487e-06
-5.09021e-06
-3.87726e-06
-5.43234e-06
-8.44939e-08
-2.57366e-06
-1.43581e-06
-2.10494e-07
1.91152e-06
-3.40449e-06
-7.03044e-07
-1.26275e-06
-0.000319745
0.000192824
-7.53679e-06
6.60537e-05
-0.00012914
9.42958e-06
6.74001e-05
-0.000224835
-7.15396e-06
3.88631e-05
-8.00331e-05
-2.94153e-06
-8.27467e-05
0.000168936
-8.61999e-06
-0.000255346
-0.000181426
-1.10902e-05
1.90785e-07
-0.00019561
3.04166e-05
4.26317e-06
-0.000321275
-0.000114464
1.20367e-06
-0.000183013
8.7919e-06
-3.45957e-06
-3.03082e-05
5.30522e-05
-9.8704e-07
-0.000138074
-6.31688e-06
-0.000127799
-2.79777e-06
6.83015e-05
-0.000311393
-6.81999e-06
-0.000138112
0.000103544
-3.16931e-07
-2.7414e-05
0.00011527
-9.6308e-06
-0.000256268
0.000247998
-8.21154e-06
-0.000389055
3.95075e-06
6.06904e-05
8.60222e-06
0.000160003
-8.85943e-05
6.10348e-06
-1.03264e-05
-2.53183e-05
-1.59819e-05
0.000147369
-1.56941e-05
-1.54374e-05
6.94361e-05
-2.93954e-06
-0.000188513
-6.43786e-05
-1.37134e-05
-2.85312e-06
1.11271e-05
8.99699e-06
4.43382e-07
-7.72987e-06
7.05124e-06
4.54221e-06
-1.63337e-05
1.15122e-05
-1.0963e-06
-6.55184e-07
5.75214e-06
6.91692e-06
2.31202e-05
-1.72986e-05
-2.22047e-05
-2.50294e-06
3.50332e-05
-1.20512e-05
-6.00968e-06
2.36914e-05
-2.42191e-05
-2.06712e-05
5.04022e-05
-3.32214e-05
-1.38437e-05
1.83253e-06
-8.97022e-06
9.76014e-06
-1.92255e-05
9.59364e-07
-6.75784e-06
7.0854e-07
1.7786e-05
1.6615e-06
-1.4933e-05
2.67329e-05
-1.72229e-05
6.02349e-06
-2.91154e-05
-2.58198e-06
1.68947e-06
1.73032e-05
-7.19845e-06
6.52332e-06
6.52167e-06
-9.4667e-06
-9.22413e-06
3.08542e-06
1.88616e-05
9.11766e-06
-3.27904e-06
2.92771e-05
-1.37163e-05
-9.2553e-06
7.0173e-06
-8.39877e-06
-9.12802e-06
-4.97318e-06
1.99955e-06
1.86568e-05
-1.6056e-05
-1.82602e-05
4.11098e-06
1.74358e-06
5.3895e-06
-4.66087e-06
-1.12856e-06
-3.57489e-06
2.03722e-06
-4.32357e-06
-6.42289e-06
-7.43803e-06
-1.31205e-06
-6.11415e-07
-3.88376e-06
-7.28464e-06
1.10038e-05
8.89264e-06
9.20331e-06
-5.07024e-07
1.61584e-05
-2.34071e-08
3.7787e-06
1.09635e-05
1.12954e-05
1.5356e-05
2.27702e-05
1.50137e-05
1.21178e-05
1.02756e-06
1.29191e-06
-4.10531e-06
-8.7282e-06
-2.55333e-06
8.29086e-06
9.25845e-07
8.5284e-06
3.79992e-07
8.2899e-06
1.2573e-05
8.76694e-06
-4.32072e-07
-1.40401e-05
2.31499e-06
-6.92838e-07
7.65234e-06
7.27698e-06
-9.62876e-06
3.01136e-06
9.3947e-06
3.04478e-06
-2.61319e-06
8.20133e-06
-4.94414e-06
5.92004e-06
1.28909e-05
8.04105e-06
4.4873e-06
3.78393e-06
4.26019e-06
7.89744e-07
-2.44263e-06
4.81827e-07
8.75251e-06
3.57772e-06
8.85725e-06
2.5639e-06
1.1436e-06
1.91715e-06
-3.64405e-06
-4.82793e-09
-1.56357e-06
1.60503e-07
-2.26782e-06
-3.93636e-07
-4.63041e-06
-6.76122e-07
-3.0325e-07
-2.22284e-06
-4.03031e-06
3.22516e-06
5.69458e-06
5.45021e-06
-3.17537e-07
5.8376e-06
-1.93482e-07
2.0466e-06
3.93196e-06
5.83754e-06
8.40934e-06
7.29888e-06
8.52648e-06
6.76142e-06
1.12331e-07
2.91936e-07
-2.14323e-06
-1.5035e-06
-2.49517e-06
4.17582e-06
1.18313e-06
2.57442e-06
1.25439e-07
5.64636e-06
3.9485e-06
4.89009e-06
-4.40854e-07
-3.58039e-06
1.29155e-06
-8.08013e-07
2.0911e-06
4.24078e-06
-5.46866e-06
6.5883e-07
5.80441e-06
1.20164e-06
-1.97365e-06
3.00376e-06
-3.40631e-06
2.83946e-06
3.7025e-06
4.27819e-06
2.36214e-06
1.37916e-06
2.66664e-06
1.08477e-07
-8.5651e-07
-4.40442e-08
2.10062e-06
2.11196e-06
5.78747e-06
-1.77862e-06
-1.77618e-06
1.27016e-06
-4.6889e-09
1.8963e-06
5.99613e-07
-1.68333e-07
-3.08537e-06
1.18473e-06
2.22408e-06
-1.32233e-06
3.65917e-06
-2.87323e-06
7.90703e-07
4.13683e-07
-2.9318e-06
-7.35446e-07
-1.58676e-07
2.69575e-07
-3.43218e-06
4.17204e-07
8.49047e-09
8.30232e-07
-1.41675e-06
-4.68673e-08
-1.18095e-06
-7.63228e-07
1.42386e-07
1.25336e-06
2.84728e-07
2.44093e-06
-2.09553e-06
4.84863e-07
-1.98779e-06
-3.15535e-06
6.88481e-07
-1.19322e-06
-7.09721e-08
-2.23089e-06
5.55365e-07
6.65813e-07
8.70078e-07
-1.85396e-06
-1.01056e-06
5.15666e-07
-6.06149e-07
-1.53935e-06
-2.90807e-07
-3.59239e-07
-1.81696e-06
2.1498e-06
2.59281e-06
3.52684e-07
2.48332e-07
1.68802e-06
2.60639e-06
4.76101e-06
2.81444e-06
3.29362e-06
4.01603e-07
-1.335e-07
-8.04113e-07
2.72917e-06
1.12561e-06
5.44817e-07
3.25071e-06
3.06922e-06
8.67739e-07
1.23097e-06
4.89317e-07
2.92998e-06
-3.07479e-06
3.1167e-06
1.10071e-06
-1.22338e-06
-8.50288e-07
9.68069e-07
2.18592e-06
1.14734e-06
1.11835e-06
2.20818e-07
6.19217e-07
8.44784e-07
2.34355e-06
0.000119712
-0.000157679
1.58423e-05
-9.32385e-05
-7.95037e-06
-9.58799e-05
-1.78712e-05
-0.000326607
3.41843e-06
-0.000142264
5.51599e-06
-0.000119581
4.34641e-06
0.000125748
-1.49139e-05
5.88717e-05
3.46353e-06
-6.79867e-05
2.85187e-05
0.000190925
6.99708e-06
0.000186415
1.00282e-05
0.000199658
1.3448e-05
0.000134387
3.63321e-06
-4.08857e-05
-7.95698e-06
-0.000124188
-1.18537e-05
-0.00018203
-2.4916e-06
-0.000151656
6.59131e-06
-5.75117e-06
3.48718e-06
4.71819e-05
-1.26987e-05
0.000116259
-1.44822e-05
0.00031905
-9.06123e-06
0.000127062
4.48601e-06
9.02752e-05
1.03972e-05
9.11523e-05
4.7574e-06
-4.95865e-05
-4.5866e-06
-0.000182388
-1.58083e-05
-0.000204878
1.31384e-06
1.76476e-05
1.71333e-05
-1.3486e-05
-4.72125e-06
1.34949e-06
1.76047e-05
6.65569e-06
-1.63305e-05
-2.38488e-06
2.39501e-05
-1.37233e-05
2.31655e-05
-1.56754e-05
-1.02601e-05
6.22447e-06
-3.717e-05
4.21263e-06
-1.63214e-05
-1.18682e-05
2.88276e-05
-6.54047e-06
-2.31927e-05
1.30129e-05
-4.37e-05
2.43849e-05
-7.50015e-06
1.22549e-05
1.66935e-05
-1.0208e-05
1.45075e-05
-3.33871e-06
-2.57979e-05
-4.56574e-06
6.87531e-07
-2.25633e-06
-1.29728e-05
5.02567e-06
-6.19445e-06
2.04495e-06
-1.48171e-05
-8.34467e-06
-1.51738e-05
1.6976e-05
-3.57651e-05
3.24689e-06
8.90219e-06
-7.7288e-06
3.02455e-05
6.30298e-06
-2.30218e-05
1.91483e-06
-8.14664e-06
-1.41559e-05
2.04803e-06
-1.03345e-05
-2.17074e-05
-6.27879e-06
-2.77446e-06
4.39716e-06
-2.76655e-06
4.42353e-07
9.73117e-06
-7.27701e-06
-6.57474e-06
-1.73081e-06
1.09653e-05
7.97716e-06
9.57093e-06
1.1617e-05
-5.00194e-06
-9.46092e-06
-1.60853e-05
-8.08636e-06
-8.48961e-06
7.7668e-06
1.29374e-05
5.32447e-06
-9.44496e-06
-4.39808e-06
-1.89327e-05
-6.75817e-06
-3.83819e-06
-1.19463e-06
8.57836e-06
6.28042e-06
7.03774e-06
2.07735e-07
-1.14176e-05
8.65827e-07
4.12874e-07
3.11376e-06
-6.45329e-06
2.61426e-06
-3.38381e-06
3.26189e-06
-8.19447e-06
5.24701e-06
-7.7731e-06
-1.44865e-05
-1.60394e-05
-6.94889e-06
4.38909e-06
4.92604e-06
1.34248e-05
2.05029e-07
-1.02595e-05
-3.05543e-08
-3.6491e-06
1.78533e-06
7.11907e-07
-9.75194e-07
-1.00901e-05
-2.86047e-06
-2.38901e-06
2.66971e-06
-9.41643e-07
3.48435e-07
3.34426e-06
-3.34923e-06
-2.71761e-06
-3.49925e-07
3.33829e-06
4.91757e-06
2.07827e-06
6.27658e-06
-6.80994e-07
-5.01457e-06
-4.78425e-06
-5.11386e-06
-2.89929e-06
4.08382e-06
3.54898e-06
3.33391e-06
-2.85167e-06
-2.96651e-06
-4.09193e-06
-4.81694e-06
-1.68997e-06
-1.05653e-06
2.3173e-06
4.45313e-06
1.51622e-06
9.05167e-07
-3.69622e-06
1.45975e-06
-9.55267e-09
2.39236e-06
-2.49738e-06
1.79518e-06
-1.5059e-06
1.44974e-06
-3.61853e-06
2.07083e-06
-2.6018e-06
-8.46968e-06
-5.49573e-06
-3.56442e-06
6.62989e-07
3.09635e-06
3.33829e-06
5.47558e-08
-2.95533e-06
-3.28187e-07
-6.08877e-07
8.05565e-07
-4.71457e-07
-7.28428e-07
-2.7697e-06
-9.20896e-07
-1.52074e-06
1.422e-06
-4.55889e-08
-2.25639e-06
-4.52389e-07
1.27958e-06
2.7455e-06
-2.05804e-06
-2.35626e-06
1.44402e-06
1.19838e-06
-7.88624e-08
-1.36177e-06
1.59931e-07
1.67551e-06
7.02221e-07
1.23371e-06
1.80391e-06
1.52229e-06
8.18938e-07
1.30447e-06
-4.19173e-06
-2.43378e-06
4.8126e-08
-7.27199e-07
-2.21273e-07
-7.82392e-08
-5.03796e-07
-0.000189758
9.82481e-05
-2.24807e-06
-0.0001054
2.0736e-05
0.00014526
3.13492e-06
-8.28861e-07
1.77017e-06
1.74304e-05
-1.42467e-06
1.25406e-05
)
;

boundaryField
{
    top_fluid_surface
    {
        type            calculated;
        value           nonuniform List<scalar> 
64
(
-0.000102285
0.000153562
4.68322e-05
-0.000228539
-0.00020224
-0.000299592
-0.000336437
-0.000247128
-2.47812e-05
-0.000107691
0.000367347
5.68616e-05
0.000122764
-0.000197605
0.000136925
-0.00017997
0.000198087
0.00049439
0.00019402
0.00050522
6.40625e-05
0.000132825
0.000448561
0.000447913
-0.000443662
0.000243063
0.000260285
0.000294412
0.000330111
7.82834e-05
4.94023e-05
0.000432241
-0.000167386
0.000282376
8.75791e-05
0.000266319
-0.000270432
-0.000282246
-0.000228572
-0.000118213
-9.77833e-05
-0.000584839
-0.000186159
-2.41404e-05
-7.74201e-05
0.000183172
8.61797e-05
0.000130055
-0.000172889
-0.000173914
-0.000297614
-0.000448238
-0.000192452
0.00018575
0.000183657
-1.51855e-05
0.000292855
0.00021716
-4.59652e-05
-0.000380937
-0.000533915
-0.000172995
-0.000227774
7.40023e-05
)
;
    }
    bottom_fluid_surface
    {
        type            calculated;
        value           uniform 0;
    }
    lateral_surface_1
    {
        type            calculated;
        value           uniform 0;
    }
    lateral_surface_2
    {
        type            calculated;
        value           uniform 0;
    }
    lateral_surface_3
    {
        type            calculated;
        value           uniform 0;
    }
    lateral_surface_4
    {
        type            calculated;
        value           uniform 0;
    }
}


// ************************************************************************* //
