/*--------------------------------*- C++ -*----------------------------------*\
| =========                 |                                                 |
| \\      /  F ield         | OpenFOAM: The Open Source CFD Toolbox           |
|  \\    /   O peration     | Version:  v1612+                                |
|   \\  /    A nd           | Web:      www.OpenFOAM.com                      |
|    \\/     M anipulation  |                                                 |
\*---------------------------------------------------------------------------*/
FoamFile
{
    version     2.0;
    format      ascii;
    class       volScalarField;
    location    "4.05";
    object      p_rgh;
}
// * * * * * * * * * * * * * * * * * * * * * * * * * * * * * * * * * * * * * //

dimensions      [1 -1 -2 0 0 0 0];

internalField   nonuniform List<scalar> 
320
(
-9800.21
-9800.21
-9800.22
-9800.21
-0.00731731
0.00315183
0.0060392
-0.000378513
0.000162801
-0.00233436
-0.00331838
0.00168829
-0.00414849
-0.00547716
0.00458216
-0.00690493
-9799.96
-9800.02
-9800.02
-9800
-9800.03
-9799.94
-9799.93
-9800.04
-9799.95
-9799.94
-9800.09
-9799.93
-9800.21
-9800.22
-9800.22
-9800.21
-9800.21
-9800.21
-9800.22
-9800.21
-9800.21
-9800.21
-9800.2
-9800.21
-9800.21
-9800.21
-9800.2
-9800.21
-9800.2
-9800.21
-9800.21
-9800.21
-9800.21
-9800.21
-9800.21
-9800.21
-9800.21
-9800.21
-9800.2
-9800.21
7.96401e-06
-0.00463461
-0.000845063
-0.00270927
0.0043447
0.0145221
0.0059305
0.0155029
-0.0061575
-0.000871385
0.00146335
0.00660692
-0.00526126
0.00292457
0.0027232
0.00476392
0.00460554
0.000510467
-0.00587068
0.000964574
-9800.06
-9799.97
-9799.97
-9799.95
-9800.07
-9800.13
-9800.07
-9800.13
-9799.95
-9800
-9800.07
-9800.11
-9799.96
-9800.08
-9800.04
-9800.08
-9800.1
-9800.03
-9799.96
-9800.08
-9800.2
-9800.2
-9800.2
-9800.2
-9800.2
-9800.2
-9800.21
-9800.2
-9800.2
-9800.19
-9800.2
-9800.2
-9800.21
-9800.2
-9800.21
-9800.21
-9800.2
-9800.21
-9800.2
-9800.2
-9800.2
-9800.2
-9800.2
-9800.21
-9800.2
-9800.2
-9800.21
-9800.2
-9800.2
-9800.2
-9800.2
-9800.2
-9800.21
-9800.2
-9800.21
-9800.21
-9800.2
-9800.21
-9800.21
-9800.2
-9800.21
-9800.21
-9800.21
-9800.2
-9800.2
-9800.2
-9800.21
-9800.21
-9800.21
-9800.21
-9800.21
-9800.21
-9800.21
-9800.21
-9800.2
-9800.2
-9800.2
-9800.2
-9800.2
-9800.21
-9800.2
-9800.2
-9800.21
-9800.2
-9800.2
-9800.2
-9800.2
-9800.2
-9800.2
-9800.2
-9800.21
-9800.21
-9800.21
-9800.21
-9800.21
-9800.2
0.000396935
0.0118117
0.000311055
0.00112826
-0.0043492
-0.00313822
0.00153075
-0.000673072
0.00232807
0.000146453
0.00144387
-0.00639596
-0.00216125
0.00419143
-0.00617243
-0.000131739
-0.000771476
-0.00377788
-0.0056134
-0.00357267
-0.0141056
0.000844905
0.00492294
-0.000973525
0.00213298
0.00517169
0.00115536
-0.0111616
-9799.98
-9800.11
-9799.96
-9800.1
-9800
-9799.99
-9799.93
-9799.97
-9800.07
-9799.89
-9799.93
-9799.96
-9800.06
-9800.08
-9799.96
-9799.96
-9799.96
-9799.96
-9799.95
-9799.98
-9799.91
-9800
-9800.06
-9799.94
-9800.04
-9800.04
-9799.99
-9799.98
-9800.2
-9800.2
-9800.21
-9800.19
-9800.18
-9800.19
-9800.21
-9800.21
-9800.21
-9800.22
-9800.22
-9800.2
-9800.19
-9800.19
-9800.19
-9800.21
-9800.21
-9800.21
-9800.2
-9800.2
-9800.2
-9800.2
-9800.22
-9800.22
-9800.21
-9800.21
-9800.2
-9800.2
-9800.2
-9800.2
-9800.2
-9800.2
-9800.2
-9800.2
-9800.21
-9800.21
-9800.21
-9800.22
-9800.21
-9800.2
-9800.2
-9800.2
-9800.2
-9800.2
-9800.21
-9800.2
-9800.21
-9800.2
-9800.2
-9800.2
-9800.21
-9800.21
-9800.21
-9800.21
-9800.2
-9800.19
-9800.2
-9800.2
-9800.2
-9800.2
-9800.2
-9800.2
-9800.21
-9800.21
-9800.21
-9800.21
-9800.21
-9800.2
-9800.2
-9800.2
-9800.2
-9800.2
-9800.21
-9800.2
-9800.21
-9800.2
-9800.2
-9800.2
-9800.21
-9800.21
-9800.21
-9800.21
-9800.2
-9800.2
-0.00372237
0.00528828
0.00151856
0.00518772
-9799.95
-9800.08
-9800.02
-9800.08
)
;

boundaryField
{
    top_fluid_surface
    {
        type            totalPressure;
        rho             rho;
        psi             none;
        gamma           1;
        p0              uniform 0;
        value           nonuniform List<scalar> 
64
(
-1.61976e-08
0
0
-5.67231e-11
0
-1.17075e-09
-2.36427e-09
0
-1.03204e-08
-1.09016e-08
0
-6.90545e-09
0
-4.66372e-09
-1.23181e-09
-1.25227e-09
0
0
0
0
-7.33383e-09
-7.03198e-10
0
0
-9.47737e-09
0
0
0
0
0
-4.51238e-09
0
-5.93964e-11
0
-6.61265e-11
0
-9.03356e-10
-1.2256e-09
0
-9.06948e-10
0
-1.07487e-10
0
-1.20199e-08
-1.39101e-08
0
-8.29823e-09
-5.22606e-10
-1.70279e-09
-4.11454e-09
-5.45427e-09
-2.77426e-09
-4.1464e-08
0
0
-1.28496e-09
0
0
0
-3.38264e-08
-4.60608e-09
0
0
0
)
;
    }
    bottom_fluid_surface
    {
        type            fixedFluxPressure;
        gradient        uniform 0;
        value           nonuniform List<scalar> 
64
(
-9800.21
-9800.21
-9800.21
-9800.2
-9800.2
-9800.2
-9800.21
-9800.21
-9800.21
-9800.21
-9800.21
-9800.21
-9800.21
-9800.21
-9800.2
-9800.2
-9800.2
-9800.2
-9800.2
-9800.21
-9800.2
-9800.2
-9800.21
-9800.2
-9800.2
-9800.2
-9800.2
-9800.2
-9800.2
-9800.2
-9800.21
-9800.21
-9800.21
-9800.21
-9800.21
-9800.2
-9800.2
-9800.2
-9800.2
-9800.2
-9800.2
-9800.2
-9800.21
-9800.21
-9800.21
-9800.21
-9800.21
-9800.2
-9800.2
-9800.2
-9800.2
-9800.2
-9800.21
-9800.2
-9800.21
-9800.2
-9800.2
-9800.2
-9800.21
-9800.21
-9800.21
-9800.21
-9800.2
-9800.2
)
;
    }
    lateral_surface_1
    {
        type            fixedFluxPressure;
        gradient        uniform 0;
        value           nonuniform List<scalar> 
40
(
0.000396935
0.0118117
0.000311055
0.00112826
-0.0043492
-0.00313822
0.00153075
-0.0111616
-9799.98
-9800.11
-9799.96
-9800.1
-9800
-9799.99
-9799.93
-9799.98
-9800.2
-9800.2
-9800.21
-9800.19
-9800.18
-9800.19
-9800.21
-9800.2
-9800.2
-9800.2
-9800.2
-9800.2
-9800.2
-9800.2
-9800.21
-9800.19
-9800.2
-9800.2
-9800.2
-9800.2
-9800.2
-9800.2
-9800.21
-9800.2
)
;
    }
    lateral_surface_2
    {
        type            fixedFluxPressure;
        gradient        uniform 0;
        value           nonuniform List<scalar> 
40
(
0.00419143
-0.00617243
-0.000131739
-0.000771476
-0.00377788
-0.0056134
-0.00357267
-0.0141056
-9800.08
-9799.96
-9799.96
-9799.96
-9799.96
-9799.95
-9799.98
-9799.91
-9800.19
-9800.19
-9800.21
-9800.21
-9800.21
-9800.2
-9800.2
-9800.2
-9800.2
-9800.2
-9800.2
-9800.21
-9800.2
-9800.21
-9800.2
-9800.2
-9800.2
-9800.2
-9800.2
-9800.21
-9800.2
-9800.21
-9800.2
-9800.2
)
;
    }
    lateral_surface_3
    {
        type            fixedFluxPressure;
        gradient        uniform 0;
        value           nonuniform List<scalar> 
40
(
0.00153075
-0.000673072
0.00232807
0.000146453
0.00144387
-0.00639596
-0.00216125
0.00419143
-9799.93
-9799.97
-9800.07
-9799.89
-9799.93
-9799.96
-9800.06
-9800.08
-9800.21
-9800.21
-9800.21
-9800.22
-9800.22
-9800.2
-9800.19
-9800.19
-9800.21
-9800.21
-9800.21
-9800.22
-9800.21
-9800.2
-9800.2
-9800.2
-9800.21
-9800.21
-9800.21
-9800.21
-9800.21
-9800.2
-9800.2
-9800.2
)
;
    }
    lateral_surface_4
    {
        type            fixedFluxPressure;
        gradient        uniform 0;
        value           nonuniform List<scalar> 
40
(
-0.0141056
0.000844905
0.00492294
-0.000973525
0.00213298
0.00517169
0.00115536
-0.0111616
-9799.91
-9800
-9800.06
-9799.94
-9800.04
-9800.04
-9799.99
-9799.98
-9800.2
-9800.2
-9800.22
-9800.22
-9800.21
-9800.21
-9800.2
-9800.2
-9800.2
-9800.2
-9800.21
-9800.21
-9800.21
-9800.21
-9800.2
-9800.19
-9800.2
-9800.2
-9800.21
-9800.21
-9800.21
-9800.21
-9800.2
-9800.2
)
;
    }
}


// ************************************************************************* //
