/*--------------------------------*- C++ -*----------------------------------*\
| =========                 |                                                 |
| \\      /  F ield         | OpenFOAM: The Open Source CFD Toolbox           |
|  \\    /   O peration     | Version:  v1612+                                |
|   \\  /    A nd           | Web:      www.OpenFOAM.com                      |
|    \\/     M anipulation  |                                                 |
\*---------------------------------------------------------------------------*/
FoamFile
{
    version     2.0;
    format      ascii;
    class       surfaceScalarField;
    location    "4.5";
    object      phi;
}
// * * * * * * * * * * * * * * * * * * * * * * * * * * * * * * * * * * * * * //

dimensions      [0 3 -1 0 0 0 0];

internalField   nonuniform List<scalar> 
2916
(
-1.17196e-05
0.182329
-0.182318
-7.7151e-06
0.182332
-0.182336
-4.26175e-06
0.182331
-0.182335
3.12427e-06
0.182332
-0.18234
1.59195e-05
0.182332
-0.182345
0.182329
-0.182313
-7.4759e-06
0.334012
-0.151675
-7.43738e-06
0.334022
-0.15169
-3.00047e-06
0.334019
-0.151692
4.90282e-06
0.334021
-0.151696
1.35557e-05
0.334022
-0.151698
0.334012
-0.15167
-1.91111e-06
0.454821
-0.120807
-5.53674e-06
0.454839
-0.120814
-1.39091e-06
0.454834
-0.120819
3.66195e-06
0.454836
-0.12082
5.74681e-06
0.454838
-0.120818
0.454824
-0.120806
1.93859e-06
0.525848
-0.071029
-2.93341e-06
0.525875
-0.0710312
-2.59063e-07
0.525868
-0.0710364
1.08915e-06
0.525868
-0.0710338
-1.51816e-06
0.525872
-0.0710316
0.525852
-0.0710297
1.86745e-06
0.426076
0.0997697
-1.40878e-06
0.426111
0.0997676
-1.3112e-06
0.426101
0.0997661
-3.63468e-06
0.426101
0.0997697
-7.03687e-06
0.426107
0.0997688
0.426078
0.0997664
-1.53976e-06
0.0458533
0.380225
-2.53842e-06
0.0458961
0.380216
-4.98181e-06
0.0458867
0.380217
-7.93685e-06
0.0458867
0.380217
-9.70096e-06
0.0458951
0.380213
0.0458573
0.380211
8.12586e-06
-0.540784
0.586629
1.51054e-06
-0.540759
0.586661
-4.9462e-06
-0.540752
0.586645
-8.73943e-06
-0.540751
0.586641
-2.00432e-05
-0.540745
0.586651
-0.540789
0.586626
-3.64835e-06
-1.15122
0.610442
9.74858e-06
-1.15123
0.610455
2.48065e-06
-1.15119
0.610449
-6.75003e-06
-1.15119
0.61045
-1.43057e-05
-1.15119
0.610452
-1.15124
0.610441
5.69461e-06
-1.53973
0.388505
2.06387e-05
-1.53977
0.388532
1.52926e-05
-1.53972
0.388533
2.70892e-06
-1.53972
0.38854
-1.29036e-05
-1.53973
0.388554
-1.53976
0.388501
6.45116e-05
-1.4285
-0.111298
2.98791e-05
-1.42855
-0.111185
1.23882e-05
-1.4285
-0.111206
-4.3634e-06
-1.4285
-0.111204
-4.04468e-05
-1.42851
-0.111178
-1.42851
-0.111284
0.000129485
-0.766918
-0.661711
1.82457e-05
-0.766918
-0.661525
-1.27986e-05
-0.766901
-0.661566
-2.32269e-05
-0.766907
-0.661581
-8.0517e-05
-0.766909
-0.661547
-0.766917
-0.661677
4.33647e-06
-0.766922
-2.09436e-05
-0.766893
-1.48595e-05
-0.766907
-1.38087e-05
-0.766908
-3.44025e-05
-0.766889
-0.766952
-7.98958e-05
1.42364
-1.60587
-2.70247e-05
1.42366
-1.60605
1.0976e-05
1.42366
-1.60603
5.04524e-05
1.42366
-1.60604
0.000104203
1.42367
-1.60606
1.42366
-1.60586
-7.75966e-05
2.86415
-1.59211
-2.93033e-05
2.86419
-1.59227
1.36381e-05
2.86419
-1.59227
6.86977e-05
2.86418
-1.59227
0.000129254
2.86419
-1.59228
2.86421
-1.59209
-9.03089e-05
4.40219
-1.65876
-3.66319e-05
4.40222
-1.6589
1.68775e-05
4.40222
-1.6589
7.61327e-05
4.40221
-1.65891
0.00013744
4.40222
-1.65891
4.40226
-1.65872
-8.95719e-05
4.85724
-0.525994
-4.9012e-05
4.85727
-0.526114
-2.38332e-05
4.85727
-0.526115
2.69114e-05
4.85724
-0.526111
8.44542e-05
4.85725
-0.526113
4.85729
-0.525977
2.56203e-06
2.82152
2.13549
-6.95451e-06
2.82153
2.13551
-3.63523e-05
2.82155
2.13552
-3.61937e-05
2.82148
2.13553
-3.70219e-05
2.82147
2.13555
2.82143
2.13559
-7.27026e-05
0.693633
2.50819
-9.35878e-06
0.693953
2.50773
-1.41405e-05
0.69383
2.50794
-6.08197e-05
0.693815
2.50793
-5.30162e-05
0.693917
2.50775
0.693684
2.50791
0.000169363
-0.349997
1.63009
-9.17352e-06
-0.349893
1.63069
-1.51554e-05
-0.349914
1.6304
-1.58774e-05
-0.349898
1.63035
-0.000154334
-0.349851
1.63056
-0.349977
1.63013
2.95564e-05
-0.811947
1.07236
-2.33604e-06
-0.811946
1.07254
-1.34173e-05
-0.811921
1.07247
-2.02233e-05
-0.811912
1.07247
-4.07545e-05
-0.8119
1.07252
-0.811961
1.07238
6.22908e-05
-0.910334
0.486829
1.05767e-05
-0.9104
0.487038
1.50587e-05
-0.910337
0.486944
1.22092e-05
-0.910335
0.486966
-1.94815e-05
-0.910347
0.487032
-0.910352
0.486872
0.000282686
-0.815311
-0.206603
2.37195e-05
-0.815336
-0.205989
-7.35756e-06
-0.815278
-0.206233
1.47219e-05
-0.815314
-0.206247
-9.65251e-05
-0.815343
-0.20607
-0.815277
-0.206456
0.000429214
-0.457185
-1.02027
1.79507e-05
-0.457091
-1.01936
-5.43952e-05
-0.457069
-1.0197
-7.56699e-06
-0.457138
-1.0198
-0.00015259
-0.457189
-1.01956
-0.457073
-1.02003
-0.000149737
-1.22396
-4.63782e-05
-1.22409
3.81569e-06
-1.22403
4.864e-06
-1.22405
4.6956e-05
-1.22412
-1.22398
-2.10611e-05
-0.431423
-1.17443
-5.91035e-07
-0.431342
-1.17473
1.40312e-05
-0.431366
-1.17468
1.71336e-05
-0.43136
-1.17468
2.18819e-05
-0.431335
-1.17473
-0.431421
-1.17442
-3.45312e-05
-0.660904
-1.3626
-3.7157e-06
-0.660785
-1.36286
9.57356e-07
-0.660815
-1.36282
1.12221e-05
-0.660823
-1.36281
4.93966e-05
-0.660798
-1.36286
-0.660889
-1.36258
-0.000125865
-0.515207
-1.80433
-4.73342e-05
-0.515223
-1.80454
-2.49077e-05
-0.515222
-1.80452
-7.85831e-07
-0.515235
-1.80452
8.13336e-05
-0.515242
-1.80455
-0.515208
-1.80432
-0.000133307
1.28597
-2.32704
-8.74004e-05
1.28594
-2.32732
-6.4939e-05
1.28595
-2.32731
-3.11128e-05
1.28593
-2.32731
3.49413e-05
1.28593
-2.32735
1.28597
-2.32712
0.000358689
2.25272
1.16838
-2.40124e-05
2.25371
1.16812
-5.50497e-05
2.25326
1.16824
-4.4051e-05
2.25319
1.16826
-0.000259727
2.25351
1.16819
2.25302
1.16828
0.000823706
0.0406512
4.71943
-7.2688e-05
0.0434613
4.71888
-0.000104322
0.0421678
4.71907
-2.78361e-05
0.0420135
4.71903
-0.000426531
0.0428786
4.71878
0.0416999
4.7188
0.000533316
-2.12714
3.79735
-0.000145962
-2.12569
3.80052
-0.000156876
-2.12637
3.79895
-0.000103467
-2.12644
3.79875
-0.000455295
-2.12601
3.7998
-2.12661
3.79799
0.000211156
-1.32781
0.272819
-2.75652e-07
-1.32711
0.27417
-2.60328e-05
-1.32744
0.27356
-2.98969e-05
-1.32748
0.273509
-0.000186436
-1.32728
0.273948
-1.32761
0.273188
0.000550871
-0.838072
-0.00345894
1.93424e-05
-0.837228
-0.00230921
-4.22242e-05
-0.837588
-0.00284679
2.32214e-05
-0.837679
-0.0028974
-0.000265109
-0.837469
-0.00249581
-0.837806
-0.00319252
0.000668568
-0.449555
-0.595789
1.39115e-06
-0.448198
-0.594352
-6.47466e-05
-0.448758
-0.594997
4.38174e-05
-0.448928
-0.595106
-0.000290415
-0.448602
-0.594602
-0.449108
-0.595444
-0.000144619
-0.188141
-1.28154
-7.04409e-05
-0.187259
-1.28037
-7.78646e-05
-0.187609
-1.28084
4.63368e-06
-0.187704
-1.28111
0.000235795
-0.187533
-1.28086
-0.187828
-1.28108
-0.0006626
-1.41143
-0.0001047
-1.4119
-0.00010443
-1.41164
-1.54937e-06
-1.41185
0.000645568
-1.4123
-1.41116
2.01889e-06
0.0636354
-1.23807
8.67356e-06
0.0636396
-1.23838
-6.50891e-07
0.0636469
-1.23832
-1.87097e-06
0.0636418
-1.23832
5.22097e-06
0.0636382
-1.23838
0.0636398
-1.23806
-4.42736e-06
0.0650101
-1.36397
4.66464e-06
0.0650039
-1.36423
5.61679e-07
0.0650173
-1.36419
-4.39172e-06
0.0650165
-1.36419
3.37576e-07
0.0650126
-1.36424
0.0650189
-1.36395
-8.91587e-05
-0.277512
-1.46172
-1.35531e-05
-0.277704
-1.46191
-1.33879e-06
-0.277629
-1.46188
-2.48245e-06
-0.277618
-1.46188
3.35548e-05
-0.277653
-1.46192
-0.277546
-1.46172
-7.52317e-05
-0.744
-1.86047
-3.77622e-05
-0.744344
-1.86071
-4.67555e-05
-0.744221
-1.8607
-6.15457e-05
-0.744194
-1.86072
-3.38268e-05
-0.744265
-1.86077
-0.744082
-1.86061
0.000469077
-0.0853354
0.509248
-0.000153202
-0.0842401
0.50864
-0.000135299
-0.0847976
0.508803
-2.45325e-05
-0.0848279
0.508786
-0.000366747
-0.0843234
0.508588
-0.0849299
0.508765
0.000968607
-1.2912
5.92433
-8.10899e-05
-1.28861
5.92429
-0.000125877
-1.2899
5.92421
7.87941e-05
-1.29012
5.92411
-0.000462455
-1.28906
5.92406
-1.29036
5.92376
-0.000548432
-3.09482
5.60152
-0.000155897
-3.09351
5.60503
-0.000180884
-3.09428
5.60335
-9.96363e-05
-3.09459
5.60314
0.000186422
-3.09383
5.60428
-3.09468
5.6025
-0.00134399
-3.1642
0.34354
-8.45091e-05
-3.16334
0.342741
0.000440638
-3.16374
0.342498
0.000114779
-3.16406
0.343303
0.000100146
-3.16375
0.34389
-3.16409
0.342702
-0.00186789
-1.88461
-1.28118
-2.89137e-05
-1.88212
-1.28537
0.000543882
-1.88326
-1.28391
0.000102452
-1.88357
-1.28294
0.000653255
-1.88272
-1.28408
-1.88412
-1.28251
-0.00246569
-1.14985
-1.32808
-5.6288e-05
-1.1463
-1.33257
0.000419835
-1.14798
-1.33075
5.26291e-05
-1.14812
-1.33019
0.0012092
-1.14688
-1.33161
-1.14926
-1.32909
-0.00243178
-0.726699
-1.70226
-0.000124734
-0.724815
-1.70417
0.000122088
-0.725754
-1.70332
4.81769e-05
-0.725583
-1.70357
0.00166409
-0.724817
-1.70453
-0.72659
-1.70209
-0.000974808
-2.13716
-0.000131316
-2.13756
-0.000200902
-2.13732
-3.39906e-07
-2.13764
0.00102956
-2.13815
-2.13672
-0.000105781
-0.420426
0.420532
-0.000184059
-0.420473
0.420553
-0.000178417
-0.420566
0.420562
-0.000113996
-0.420646
0.420584
3.22119e-05
-0.420736
0.420592
-0.420543
0.420577
-0.000228425
-0.900897
0.480701
-0.000437927
-0.901005
0.480744
-0.000331837
-0.901431
0.480761
-0.000271282
-0.901507
0.480803
0.000269489
-0.902069
0.480794
-0.901089
0.480817
-0.000559251
-1.57332
0.67298
-0.00196854
-1.57225
0.672658
-0.00213383
-1.57459
0.673324
-0.00160223
-1.57513
0.673089
0.0042718
-1.58185
0.673912
-1.57056
0.673741
-0.000461551
-2.83378
1.26092
-0.00533486
-2.82656
1.25919
-0.010902
-2.83008
1.26106
-0.00512778
-2.84252
1.26162
0.027734
-2.88212
1.26741
-2.80268
1.25986
-0.000268832
-4.93529
2.10178
-0.00652476
-4.92562
2.10532
-0.0217621
-4.91364
2.0988
-0.00998558
-4.96735
2.11305
0.0515142
-5.06357
2.11995
-4.83786
2.08669
0.00174324
-7.16756
2.23053
-0.00646978
-7.16891
2.2515
-0.00865886
-7.13757
2.22612
-0.0166536
-7.2276
2.26825
0.0129209
-7.34574
2.25259
-7.02467
2.19973
0.0125159
-7.64655
0.466476
0.00435584
-7.66165
0.5009
0.0055052
-7.61345
0.47473
-0.0113528
-7.72021
0.509462
-0.010136
-7.80963
0.462679
-7.48415
0.449343
0.0208164
-5.92277
-1.74461
0.0183885
-5.93609
-1.72314
0.0330922
-5.92877
-1.69938
0.0112821
-5.92512
-1.77328
-0.0516612
-5.95134
-1.79535
-5.87969
-1.65612
0.0127165
-2.10674
-3.82874
0.0124676
-2.10678
-3.82906
0.0467156
-2.12914
-3.83388
0.0129755
-2.05954
-3.83184
-0.0741437
-2.0205
-3.84372
-2.14147
-3.81236
0.00800395
2.1094
-4.22414
0.0325107
2.10525
-4.23653
0.105271
2.04887
-4.25077
0.0210805
2.21964
-4.19499
-0.159286
2.35089
-4.19103
1.94026
-4.24102
0.0118589
3.46798
-1.37044
0.0406756
3.45574
-1.37931
0.0990915
3.39997
-1.40951
0.0250231
3.54987
-1.25616
-0.12527
3.65638
-1.15519
3.28522
-1.47023
0.0319084
3.43607
0.0477398
3.4399
0.0394365
3.40827
0.0380175
3.55129
0.057371
3.63702
3.34258
-8.86269e-05
-0.439064
0.859685
-0.000149364
-0.439107
0.859723
-0.000128212
-0.4392
0.859744
-7.90482e-05
-0.43923
0.859767
4.59108e-05
-0.439312
0.859781
-0.439128
0.859752
-0.000196888
-0.940488
0.982324
-0.000340898
-0.940611
0.982395
-0.00018685
-0.941042
0.982452
-0.000145537
-0.940921
0.982455
0.000283315
-0.941393
0.982449
-0.940479
0.982453
-0.00064071
-1.5587
1.29183
-0.00147606
-1.55883
1.29171
-0.00143607
-1.55993
1.29218
-0.000916284
-1.56064
1.29229
0.00342417
-1.56493
1.29311
-1.55535
1.29204
-0.00206782
-2.34401
2.0483
-0.00428167
-2.34476
2.04734
-0.0101816
-2.34101
2.04804
-0.000853026
-2.35999
2.05164
0.0255489
-2.38158
2.05765
-2.3147
2.04476
-0.00712054
-3.45954
3.22444
-0.00461715
-3.46998
3.22803
-0.0285506
-3.44081
3.22254
0.00942717
-3.52084
3.23592
0.0683941
-3.56191
3.24131
-3.36662
3.20701
-0.0134813
-4.49216
3.27664
-0.00315253
-4.52901
3.30021
-0.033937
-4.46994
3.28603
0.0247862
-4.60168
3.29037
0.0532586
-4.59964
3.26185
-4.37089
3.25725
-0.00167667
-5.18014
1.15613
-0.00136973
-5.21022
1.1818
-0.0225789
-5.16965
1.19565
0.00712268
-5.24969
1.12776
-0.00701289
-5.20574
1.08292
-5.1269
1.19835
0.00981985
-4.72869
-2.20588
-0.00601698
-4.7431
-2.17442
-0.00441331
-4.74706
-2.12358
-0.0162295
-4.72947
-2.28168
-0.0189039
-4.68456
-2.31385
-4.75595
-2.04598
0.00608494
-3.88555
-4.67796
-0.00209683
-3.88162
-4.68236
-0.0411638
-3.87105
-4.67083
-0.00423154
-3.89769
-4.70055
0.0661406
-3.89526
-4.7034
-3.84662
-4.65556
-0.00215284
-2.84247
-5.26507
-0.00474704
-2.84005
-5.2755
-0.0242883
-2.84897
-5.25331
0.00164916
-2.83856
-5.28005
0.0300953
-2.83246
-5.28227
-2.83592
-5.22162
-0.0107562
-1.1717
-3.03046
-0.0248789
-1.16961
-3.03563
-0.0370072
-1.22556
-3.02079
-0.0115196
-1.08868
-3.03153
0.00884322
-1.02662
-2.98139
-1.28245
-3.01486
0.022629
2.24175
0.0200255
2.2729
0.254848
1.94789
0.0202514
2.6972
-0.392485
3.02314
1.66765
-3.88904e-05
-0.304368
1.16409
-5.84544e-05
-0.304392
1.16414
-3.86391e-05
-0.304426
1.16415
-1.30113e-05
-0.304424
1.16417
5.52498e-05
-0.304465
1.16418
-0.304325
1.16413
-8.11849e-05
-0.611825
1.28987
-0.00011949
-0.611887
1.28993
-4.98633e-05
-0.612006
1.28996
2.33056e-05
-0.612011
1.28997
0.000269168
-0.61225
1.28999
-0.611508
1.28991
-0.000231584
-0.884928
1.56517
-0.000365418
-0.885258
1.56522
-0.000331961
-0.885245
1.56539
2.20175e-05
-0.885484
1.56541
0.00160783
-0.886427
1.56571
-0.88297
1.56511
-0.000934486
-0.917572
2.08188
-0.001064
-0.919506
2.08171
-0.00321684
-0.916975
2.08192
0.00052525
-0.920827
2.08324
0.0098845
-0.923649
2.08552
-0.908338
2.08002
-0.00387776
-0.511093
2.82184
-0.000320986
-0.518348
2.82332
-0.00714447
-0.508429
2.82081
0.00867467
-0.526829
2.82611
0.0268588
-0.529791
2.82927
-0.48779
2.81332
-0.00725189
-0.212938
2.98573
0.00728736
-0.229065
2.99638
0.0134775
-0.220354
2.99177
0.0279273
-0.234432
2.98352
0.00812661
-0.216673
2.96853
-0.203943
2.98153
-0.00125265
-0.3403
1.28474
0.00552183
-0.36226
1.30822
0.0264473
-0.36282
1.31719
0.00822283
-0.351324
1.26288
-0.030393
-0.317164
1.22202
-0.358767
1.32277
-0.0028619
-1.43407
-1.10924
-0.00148299
-1.44727
-1.0908
0.0288892
-1.44583
-1.07094
-0.0237255
-1.43822
-1.14216
-0.0581517
-1.42228
-1.17431
-1.43598
-1.02692
0.000181281
-2.77418
-3.33804
-0.0031192
-2.78372
-3.34261
-0.0177002
-2.7794
-3.32268
-0.0131175
-2.78297
-3.36038
0.0158718
-2.77335
-3.38131
-2.77242
-3.30325
-0.000542743
-3.27859
-4.76012
-0.00498402
-3.29022
-4.76456
-0.0171601
-3.26962
-4.75092
-0.00801028
-3.30333
-4.76885
0.0193594
-3.30898
-4.77402
-3.23722
-4.73746
-0.00596998
-2.5062
-3.79687
-0.0101874
-2.52088
-3.80076
-0.0810004
-2.42777
-3.79182
-0.011313
-2.61103
-3.79352
0.11608
-2.62408
-3.79368
-2.34983
-3.78616
-0.0623916
-0.202058
-0.1261
-0.184259
-0.262736
-0.343242
-0.131651
-0.0449181
0.201654
0.0657455
-0.480535
-3.15519e-06
-0.179817
1.34391
3.30025e-06
-0.17983
1.34396
1.74668e-05
-0.179828
1.34397
2.62163e-05
-0.179811
1.34397
3.97985e-05
-0.179806
1.34397
-0.179747
1.34392
-1.21038e-06
-0.322085
1.43214
2.08973e-05
-0.322114
1.43219
6.01089e-05
-0.3221
1.4322
8.10896e-05
-0.322053
1.43219
0.000142664
-0.32207
1.43219
-0.32181
1.43211
1.21548e-05
-0.362018
1.60509
0.000104948
-0.362153
1.60517
0.000187988
-0.361971
1.60517
0.000257259
-0.361853
1.60514
0.000552152
-0.361823
1.60516
-0.361089
1.60494
2.82921e-05
-0.131712
1.85154
0.000457322
-0.132528
1.85166
0.000336171
-0.13155
1.85162
0.00080552
-0.13071
1.85163
0.0021129
-0.129493
1.85188
-0.129734
1.85077
-0.000298969
0.587291
2.10313
0.00197918
0.584902
2.10361
0.00122585
0.587064
2.10295
0.00371497
0.58923
2.10368
0.00533283
0.593765
2.10439
0.58854
2.10038
-0.00172741
1.51863
2.05612
0.00725722
1.51325
2.05904
0.0151337
1.51417
2.05678
0.0133241
1.51972
2.05484
-0.00660903
1.53096
2.05126
1.51096
2.0525
-0.00266471
1.78018
1.02585
0.00920175
1.77617
1.03343
0.0300544
1.77747
1.03303
0.0150038
1.77684
1.0208
-0.0309909
1.78864
1.01034
1.76966
1.03308
-0.00491059
0.920229
-0.244382
0.00468799
0.913449
-0.237678
0.0277135
0.91953
-0.23603
-0.00325818
0.915328
-0.249682
-0.0570938
0.924249
-0.25609
0.913373
-0.227718
-0.0041782
-0.788211
-1.62542
-0.00195876
-0.804698
-1.62668
-0.00239324
-0.782952
-1.61977
-0.00832977
-0.808216
-1.6309
-0.00534438
-0.827225
-1.63282
-0.773951
-1.62127
-0.00443032
-2.46393
-3.07997
-0.00785899
-2.47805
-3.08779
0.00170632
-2.4563
-3.08714
-0.00928661
-2.49268
-3.07338
-0.0214378
-2.52669
-3.06241
-2.43807
-3.09478
-0.000458882
-2.24176
-4.01859
-0.00661794
-2.25064
-4.02201
-0.015053
-2.22002
-4.01967
0.00249925
-2.28159
-4.02216
0.0301206
-2.31967
-4.02832
-2.17482
-4.01929
-0.000433234
-2.44338
0.00925537
-2.44459
-0.100562
-2.45344
0.00342633
-2.4305
0.185122
-2.43562
-2.47023
5.28312e-05
-1.14399
-0.0941366
1.77819e-05
-1.14417
-0.0941755
1.19302e-06
-1.14413
-0.0941685
-1.78218e-05
-1.14413
-0.0941694
-5.71366e-05
-1.14416
-0.0941759
-1.14398
-0.0941386
3.72011e-05
-1.01905
-0.124972
9.45755e-06
-1.01917
-0.124968
-6.20164e-06
-1.01915
-0.124965
-2.16173e-05
-1.01915
-0.124964
-4.57268e-05
-1.01918
-0.124963
-1.01906
-0.124963
2.6246e-05
-0.0261486
1.12683e-05
-0.0261482
2.78107e-06
-0.0261495
-5.52966e-06
-0.0261507
-2.21363e-05
-0.0261513
-0.0261537
1.78272e-05
-1.18384
-0.274285
4.79853e-08
-1.184
-0.274394
-1.37773e-05
-1.18397
-0.274371
-2.80572e-05
-1.18397
-0.274374
-4.68722e-05
-1.184
-0.274395
-1.18383
-0.274301
2.06015e-05
-0.956675
-0.352159
-8.24244e-07
-0.956791
-0.352152
-1.34712e-05
-0.956779
-0.352149
-2.37433e-05
-0.95678
-0.352149
-4.0292e-05
-0.956803
-0.352148
-0.95669
-0.352153
2.0622e-05
-0.0662268
8.07751e-06
-0.0662232
2.44062e-07
-0.0662239
-6.66958e-06
-0.0662246
-2.20206e-05
-0.0662239
-0.0662287
-5.96741e-05
-1.1074
-0.628542
-1.65114e-05
-1.10753
-0.628814
-2.22601e-05
-1.10752
-0.628729
-3.4014e-05
-1.10752
-0.628732
-1.82911e-05
-1.10754
-0.628786
-1.10739
-0.628646
-5.13922e-06
-0.774859
-0.684695
-6.37977e-06
-0.774954
-0.684729
-1.89717e-05
-0.774951
-0.684706
-2.50919e-05
-0.774951
-0.684708
-2.98658e-05
-0.77497
-0.684714
-0.774867
-0.684712
1.3358e-05
-0.159113
4.30972e-06
-0.159101
-4.58914e-06
-0.1591
-1.14962e-05
-0.1591
-2.62096e-05
-0.159098
-0.159115
-6.70346e-05
-1.23791
-1.25103
-5.94393e-06
-1.23808
-1.2515
-1.8231e-05
-1.23808
-1.25134
-3.31114e-05
-1.23808
-1.25136
-1.30865e-05
-1.23811
-1.25146
-1.23797
-1.2513
-8.24843e-05
-0.566006
-1.35652
-8.18164e-06
-0.566071
-1.35681
-1.60087e-05
-0.566077
-1.3567
-2.34425e-05
-0.566069
-1.35671
-2.00632e-06
-0.566079
-1.35676
-0.565985
-1.3567
-1.46301e-06
-0.477394
-3.27398e-06
-0.477403
-1.44569e-05
-0.477388
-1.74005e-05
-0.477391
-2.59949e-05
-0.477388
-0.477416
0.000285071
0.303847
-1.04591
-6.97139e-05
0.303554
-1.04606
-8.71254e-05
0.303574
-1.0461
-2.30867e-05
0.303556
-1.04619
-0.000225217
0.303479
-1.04615
0.303616
-1.04638
-2.41276e-07
0.451527
-1.5042
1.71795e-05
0.451439
-1.50472
1.42443e-05
0.451429
-1.50455
2.68664e-05
0.45144
-1.50461
1.21471e-05
0.451425
-1.5047
0.451553
-1.50462
-1.59205e-05
-0.758316
1.8616e-05
-0.758487
3.00302e-06
-0.758413
-4.33454e-06
-0.758429
-1.28837e-05
-0.75845
-0.758438
0.000644286
5.05922
-0.181452
-0.000218752
5.05911
-0.180016
-0.000173699
5.05898
-0.180905
-8.53128e-06
5.05888
-0.181126
-0.000511839
5.0589
-0.180483
5.05881
-0.181941
0.0003922
3.26373
0.290902
-7.53296e-05
3.26365
0.291206
-0.000134904
3.26356
0.290922
-0.000132805
3.26349
0.290775
-0.000336292
3.26348
0.290928
3.26362
0.290225
0.000114754
0.264979
7.47606e-05
0.26492
4.76987e-05
0.264944
4.55307e-05
0.264849
3.42968e-06
0.26486
0.264763
-0.00101877
6.59926
-1.17817
-0.000294841
6.60186
-1.17757
-0.000270944
6.60053
-1.17811
-0.000245171
6.60024
-1.17825
0.000407659
6.60102
-1.17787
6.60013
-1.17916
-0.000656506
5.57845
1.31237
-0.000246421
5.58016
1.3125
-0.000194669
5.57924
1.31217
-0.0003364
5.57907
1.31209
-2.22563e-05
5.57949
1.31215
5.57927
1.31106
-4.99487e-05
1.66704
-9.57951e-05
1.66741
-8.92518e-05
1.66718
-0.000189121
1.66713
-0.000184242
1.66717
1.66673
-0.000367884
2.40349
-3.23776
-0.000190458
2.40213
-3.23713
-0.000224062
2.40219
-3.23777
-0.000590116
2.40294
-3.23752
-0.000926083
2.40314
-3.23679
2.40205
-3.23943
0.000310837
3.24415
0.471399
-2.79606e-05
3.245
0.469959
-0.000368954
3.2443
0.470401
-0.000268728
3.24457
0.470358
-0.000103092
3.24491
0.47021
3.24407
0.468926
0.000192717
1.89194
0.000133171
1.89152
-1.18453e-05
1.8916
2.58592e-05
1.89165
0.000294756
1.89139
1.89109
0.000610116
-0.703292
-3.81626
-0.000188825
-0.707164
-3.81454
-0.000288672
-0.705867
-3.8157
-0.000386247
-0.705032
-3.81533
-0.000989896
-0.706053
-3.81421
-0.705413
-3.81751
0.00360508
0.184231
-0.419726
0.000102852
0.185685
-0.419389
-0.000765574
0.184964
-0.419561
-0.000421865
0.184919
-0.419936
-0.0019416
0.185264
-0.419585
0.183681
-0.42211
0.000744035
1.7516
0.00016404
1.7508
1.0131e-05
1.75098
-2.65992e-05
1.75109
-0.000129971
1.75077
1.75013
-0.000524007
-2.21872
-2.92509
-8.242e-05
-2.22299
-2.92456
0.00015337
-2.2216
-2.92509
0.000111651
-2.22086
-2.92462
0.0005297
-2.22186
-2.92438
-2.22051
-2.92557
0.00200459
-2.0815
-0.558955
-0.000157248
-2.0821
-0.558124
-0.000193487
-2.08237
-0.558757
8.94913e-05
-2.08217
-0.558908
-0.000287876
-2.0822
-0.558869
-2.08324
-0.559667
0.000713799
1.23213
-2.22039e-05
1.2307
-0.000386036
1.23107
5.86725e-05
1.23093
0.00128546
1.22973
1.23156
2.50716e-05
-3.06722
-1.56015
0.000360236
-3.06879
-1.56027
0.000621507
-3.0682
-1.56047
0.000167202
-3.06789
-1.55985
-1.53664e-05
-3.06907
-1.55966
-3.06701
-1.56065
0.000387894
-2.56052
-1.06605
0.000359899
-2.56108
-1.06581
0.00126531
-2.56093
-1.06694
0.000604881
-2.56104
-1.0651
-0.00129927
-2.56245
-1.06358
-2.55936
-1.06862
0.000154576
0.607812
-0.000110159
0.606235
-0.000500234
0.606934
0.000235242
0.606175
0.00173954
0.60397
0.609069
-0.000198943
-2.14989
-1.54722
-0.00014881
-2.15076
-1.54712
-0.000201368
-2.15057
-1.54716
-0.000119261
-2.15029
-1.54728
0.000787893
-2.15129
-1.54742
-2.14971
-1.54688
-0.00013226
-2.44436
-0.771443
0.000216246
-2.44622
-0.770702
0.00150634
-2.44551
-0.773291
0.000416865
-2.44543
-0.76887
-0.00276043
-2.4476
-0.764094
-2.44339
-0.777706
0.000299392
0.0198501
-2.49224e-06
0.0193114
-0.00034854
0.019731
-3.42802e-05
0.0189546
0.000220597
0.017252
0.0210387
-0.000855035
-0.651988
-1.38417
2.03701
-0.000756916
-0.656572
-1.38326
2.03973
-0.00175584
-0.655439
-1.3829
2.03934
-0.000549506
-0.65328
-1.38467
2.03674
0.00312946
-0.652827
-1.38527
2.03442
-0.657571
-1.38132
2.04202
-0.00255912
-0.656452
-1.39853
1.40555
-0.000560829
-0.665421
-1.3924
1.39925
0.000530843
-0.663644
-1.39569
1.4028
0.00220167
-0.659106
-1.39917
1.40333
0.0156809
-0.665709
-1.4026
1.402
-0.664575
-1.39816
1.42084
-0.00370512
-0.1878
0.458988
0.00221647
-0.18437
0.446708
0.0116497
-0.185179
0.444485
0.00163285
-0.191051
0.468968
-0.0168987
-0.19513
0.487484
-0.184805
0.434905
-0.000179575
-0.333845
-1.05014
-0.000291159
-0.332781
-1.05036
-0.000649923
-0.332178
-1.05036
2.85521e-05
-0.335368
-1.04998
0.00155488
-0.337233
-1.04957
-0.329017
-1.05075
-0.00265906
-0.406093
-1.32362
-0.00116148
-0.403901
-1.32278
-0.00146449
-0.402156
-1.32541
0.00101107
-0.411441
-1.32558
0.00769844
-0.418076
-1.32845
-0.394308
-1.32517
-0.000411506
0.0553456
0.00191258
0.0557639
0.00390273
0.0549744
0.00135013
0.0533264
-0.00424014
0.0514776
0.053314
-0.000162511
-0.287418
-0.762561
-0.000259426
-0.287597
-0.76267
-0.000841094
-0.287351
-0.762432
-0.000140046
-0.287907
-0.762774
0.00182558
-0.288289
-0.763242
-0.287226
-0.761699
-0.00243594
-0.628172
-0.980435
-0.00329837
-0.629951
-0.979567
-0.0088144
-0.626557
-0.980688
-0.00063656
-0.64032
-0.981344
0.0211144
-0.656627
-0.981861
-0.612076
-0.979209
0.000355141
0.0450018
0.000559884
0.0463749
0.000505044
0.045233
0.00086933
0.0456865
0.00134803
0.046834
0.0432646
-0.00017655
-0.386848
-0.375537
-0.000304043
-0.387047
-0.375495
-0.00160426
-0.385589
-0.375543
-0.000173448
-0.388958
-0.375247
0.00330791
-0.39149
-0.375233
-0.383045
-0.375346
-0.00466046
-1.25299
-0.109634
-0.0035279
-1.25846
-0.109291
-0.0137799
-1.24713
-0.1089
-0.00224332
-1.27373
-0.108113
0.0346438
-1.30324
-0.107
-1.21857
-0.10904
-0.000329723
0.142414
0.000150534
0.142297
0.000652822
0.142172
7.38759e-05
0.142048
-0.000475005
0.142076
0.14198
-0.000179079
-0.48541
0.110052
-0.000220537
-0.485521
0.110067
-0.00112673
-0.48468
0.110044
-2.98596e-05
-0.486478
0.110135
0.00243891
-0.487646
0.109944
-0.483062
0.110154
-0.00349376
-1.27848
0.686932
-0.00284346
-1.28227
0.68681
-0.0104441
-1.27514
0.689154
-0.00248025
-1.2881
0.685542
0.0286523
-1.30852
0.682745
-1.25553
0.692084
-2.51891e-05
0.309597
-1.27841e-05
0.309616
0.000474634
0.309609
-2.78618e-05
0.309753
-0.00212884
0.310102
0.309613
-0.000204762
-1.43696
-0.000186189
-1.43707
-0.000725724
-1.43658
-5.18216e-05
-1.43782
0.00160927
-1.43914
-1.43511
-0.00143016
-1.52005
-0.00105273
-1.52134
-0.00222293
-1.51955
-0.000611155
-1.52276
0.0060454
-1.52715
-1.51469
-0.000155493
-8.81205e-05
8.08626e-05
8.52807e-05
-0.000135971
8.90852e-06
1.41723
-0.0733258
2.08139e-05
1.41729
-0.0733324
2.95681e-05
1.41728
-0.0733239
2.98118e-05
1.41728
-0.0733109
2.37018e-05
1.41728
-0.0733007
1.41722
-0.073279
6.34462e-06
1.45242
-0.0351948
1.32223e-05
1.45248
-0.0351987
1.63057e-05
1.45248
-0.0351935
1.55315e-05
1.45247
-0.0351878
1.05492e-05
1.45247
-0.0351825
1.45241
-0.0351727
-2.66938e-06
-0.0125363
-3.55361e-06
-0.0125375
-3.13753e-06
-0.0125354
-1.76666e-06
-0.0125337
-4.25585e-07
-0.012532
-0.0125287
2.17681e-05
1.46359
-0.104795
4.94359e-05
1.46364
-0.104808
7.11644e-05
1.46364
-0.104785
7.09533e-05
1.46363
-0.104746
6.09272e-05
1.46362
-0.104721
1.46355
-0.10466
1.41054e-05
1.47299
-0.0446084
2.91128e-05
1.47305
-0.0446172
3.75765e-05
1.47304
-0.044605
3.57101e-05
1.47303
-0.0445903
2.50237e-05
1.47303
-0.0445756
1.47296
-0.0445539
1.15959e-06
-0.0164485
4.12239e-06
-0.0164528
6.35116e-06
-0.0164487
7.23079e-06
-0.0164452
5.42519e-06
-0.0164402
-0.0164329
6.07823e-05
1.54327
-0.0430318
0.000138539
1.54334
-0.0430563
0.000194623
1.54332
-0.0429835
0.000195622
1.54329
-0.0428912
0.00018485
1.54327
-0.0428186
1.54316
-0.0426998
3.59365e-05
1.49893
-0.000307528
7.53467e-05
1.499
-0.000319141
9.61969e-05
1.49898
-0.000292161
8.99475e-05
1.49896
-0.000261333
6.49305e-05
1.49895
-0.000227202
1.49887
-0.00019688
9.9012e-06
-0.00297489
2.14461e-05
-0.00298098
2.47856e-05
-0.00297212
2.23687e-05
-0.00296617
1.39699e-05
-0.0029558
-0.00294659
0.000127918
1.62322
0.185167
0.000339053
1.62333
0.185062
0.000454128
1.62327
0.185246
0.000477589
1.6232
0.185513
0.000451036
1.62317
0.185916
1.62295
0.185574
6.60602e-05
1.49492
0.127919
0.000158533
1.49501
0.127904
0.000197471
1.49497
0.127969
0.00019957
1.49494
0.128002
0.000152008
1.4949
0.128091
1.49479
0.128109
1.8039e-05
0.0399879
4.69057e-05
0.03998
5.22551e-05
0.0400013
5.15034e-05
0.0400006
3.10286e-05
0.0400226
0.040031
0.000232787
1.62868
0.659388
0.00109343
1.62891
0.6589
0.0012974
1.6287
0.659291
0.00136429
1.62853
0.660595
0.00101732
1.62841
0.662251
1.6279
0.659071
0.000135622
1.40924
0.347217
0.00042135
1.40937
0.347155
0.000529782
1.40927
0.347292
0.000503107
1.40916
0.347394
0.000324214
1.40904
0.347635
1.40895
0.34738
4.07026e-05
0.0966634
0.000112287
0.0966596
0.000133999
0.0966988
0.000122984
0.0966811
0.000101101
0.0966741
0.0967822
5.58172e-05
1.44953
1.26592
0.00273564
1.45002
1.26524
0.00414202
1.44942
1.26525
0.00354143
1.44891
1.26712
-0.00108181
1.44838
1.26975
1.44799
1.2625
0.000131278
1.14678
0.649832
0.000711895
1.14695
0.649643
0.000757045
1.14675
0.649909
0.000776912
1.14654
0.649747
0.000146241
1.1463
0.650353
1.14636
0.649156
5.60376e-05
0.197053
0.000185169
0.197015
0.00018037
0.197131
0.000173479
0.196956
2.61294e-05
0.197028
0.197103
-0.00144544
0.863411
1.42981
0.00335712
0.864581
1.42928
0.00889603
0.863483
1.42925
0.004897
0.862407
1.42951
-0.00842867
0.861616
1.4318
0.862544
1.4246
-6.91924e-05
0.709017
0.804291
0.00124505
0.709265
0.803642
0.00190332
0.708908
0.803823
0.0010354
0.708558
0.804461
-0.00133483
0.708661
0.805674
0.708328
0.802035
8.47719e-05
0.202843
0.000319803
0.202659
0.000334717
0.202812
0.000178746
0.202709
0.000367405
0.202561
0.202992
-0.00245
0.1251
1.06277
0.00141887
0.127952
1.05978
0.00221773
0.126886
1.06554
-0.000301937
0.124293
1.05806
-0.0100244
0.123752
1.06167
0.128928
1.05793
-8.87163e-05
0.0294429
0.900033
0.00105835
0.0304476
0.899997
0.00167528
0.0295429
0.900547
0.000195526
0.029608
0.900623
-0.00752238
0.0302503
0.906892
0.0295831
0.893857
0.000135284
0.340568
0.000507558
0.34028
0.00100591
0.34019
0.000202212
0.341345
-0.00207647
0.343288
0.338545
-0.00391995
-0.420463
-0.138269
0.00218581
-0.421158
-0.151855
-0.000499511
-0.420037
-0.131513
-0.00281342
-0.417862
-0.152672
-0.000440252
-0.410599
-0.162925
-0.42579
-0.137992
0.00141729
-0.0799511
0.558102
0.00203533
-0.0793653
0.557586
0.00226592
-0.0807325
0.561011
0.00146849
-0.0775033
0.561061
-0.00556107
-0.0723781
0.575701
-0.0853711
0.547878
-0.0004788
0.349382
0.000344487
0.34858
0.00191228
0.348042
-0.000146231
0.351447
-0.00138249
0.353604
0.346363
-0.00210789
-1.91098
-1.30516
-0.00159752
-1.92002
-1.32013
0.00208276
-1.92085
-1.30148
-0.00595482
-1.89809
-1.31992
-0.0102085
-1.87323
-1.34785
-1.94031
-1.30267
0.00184313
-1.90829
0.553567
-0.00291833
-1.91342
0.555746
-0.00513087
-1.91328
0.555661
0.00175243
-1.90072
0.556804
0.0139618
-1.88436
0.57463
-1.92624
0.547774
0.00103389
0.316091
-0.00124066
0.316056
-0.0057752
0.31632
0.000226793
0.318744
0.0207598
0.318453
0.318527
0.002183
-2.2123
-3.11364
0.00644569
-2.22216
-3.12424
0.020742
-2.22191
-3.11353
0.00395362
-2.20009
-3.1252
-0.0219265
-2.20686
-3.14343
-2.22809
-3.11579
-0.00836566
-1.90372
0.253354
-0.0113576
-1.91326
0.249835
-0.0091124
-1.91533
0.24683
-0.0134346
-1.89365
0.254683
-0.0160837
-1.90355
0.273968
-1.91718
0.220777
0.00305317
0.419148
-0.00510035
0.428446
-0.0202499
0.433675
-0.00208641
0.413933
0.0297453
0.397905
0.447498
0.00360643
-3.52362
0.00605499
-3.53154
0.01311
-3.53469
0.00886563
-3.51472
-0.00589073
-3.52987
-3.54989
0.0225687
-1.88728
0.0297026
-1.88959
0.0380685
-1.89343
0.0471149
-1.86575
0.00333996
-1.81012
-1.90493
0.0177303
0.0193968
0.0385716
0.0368965
-0.0355724
)
;

boundaryField
{
    seabed_topleft_surface
    {