/*--------------------------------*- C++ -*----------------------------------*\
| =========                 |                                                 |
| \\      /  F ield         | OpenFOAM: The Open Source CFD Toolbox           |
|  \\    /   O peration     | Version:  v1612+                                |
|   \\  /    A nd           | Web:      www.OpenFOAM.com                      |
|    \\/     M anipulation  |                                                 |
\*---------------------------------------------------------------------------*/
FoamFile
{
    version     2.0;
    format      ascii;
    class       volVectorField;
    location    "4.5";
    object      U;
}
// * * * * * * * * * * * * * * * * * * * * * * * * * * * * * * * * * * * * * //

dimensions      [0 1 -1 0 0 0 0];

internalField   nonuniform List<vector> 
1116
(
(0.171817 -9.81641e-06 -0.199476)
(0.171817 -9.73419e-06 -0.199484)
(0.171818 -5.69394e-06 -0.199473)
(0.171819 -4.97473e-06 -0.199472)
(0.171817 1.25788e-05 -0.199483)
(0.171816 1.6149e-05 -0.19947)
(0.523767 -4.19327e-06 -0.332788)
(0.523778 -8.06837e-06 -0.332804)
(0.523774 -5.58928e-06 -0.332786)
(0.523777 -2.29337e-06 -0.332782)
(0.523777 1.34936e-05 -0.3328)
(0.523766 1.23141e-05 -0.332786)
(0.789742 2.34646e-06 -0.32143)
(0.789769 -5.32025e-06 -0.321451)
(0.789761 -4.20659e-06 -0.321432)
(0.789765 2.02549e-07 -0.321426)
(0.789767 8.21727e-06 -0.321445)
(0.789745 4.01965e-06 -0.321436)
(0.97838 6.32606e-06 -0.252817)
(0.978423 -2.16166e-06 -0.252843)
(0.97841 -2.51755e-06 -0.252825)
(0.978414 1.5467e-06 -0.25282)
(0.978418 1.18364e-06 -0.252839)
(0.978385 -3.32215e-06 -0.252829)
(1.01134 5.66191e-06 -0.176702)
(1.01141 -1.21024e-06 -0.17673)
(1.01139 -2.14838e-06 -0.176715)
(1.01139 -5.83364e-07 -0.176712)
(1.0114 -5.66461e-06 -0.176729)
(1.01135 -7.60507e-06 -0.176715)
(0.57489 5.44903e-08 -0.0361736)
(0.574966 -2.3687e-06 -0.036196)
(0.574946 -3.54192e-06 -0.0361855)
(0.574946 -4.989e-06 -0.0361831)
(0.57496 -1.01197e-05 -0.0361959)
(0.574895 -7.82685e-06 -0.0361817)
(-0.331848 1.52838e-06 0.290628)
(-0.331774 8.49886e-06 0.290641)
(-0.331785 -3.43992e-06 0.290634)
(-0.331785 -4.90739e-06 0.290634)
(-0.33177 -1.72854e-05 0.290633)
(-0.331842 -1.37986e-05 0.290637)
(-1.57489 -1.30022e-05 0.609664)
(-1.57486 8.47187e-06 0.609697)
(-1.57482 5.74791e-06 0.60968)
(-1.57482 8.24638e-07 0.609682)
(-1.57481 -1.58934e-05 0.609686)
(-1.57491 -1.08231e-05 0.609678)
(-2.88062 1.3704e-06 0.320823)
(-2.88064 1.64521e-05 0.320877)
(-2.88055 1.25193e-05 0.320874)
(-2.88055 2.1882e-05 0.320881)
(-2.88055 -1.42502e-05 0.3209)
(-2.88068 -1.87087e-05 0.320808)
(-3.42171 7.80187e-05 -0.468874)
(-3.42182 5.67609e-05 -0.468798)
(-3.4217 -6.55558e-06 -0.468787)
(-3.42169 3.11044e-05 -0.46878)
(-3.42172 -3.76744e-05 -0.468766)
(-3.42176 -4.37748e-05 -0.468911)
(-2.48701 0.000142164 -1.20688)
(-2.48714 8.69037e-05 -1.20681)
(-2.48703 -4.22299e-05 -1.20681)
(-2.48704 1.88663e-05 -1.20681)
(-2.48707 -7.10137e-05 -1.20681)
(-2.48705 -7.35341e-05 -1.20691)
(-1.01472 1.69047e-05 -1.08777)
(-1.01453 -1.16242e-05 -1.08769)
(-1.01458 -2.52875e-05 -1.08773)
(-1.0146 -1.37036e-06 -1.08774)
(-1.01457 -3.17195e-05 -1.08771)
(-1.01468 -2.5784e-05 -1.08779)
(1.4555 -7.49532e-05 -0.922453)
(1.45552 -7.25598e-05 -0.922548)
(1.45552 8.88136e-06 -0.922549)
(1.45552 2.17774e-05 -0.922576)
(1.45553 9.63387e-05 -0.922592)
(1.4555 8.219e-05 -0.922428)
(4.25911 -7.93277e-05 -0.620129)
(4.25915 -8.21666e-05 -0.620206)
(4.25915 1.60766e-05 -0.620232)
(4.25915 2.01172e-05 -0.620258)
(4.25917 0.000134086 -0.620251)
(4.2592 0.000103435 -0.620098)
(6.69463 -8.47307e-05 -0.403938)
(6.69476 -9.56148e-05 -0.403971)
(6.69477 1.6851e-05 -0.404013)
(6.69471 1.57081e-05 -0.404023)
(6.69474 0.000152948 -0.403994)
(6.69478 0.000123505 -0.403901)
(11.5901 -9.27392e-05 0.396655)
(11.5902 -9.36355e-05 0.396658)
(11.5901 -3.77528e-06 0.396626)
(11.5901 -5.16331e-05 0.396637)
(11.5902 0.000108717 0.396675)
(11.5903 0.000106873 0.396714)
(7.24417 -3.89787e-06 0.802279)
(7.24407 -2.41286e-06 0.802302)
(7.24419 -9.2639e-06 0.802288)
(7.244 -5.63176e-05 0.80229)
(7.24395 -2.71705e-05 0.802305)
(7.24405 -1.25273e-05 0.802299)
(3.3944 -5.35724e-05 1.09826)
(3.39491 -4.56624e-05 1.09824)
(3.39473 1.27808e-05 1.09824)
(3.39464 -3.98472e-05 1.09824)
(3.39479 -6.00299e-05 1.09823)
(3.39441 -3.17107e-05 1.09822)
(0.209175 0.000146522 1.65533)
(0.209539 8.03818e-05 1.65539)
(0.20942 -7.3735e-05 1.65536)
(0.209456 3.99085e-05 1.65535)
(0.209601 -8.77708e-05 1.65537)
(0.209277 -0.000132826 1.65531)
(-0.927383 4.59825e-05 1.59087)
(-0.927313 2.15708e-05 1.59089)
(-0.927298 -2.83142e-05 1.59089)
(-0.927279 4.16925e-06 1.59089)
(-0.92724 -3.7531e-05 1.5909)
(-0.927405 -5.01748e-05 1.59086)
(-1.77199 7.90979e-05 1.0376)
(-1.77205 4.03974e-05 1.03763)
(-1.77195 -1.90121e-05 1.03764)
(-1.77193 4.44418e-05 1.03766)
(-1.77193 -1.55193e-05 1.03769)
(-1.77202 -3.39604e-05 1.03759)
(-1.89306 0.000295749 -0.0742486)
(-1.89323 0.000164856 -0.0738407)
(-1.89307 -9.31743e-05 -0.0739351)
(-1.89309 7.54073e-05 -0.0739359)
(-1.89312 -6.00632e-05 -0.0738373)
(-1.8931 -9.39724e-05 -0.0741577)
(-1.52848 0.000449894 -1.62609)
(-1.52821 0.000252801 -1.62546)
(-1.52818 -0.000190805 -1.62561)
(-1.52832 7.10841e-05 -1.62566)
(-1.52835 -9.46384e-05 -1.62553)
(-1.52828 -0.000162027 -1.62596)
(-1.07643 -0.000194708 -2.0832)
(-1.07611 -0.000125595 -2.08319)
(-1.07612 5.10978e-05 -2.0832)
(-1.07627 -4.07111e-05 -2.08319)
(-1.07641 4.39114e-05 -2.08317)
(-1.07614 6.36172e-05 -2.0833)
(-0.513751 -2.78691e-05 -3.864)
(-0.513642 -1.51165e-05 -3.86449)
(-0.513682 1.37064e-05 -3.86443)
(-0.51366 2.04135e-05 -3.86442)
(-0.513614 1.96751e-05 -3.86449)
(-0.51376 3.1607e-05 -3.86399)
(-1.5066 -3.63235e-05 -4.23897)
(-1.50639 -1.63115e-05 -4.2394)
(-1.50645 7.35687e-06 -4.23935)
(-1.50644 -6.39676e-06 -4.23933)
(-1.50639 3.53743e-05 -4.23938)
(-1.50658 6.0632e-05 -4.23892)
(-1.18723 -0.000117953 -5.04787)
(-1.18703 -9.14448e-05 -5.04829)
(-1.18709 -8.52529e-06 -5.04825)
(-1.18712 -4.66758e-05 -5.04826)
(-1.18709 5.07195e-05 -5.0483)
(-1.18719 9.43367e-05 -5.04782)
(-1.4204 -0.000150372 -3.61758)
(-1.42059 -0.000120262 -3.61816)
(-1.42056 -2.44618e-05 -3.61813)
(-1.42056 -8.61285e-05 -3.61813)
(-1.42061 1.77955e-05 -3.61819)
(-1.42036 4.56932e-05 -3.61761)
(5.58249 0.000271792 5.26225)
(5.58245 0.000150558 5.26229)
(5.58248 -0.000113745 5.26232)
(5.58241 -1.34387e-05 5.26237)
(5.58244 -0.000130842 5.26243)
(5.58242 -0.00020371 5.26252)
(5.95912 0.000694347 7.76174)
(5.96311 0.000357679 7.75988)
(5.96136 -0.000332345 7.7607)
(5.96114 9.39754e-05 7.76067)
(5.96236 -0.000217382 7.75997)
(5.96045 -0.000382716 7.76052)
(-4.40657 0.000452226 5.46919)
(-4.4017 0.00018405 5.47285)
(-4.40404 -0.000293076 5.47104)
(-4.40431 -1.36986e-05 5.47085)
(-4.40283 -0.000289106 5.47206)
(-4.40479 -0.000309191 5.46975)
(-2.33866 0.000265042 2.36416)
(-2.33731 0.000120924 2.36491)
(-2.33798 -0.000110014 2.36456)
(-2.33801 6.26276e-05 2.36458)
(-2.33764 -0.000134504 2.3648)
(-2.33829 -0.000186474 2.36432)
(-1.77055 0.000627708 1.06535)
(-1.76911 0.000309447 1.06598)
(-1.76975 -0.000273662 1.06566)
(-1.76983 0.000183234 1.06574)
(-1.76945 -0.000145384 1.06593)
(-1.77013 -0.000305697 1.06548)
(-1.40778 0.000695305 -0.558324)
(-1.40558 0.000349491 -0.556681)
(-1.4065 -0.000314577 -0.557397)
(-1.40676 0.000177415 -0.557444)
(-1.40621 -0.000135889 -0.556951)
(-1.40705 -0.000302228 -0.557921)
(-0.816775 -0.000208143 -1.99446)
(-0.812829 -0.000120862 -1.9918)
(-0.814456 3.1366e-05 -1.99289)
(-0.814908 -0.000191955 -1.9932)
(-0.813917 0.000191827 -1.99243)
(-0.815552 0.000312009 -1.99375)
(-1.08711 -0.000797664 -2.54679)
(-1.08678 -0.000413856 -2.54731)
(-1.08684 0.000211408 -2.54704)
(-1.0869 -0.000443326 -2.54715)
(-1.08704 0.00044993 -2.54742)
(-1.08681 0.00070245 -2.54676)
(0.180472 7.45053e-06 -1.36346)
(0.180468 3.96812e-06 -1.36416)
(0.180479 3.93578e-06 -1.36403)
(0.180469 -3.46e-06 -1.36404)
(0.180461 5.07377e-06 -1.36418)
(0.180475 -9.1348e-07 -1.36345)
(-0.0615051 -1.28237e-08 -1.66752)
(-0.0615181 -1.85163e-06 -1.66813)
(-0.0614994 6.27364e-06 -1.66802)
(-0.0615087 -5.6069e-06 -1.66803)
(-0.0615195 4.08585e-06 -1.66815)
(-0.0614957 -6.41079e-06 -1.6675)
(0.278741 -7.36704e-05 -2.34373)
(0.278692 -5.26143e-05 -2.34412)
(0.278742 1.40348e-05 -2.34407)
(0.278747 -1.99263e-05 -2.34408)
(0.278734 2.28625e-05 -2.34416)
(0.27878 2.41358e-05 -2.34377)
(-1.77296 -0.0001004 -3.9192)
(-1.77367 -5.85228e-05 -3.91967)
(-1.77342 4.78511e-06 -3.91967)
(-1.77338 -8.51648e-05 -3.9197)
(-1.7735 -4.73346e-05 -3.9198)
(-1.77313 -1.94215e-05 -3.91951)
(-2.37831 0.000385034 0.542732)
(-2.37943 0.000158539 0.541511)
(-2.37908 -0.000240769 0.542002)
(-2.37903 5.51701e-06 0.542021)
(-2.37934 -0.000158944 0.541597)
(-2.37877 -0.000284192 0.541948)
(3.53669 0.00100697 11.23)
(3.54084 0.000455007 11.23)
(3.53898 -0.000506403 11.2299)
(3.53884 0.000288067 11.2298)
(3.54054 -0.000180638 11.2297)
(3.53825 -0.000541429 11.2291)
(-5.70641 -0.00036073 8.11481)
(-5.69996 -0.00038793 8.12207)
(-5.70346 -3.04102e-05 8.11862)
(-5.7043 -0.000175999 8.11815)
(-5.70144 2.98403e-05 8.12053)
(-5.70495 0.000198183 8.11673)
(-6.90941 -0.00125011 -0.965613)
(-6.90838 -0.000966387 -0.960383)
(-6.90893 0.000755512 -0.962761)
(-6.90943 0.00017564 -0.962998)
(-6.90894 -2.59e-05 -0.96125)
(-6.90938 0.000267566 -0.964164)
(-4.73357 -0.00169538 -1.06558)
(-4.72946 -0.00116492 -1.06054)
(-4.73132 0.00101653 -1.06288)
(-4.73201 1.01606e-05 -1.06321)
(-4.73056 0.000264792 -1.06143)
(-4.73268 0.000721292 -1.06439)
(-3.07313 -0.00238308 -1.74122)
(-3.06548 -0.00147045 -1.73635)
(-3.069 0.00124171 -1.73856)
(-3.06966 -0.000422054 -1.73899)
(-3.06705 0.00059798 -1.73731)
(-3.07159 0.0013095 -1.73999)
(-2.3214 -0.00257498 -2.86442)
(-2.31365 -0.00145888 -2.86164)
(-2.31734 0.00111101 -2.86277)
(-2.31741 -0.000883555 -2.86352)
(-2.31472 0.00102296 -2.86308)
(-2.32012 0.00184006 -2.86298)
(-2.21749 -0.00111527 -2.81745)
(-2.21699 -0.000527754 -2.81856)
(-2.21733 0.000272488 -2.81785)
(-2.21693 -0.000759605 -2.81859)
(-2.2166 0.000797724 -2.81993)
(-2.21774 0.00119311 -2.81636)
(0.405101 -5.46602e-05 0.417617)
(0.405146 -0.000148527 0.417639)
(0.405215 -0.000187564 0.417644)
(0.405251 -0.000150141 0.417674)
(0.405326 -1.69837e-05 0.417684)
(0.405187 4.08174e-05 0.417653)
(1.28551 -0.000140031 0.474489)
(1.28563 -0.000347042 0.474535)
(1.28611 -0.000409155 0.474516)
(1.28646 -0.000344086 0.474658)
(1.28723 5.39218e-05 0.474668)
(1.28587 0.000209342 0.474556)
(2.41961 -0.00013365 0.676992)
(2.41961 -0.00129099 0.676389)
(2.42095 -0.00201589 0.677742)
(2.42203 -0.00306806 0.676334)
(2.42493 0.00170591 0.677193)
(2.41822 0.00389911 0.678735)
(3.65453 0.00146385 1.37481)
(3.65131 -0.00286266 1.3724)
(3.65696 -0.0073734 1.37717)
(3.6558 -0.0158158 1.37133)
(3.67645 0.0127786 1.37751)
(3.64125 0.02539 1.37727)
(6.76717 0.00464481 2.19459)
(6.74359 -0.00438233 2.20422)
(6.75341 -0.0117369 2.18659)
(6.79389 -0.0318748 2.22272)
(6.92991 0.0230128 2.23027)
(6.66725 0.0517482 2.16395)
(13.8165 0.0106982 0.674155)
(13.7917 -0.0034387 0.713673)
(13.7466 -0.00818145 0.635355)
(13.9312 -0.0236974 0.798796)
(14.2037 0.000114107 0.77966)
(13.5137 0.027157 0.58288)
(17.0918 0.0215751 -3.81861)
(17.1174 0.0087516 -3.78676)
(17.0212 -0.00303346 -3.87616)
(17.2245 0.0128277 -3.69693)
(17.4365 -0.0165663 -3.76206)
(16.7646 -0.0195251 -3.88889)
(13.8549 0.0221599 -6.4757)
(13.891 0.0122198 -6.47238)
(13.8543 0.0165076 -6.52496)
(13.9012 0.0677241 -6.41879)
(14.0219 -0.0485765 -6.51972)
(13.6959 -0.0774775 -6.4704)
(8.71239 0.012751 -8.13004)
(8.71805 0.00270405 -8.1439)
(8.75419 0.0246613 -8.17378)
(8.6332 0.0921646 -8.11128)
(8.62729 -0.0708464 -8.21204)
(8.71826 -0.0948745 -8.07335)
(4.6027 0.00141956 -8.23498)
(4.61047 0.00870266 -8.2614)
(4.68512 0.0651041 -8.30949)
(4.46876 0.133305 -8.14978)
(4.34371 -0.110993 -8.20124)
(4.73339 -0.135488 -8.25214)
(-8.12437 0.000473456 -3.41428)
(-8.11889 0.0172276 -3.43778)
(-7.99422 0.0628704 -3.49112)
(-8.42896 0.150023 -3.15055)
(-8.72771 -0.116357 -3.05946)
(-7.6788 -0.119888 -3.6217)
(-8.6959 0.00898634 2.76639)
(-8.63608 0.054441 2.78735)
(-8.46858 0.0408859 2.74452)
(-8.89675 0.0277775 3.04755)
(-9.16525 0.0440457 3.15512)
(-8.18454 0.0712584 2.65911)
(0.411077 -4.27906e-05 1.24812)
(0.411122 -0.000120867 1.24818)
(0.411181 -0.000143369 1.24821)
(0.411197 -0.000110244 1.24825)
(0.41125 2.6676e-06 1.24827)
(0.411103 4.3672e-05 1.24823)
(1.28675 -0.000108612 1.4333)
(1.28689 -0.000294205 1.43343)
(1.28728 -0.000269124 1.43352)
(1.2874 -0.0001917 1.43351)
(1.28797 8.77976e-05 1.43345)
(1.28681 0.00020294 1.4336)
(2.37915 -0.000155075 1.95959)
(2.37962 -0.0012034 1.95904)
(2.38082 -0.00133095 1.96018)
(2.38125 -0.00200649 1.96049)
(2.38335 0.00140179 1.96256)
(2.37758 0.00306984 1.96032)
(3.37145 -0.000184854 3.4106)
(3.37313 -0.00321596 3.40735)
(3.37359 -0.00671279 3.40916)
(3.37691 -0.0124985 3.41732)
(3.38698 0.0141438 3.43246)
(3.35589 0.0226294 3.40313)
(4.24965 -0.00431003 5.65237)
(4.25187 -0.00296243 5.66039)
(4.2374 -0.0136346 5.64837)
(4.30209 -0.0274706 5.67581)
(4.37394 0.0481117 5.68939)
(4.15873 0.0610029 5.61773)
(7.91807 -0.0120514 6.37803)
(7.94711 6.20166e-05 6.42276)
(7.85635 -0.0148182 6.39797)
(8.11262 -0.0304991 6.40614)
(8.22223 0.0564244 6.35507)
(7.65602 0.0634461 6.34369)
(11.8595 -0.00544493 3.92678)
(11.9596 0.0070104 3.97356)
(11.8082 -0.0126577 4.00892)
(12.1088 -0.0222422 3.88317)
(12.0165 0.0120068 3.82409)
(11.6079 0.0136725 3.98945)
(8.82922 0.00295617 -2.71684)
(8.86628 0.00524912 -2.63569)
(8.86367 -0.00319728 -2.50385)
(8.84291 -0.0213948 -2.86739)
(8.69781 -0.0134665 -2.86114)
(8.90429 -0.00146233 -2.3829)
(9.7354 0.000887472 -9.28834)
(9.72343 0.00867412 -9.28594)
(9.69598 -0.0160802 -9.27255)
(9.775 -0.050687 -9.31666)
(9.76229 0.0449467 -9.27538)
(9.65474 0.0656008 -9.2727)
(9.87031 -0.0040023 -9.59654)
(9.86972 0.00119124 -9.61683)
(9.85263 -0.00961029 -9.60918)
(9.9051 -0.0372928 -9.57885)
(9.92583 0.0312719 -9.53745)
(9.78665 0.0502901 -9.6017)
(5.25199 -0.00746545 -3.57246)
(5.23274 -0.0107642 -3.58501)
(5.25518 -0.0273898 -3.62972)
(5.20545 -0.0520725 -3.42188)
(5.14545 0.0026412 -3.14661)
(5.22697 0.0464069 -3.71524)
(-3.75642 0.0315899 8.36274)
(-3.7144 -0.0208984 8.3039)
(-3.51241 0.129921 8.23007)
(-3.99014 0.216796 8.23812)
(-4.25639 -0.244928 8.36161)
(-3.14285 -0.243844 7.93325)
(0.27816 -1.62737e-05 1.93936)
(0.278187 -4.99644e-05 1.93944)
(0.278208 -5.15366e-05 1.93947)
(0.278204 -3.48624e-05 1.93951)
(0.278222 2.87082e-05 1.93954)
(0.278122 4.06031e-05 1.93947)
(0.824039 -4.12963e-05 2.18976)
(0.824113 -0.000113354 2.18989)
(0.824231 -8.16875e-05 2.18998)
(0.824215 -5.16638e-05 2.19)
(0.824422 0.000147054 2.19003)
(0.823783 0.000190884 2.18992)
(1.34716 -5.43713e-05 2.77612)
(1.34741 -0.000372145 2.77616)
(1.34761 -0.000268434 2.77672)
(1.34785 -0.000492938 2.77686)
(1.34872 0.000808987 2.7778)
(1.34561 0.00133774 2.77626)
(1.58512 -0.000256798 4.05851)
(1.5869 -0.001008 4.05759)
(1.58557 -0.00176743 4.05853)
(1.58617 -0.00395149 4.06328)
(1.58698 0.00587364 4.07075)
(1.57833 0.0086644 4.05354)
(0.769732 -0.00346248 6.08777)
(0.774732 -0.000692883 6.09121)
(0.767705 -0.00229134 6.08498)
(0.777187 -0.00681282 6.10289)
(0.785066 0.0220594 6.11378)
(0.746896 0.0238054 6.06318)
(-0.188464 -0.0106385 6.72073)
(-0.170333 0.00113233 6.75355)
(-0.197945 0.0109769 6.73962)
(-0.128008 0.0139776 6.72575)
(-0.112487 0.0212567 6.68451)
(-0.25033 0.00884078 6.70504)
(0.333263 -0.00894137 2.97359)
(0.384813 0.00297534 3.04672)
(0.365285 0.0150442 3.07358)
(0.388503 0.0245328 2.90184)
(0.302723 -0.0142793 2.7637)
(0.334484 -0.0277759 3.0828)
(1.2213 -2.24068e-05 -3.44231)
(1.24437 -0.00886624 -3.4021)
(1.24667 0.00892997 -3.33213)
(1.23948 0.03636 -3.57826)
(1.20585 -0.0639309 -3.69705)
(1.22187 -0.0723407 -3.1738)
(5.54274 -0.000879846 -8.23524)
(5.56457 -0.000598467 -8.24603)
(5.54558 -0.00968944 -8.20095)
(5.57816 -0.0122433 -8.29665)
(5.57272 -0.00546114 -8.34715)
(5.52457 0.0167701 -8.13483)
(9.02966 -0.00246202 -9.75745)
(9.05382 0.000452527 -9.77829)
(9.01948 -0.007558 -9.70098)
(9.08034 -0.0261184 -9.82344)
(9.08971 0.00621186 -9.86162)
(8.96144 0.0384164 -9.59552)
(8.04241 -0.00808661 -6.57684)
(8.06712 0.00262811 -6.59623)
(8.00864 -0.0348429 -6.5526)
(8.06667 -0.0823814 -6.58866)
(8.06789 0.0704503 -6.56786)
(7.90266 0.0956043 -6.51573)
(1.60865 -0.034853 2.0696)
(1.60073 -0.0896822 2.19138)
(1.66517 -0.129037 1.30672)
(1.59116 -0.299065 3.23037)
(1.45657 0.116637 4.01076)
(1.80733 0.118775 0.666198)
(0.157242 7.73589e-07 2.35605)
(0.157256 -2.84172e-06 2.35613)
(0.157253 8.11209e-06 2.35615)
(0.15724 1.84868e-05 2.35617)
(0.157231 3.48772e-05 2.35619)
(0.157187 2.38173e-05 2.35609)
(0.429463 -1.86725e-06 2.56695)
(0.429503 1.85557e-06 2.56706)
(0.429494 3.87157e-05 2.5671)
(0.429433 5.96816e-05 2.56711)
(0.429421 0.00011643 2.56714)
(0.429206 9.15486e-05 2.56696)
(0.55995 8.20874e-06 3.00217)
(0.560036 2.98294e-05 3.00233)
(0.559944 0.000161648 3.00245)
(0.559816 0.000163907 3.00244)
(0.559868 0.000416794 3.00266)
(0.559016 0.000392183 3.00193)
(0.355747 -1.25545e-05 3.72087)
(0.35629 0.000151651 3.72111)
(0.3555 0.0005037 3.72124)
(0.355142 0.000200466 3.72188)
(0.354675 0.00156737 3.72338)
(0.3531 0.00169013 3.7189)
(-0.670998 -0.000841466 4.6741)
(-0.66872 0.000643346 4.67566)
(-0.671215 0.00196167 4.67347)
(-0.674843 0.00116956 4.67741)
(-0.679656 0.00509535 4.68003)
(-0.673887 0.00435099 4.66526)
(-2.59843 -0.00385258 4.87893)
(-2.59293 0.0014952 4.88881)
(-2.59687 0.0116778 4.88181)
(-2.59916 0.0166854 4.87663)
(-2.60792 0.00169155 4.86527)
(-2.59709 -0.00832586 4.86866)
(-3.82305 -0.00644979 2.39005)
(-3.8121 0.000497602 2.41408)
(-3.81224 0.0200433 2.41522)
(-3.82467 0.034158 2.37314)
(-3.85355 -0.0130717 2.34027)
(-3.79859 -0.0325779 2.41834)
(-2.92255 -0.00677037 -0.494339)
(-2.92289 -0.00559815 -0.479562)
(-2.93137 0.0163823 -0.473186)
(-2.9077 0.0338822 -0.502482)
(-2.92063 -0.038857 -0.512421)
(-2.92634 -0.057945 -0.452689)
(-0.944154 -0.00649515 -3.8635)
(-0.91579 -0.00169187 -3.86558)
(-0.93528 -0.00354899 -3.84825)
(-0.933162 0.000602824 -3.89059)
(-0.949647 -0.00780886 -3.91169)
(-0.90491 -0.011571 -3.84978)
(5.84614 -0.00332996 -7.36888)
(5.88379 -0.00624325 -7.37071)
(5.83207 -0.00145243 -7.38529)
(5.90811 -0.00324204 -7.3513)
(5.98155 -0.0168975 -7.35187)
(5.80445 -0.0068256 -7.42356)
(7.59122 -0.0034014 -7.12731)
(7.6128 0.00169636 -7.12816)
(7.54516 -0.00849459 -7.12565)
(7.67608 -0.0275958 -7.13367)
(7.77011 0.0295592 -7.16782)
(7.44876 0.0427956 -7.13773)
(4.50765 -0.00865165 -3.56361)
(4.51468 0.0182403 -3.56128)
(4.48341 -0.0330767 -3.56412)
(4.54862 -0.0831419 -3.56431)
(4.62508 0.104645 -3.59595)
(4.43102 0.125153 -3.57778)
(-0.059483 5.38704e-05 -2.69384)
(-0.0595332 4.66768e-05 -2.69425)
(-0.059527 -9.60346e-06 -2.69417)
(-0.0595298 1.46176e-05 -2.69417)
(-0.0595388 -4.67317e-05 -2.69424)
(-0.0594973 -6.04109e-05 -2.69384)
(-0.109808 3.5632e-05 -1.79997)
(-0.109812 2.92373e-05 -1.80023)
(-0.109812 -8.56275e-06 -1.80019)
(-0.109813 5.01846e-07 -1.80019)
(-0.109813 -4.31432e-05 -1.80024)
(-0.109814 -4.92175e-05 -1.79996)
(-0.0249865 2.04556e-05 -1.83949)
(-0.0249855 2.07887e-05 -1.83965)
(-0.0249866 1.5616e-06 -1.83962)
(-0.0249874 3.54081e-06 -1.83962)
(-0.0249874 -1.551e-05 -1.83965)
(-0.0249895 -1.7916e-05 -1.8395)
(-0.37363 1.46567e-05 -2.83875)
(-0.373753 1.35849e-05 -2.8391)
(-0.373738 -1.53204e-05 -2.83905)
(-0.373744 -3.15248e-06 -2.83904)
(-0.373764 -4.28549e-05 -2.83911)
(-0.373648 -4.5731e-05 -2.83873)
(-0.414594 1.79139e-05 -1.75933)
(-0.414589 1.10221e-05 -1.75956)
(-0.414586 -1.41407e-05 -1.75953)
(-0.414584 -4.2609e-06 -1.75953)
(-0.414577 -3.75227e-05 -1.75957)
(-0.414577 -4.09176e-05 -1.75933)
(-0.0841737 1.85316e-05 -1.69843)
(-0.0841702 1.69314e-05 -1.69859)
(-0.0841719 -1.31037e-06 -1.69858)
(-0.0841741 1.86078e-06 -1.69858)
(-0.0841747 -1.58974e-05 -1.69861)
(-0.0841816 -1.85998e-05 -1.69846)
(-0.513987 -6.04567e-05 -2.62425)
(-0.514259 -3.71778e-05 -2.62457)
(-0.514189 -5.11971e-06 -2.62454)
(-0.51419 -2.84519e-05 -2.62453)
(-0.514241 -2.3069e-05 -2.62458)
(-0.51401 -1.40073e-05 -2.62423)
(-0.862597 -5.74713e-06 -1.5905)
(-0.862579 -4.36728e-06 -1.59067)
(-0.862565 -1.34457e-05 -1.59065)
(-0.862565 -1.3053e-05 -1.59065)
(-0.862564 -2.84895e-05 -1.59069)
(-0.862576 -2.64224e-05 -1.59048)
(-0.175509 1.50729e-05 -1.26182)
(-0.175501 1.1758e-05 -1.26196)
(-0.1755 -4.23644e-06 -1.26196)
(-0.175502 -2.86854e-06 -1.26197)
(-0.175499 -2.15702e-05 -1.26199)
(-0.175514 -2.27427e-05 -1.26185)
(-2.04052 -8.05629e-05 -2.67217)
(-2.04135 -3.69662e-05 -2.67258)
(-2.04109 2.22817e-05 -2.67256)
(-2.0411 -4.86989e-05 -2.67258)
(-2.04128 -2.2227e-05 -2.67264)
(-2.04097 -2.42482e-06 -2.67235)
(-1.9871 -7.54889e-05 -1.67799)
(-1.98726 -4.034e-05 -1.67819)
(-1.98718 1.32559e-05 -1.67818)
(-1.98719 -3.09947e-05 -1.67816)
(-1.98724 -1.13228e-05 -1.6782)
(-1.98724 5.90333e-06 -1.67798)
(-0.454385 1.10492e-06 -0.47349)
(-0.454353 -1.5871e-06 -0.473573)
(-0.454346 -8.11671e-06 -0.47359)
(-0.454349 -1.34025e-05 -0.473585)
(-0.454344 -2.39518e-05 -0.473599)
(-0.454401 -2.15701e-05 -0.473462)
(-3.9334 0.000335337 1.18135)
(-3.93461 0.000103351 1.18059)
(-3.9342 -0.000182449 1.18066)
(-3.93429 2.14555e-05 1.18058)
(-3.9346 -0.00011959 1.18037)
(-3.93419 -0.00018991 1.18062)
(-3.72412 5.65734e-05 0.24574)
(-3.72502 -6.62337e-06 0.245276)
(-3.72469 -1.61024e-06 0.245291)
(-3.72473 4.36312e-05 0.245298)
(-3.72488 1.63735e-05 0.245191)
(-3.72462 8.11689e-06 0.245527)
(-1.40759 -1.25639e-05 1.3019)
(-1.40766 1.85275e-07 1.30195)
(-1.40761 1.41869e-05 1.30192)
(-1.40761 -3.86098e-06 1.30194)
(-1.40762 -8.01332e-06 1.30196)
(-1.40768 -7.87831e-06 1.30209)
(0.826956 0.000818847 11.1753)
(0.827655 0.000204612 11.1753)
(0.82716 -0.000520374 11.175)
(0.826939 0.000219949 11.1748)
(0.827431 -0.000266855 11.1748)
(0.82618 -0.000552308 11.1742)
(-1.44266 0.000615155 7.86488)
(-1.44379 0.000181007 7.86459)
(-1.4434 -0.000323693 7.86431)
(-1.44364 2.1974e-05 7.86411)
(-1.44383 -0.000261477 7.86406)
(-1.44371 -0.000298936 7.86428)
(-1.28251 0.000160771 4.12499)
(-1.28306 9.34712e-05 4.12493)
(-1.28281 1.46645e-05 4.12484)
(-1.28291 6.24011e-05 4.12482)
(-1.28298 1.56867e-05 4.12481)
(-1.28277 1.16171e-05 4.12519)
(-1.37035 -0.000819332 11.7088)
(-1.36597 -0.000738047 11.714)
(-1.36862 8.52349e-06 11.7114)
(-1.36917 -0.000419517 11.711)
(-1.36736 0.000117734 11.7127)
(-1.37128 0.000416438 11.7101)
(2.44149 -0.000744256 13.0707)
(2.44385 -0.00060282 13.0747)
(2.44222 0.000124253 13.0726)
(2.44192 -0.000369192 13.0721)
(2.44279 -0.000187592 13.0731)
(2.43954 6.62268e-05 13.0723)
(2.12143 -2.05237e-05 7.77803)
(2.12177 -0.000122219 7.78041)
(2.12157 -6.3482e-05 7.7791)
(2.12136 -5.09952e-05 7.7789)
(2.12146 -0.000244532 7.77944)
(2.1208 -0.000222849 7.77936)
(-4.71442 -0.000245551 1.59251)
(-4.71619 -0.000345646 1.58535)
(-4.71593 -0.000104918 1.58692)
(-4.71597 -0.000215938 1.58949)
(-4.71612 -0.000886351 1.58948)
(-4.7179 -0.000733284 1.58859)
(1.80004 0.000110308 7.52833)
(1.79814 0.000191399 7.52803)
(1.79848 -0.000178629 7.52718)
(1.79846 -0.000357084 7.52806)
(1.79784 -0.00015021 7.52866)
(1.79693 -0.000119625 7.52639)
(4.1243 -4.15723e-05 5.56023)
(4.12529 0.000241004 5.56375)
(4.12461 0.000116972 5.56203)
(4.12462 -0.000160317 5.56205)
(4.12463 0.000242102 5.56278)
(4.12369 0.000177444 5.56205)
(-7.16919 0.000759602 -4.09769)
(-7.16544 0.000173137 -4.11631)
(-7.16806 -0.000460445 -4.10922)
(-7.16707 -2.45462e-06 -4.10579)
(-7.16413 -0.000774602 -4.1113)
(-7.17286 -0.000827425 -4.10297)
(-0.0440923 0.00342983 0.871534)
(-0.0476193 0.00210008 0.873152)
(-0.0461855 -0.00176841 0.871776)
(-0.0463853 0.000182027 0.871945)
(-0.0464021 -0.00117915 0.872933)
(-0.0501509 -0.00186045 0.867555)
(3.98974 0.000548714 0.445139)
(3.98732 0.000561242 0.450997)
(3.9883 -0.000113909 0.44868)
(3.98838 6.90767e-05 0.448283)
(3.9874 -5.40134e-05 0.44911)
(3.9872 -0.000279634 0.446413)
(-7.06052 -3.38348e-05 -3.9418)
(-7.0573 -0.00049834 -3.96118)
(-7.05923 0.000198538 -3.95317)
(-7.05872 0.000142768 -3.95091)
(-7.05743 0.000195113 -3.95718)
(-7.06137 0.000516487 -3.94612)
(-1.08517 0.00264543 -3.93657)
(-1.0805 0.000857262 -3.94146)
(-1.08251 -0.00101665 -3.94075)
(-1.08356 0.000531214 -3.93931)
(-1.08235 -0.000328945 -3.93931)
(-1.08692 -0.000135047 -3.94159)
(3.05895 0.00077182 -2.93791)
(3.05792 0.000383636 -2.93513)
(3.05774 -0.000376271 -2.93671)
(3.05811 -0.000513968 -2.93738)
(3.05792 0.000716265 -2.93726)
(3.05526 0.00122903 -2.93908)
(-4.94148 0.00022349 -4.34347)
(-4.94245 2.47191e-05 -4.35138)
(-4.9426 0.000332717 -4.34795)
(-4.94132 0.000683677 -4.34807)
(-4.94204 -4.52802e-05 -4.3516)
(-4.94209 -0.000363365 -4.34385)
(-1.55922 0.000812934 -5.82598)
(-1.56019 7.728e-05 -5.82719)
(-1.56096 0.000457235 -5.827)
(-1.56054 0.00183883 -5.82591)
(-1.56157 -0.000735644 -5.82765)
(-1.56054 -0.00152658 -5.82545)
(1.89583 0.000402101 -3.56514)
(1.8915 -3.29483e-07 -3.56513)
(1.893 -0.000291203 -3.56522)
(1.89205 -0.000622077 -3.56641)
(1.88723 0.00113396 -3.56863)
(1.89751 0.00186996 -3.56278)
(-3.81626 -0.000239243 -2.87867)
(-3.81586 -9.18412e-05 -2.87947)
(-3.81641 -0.000188996 -2.87911)
(-3.81563 -0.000373191 -2.87928)
(-3.81521 0.000527911 -2.88064)
(-3.81654 0.000507971 -2.87774)
(-2.02406 9.75092e-05 -7.0318)
(-2.02243 -0.000365247 -7.03389)
(-2.02598 0.000670693 -7.03362)
(-2.01938 0.00249571 -7.03243)
(-2.01273 -0.00186806 -7.03432)
(-2.03273 -0.0033076 -7.03218)
(0.605732 0.000346761 -3.31093)
(0.603512 0.000308124 -3.31532)
(0.604765 -0.000347581 -3.31331)
(0.603099 -0.000248803 -3.31435)
(0.599234 0.000212525 -3.31934)
(0.608838 0.00016152 -3.30791)
(3.34115 -0.00123371 -1.00282)
(3.33582 -0.00142482 -1.00215)
(3.3343 -0.000768865 -1.0009)
(3.34478 -0.00462364 -1.00435)
(3.35034 0.00313144 -1.00557)
(3.32423 0.00586312 -0.996577)
(3.31981 -0.00241467 -2.14491)
(3.28955 -0.00668983 -2.17106)
(3.29747 0.00562273 -2.16497)
(3.3233 -0.00465337 -2.15144)
(3.34047 0.0136419 -2.15132)
(3.29228 0.0256678 -2.1769)
(1.13914 -0.00479159 -2.69909)
(1.12206 -0.00494741 -2.72932)
(1.12501 0.0119756 -2.72522)
(1.14814 0.0214344 -2.7085)
(1.16025 -0.0180876 -2.74675)
(1.11898 -0.02661 -2.72289)
(2.3592 -0.000149154 -0.883844)
(2.36052 -0.000353728 -0.884823)
(2.36061 -0.000485197 -0.884786)
(2.35808 -0.00157351 -0.882966)
(2.35587 0.00166385 -0.880632)
(2.36336 0.00297778 -0.886091)
(2.51417 -0.00417555 -0.9758)
(2.51664 -0.00406372 -0.969509)
(2.52333 0.00230639 -0.96563)
(2.51357 -0.00854041 -0.990753)
(2.51367 0.0096874 -1.00964)
(2.53387 0.0201815 -0.94305)
(-0.226979 -0.00109467 -1.86943)
(-0.224321 -0.000189629 -1.86189)
(-0.223409 0.00514538 -1.85548)
(-0.221937 0.00807405 -1.88349)
(-0.215697 -0.00443869 -1.90151)
(-0.217973 -0.00883014 -1.83192)
(1.8395 -0.000110345 -0.372938)
(1.83948 -0.000273177 -0.37388)
(1.83918 -0.000700656 -0.374008)
(1.83975 -0.00166437 -0.371774)
(1.84009 0.00152309 -0.368889)
(1.83819 0.0027241 -0.376071)
(2.87019 -0.00402672 -1.60291)
(2.86543 -0.00322426 -1.60401)
(2.86865 -0.00537304 -1.60139)
(2.87137 -0.0238728 -1.60992)
(2.87436 0.0217592 -1.61893)
(2.86343 0.0407768 -1.59493)
(0.00805653 -0.000237517 -1.86957)
(0.00341043 0.00102889 -1.87731)
(0.00565546 0.000850539 -1.86489)
(0.00970871 0.000513453 -1.9166)
(0.00981326 0.0020022 -1.97823)
(0.00753251 0.00115722 -1.81292)
(1.14855 -0.000361524 0.0815986)
(1.1487 2.31309e-05 0.0806135)
(1.14851 -0.00113839 0.0803742)
(1.14846 -0.00300426 0.0824738)
(1.14899 0.00282635 0.085318)
(1.14739 0.00445017 0.0777051)
(0.97705 -0.00693696 -2.81898)
(0.978296 -0.00502608 -2.82652)
(0.97856 -0.00780101 -2.80748)
(0.977483 -0.0322223 -2.85201)
(0.978516 0.0290108 -2.89639)
(0.977723 0.0577259 -2.76404)
(-0.162633 -0.00105084 -4.05881)
(-0.16277 -0.000522504 -4.07348)
(-0.16125 0.0017679 -4.0418)
(-0.164251 -0.000382704 -4.11907)
(-0.167166 -0.000646528 -4.2067)
(-0.157571 0.00104323 -3.95851)
(0.285217 -0.000466441 0.376396)
(0.2851 4.62997e-05 0.375328)
(0.285145 -0.000890031 0.375406)
(0.284944 -0.00227947 0.376437)
(0.285329 0.00241631 0.377903)
(0.284815 0.00337008 0.374063)
(-0.687129 -0.00541998 -3.27964)
(-0.688572 -0.00415608 -3.28299)
(-0.690838 -0.00512161 -3.2723)
(-0.689171 -0.0271918 -3.29267)
(-0.691365 0.0228332 -3.32029)
(-0.691589 0.0520966 -3.24381)
(-0.543091 -0.000158718 -4.33474)
(-0.542807 -5.45922e-05 -4.34707)
(-0.543357 0.00018367 -4.32679)
(-0.541567 0.00111421 -4.36508)
(-0.539768 -0.0015557 -4.4245)
(-0.545338 -0.0033111 -4.27134)
(-0.770331 -0.000548231 0.47283)
(-0.770285 -0.000109816 0.471678)
(-0.770148 -0.000552988 0.472269)
(-0.7706 -0.00156455 0.472062)
(-0.770493 0.00158972 0.47034)
(-0.770077 0.00215307 0.474048)
(-1.7014 -0.00199255 -7.49972)
(-1.69985 -0.00261956 -7.50019)
(-1.70646 -0.000172882 -7.49688)
(-1.69548 -0.00656639 -7.50457)
(-1.68356 0.00479341 -7.51237)
(-1.71692 0.0140727 -7.48841)
(-0.379119 -0.000274666 -3.44234)
(-0.379468 -0.000183946 -3.44866)
(-0.378908 0.000144541 -3.44213)
(-0.380549 -7.73009e-05 -3.45344)
(-0.38366 7.88103e-05 -3.47047)
(-0.377092 6.67007e-05 -3.4229)
(0.0785761 7.77705e-06 2.56707)
(0.0785841 1.31908e-05 2.56717)
(0.0785773 2.09892e-05 2.56717)
(0.0785668 2.63643e-05 2.56717)
(0.0785574 2.59226e-05 2.56717)
(0.0785391 1.19837e-05 2.56707)
(0.0391078 5.99512e-06 2.65603)
(0.0391132 9.03977e-06 2.65613)
(0.0391089 1.15304e-05 2.65612)
(0.0391039 1.39808e-05 2.65612)
(0.0390989 1.23741e-05 2.65611)
(0.0390899 4.62266e-06 2.656)
(0.0138706 -1.14223e-06 2.70625)
(0.0138725 -3.91404e-06 2.70635)
(0.0138705 -4.11656e-06 2.70634)
(0.0138684 -3.04821e-06 2.70633)
(0.0138662 -7.59384e-07 2.70632)
(0.0138623 -1.79674e-07 2.7062)
(0.196672 1.02727e-05 2.69154)
(0.196694 3.10504e-05 2.69165)
(0.196668 5.64221e-05 2.69165)
(0.196626 6.6316e-05 2.69163)
(0.196594 6.36439e-05 2.69163)
(0.196523 3.27589e-05 2.69148)
(0.0933921 6.64079e-06 2.71765)
(0.0934054 1.95479e-05 2.71776)
(0.0933901 3.07462e-05 2.71775)
(0.0933719 3.44511e-05 2.71773)
(0.0933551 2.83348e-05 2.71772)