/*--------------------------------*- C++ -*----------------------------------*\
| =========                 |                                                 |
| \\      /  F ield         | OpenFOAM: The Open Source CFD Toolbox           |
|  \\    /   O peration     | Version:  v1612+                                |
|   \\  /    A nd           | Web:      www.OpenFOAM.com                      |
|    \\/     M anipulation  |                                                 |
\*---------------------------------------------------------------------------*/
FoamFile
{
    version     2.0;
    format      ascii;
    class       surfaceScalarField;
    location    "3.5";
    object      alphaPhi;
}
// * * * * * * * * * * * * * * * * * * * * * * * * * * * * * * * * * * * * * //

dimensions      [0 3 -1 0 0 0 0];

internalField   nonuniform List<scalar> 
2916
(
2.82194e-06
0.269955
-0.10476
6.04606e-06
0.269953
-0.104761
6.72252e-06
0.269955
-0.104758
3.46097e-06
0.269956
-0.104762
1.75968e-07
0.269955
-0.104764
0.269952
-0.104754
7.09507e-06
0.530284
-0.0947561
6.70743e-06
0.530286
-0.094754
9.59857e-06
0.530287
-0.0947548
3.63996e-06
0.530288
-0.0947513
-8.01815e-06
0.530288
-0.0947495
0.530282
-0.0947572
9.76585e-06
0.735352
-0.0553444
6.96118e-06
0.735361
-0.0553418
8.15375e-06
0.735359
-0.0553423
3.1707e-06
0.73536
-0.0553404
-8.05821e-06
0.735362
-0.0553389
0.73535
-0.0553438
1.11374e-05
0.903283
-0.041534
7.04049e-06
0.903297
-0.0415302
6.82876e-06
0.903294
-0.0415311
3.06224e-06
0.903295
-0.0415299
-6.7887e-06
0.903297
-0.0415281
0.903282
-0.0415326
1.10136e-05
1.04105
-0.0346346
6.62608e-06
1.04107
-0.0346298
5.23981e-06
1.04107
-0.0346308
2.1513e-06
1.04107
-0.0346302
-5.88622e-06
1.04107
-0.0346283
1.04105
-0.0346328
9.81938e-06
1.14043
-0.0238464
6.20487e-06
1.14045
-0.0238416
3.61889e-06
1.14045
-0.0238422
2.78383e-07
1.14045
-0.0238418
-5.22023e-06
1.14045
-0.0238405
1.14043
-0.0238443
7.18627e-06
1.18099
-0.00151604
5.05911e-06
1.18101
-0.00151196
1.4453e-06
1.18101
-0.00151171
-1.97661e-06
1.18101
-0.00151122
-4.41817e-06
1.18101
-0.00151113
1.18098
-0.0015135
5.34225e-06
1.04672
0.119171
4.61575e-06
1.04674
0.119177
-2.53719e-07
1.04674
0.119178
-4.58613e-06
1.04674
0.119179
-5.43619e-06
1.04674
0.119175
1.04671
0.119176
5.21673e-06
0.641534
0.405256
4.77534e-06
0.64156
0.405257
-1.13182e-06
0.641562
0.405259
-6.91411e-06
0.641558
0.405259
-1.08927e-05
0.641566
0.405249
0.641514
0.405258
6.81437e-06
0.081526
0.560075
4.48246e-06
0.0815524
0.560083
-1.19551e-06
0.0815574
0.560083
-6.70904e-06
0.0815528
0.560084
-1.444e-05
0.0815687
0.560078
0.0814921
0.56008
1.95117e-05
-0.276195
0.357808
4.93559e-06
-0.276166
0.35784
-7.54748e-07
-0.276163
0.357833
-5.31459e-06
-0.276166
0.35783
-1.96173e-05
-0.276146
0.357836
-0.27622
0.3578
-1.82921e-05
-0.276863
-1.94722e-05
-0.276852
-1.33518e-05
-0.276856
-3.99358e-06
-0.276862
2.01495e-05
-0.276857
-0.276887
-6.14523e-07
0.0351537
-8.78276e-07
-2.7051e-07
0.0351523
-8.78186e-07
1.31661e-06
0.0351532
-8.78335e-07
1.32891e-06
0.0351514
-8.78453e-07
-9.87906e-08
0.0351505
-8.78429e-07
0.0351558
-8.78547e-07
-3.3065e-07
0.0240378
-3.3368e-06
-1.58938e-07
0.0240369
-3.3368e-06
6.19926e-07
0.0240365
-3.33692e-06
8.41743e-07
0.024037
-3.33687e-06
1.92238e-07
0.0240377
-3.3366e-06
0.0240382
-3.33691e-06
-1.68891e-08
0.0320736
-1.23863e-07
7.12383e-08
0.0320732
-1.23932e-07
3.74603e-07
0.0320722
-1.23912e-07
5.27274e-07
0.0320732
-1.23908e-07
2.69314e-07
0.0320746
-1.2394e-07
0.0320738
-1.23863e-07
3.69332e-07
0.0620201
-8.64948e-08
2.79164e-07
0.0620214
-8.64449e-08
5.69519e-07
0.0620193
-8.64556e-08
6.35268e-07
0.0620202
-8.64097e-08
-3.26244e-09
0.0620228
-8.63897e-08
0.0620207
-8.65354e-08
1.23642e-06
0.113929
-9.4769e-08
5.62109e-07
0.113933
-9.47676e-08
8.53858e-07
0.11393
-9.47655e-08
8.53792e-07
0.11393
-9.47584e-08
-4.52166e-07
0.113935
-9.47528e-08
0.11393
-9.47603e-08
2.86087e-06
0.192048
-1.24848e-08
9.12325e-07
0.192057
-1.2485e-08
1.0988e-06
0.19205
-1.24841e-08
1.09491e-06
0.192051
-1.24823e-08
-1.25619e-06
0.192058
-1.24803e-08
0.19205
-1.24782e-08
5.02148e-06
0.319531
-7.28843e-10
1.13012e-06
0.319546
-7.28818e-10
1.06648e-06
0.319535
-7.28764e-10
1.02413e-06
0.319536
-7.28657e-10
-2.43818e-06
0.319546
-7.28543e-10
0.319534
-7.28438e-10
8.51163e-06
0.564257
0.00757225
1.48226e-06
0.564283
0.00757322
1.15136e-06
0.564266
0.00757274
9.67671e-07
0.564267
0.00757271
-4.63072e-06
0.56428
0.00757317
0.564264
0.00757249
2.78569e-05
0.947467
0.0757199
6.81901e-06
0.94755
0.0757108
3.81088e-06
0.947508
0.0757147
1.05806e-06
0.947508
0.0757148
-1.58415e-05
0.947535
0.0757121
0.947492
0.0757177
4.11578e-05
0.888993
0.517277
2.2211e-05
0.889161
0.517258
1.12655e-05
0.889103
0.517264
-4.2675e-07
0.889102
0.517263
-2.53347e-05
0.88915
0.517253
0.889032
0.517276
4.67365e-05
0.423063
0.823816
1.74342e-05
0.423239
0.823915
8.02348e-06
0.423194
0.823875
-3.38962e-06
0.423193
0.823874
-2.5864e-05
0.423241
0.823891
0.423101
0.823828
-5.77314e-05
0.146338
-2.37895e-05
0.146434
-7.75909e-06
0.146403
5.03012e-06
0.146399
4.33526e-05
0.146426
0.146338
-3.07537e-12
5.38149e-09
-8.69703e-07
-1.5956e-12
5.38059e-09
-8.69617e-07
-7.26621e-13
5.38076e-09
-8.69765e-07
9.50798e-13
5.38115e-09
-8.69884e-07
3.30961e-12
5.38157e-09
-8.69859e-07
5.38259e-09
-8.69972e-07
-5.29178e-12
2.09885e-08
-3.34865e-06
-2.11162e-12
2.09873e-08
-3.34865e-06
1.13449e-13
2.09869e-08
-3.34877e-06
2.81286e-12
2.09866e-08
-3.34872e-06
6.65221e-12
2.09869e-08
-3.34846e-06
2.09891e-08
-3.34875e-06
-3.6994e-13
3.43698e-09
-1.03368e-07
-1.24033e-13
3.43768e-09
-1.0344e-07
6.12207e-14
3.43731e-09
-1.0342e-07
2.3397e-13
3.43697e-09
-1.03416e-07
4.74036e-13
3.43746e-09
-1.03449e-07
3.43715e-09
-1.03368e-07
-1.91978e-13
2.86747e-09
-8.4493e-08
-7.99371e-14
2.86646e-09
-8.44419e-08
9.20158e-15
2.86658e-09
-8.4453e-08
9.98687e-14
2.86562e-09
-8.44067e-08
2.32696e-13
2.86524e-09
-8.4386e-08
2.86808e-09
-8.45343e-08
-1.48513e-13
3.13797e-09
-9.48145e-08
-8.58397e-14
3.13797e-09
-9.48143e-08
-2.92493e-14
3.13785e-09
-9.4812e-08
3.8718e-14
3.13764e-09
-9.48056e-08
1.32717e-13
3.13754e-09
-9.48003e-08
3.13763e-09
-9.48049e-08
-3.30647e-14
8.29485e-10
-1.0158e-08
-2.96319e-14
8.29487e-10
-1.01583e-08
-1.63045e-14
8.29409e-10
-1.01575e-08
1.62501e-15
8.29286e-10
-1.01558e-08
1.69322e-14
8.29168e-10
-1.01537e-08
8.29038e-10
-1.01514e-08
-2.17515e-15
9.73026e-11
3.30859e-12
-1.81518e-15
9.73292e-11
3.30706e-12
-1.22263e-15
9.73067e-11
3.30478e-12
-2.82234e-16
9.72906e-11
3.30495e-12
1.10399e-15
9.72887e-11
3.30209e-12
9.72563e-11
3.31193e-12
-2.5467e-08
0.00747101
9.70956e-05
-2.68873e-08
0.00747197
9.71027e-05
-2.71555e-08
0.0074715
9.70909e-05
-2.99378e-08
0.00747146
9.70905e-05
3.10474e-08
0.00747188
9.70909e-05
0.00747126
9.70979e-05
9.60674e-07
0.080668
0.0025067
-3.34356e-09
0.0806624
0.00250634
8.35514e-08
0.0806645
0.00250651
1.52808e-07
0.0806646
0.00250652
-3.18895e-07
0.080663
0.00250635
0.0806669
0.00250664
1.52534e-05
0.401514
-0.0257228
4.62851e-06
0.401534
-0.0256628
5.44428e-06
0.401524
-0.0256856
2.32501e-06
0.401527
-0.0256888
-8.7244e-06
0.401532
-0.0256707
0.401513
-0.0256978
0.000149915
0.345783
0.756037
4.01443e-05
0.346099
0.756125
1.41773e-05
0.34599
0.756086
-1.51752e-06
0.345997
0.75607
-6.68227e-05
0.346081
0.756068
0.345857
0.756067
-0.000118581
0.492252
-2.31169e-05
0.49245
-6.64888e-06
0.49239
1.16038e-05
0.492391
8.93803e-05
0.492442
0.492297
-4.97487e-12
-4.76346e-07
-1.5199e-07
-1.01506e-12
-4.76236e-07
-1.51932e-07
-4.90444e-12
-4.76283e-07
-1.51992e-07
-5.91545e-12
-4.76295e-07
-1.52053e-07
1.3957e-12
-4.76254e-07
-1.52054e-07
-4.76427e-07
-1.52094e-07
6.59431e-12
-4.25581e-07
-1.88583e-06
1.21837e-11
-4.25531e-07
-1.88587e-06
-2.44657e-11
-4.25542e-07
-1.88594e-06
-2.12597e-11
-4.25559e-07
-1.88592e-06
3.00234e-11
-4.25551e-07
-1.88575e-06
-4.25612e-07
-1.88589e-06
-2.03425e-13
-8.13087e-08
-4.97944e-07
3.59231e-13
-8.12647e-08
-4.9803e-07
-8.68934e-13
-8.12702e-08
-4.98021e-07
-5.10092e-13
-8.12415e-08
-4.98045e-07
2.53482e-12
-8.12328e-08
-4.98067e-07
-8.13375e-08
-4.97959e-07
-3.06717e-12
-5.89879e-08
-2.97217e-08
-2.36377e-12
-5.89672e-08
-2.96375e-08
-2.46994e-12
-5.89692e-08
-2.96554e-08
-1.5625e-12
-5.89614e-08
-2.95916e-08
1.79212e-12
-5.89576e-08
-2.95714e-08
-5.89924e-08
-2.98042e-08
-6.11739e-12
-2.38836e-08
-5.90438e-08
-4.42957e-12
-2.38751e-08
-5.90493e-08
-3.68553e-12
-2.38759e-08
-5.90455e-08
-2.06541e-12
-2.3872e-08
-5.90428e-08
2.73838e-12
-2.38678e-08
-5.90452e-08
-2.38791e-08
-5.90456e-08
-1.11673e-12
1.78152e-09
-3.11622e-08
-6.7494e-13
1.78165e-09
-3.11548e-08
-5.17456e-13
1.78153e-09
-3.11548e-08
-2.03443e-13
1.78134e-09
-3.11495e-08
7.20505e-13
1.78115e-09
-3.11439e-08
1.78072e-09
-3.1152e-08
7.71503e-16
1.94322e-09
-1.92758e-10
1.73501e-16
1.94319e-09
-1.9241e-10
-2.61769e-17
1.94302e-09
-1.92432e-10
-2.75143e-16
1.94267e-09
-1.92263e-10
-1.28008e-15
1.94233e-09
-1.92045e-10
1.94215e-09
-1.9242e-10
-8.4746e-10
9.71681e-05
-4.77955e-09
8.9806e-10
9.71723e-05
-4.78309e-09
1.28546e-09
9.71619e-05
-4.78209e-09
9.29077e-10
9.71622e-05
-4.7824e-09
1.44786e-09
9.71617e-05
-4.7836e-09
9.71708e-05
-4.78021e-09
5.12856e-08
0.00242784
0.000156255
4.05683e-08
0.00242732
0.000156388
2.87209e-08
0.00242754
0.000156333
9.05955e-09
0.00242755
0.000156312
-3.10515e-08
0.00242733
0.000156337
0.00242768
0.000156355
7.95274e-07
-0.0275094
0.00419005
4.85775e-07
-0.0274537
0.00419501
3.67291e-07
-0.0274744
0.00419291
9.81461e-08
-0.027476
0.00419146
-6.26656e-07
-0.0274572
0.00419098
-0.0274896
0.00419545
0.000104405
0.11474
0.105938
4.22147e-05
0.114987
0.106073
9.43948e-06
0.114896
0.106025
1.77253e-06
0.114875
0.106016
-5.05859e-05
0.114879
0.106088
0.114858
0.105973
-8.40989e-05
0.605984
6.82087e-06
0.606254
2.47212e-05
0.606176
3.2481e-05
0.606166
1.44079e-05
0.606247
0.606077
-4.53429e-46
-7.28179e-39
3.4653e-42
-5.85752e-46
-7.15336e-39
3.40269e-42
-6.3113e-46
-7.08218e-39
3.36799e-42
-5.39255e-46
-7.40631e-39
3.51395e-42
-3.4417e-46
-7.22828e-39
3.43591e-42
-7.09447e-39
3.36285e-42
-1.23077e-42
-1.45737e-35
7.58927e-39
-1.59156e-42
-1.43232e-35
7.45518e-39
-1.78349e-42
-1.41841e-35
7.38082e-39
-1.57582e-42
-1.48611e-35
7.71847e-39
-1.0298e-42
-1.4485e-35
7.5327e-39
-1.42493e-35
7.39281e-39
-1.56336e-39
-1.35579e-32
8.09262e-36
-2.33243e-39
-1.33325e-32
7.95408e-36
-2.868e-39
-1.32065e-32
7.87697e-36
-2.67086e-39
-1.38513e-32
8.25288e-36
-1.82581e-39
-1.34975e-32
8.04366e-36
-1.32958e-32
7.91204e-36
-2.07799e-36
-7.68806e-30
5.45183e-33
-3.24318e-36
-7.56551e-30
5.36123e-33
-3.89427e-36
-7.49626e-30
5.31028e-33
-3.56347e-36
-7.85887e-30
5.56893e-33
-2.4764e-36
-7.6698e-30
5.4258e-33
-7.55348e-30
5.3434e-33
-2.08433e-33
-2.95537e-27
2.52885e-30
-2.70498e-33
-2.9108e-27
2.48732e-30
-2.77447e-33
-2.88512e-27
2.46371e-30
-2.23835e-33
-3.01644e-27
2.58205e-30
-1.42531e-33
-2.9563e-27
2.51909e-30
-2.90378e-27
2.4799e-30
-1.15742e-30
-8.20165e-25
8.26705e-28
-1.1003e-30
-8.08684e-25
8.12911e-28
-7.59972e-31
-8.01873e-25
8.0509e-28
-3.47848e-31
-8.33513e-25
8.41294e-28
-9.3079e-32
-8.2329e-25
8.24227e-28
-8.03972e-25
8.09353e-28
-2.73557e-28
-1.73616e-22
1.92639e-25
-7.3441e-29
-1.71418e-22
1.8934e-25
1.92179e-28
-1.7006e-22
1.8752e-25
3.7317e-28
-1.75193e-22
1.94839e-25
3.3668e-28
-1.75031e-22
1.92469e-25
-1.69409e-22
1.88049e-25
-5.54288e-27
-2.96654e-20
2.98612e-23
9.87805e-26
-2.93357e-20
2.9339e-23
1.94176e-25
-2.91209e-20
2.90796e-23
2.37345e-25
-2.96865e-20
2.99787e-23
1.83591e-25
-3.00513e-20
3.00044e-23
-2.87957e-20
2.91229e-23
1.56905e-23
-4.3598e-18
2.47237e-21
4.05196e-23
-4.31814e-18
2.42645e-21
5.76119e-23
-4.28918e-18
2.41498e-21
6.21332e-23
-4.33358e-18
2.47917e-21
4.60713e-23
-4.43685e-18
2.53322e-21
-4.21899e-18
2.45478e-21
3.4243e-21
-3.33635e-16
-4.07198e-17
6.77421e-21
-3.32479e-16
-4.04365e-17
7.99327e-21
-3.31537e-16
-3.97647e-17
7.48524e-21
-3.31384e-16
-3.96271e-17
6.62267e-21
-3.38429e-16
-4.08248e-17
-3.28316e-16
-3.77497e-17
2.3206e-19
-2.10458e-14
1.23632e-15
2.69868e-19
-2.09655e-14
1.21851e-15
2.55334e-19
-2.08711e-14
1.2064e-15
2.35234e-19
-2.08401e-14
1.22751e-15
1.98788e-19
-2.14754e-14
1.3225e-15
-2.05485e-14
1.17072e-15
-1.65799e-17
-7.42422e-14
-3.14157e-17
-7.37947e-14
-3.7828e-17
-7.34369e-14
-4.07997e-17
-7.35774e-14
-3.226e-17
-7.59929e-14
-7.24013e-14
-2.43615e-45
-3.65936e-38
3.4771e-41
-3.13968e-45
-3.60732e-38
3.42819e-41
-3.17774e-45
-3.54162e-38
3.36438e-41
-2.64384e-45
-3.54209e-38
3.3581e-41
-1.56055e-45
-3.47755e-38
3.29685e-41
-3.31271e-38
3.13054e-41
-8.09825e-42
-7.60954e-35
7.62593e-38
-9.50073e-42
-7.49976e-35
7.51692e-38
-9.33397e-42
-7.36718e-35
7.37968e-38
-7.64364e-42
-7.38248e-35
7.38038e-38
-4.48166e-42
-7.25688e-35
7.24559e-38
-6.93098e-35
6.90169e-38
-1.39621e-38
-7.73933e-32
8.26904e-35
-1.62333e-38
-7.62681e-32
8.14948e-35
-1.5419e-38
-7.49789e-32
8.00518e-35
-1.23677e-38
-7.52593e-32
8.0215e-35
-7.46785e-39
-7.42084e-32
7.88462e-35
-7.09798e-32
7.52984e-35
-1.4545e-35
-5.19686e-29
5.86261e-32
-1.56189e-35
-5.12148e-29
5.77664e-32
-1.3317e-35
-5.04026e-29
5.67845e-32
-9.99878e-36
-5.0645e-29
5.69907e-32
-6.32543e-36
-5.0207e-29
5.61874e-32
-4.80101e-29
5.37321e-32
-7.27688e-33
-2.63948e-26
3.06249e-29
-4.60061e-33
-2.60178e-26
3.0163e-29
-2.50222e-35
-2.56389e-26
2.96751e-29
2.55366e-33
-2.57703e-26
2.98103e-29
2.23483e-33
-2.57396e-26
2.95453e-29
-2.45607e-26
2.82445e-29
-7.88085e-31
-1.10197e-23
1.26151e-26
4.96252e-30
-1.08672e-23
1.24157e-26
1.01197e-29
-1.07252e-23
1.22266e-26
1.17631e-29
-1.07771e-23
1.22846e-26
8.61977e-30
-1.0859e-23
1.22675e-26
-1.03258e-23
1.17045e-26
6.30671e-27
-3.99732e-21
4.29081e-24
1.13359e-26
-3.94444e-21
4.21839e-24
1.38715e-26
-3.89927e-21
4.15898e-24
1.35179e-26
-3.91647e-21
4.1783e-24
9.34165e-27
-3.98121e-21
4.21147e-24
-3.77168e-21
4.00791e-24
5.04067e-24
-1.30358e-18
1.16565e-21
7.88763e-24
-1.28764e-18
1.14545e-21
9.02183e-24
-1.27515e-18
1.13173e-21
8.43478e-24
-1.28064e-18
1.13794e-21
5.6588e-24
-1.31207e-18
1.15928e-21
-1.23965e-18
1.10194e-21
2.60645e-21
-3.85441e-16
2.63413e-18
3.23332e-21
-3.81265e-16
2.59192e-18
3.06623e-21
-3.78252e-16
2.56995e-18
2.46687e-21
-3.80046e-16
2.59926e-18
1.52908e-21
-3.91834e-16
2.72984e-18
-3.69987e-16
2.54918e-18
9.60648e-19
-1.58534e-15
1.3233e-16
1.14543e-18
-1.5627e-15
1.33354e-16
1.14192e-18
-1.55145e-15
1.364e-16
1.03919e-18
-1.57255e-15
1.41467e-16
6.25231e-19
-1.63272e-15
1.50457e-16
-1.5272e-15
1.48754e-16
-3.19668e-17
-1.22274e-11
1.21878e-11
-3.418e-16
-1.21573e-11
1.21183e-11
-6.19805e-16
-1.20797e-11
1.20408e-11
-6.42205e-16
-1.20926e-11
1.20534e-11
-8.10161e-17
-1.25665e-11
1.25254e-11
-1.17886e-11
1.17499e-11
-3.50069e-14
-1.68334e-11
-5.31836e-14
-1.6765e-11
-5.7489e-14
-1.66824e-11
-6.57286e-14
-1.66763e-11
-3.76288e-14
-1.73403e-11
-1.63724e-11
-2.6934e-40
-7.65114e-33
1.14689e-35
-3.89594e-40
-7.61455e-33
1.14077e-35
-4.0071e-40
-7.6073e-33
1.13934e-35
-3.27446e-40
-7.57917e-33
1.13636e-35
-1.94061e-40
-7.67757e-33
1.15316e-35
-7.54214e-33
1.12674e-35
-1.19509e-36
-1.46989e-29
2.46973e-32
-1.15582e-36
-1.46365e-29
2.45779e-32
-9.37991e-37
-1.46266e-29
2.4554e-32
-6.05058e-37
-1.4556e-29
2.44629e-32
-2.52879e-37
-1.47184e-29
2.47804e-32
-1.45396e-29
2.4343e-32
-1.91784e-33
-1.25613e-26
2.50015e-29
-1.51501e-33
-1.25147e-26
2.48944e-29
-8.42667e-34
-1.25092e-26
2.48773e-29
-1.92805e-34
-1.2436e-26
2.4757e-29
2.05023e-34
-1.25546e-26
2.50329e-29
-1.24672e-26
2.47283e-29
-1.31441e-30
-6.09799e-24
1.50725e-26
-6.14031e-31
-6.07807e-24
1.50147e-26
3.43225e-31
-6.07595e-24
1.50072e-26
9.44529e-31
-6.03646e-24
1.49185e-26
9.56194e-31
-6.0887e-24
1.506e-26
-6.06873e-24
1.49542e-26
-2.13686e-28
-1.81146e-21
5.73605e-24
5.06177e-28
-1.80589e-21
5.71506e-24
1.24691e-27
-1.80479e-21
5.71196e-24
1.56546e-27
-1.79364e-21
5.67414e-24
1.26796e-27
-1.81075e-21
5.72275e-24
-1.80441e-21
5.7037e-24
2.21485e-25
-3.42161e-19
1.37619e-21
6.2483e-25
-3.41006e-19
1.37081e-21
9.25419e-25
-3.40467e-19
1.36951e-21
9.78867e-25
-3.39141e-19
1.36086e-21
7.22549e-25
-3.43868e-19
1.37384e-21
-3.39854e-19
1.36922e-21
1.0463e-22
-4.41303e-17
2.0796e-19
2.10079e-22
-4.3941e-17
2.06999e-19
2.73976e-22
-4.37847e-17
2.06597e-19
2.71368e-22
-4.38296e-17
2.058e-19
1.90077e-22
-4.48443e-17
2.08733e-19
-4.34721e-17
2.06425e-19
2.22086e-20
-6.47089e-17
2.00946e-17
3.5014e-20
-6.44722e-17
1.99829e-17
3.89701e-20
-6.43178e-17
1.99115e-17
3.41763e-20
-6.41283e-17
1.99435e-17
2.1662e-20
-6.53059e-17
2.0426e-17
-6.42203e-17
1.98312e-17
3.03389e-18
2.93399e-16
1.74134e-15
4.2512e-18
2.26447e-16
1.73187e-15
4.39334e-18
1.60198e-16
1.72804e-15
3.37306e-18
2.87813e-16
1.73426e-15
1.77105e-18
8.06781e-16
1.79139e-15
-2.2019e-17
1.7337e-15
1.9946e-16
-4.42613e-11
1.71438e-12
-4.1137e-17
-4.40739e-11
1.71863e-12
-3.157e-16
-4.38163e-11
1.72773e-12
-6.93427e-16
-4.41664e-11
1.76276e-12
-6.71658e-16
-4.59528e-11
1.83745e-12
-4.27106e-11
1.76457e-12
-1.94433e-13
-5.38428e-09
-9.26851e-09
-3.11406e-13
-5.37038e-09
-9.22327e-09
-3.9734e-13
-5.34525e-09
-9.18583e-09
-4.05559e-13
-5.3442e-09
-9.24252e-09
-2.20492e-13
-5.50915e-09
-9.57214e-09
-5.26026e-09
-9.08172e-09
-9.39925e-12
-3.73955e-07
-6.44172e-12
-3.74859e-07
2.1111e-12
-3.7595e-07
-9.17643e-12
-3.71935e-07
-2.77176e-11
-3.64229e-07
-3.8427e-07
-1.14713e-42
-4.5061e-35
9.80866e-38
-1.46062e-42
-4.4785e-35
9.74731e-38
-1.17926e-42
-4.47163e-35
9.73049e-38
-7.41254e-43
-4.46374e-35
9.71797e-38
-3.67556e-43
-4.53649e-35
9.88335e-38
-4.42149e-35
9.59724e-38
-5.24925e-39
-8.8355e-32
2.1203e-34
-2.74906e-39
-8.77935e-32
2.10719e-34
-3.77474e-40
-8.76698e-32
2.10393e-34
1.36536e-39
-8.753e-32
2.10023e-34
1.80845e-39
-8.89909e-32
2.13448e-34
-8.69314e-32
2.08041e-34
-4.5052e-36
-8.2456e-29
2.20991e-31
2.74266e-36
-8.18598e-29
2.19575e-31
8.7019e-36
-8.17424e-29
2.19265e-31
1.12354e-35
-8.17548e-29
2.18918e-31
9.38295e-36
-8.33663e-29
2.22576e-31
-8.12915e-29
2.17428e-31
8.04153e-33
-5.30829e-26
1.48999e-28
1.94384e-32
-5.26047e-26
1.4791e-28
2.63661e-32
-5.25136e-26
1.47696e-28
2.69199e-32
-5.27525e-26
1.47719e-28
1.97701e-32
-5.4177e-26
1.50633e-28
-5.2353e-26
1.46885e-28
1.92569e-29
-3.07456e-23
7.90821e-26
2.97357e-29
-3.04107e-23
7.83546e-26
3.33818e-29
-3.03434e-23
7.82151e-26
3.07034e-29
-3.06546e-23
7.85712e-26
2.09114e-29
-3.17615e-23
8.06952e-26
-3.02901e-23
7.79826e-26
2.1591e-26
-1.81026e-20
4.0815e-23
2.72346e-26
-1.78948e-20
4.03568e-23
2.61035e-26
-1.78495e-20
4.02645e-23
2.12311e-26
-1.80916e-20
4.06786e-23
1.28198e-26
-1.88337e-20
4.21517e-23
-1.78285e-20
4.02068e-23
1.70977e-23
-1.05772e-17
1.36623e-18
1.60275e-23
-1.04625e-17
1.35222e-18
1.05479e-23
-1.04346e-17
1.34872e-18
4.9947e-24
-1.05808e-17
1.35704e-18
8.63447e-25
-1.10218e-17
1.42022e-18
-1.04291e-17
1.34895e-18
2.79762e-21
-3.34193e-15
3.19362e-15
-2.24584e-21
-3.31907e-15
3.17056e-15
-8.11332e-21
-3.31306e-15
3.16461e-15
-1.09152e-20
-3.33736e-15
3.18861e-15
-7.6977e-21
-3.43867e-15
3.29039e-15
-3.31453e-15
3.16612e-15
-8.60235e-18
-9.89464e-13
9.84856e-13
-2.16864e-17
-9.91131e-13
9.8657e-13
-3.21238e-17
-9.92009e-13
9.87456e-13
-3.36143e-17
-9.83953e-13
9.79333e-13
-1.66242e-17
-9.89915e-13
9.85112e-13
-9.95272e-13
9.90695e-13
-4.94932e-14
-1.97554e-10
1.95992e-10
-1.11376e-13
-1.97898e-10
1.96372e-10
-1.55149e-13
-1.98063e-10
1.96536e-10
-1.60748e-13
-1.97057e-10
1.95502e-10
-5.15547e-14
-1.99188e-10
1.97487e-10
-1.99021e-10
1.97433e-10
4.23852e-12
-1.51213e-06
-3.78649e-07
-1.02882e-10
-1.50619e-06
-3.76142e-07
-3.32565e-10
-1.49892e-06
-3.7442e-07
-2.43842e-10
-1.50526e-06
-3.79359e-07
3.93631e-10
-1.55645e-06
-3.86749e-07
-1.47632e-06
-3.80356e-07
2.74382e-09
-6.7883e-05
2.12973e-09
-6.78022e-05
-1.52183e-09
-6.76186e-05
-6.17272e-09
-6.73984e-05
3.70247e-09
-6.80477e-05
-6.76207e-05
2.02651e-12
-6.225e-09
3.63007e-09
4.31476e-13
-6.21875e-09
3.63909e-09
-8.8653e-13
-6.22199e-09
3.63743e-09
-1.73609e-12
-6.22205e-09
3.63962e-09
-2.54121e-12
-6.21717e-09
3.64607e-09
-6.22916e-09
3.63074e-09
4.66327e-15
6.92026e-16
-6.22501e-09
1.58778e-15
7.58002e-16
-6.21875e-09
-7.18392e-17
7.78053e-16
-6.22199e-09
-1.50457e-15
7.60753e-16
-6.22205e-09
-4.67376e-15
7.56269e-16
-6.21716e-09
7.74335e-16
-6.22917e-09
-1.79844e-20
-7.6339e-18
-7.68688e-21
-8.36042e-18
-1.55219e-21
-8.58166e-18
5.20171e-21
-8.39055e-18
1.97866e-20
-8.34056e-18
-8.54091e-18
6.65854e-11
-5.24658e-07
2.90876e-07
2.08589e-11
-5.24559e-07
2.90868e-07
-1.18161e-11
-5.2466e-07
2.90881e-07
-3.87487e-11
-5.24629e-07
2.90877e-07
-7.80561e-11
-5.24399e-07
2.90856e-07
-5.24705e-07
2.90884e-07
2.02032e-11
3.69363e-15
-3.82148e-15
6.06641e-12
4.04555e-15
-3.70921e-15
-2.37914e-12
4.15282e-15
-3.71085e-15
-1.05895e-11
4.06044e-15
-3.69145e-15
-2.59401e-11
4.0365e-15
-3.65565e-15
4.1333e-15
-3.74565e-15
-9.57441e-20
-5.72297e-17
-3.82954e-20
-6.26721e-17
-2.33878e-21
-6.43331e-17
3.77506e-20
-6.29003e-17
1.2159e-19
-6.2525e-17
-6.40375e-17
1.3617e-11
-2.26281e-13
-2.68566e-08
2.05217e-12
-2.20173e-13
-2.68592e-08
-3.97971e-12
-2.20043e-13
-2.6859e-08
-1.13689e-11
-2.18957e-13
-2.68576e-08
-2.34303e-11
-2.17295e-13
-2.6858e-08
-2.21683e-13
-2.68557e-08
1.68448e-19
2.40255e-14
-2.54128e-13
3.76086e-20
2.63155e-14
-2.50198e-13
-3.82715e-20
2.70125e-14
-2.50767e-13
-1.07567e-19
2.64116e-14
-2.4906e-13
-2.39997e-19
2.62563e-14
-2.47207e-13
2.68836e-14
-2.52313e-13
-5.97726e-19
-4.59141e-16
-1.6463e-19
-5.0286e-16
9.75679e-20
-5.1617e-16
3.33481e-19
-5.0468e-16
8.36496e-19
-5.01689e-16
-5.13752e-16
1.92478e-13
-3.05259e-10
-6.12134e-09
3.58666e-14
-3.00514e-10
-6.13216e-09
-5.39523e-14
-3.01204e-10
-6.12971e-09
-2.09431e-13
-2.99176e-10
-6.13772e-09
-4.36897e-13
-2.96972e-10
-6.14015e-09
-3.03147e-10
-6.11018e-09
2.13522e-16
1.74803e-14
-3.05531e-10
4.74466e-17
1.91452e-14
-3.00783e-10
-3.8384e-17
1.96516e-14
-3.01474e-10
-1.11663e-16
1.92135e-14
-2.99444e-10
-2.70906e-16
1.91004e-14
-2.97238e-10
1.95565e-14
-3.0342e-10
-4.13075e-19
-3.42622e-17
-9.38981e-20
-3.7559e-17
7.82588e-20
-3.85396e-17
2.03972e-19
-3.76759e-17
4.99957e-19
-3.74621e-17
-3.83227e-17
9.67707e-13
-1.06381e-08
1.41962e-08
4.4725e-13
-1.06423e-08
1.41856e-08
1.06176e-13
-1.06391e-08
1.41875e-08
-6.99496e-13
-1.0639e-08
1.41837e-08
-1.78578e-12
-1.06359e-08
1.41791e-08
-1.06219e-08
1.41918e-08
1.52596e-13
9.55846e-16
-3.24922e-14
5.64454e-14
1.04734e-15
-3.21731e-14
1.03962e-14
1.07559e-15
-3.22191e-14
-3.28321e-14
1.05144e-15
-3.20832e-14
-1.3824e-13
1.04498e-15
-3.19305e-14
1.06407e-15
-3.23605e-14
-2.35482e-20
1.99833e-19
-7.07045e-21
2.18789e-19
1.80042e-21
2.24693e-19
8.63246e-21
2.19664e-19
2.5042e-20
2.18284e-19
2.21924e-19
6.66019e-13
-9.01133e-12
2.07002e-10
2.22114e-13
-9.01464e-12
2.06646e-10
-1.4984e-13
-9.01378e-12
2.06667e-10
-2.67159e-13
-9.01456e-12
2.06466e-10
-4.94857e-13
-9.01395e-12
2.06277e-10
-9.01414e-12
2.06703e-10
5.96529e-18
9.26069e-18
-9.04384e-12
2.54347e-18
1.01421e-17
-9.04682e-12
7.73854e-19
1.0415e-17
-9.04601e-12
-8.70343e-19
1.01814e-17
-9.04665e-12
-5.32422e-18
1.01178e-17
-9.04588e-12
1.0283e-17
-9.04651e-12
-2.00184e-22
9.26577e-20
-5.16274e-23
9.15792e-20
4.72099e-23
9.22752e-20
1.09972e-22
9.28477e-20
2.35555e-22
9.24576e-20
9.51822e-20
1.99499e-15
-3.80359e-11
-3.71687e-11
1.51558e-15
-3.80324e-11
-3.70652e-11
9.24619e-16
-3.8031e-11
-3.70732e-11
4.85487e-16
-3.80267e-11
-3.70287e-11
-2.90267e-16
-3.80175e-11
-3.69684e-11
-3.80288e-11
-3.70769e-11
4.7252e-16
1.57409e-18
-4.70802e-11
1.21394e-16
1.55617e-18
-4.70788e-11
4.27846e-17
1.56783e-18
-4.70769e-11
-3.85274e-16
1.57745e-18
-4.70729e-11
-1.25488e-15
1.57089e-18
-4.70625e-11
1.61687e-18
-4.70766e-11
-3.63738e-23
-6.69686e-21
2.10242e-24
-6.6534e-21
1.92632e-23
-6.67103e-21
2.09904e-23
-6.6865e-21
3.1864e-23
-6.65318e-21
-6.86082e-21
5.7352e-15
-6.74695e-09
2.06566e-09
1.15184e-14
-6.74951e-09
2.06562e-09
1.37548e-14
-6.74868e-09
2.06554e-09
5.82288e-15
-6.74902e-09
2.06552e-09
-5.64033e-15
-6.7496e-09
2.06509e-09
-6.74804e-09
2.06668e-09
5.00255e-14
-1.78289e-11
-6.82651e-09
-1.01568e-13
-1.78142e-11
-6.82886e-09
-1.40328e-13
-1.78232e-11
-6.82816e-09
-1.01135e-13
-1.78335e-11
-6.82859e-09
-4.3978e-14
-1.78301e-11
-6.82917e-09
-1.78333e-11
-6.82761e-09
5.40879e-17
-1.78235e-11
-2.0742e-17
-1.78086e-11
-4.03939e-17
-1.78176e-11
-1.15315e-17
-1.7828e-11
-1.16844e-17
-1.78246e-11
-1.78277e-11
2.54264e-09
5.89342e-06
0.000150609
2.14845e-09
5.88934e-06
0.000150747
3.17082e-09
5.89024e-06
0.00015069
2.32425e-09
5.88762e-06
0.000150675
-8.321e-10
5.87551e-06
0.000150716
5.90828e-06
0.000150692
4.06691e-11
3.55246e-08
5.83657e-06
-2.25172e-11
3.54241e-08
5.83268e-06
-1.32304e-11
3.54707e-08
5.83346e-06
3.62107e-11
3.55126e-08
5.83077e-06
9.7293e-11
3.54847e-08
5.81871e-06
3.55293e-08
5.85155e-06
-1.85393e-14
3.55068e-08
-1.47545e-13
3.54064e-08
-1.67811e-13
3.54529e-08
-7.00572e-14
3.54947e-08
7.00767e-14
3.54667e-08
3.55115e-08
1.40966e-07
0.000340954
0.00399861
3.06438e-08
0.000341457
0.00400347
4.68992e-08
0.00034113
0.00400151
6.17078e-08
0.000339762
0.00400141
1.72716e-08
0.000336371
0.00400442
0.000345924
0.00399929
9.51313e-09
5.84697e-05
0.000287881
-2.61182e-09
5.83867e-05
0.000288485
-1.0142e-08
5.84048e-05
0.000288135
3.88785e-09
5.83758e-05
0.000286773
6.14428e-08
5.82393e-05
0.000283462
5.85548e-05
0.000292852
8.47479e-10
5.34875e-05
1.58229e-10
5.34114e-05
-2.25849e-10
5.34267e-05
5.67489e-11
5.33959e-05
1.26186e-09
5.32608e-05
5.35757e-05
1.21152e-06
0.00208594
0.106737
7.1575e-07
0.00208528
0.106875
-2.84721e-07
0.00208501
0.106829
9.09337e-08
0.00208499
0.106817
1.34958e-06
0.00208363
0.106892
0.00208634
0.106774
1.00745e-06
0.0126247
-0.0252687
1.67142e-06
0.012614
-0.0252668
1.21788e-06
0.012615
-0.0252604
-3.68556e-07
0.0126139
-0.025261
-3.50506e-06
0.0125954
-0.0252373
0.0126372
-0.0252835
-5.21281e-07
4.11457e-21
-2.24411e-07
5.18499e-21
-2.09569e-07
5.60505e-21
-1.89234e-07
5.74846e-21
6.9343e-07
5.57671e-21
3.96017e-21
2.52665e-05
0.202255
0.503786
5.06762e-05
0.20253
0.503906
1.58151e-05
0.202432
0.503939
1.8807e-05
0.202388
0.503905
-1.01462e-05
0.202405
0.504129
0.202386
0.503799
2.99767e-05
1.28389e-20
0.226444
3.63974e-05
1.62065e-20
0.226611
6.98509e-05
1.75076e-20
0.226554
-2.46196e-06
1.79383e-20
0.226578
-0.000196373
1.74059e-20
0.226718
1.23424e-20
0.226414
1.18241e-23
-1.13854e-20
1.87583e-23
-1.4391e-20
2.66704e-23
-1.55377e-20
1.91235e-23
-1.59046e-20
-2.18817e-23
-1.53906e-20
-1.096e-20
4.12684e-06
-0.00182945
-0.0108609
0.000297071
3.28937e-05
-0.00185615
-0.0109531
0.000296874
0.000101585
-0.00189283
-0.0110607
0.000295028
8.71277e-06
-0.00169102
-0.0100195
0.000298876
0.000163887
-0.0018969
-0.0107949
0.000286597
-0.0016175
-0.00977084
0.000302294
1.68991e-05
0.0176606
-0.0825999
-0.000227212
-2.98444e-05
0.0177941
-0.0831035
-0.000227607
-9.65922e-05
0.0179422
-0.0841924
-0.000227869
-1.82827e-06
0.0172915
-0.0805375
-0.000227832
-0.00014179
0.0175533
-0.0802417
-0.000221609
0.0172734
-0.0829166
-0.000232917
6.52993e-05
-0.0760862
-1.14537e-06
-2.147e-05
-0.0766307
-1.15667e-06
-1.89597e-05
-0.0767854
-1.16153e-06
-2.02577e-05
-0.0756582
-1.14819e-06
-0.000176313
-0.0751316
-1.12645e-06
-0.0763129
-1.17856e-06
-3.82434e-05
-0.18792
-0.0372196
-0.000130765
-0.188224
-0.0371678
-0.000234041
-0.188593
-0.0371525
-3.07831e-05
-0.187328
-0.0372519
0.00105317
-0.187166
-0.0375312
-0.188803
-0.0376232
1.95213e-05
0.0974355
-0.330556
-0.000414054
0.0976814
-0.330473
-0.00215951
0.097891
-0.330738
-0.000216375
0.0972803
-0.33121
0.00223266
0.0961569
-0.334452
0.0989393
-0.330007
7.31864e-05
2.56148e-24
-0.000110855
3.24245e-24
-0.000440234
3.48717e-24
-0.000328139
3.43005e-25
0.00117736
-1.73567e-20
-7.35011e-18
-1.52114e-05
-0.232018
-0.101453
3.97575e-05
-0.231914
-0.101255
0.000108209
-0.232025
-0.101226
0.000294391
-0.232322
-0.102736
4.26937e-05
-0.232958
-0.104428
-0.232877
-0.100844
-0.000123413
8.49743e-25
-0.410922
-0.000455862
1.0739e-24
-0.411283
-0.00146688
1.15385e-24
-0.411393
-0.000356884
1.14418e-25
-0.409882
0.0023027
-6.3331e-20
-0.406787
-2.5574e-17
-0.41349
-4.0173e-30
2.39383e-23
1.28197e-27
3.02623e-23
4.56383e-28
3.25784e-23
-3.02661e-23
3.34673e-23
-3.55751e-20
3.2232e-23
2.24696e-23
0.000200161
-0.226193
-0.41295
0.000432868
-0.226145
-0.41295
0.000871368
-0.226106
-0.412963
0.000599357
-0.226825
-0.41334
-0.000835398
-0.227138
-0.414063
-0.226131
-0.412732
-6.63346e-05
1.2172e-23
-0.310512
-3.83217e-05
1.53768e-23
-0.310595
5.43154e-05
1.65714e-23
-0.310458
-4.32692e-05
1.69979e-23
-0.311256
-0.000511122
1.61945e-23
-0.311965
1.17193e-23
-0.309403
1.2248e-26
2.01936e-22
4.89308e-26
2.55092e-22
8.36006e-26
2.74908e-22
2.5715e-26
2.82543e-22
2.23788e-25
2.71535e-22
1.92313e-22
0.000199143
-0.0642787
-0.360081
0.000299706
-0.0642394
-0.360025
0.000467601
-0.0643036
-0.360044
0.000231831
-0.0640322
-0.36029
-0.000689316
-0.0634671
-0.360875
-0.0649411
-0.359691
-1.02027e-05
4.35273e-23
-0.376094
6.05197e-06
5.49812e-23
-0.376291
-0.000109542
5.92528e-23
-0.376205
-2.11216e-05
6.06307e-23
-0.376318
0.000456678
5.82393e-23
-0.376896
4.18192e-23
-0.375458
1.99967e-25
1.79495e-21
3.52651e-25
2.26813e-21
2.83399e-25
2.44754e-21
8.6171e-25
2.50694e-21
6.75958e-25
2.42066e-21
1.72307e-21
6.82754e-05
0.137011
0.000136358
0.137184
0.00030614
0.137092
0.00010838
0.137174
-0.000735279
0.137488
0.136747
2.363e-05
3.16607e-22
1.11154e-05
3.99362e-22
-8.39065e-05
4.30953e-22
7.88928e-06
4.41907e-22
0.000336202
4.29755e-22
3.02571e-22
1.40461e-24
1.75133e-24
1.61587e-24
3.51104e-24
6.78186e-25
-1.38529e-37
2.60122e-31
-9.92719e-29
-6.09223e-37
2.60065e-31
-9.92854e-29
-8.58699e-37
2.60119e-31
-9.93077e-29
-9.37518e-37
2.59825e-31
-9.91378e-29
-9.37826e-37
2.63358e-31
-1.00437e-28
2.59008e-31
-9.89202e-29
-2.74657e-39
1.67637e-33
-3.81786e-31
-6.03418e-39
1.67549e-33
-3.81698e-31
-7.6362e-39
1.67581e-33
-3.81774e-31
-8.37386e-39
1.67459e-33
-3.81329e-31
-7.65703e-39
1.69796e-33
-3.86523e-31
1.66807e-33
-3.80128e-31
-1.19476e-41
-1.70605e-33
-1.78748e-41
-1.70581e-33
-2.34573e-41
-1.70552e-33
-2.71871e-41
-1.70688e-33
-2.47533e-41
-1.73573e-33
-1.6943e-33
-4.80337e-33
7.17827e-28
-2.36487e-25
1.3304e-33
7.17919e-28
-2.36611e-25
5.1612e-33
7.18092e-28
-2.36671e-25
6.59252e-33
7.16876e-28
-2.36074e-25
5.93262e-33