/*--------------------------------*- C++ -*----------------------------------*\
| =========                 |                                                 |
| \\      /  F ield         | OpenFOAM: The Open Source CFD Toolbox           |
|  \\    /   O peration     | Version:  v1612+                                |
|   \\  /    A nd           | Web:      www.OpenFOAM.com                      |
|    \\/     M anipulation  |                                                 |
\*---------------------------------------------------------------------------*/
FoamFile
{
    version     2.0;
    format      ascii;
    class       volScalarField;
    location    "3.5";
    object      p_rgh;
}
// * * * * * * * * * * * * * * * * * * * * * * * * * * * * * * * * * * * * * //

dimensions      [1 -1 -2 0 0 0 0];

internalField   nonuniform List<scalar> 
1116
(
7646.79
7646.75
7646.76
7646.76
7646.74
7646.76
7488.98
7488.93
7488.94
7488.94
7488.92
7488.95
7606.95
7606.91
7606.92
7606.93
7606.91
7606.92
8071.57
8071.52
8071.54
8071.54
8071.53
8071.54
8688.06
8688.02
8688.03
8688.04
8688.02
8688.05
9399.51
9399.46
9399.47
9399.48
9399.47
9399.5
10339.4
10339.3
10339.3
10339.3
10339.3
10339.3
12001.3
12001.2
12001.2
12001.2
12001.2
12001.3
14681.3
14681.3
14681.3
14681.3
14681.3
14681.3
18592.6
18592.6
18592.6
18592.6
18592.6
18592.6
22219.4
22219.3
22219.3
22219.3
22219.3
22219.4
24205.5
24205.5
24205.5
24205.5
24205.5
24205.5
1004.8
1004.77
1004.78
1004.75
1004.74
1004.83
449.443
449.421
449.419
449.424
449.428
449.45
366.998
366.993
366.984
366.998
367.011
366.996
517.973
517.972
517.962
517.975
517.99
517.973
839.93
839.93
839.921
839.933
839.95
839.935
1318.08
1318.07
1318.07
1318.08
1318.1
1318.09
1922.86
1922.85
1922.84
1922.86
1922.88
1922.87
2926.85
2926.77
2926.79
2926.8
2926.81
2926.85
6955.83
6955.59
6955.64
6955.64
6955.6
6955.82
17584.7
17584.3
17584.4
17584.4
17584.3
17584.6
24273.6
24273.6
24273.6
24273.6
24273.5
24273.6
26810.7
26810.7
26810.7
26810.7
26810.7
26810.6
5.00512
5.00544
5.00547
5.00559
5.00568
5.00533
5.54353
5.5438
5.54384
5.54387
5.54391
5.54372
5.99283
5.99297
5.99297
5.99291
5.99288
5.99284
7.69975
7.69983
7.69984
7.69979
7.69977
7.69974
9.26754
9.26757
9.26763
9.26767
9.26771
9.26777
11.0642
11.0643
11.0644
11.0645
11.0646
11.0647
19.6101
19.6101
19.6102
19.6102
19.6102
19.6103
40.7342
40.7326
40.7319
40.7312
40.7312
40.7314
129.351
129.338
129.343
129.342
129.34
129.347
3483.6
3481.98
3482.65
3482.64
3482.22
3483.07
24011.8
24010.6
24011.1
24010.9
24010.5
24011.5
31744.7
31744.9
31744.8
31744.9
31744.9
31744.8
4.74745
4.74762
4.74771
4.74784
4.7479
4.74776
5.45461
5.45475
5.45479
5.45484
5.45488
5.45476
6.01971
6.01978
6.01978
6.01973
6.0197
6.01963
7.97461
7.97465
7.97467
7.97464
7.97463
7.97455
10.2196
10.2197
10.2198
10.2199
10.2199
10.2198
11.343
11.3434
11.3438
11.3439
11.3439
11.3437
12.9857
12.9873
12.9881
12.9885
12.9888
12.9865
11.1166
11.1153
11.1145
11.1139
11.1138
11.116
15.604
15.608
15.6071
15.6066
15.6074
15.6064
66.117
66.1128
66.1128
66.1123
66.1103
66.1127
15094.9
15090.8
15092.1
15092.3
15091.2
15093.3
36623.5
36623.4
36623.4
36623.4
36623.3
36623.4
3.05903
3.05903
3.05905
3.05907
3.05909
3.0591
3.2068
3.20681
3.20683
3.20685
3.20687
3.20689
3.50765
3.50767
3.50769
3.50771
3.50773
3.50774
3.97185
3.97186
3.97188
3.97188
3.97189
3.97189
4.6132
4.6132
4.61319
4.61315
4.6131
4.61306
5.44543
5.4454
5.44532
5.44521
5.4451
5.44501
6.47594
6.47586
6.47573
6.47559
6.47546
6.47537
7.69687
7.69678
7.69668
7.6966
7.69656
7.69656
9.07211
9.07206
9.07214
9.07222
9.07229
9.07256
10.5127
10.5123
10.5131
10.5133
10.5123
10.5146
11.8756
11.8758
11.8763
11.8768
11.8772
11.8776
12.9248
12.9251
12.9257
12.9263
12.9269
12.9276
2.9135
2.91351
2.91352
2.91354
2.91355
2.91356
3.0613
3.06132
3.06133
3.06134
3.06136
3.06136
3.36142
3.36143
3.36143
3.36144
3.36144
3.36144
3.82112
3.82111
3.82109
3.82108
3.82107
3.82105
4.44916
4.44913
4.44908
4.44904
4.449
4.44897
5.25582
5.25578
5.25573
5.25569
5.25566
5.25563
6.25002
6.25003
6.25006
6.25011
6.25015
6.25018
7.43275
7.43289
7.43308
7.43327
7.43344
7.43352
8.78926
8.78968
8.79011
8.79054
8.79089
8.79098
10.2739
10.275
10.2755
10.2767
10.2789
10.2776
12.0214
12.0218
12.0226
12.0234
12.0246
12.0244
13.7273
13.7281
13.7291
13.7296
13.7309
13.7336
2.62675
2.62676
2.62677
2.62678
2.62678
2.62678
2.77046
2.77047
2.77047
2.77047
2.77047
2.77047
3.06714
3.06713
3.06713
3.06712
3.06711
3.0671
3.53757
3.53755
3.53753
3.5375
3.53748
3.53746
4.21624
4.2162
4.21616
4.21612
4.2161
4.21608
5.14992
5.14987
5.14984
5.14984
5.14987
5.1499
6.38961
6.3896
6.38967
6.38981
6.38998
6.39011
7.98815
7.98829
7.98861
7.98903
7.98947
7.98976
9.99832
9.99869
9.99944
10.0004
10.0013
10.0019
12.3536
12.3553
12.3574
12.3595
12.3614
12.363
14.3156
14.316
14.3157
14.3145
14.314
14.3161
16.029
16.0297
16.0319
16.0313
16.033
16.0416
2.20696
2.20697
2.20697
2.20696
2.20695
2.20695
2.33609
2.33609
2.33608
2.33607
2.33605
2.33604
2.60219
2.60217
2.60215
2.60213
2.60212
2.60211
3.01863
3.01861
3.01858
3.01857
3.01855
3.01855
3.60291
3.60289
3.60289
3.6029
3.60293
3.60296
4.38126
4.38129
4.38137
4.38148
4.38159
4.38168
5.3917
5.39182
5.39204
5.3923
5.39253
5.39268
6.66585
6.66604
6.66634
6.6667
6.66702
6.66721
8.27909
8.27895
8.27886
8.27893
8.27919
8.27936
10.0949
10.0922
10.0889
10.0846
10.0821
10.0815
11.7651
11.7692
11.7685
11.7571
11.7581
11.7566
17.1937
17.2015
17.2193
17.1994
17.2146
17.2321
2.96266
2.96273
2.96279
2.96284
2.96286
2.96286
1.42993
1.42994
1.42995
1.42995
1.42993
1.42994
-0.792683
-0.792747
-0.792752
-0.792759
-0.79277
-0.792709
3.35813
3.3582
3.35822
3.35821
3.3582
3.35816
1.62288
1.62284
1.62286
1.62286
1.62281
1.62287
-0.775316
-0.775396
-0.775402
-0.775402
-0.77541
-0.775347
3.63051
3.63058
3.63057
3.63056
3.63054
3.63046
2.0931
2.09305
2.09304
2.09302
2.09299
2.09298
-0.692697
-0.69277
-0.692769
-0.692768
-0.69278
-0.692727
4.42999
4.43003
4.42998
4.42997
4.42997
4.42989
2.81968
2.8196
2.81957
2.81955
2.81953
2.81956
-0.595097
-0.595146
-0.595135
-0.595132
-0.595145
-0.595101
5.55791
5.55798
5.55796
5.55798
5.55802
5.55794
3.76302
3.76298
3.763
3.76301
3.763
3.76307
-0.263455
-0.26347
-0.263435
-0.263419
-0.263419
-0.263376
6.98949
6.98967
6.98975
6.98979
6.9898
6.98968
4.79677
4.79683
4.79692
4.79696
4.79693
4.79696
0.400009
0.39997
0.400008
0.400026
0.40003
0.400086
11.3016
11.302
11.3022
11.3022
11.3021
11.3016
6.40088
6.40102
6.40108
6.40101
6.40091
6.40071
1.16894
1.16882
1.16892
1.16897
1.16901
1.16905
5.56203
5.56237
5.5619
5.56158
5.56168
5.56121
5.12006
5.12067
5.12049
5.12029
5.12033
5.11922
4.41697
4.4168
4.41694
4.41705
4.4171
4.41697
16.7753
16.7782
16.7782
16.7776
16.7772
16.7773
18.5004
18.5015
18.502
18.5021
18.5024
18.4999
2.39685
2.39566
2.39638
2.39722
2.39763
2.39703
13.9546
13.9532
13.9541
13.956
13.956
13.9481
30.7247
30.7269
30.7294
30.7325
30.7427
30.7092
18.2908
18.2931
18.2935
18.2919
18.2964
18.2866
-44.9903
-45.0104
-45.0086
-44.9961
-44.9966
-45.0299
244.415
244.248
244.265
244.217
243.8
244.821
44.4324
44.324
44.3473
44.3327
44.2023
44.5334
31032.4
31031.6
31031.5
31030.5
31026.5
31034.7
7138.21
7140.53
7139.24
7137.81
7135.87
7141.25
-10.0791
-10.0783
-10.0789
-10.0806
-10.0617
-10.0578
137.588
137.829
138.028
133.052
136.837
131.547
228.104
228.698
232.416
217.216
216.858
220.648
688.839
695.097
696.628
682.193
690.37
675.904
5268.46
5269.12
5271.72
5248.13
5290.87
5231.47
8457.5
8468.55
8489.8
8422.17
8387.21
8508.22
2389.59
2395.78
2402.69
2363.38
2310.41
2451.86
10599.1
10593
10592.9
10614.1
10639.2
10608.4
12534.8
12535.1
12537
12552.3
12565.7
12580.7
-56.7963
-56.8762
-56.8687
-56.7088
-57.1888
-58.791
18664.2
18655.4
18654.8
18725.3
18796.4
18626.1
9369.18
9376.71
9368.09
9370.77
9356.75
9362.9
-21.5383
-21.5862
-21.4881
-21.5563
-22.3731
-20.8666
32332.2
32331.8
32331.7
32332.3
32332.2
32334
13154.9
13159.3
13156.1
13179.4
13219.7
13105.6
-7.68515
-7.68766
-7.64614
-7.77417
-7.83705
-7.34093
31787.2
31786.5
31786.2
31786.2
31784.6
31789.1
15285.1
15291.3
15289.3
15290
15303
15273.6
-5.0037
-5.0001
-4.99471
-5.02998
-5.00139
-4.89782
1.67325
1.67324
1.67323
1.67322
1.67321
1.6732
1.04625
1.04624
1.04623
1.04622
1.04622
1.04621
0.363984
0.363984
0.363982
0.363979
0.363977
0.363976
1.77806
1.77805
1.77803
1.77802
1.77801
1.778
1.11281
1.1128
1.11279
1.11278
1.11277
1.11277
0.38929
0.389287
0.389282
0.389277
0.389273
0.389272
1.99867
1.99865
1.99864
1.99863
1.99862
1.99862
1.25087
1.25085
1.25084
1.25084
1.25084
1.25084
0.444642
0.444637
0.444632
0.444628
0.444628
0.444634
2.36338
2.36336
2.36336
2.36336
2.36337
2.36338
1.46897
1.46896
1.46896
1.46897
1.46898
1.469
0.540749
0.540748
0.54075
0.540753
0.540763
0.540777
2.92957
2.92956
2.92958
2.92961
2.92965
2.92968
1.77749
1.77749
1.7775
1.77753
1.77756
1.77759
0.701068
0.701071
0.701087
0.701092
0.701115
0.701126
3.80145
3.80147
3.80152
3.80158
3.80166
3.80172
2.19865
2.19866
2.1987
2.19877
2.19883
2.19889
0.936947
0.936936
0.936972
0.936964
0.937006
0.93704
5.15952
5.15953
5.15959
5.15968
5.15983
5.15995
2.79644
2.79648
2.7966
2.7968
2.79705
2.79734
1.30518
1.30513
1.30518
1.30526
1.30531
1.30551
7.27339
7.27328
7.27323
7.27331
7.27369
7.27417
3.38742
3.38737
3.38734
3.38768
3.38819
3.38916
1.56181
1.5615
1.56112
1.56197
1.56141
1.56291
10.9817
10.9809
10.9799
10.9792
10.9805
10.9833
4.68735
4.68709
4.68802
4.69374
4.69845
4.71522
1.62346
1.62089
1.61542
1.62181
1.61681
1.63124
18.1673
18.1649
18.1577
18.1433
18.1449
18.1479
11.0656
11.0485
11.0287
10.9957
11.0043
11.0355
7.51929
7.48981
7.44593
7.393
7.39862
7.49882
19.2066
19.2025
19.2018
19.2348
19.2053
19.2898
-13.8415
-13.859
-13.8834
-13.8799
-13.9472
-13.7395
-21.8123
-21.8535
-22.0079
-22.1033
-22.4713
-21.7696
29.1722
29.1402
29.187
29.3967
29.2335
29.6544
39.1115
39.1688
39.3088
39.3524
39.3147
39.7297
37.3477
37.4096
37.5558
37.6255
37.7205
37.468
)
;

boundaryField
{
    seabed_topleft_surface
    {
        type            fixedFluxPressure;
        gradient        uniform 0;
        value           nonuniform List<scalar> 
72
(
7646.79
7646.75
7646.76
7646.76
7646.74
7646.76
7488.98
7488.93
7488.94
7488.94
7488.92
7488.95
7606.95
7606.91
7606.92
7606.93
7606.91
7606.92
8071.57
8071.52
8071.54
8071.54
8071.53
8071.54
8688.06
8688.02
8688.03
8688.04
8688.02
8688.05
9399.51
9399.46
9399.47
9399.48
9399.47
9399.5
10339.4
10339.3
10339.3
10339.3
10339.3
10339.3
12001.3
12001.2
12001.2
12001.2
12001.2
12001.3
14681.3
14681.3
14681.3
14681.3
14681.3
14681.3
18592.6
18592.6
18592.6
18592.6
18592.6
18592.6
22219.4
22219.3
22219.3
22219.3
22219.3
22219.4
24205.5
24205.5
24205.5
24205.5
24205.5
24205.5
)
;
    }
    seabed_topright_surface
    {
        type            fixedFluxPressure;
        gradient        uniform 0;
        value           nonuniform List<scalar> 
72
(
3.05903
3.05903
3.05905
3.05907
3.05909
3.0591
3.2068
3.20681
3.20683
3.20685
3.20687
3.20689
3.50765
3.50767
3.50769
3.50771
3.50773
3.50774
3.97185
3.97186
3.97188
3.97188
3.97189
3.97189
4.6132
4.6132
4.61319
4.61315
4.6131
4.61306
5.44543
5.4454
5.44532
5.44521
5.4451
5.44501
6.47594
6.47586
6.47573
6.47559
6.47546
6.47537
7.69687
7.69678
7.69668
7.6966
7.69656
7.69656
9.07211
9.07206
9.07214
9.07222
9.07229
9.07256
10.5127
10.5123
10.5131
10.5133
10.5123
10.5146
11.8756
11.8758
11.8763
11.8768
11.8772
11.8776
12.9248
12.9251
12.9257
12.9263
12.9269
12.9276
)
;
    }
    breakwater_top_surface
    {
        type            fixedFluxPressure;
        gradient        uniform 0;
        value           nonuniform List<scalar> 
36
(
137.588
137.829
138.028
133.052
136.837
131.547
5268.46
5269.12
5271.72
5248.13
5290.87
5231.47
10599.1
10593
10592.9
10614.1
10639.2
10608.4
18664.2
18655.4
18654.8
18725.3
18796.4
18626.1
32332.2
32331.8
32331.7
32332.3
32332.2
32334
31787.2
31786.5
31786.2
31786.2
31784.6
31789.1
)
;
    }
    breakwater_left_surface
    {
        type            fixedFluxPressure;
        gradient        uniform 0;
        value           nonuniform List<scalar> 
24
(
24205.5
24205.5
24205.5
24205.5
24205.5
24205.5
26810.7
26810.7
26810.7
26810.7
26810.7
26810.6
31744.7
31744.9
31744.8
31744.9
31744.9
31744.8
36623.5
36623.4
36623.4
36623.4
36623.3
36623.4
)
;
    }
    breakwater_right_surface
    {
        type            fixedFluxPressure;
        gradient        uniform 0;
        value           nonuniform List<scalar> 
24
(
12.9248
12.9251
12.9257
12.9263
12.9269
12.9276
13.7273
13.7281
13.7291
13.7296
13.7309
13.7336
16.029
16.0297
16.0319
16.0313
16.033
16.0416
17.1937
17.2015
17.2193
17.1994
17.2146
17.2321
)
;
    }
    water_front_surface
    {
        type            fixedFluxPressure;
        gradient        uniform 0;
        value           nonuniform List<scalar> 
186
(
7646.79
7488.98
7606.95
8071.57
8688.06
9399.51
10339.4
12001.3
14681.3
18592.6
22219.4
24205.5
1004.8
449.443
366.998
517.973
839.93
1318.08
1922.86
2926.85
6955.83
17584.7
24273.6
26810.7
5.00512
5.54353
5.99283
7.69975
9.26754
11.0642
19.6101
40.7342
129.351
3483.6
24011.8
31744.7
4.74745
5.45461
6.01971
7.97461
10.2196
11.343
12.9857
11.1166
15.604
66.117
15094.9
36623.5
3.05903
3.2068
3.50765
3.97185
4.6132
5.44543
6.47594
7.69687
9.07211
10.5127
11.8756
12.9248
2.9135
3.0613
3.36142
3.82112
4.44916
5.25582
6.25002
7.43275
8.78926
10.2739
12.0214
13.7273
2.62675
2.77046
3.06714
3.53757
4.21624
5.14992
6.38961
7.98815
9.99832
12.3536
14.3156
16.029
2.20696
2.33609
2.60219
3.01863
3.60291
4.38126
5.3917
6.66585
8.27909
10.0949
11.7651
17.1937
2.96266
1.42993
-0.792683
3.35813
1.62288
-0.775316
3.63051
2.0931
-0.692697
4.42999
2.81968
-0.595097
5.55791
3.76302
-0.263455
6.98949
4.79677
0.400009
11.3016
6.40088
1.16894
5.56203
5.12006
4.41697
16.7753
18.5004
2.39685
13.9546
30.7247
18.2908
-44.9903
244.415
44.4324
31032.4
7138.21
-10.0791
137.588
228.104
688.839
5268.46
8457.5
2389.59
10599.1
12534.8
-56.7963
18664.2
9369.18
-21.5383
32332.2
13154.9
-7.68515
31787.2
15285.1
-5.0037
1.67325
1.04625
0.363984
1.77806
1.11281
0.38929
1.99867
1.25087
0.444642
2.36338
1.46897
0.540749
2.92957
1.77749
0.701068
3.80145
2.19865
0.936947
5.15952
2.79644
1.30518
7.27339
3.38742
1.56181
10.9817
4.68735
1.62346
18.1673
11.0656
7.51929
19.2066
-13.8415
-21.8123
29.1722
39.1115
37.3477
)
;
    }
    water_back_surface
    {
        type            fixedFluxPressure;
        gradient        uniform 0;
        value           nonuniform List<scalar> 
186
(
7646.76
7488.95
7606.92
8071.54
8688.05
9399.5
10339.3
12001.3
14681.3
18592.6
22219.4
24205.5
1004.83
449.45
366.996
517.973
839.935
1318.09
1922.87
2926.85
6955.82
17584.6
24273.6
26810.6
5.00533
5.54372
5.99284
7.69974
9.26777
11.0647
19.6103
40.7314
129.347
3483.07
24011.5
31744.8
4.74776
5.45476
6.01963
7.97455
10.2198
11.3437
12.9865
11.116
15.6064
66.1127
15093.3
36623.4
3.0591
3.20689
3.50774
3.97189
4.61306
5.44501
6.47537
7.69656
9.07256
10.5146
11.8776
12.9276
2.91356
3.06136
3.36144
3.82105
4.44897
5.25563
6.25018
7.43352
8.79098
10.2776
12.0244
13.7336
2.62678
2.77047
3.0671
3.53746
4.21608
5.1499
6.39011
7.98976
10.0019
12.363
14.3161
16.0416
2.20695
2.33604
2.60211
3.01855
3.60296
4.38168
5.39268
6.66721
8.27936
10.0815
11.7566
17.2321
2.96286
1.42994
-0.792709
3.35816
1.62287
-0.775347
3.63046
2.09298
-0.692727
4.42989
2.81956
-0.595101
5.55794
3.76307
-0.263376
6.98968
4.79696
0.400086
11.3016
6.40071
1.16905
5.56121
5.11922
4.41697
16.7773
18.4999
2.39703
13.9481
30.7092
18.2866
-45.0299
244.821
44.5334
31034.7
7141.25
-10.0578
131.547
220.648
675.904
5231.47
8508.22
2451.86
10608.4
12580.7
-58.791
18626.1
9362.9
-20.8666
32334
13105.6
-7.34093
31789.1
15273.6
-4.89782
1.6732
1.04621
0.363976
1.778
1.11277
0.389272
1.99862
1.25084
0.444634
2.36338
1.469
0.540777
2.92968
1.77759
0.701126
3.80172
2.19889
0.93704
5.15995
2.79734
1.30551
7.27417
3.38916
1.56291
10.9833
4.71522
1.63124
18.1479
11.0355
7.49882
19.2898
-13.7395
-21.7696
29.6544
39.7297
37.468
)
;
    }
    water_left_surface
    {
        type            fixedFluxPressure;
        gradient        uniform 0;
        value           nonuniform List<scalar> 
42
(
7646.79
7646.75
7646.76
7646.76
7646.74
7646.76
1004.8
1004.77
1004.78
1004.75
1004.74
1004.83
5.00512
5.00544
5.00547
5.00559
5.00568
5.00533
4.74745
4.74762
4.74771
4.74784
4.7479
4.74776
2.96266
2.96273
2.96279
2.96284
2.96286
2.96286
1.42993
1.42994
1.42995
1.42995
1.42993
1.42994
-0.792683
-0.792747
-0.792752
-0.792759
-0.79277
-0.792709
)
;
    }
    water_right_surface
    {
        type            fixedFluxPressure;
        gradient        uniform 0;
        value           nonuniform List<scalar> 
42
(
3.05903
3.05903
3.05905
3.05907
3.05909
3.0591
2.9135
2.91351
2.91352
2.91354
2.91355
2.91356
2.62675
2.62676
2.62677
2.62678
2.62678
2.62678
2.20696
2.20697
2.20697
2.20696
2.20695
2.20695
1.67325
1.67324
1.67323
1.67322
1.67321
1.6732
1.04625
1.04624
1.04623
1.04622
1.04622
1.04621
0.363984
0.363984
0.363982
0.363979
0.363977
0.363976
)
;
    }
    water_top_surface
    {
        type            totalPressure;
        rho             rho;
        psi             none;
        gamma           1;
        p0              uniform 0;
        value           nonuniform List<scalar> 
180
(
-1.63634
-1.63663
-1.63661
-1.63663
-1.63669
-1.63642
-1.71432
-1.71462
-1.7146
-1.7146
-1.71465
-1.71435
-1.49075
-1.49099
-1.49094
-1.49093
-1.49096
-1.49068
-1.5366
-1.53683
-1.53677
-1.53676
-1.53679
-1.53655
-1.41523
-1.41549
-1.41547
-1.41548
-1.41554
-1.41533
-1.39468
-1.39502
-1.39503
-1.39503
-1.39504
-1.39472
-1.30127
-1.30159
-1.30155
-1.3015
-1.30148
-1.3011
-1.16611
-1.16632
-1.16629
-1.16631
-1.16638
-1.16606
-0.328081
-0.328238
-0.328152
-0.32813
-0.328179
-0.328078
0
0
0
0
0
0
0
0
0
0
0
0
-15.4492
-15.4469
-15.4511
-15.449
-15.4624
-15.4372
0
0
0
0
0
0
0
0
0
0
0
0
-40.0661
-40.1138
-39.9703
-40.375
-41.8981
-39.4045
-19.8104
-19.8406
-19.8288
-19.8212
-19.4845
-19.9752
-2.05164
-2.05349
-2.0482
-2.06029
-2.04344
-2.03324
-4.39479
-4.38928
-4.3861
-4.40268
-4.43132
-4.3481
0
0
0
0
0
0
0
0
0
0
0
0
0
0
0
0
0
0
0
0
0
0
0
0
0
0
0
0
0
0
0
0
0
0
0
0
0
0
0
0
0
0
0
0
0
0
0
0
0
0
0
0
0
0
0
0
0
0
0
0
-0.0095102
-0.00966757
-0.00948962
-0.00940888
-0.0119517
-0.00659945
0
0
0
0
0
0
)
;
    }
}


// ************************************************************************* //
