/*--------------------------------*- C++ -*----------------------------------*\
| =========                 |                                                 |
| \\      /  F ield         | OpenFOAM: The Open Source CFD Toolbox           |
|  \\    /   O peration     | Version:  v1612+                                |
|   \\  /    A nd           | Web:      www.OpenFOAM.com                      |
|    \\/     M anipulation  |                                                 |
\*---------------------------------------------------------------------------*/
FoamFile
{
    version     2.0;
    format      ascii;
    class       surfaceScalarField;
    location    "3.5";
    object      phi;
}
// * * * * * * * * * * * * * * * * * * * * * * * * * * * * * * * * * * * * * //

dimensions      [0 3 -1 0 0 0 0];

internalField   nonuniform List<scalar> 
2916
(
4.19106e-06
0.37446
-0.374464
8.55054e-06
0.374461
-0.374465
9.59958e-06
0.374462
-0.374463
4.9815e-06
0.374464
-0.374459
8.23677e-08
0.374464
-0.374459
0.374458
-0.374458
1.0275e-05
0.717967
-0.343517
9.53836e-06
0.717975
-0.343513
1.36372e-05
0.717974
-0.343516
5.23126e-06
0.717975
-0.343503
-1.15079e-05
0.717977
-0.343496
0.717967
-0.343521
1.33663e-05
0.923257
-0.205304
9.47958e-06
0.923274
-0.205295
1.09923e-05
0.92327
-0.205297
4.31707e-06
0.923271
-0.205289
-1.08738e-05
0.923275
-0.205283
0.923258
-0.205302
1.43297e-05
1.06686
-0.143622
9.01689e-06
1.06689
-0.143608
8.64735e-06
1.06688
-0.143612
3.89183e-06
1.06688
-0.143607
-8.65044e-06
1.06689
-0.1436
1.06687
-0.143617
1.34311e-05
1.17316
-0.106305
8.02247e-06
1.17318
-0.10629
6.28189e-06
1.17318
-0.106294
2.57738e-06
1.17318
-0.106292
-7.1448e-06
1.17318
-0.106285
1.17316
-0.106299
1.14792e-05
1.23616
-0.0630201
7.19287e-06
1.23619
-0.0630068
4.16239e-06
1.23619
-0.0630087
3.14381e-07
1.23619
-0.0630074
-6.09507e-06
1.23619
-0.0630035
1.23617
-0.063014
8.3146e-06
1.23682
-0.000658523
5.81149e-06
1.23684
-0.000648251
1.67372e-06
1.23684
-0.00064762
-2.22166e-06
1.23684
-0.000646483
-5.07358e-06
1.23684
-0.000646258
1.23681
-0.000652241
5.77713e-06
1.06577
0.171041
4.91958e-06
1.0658
0.17105
-2.16283e-07
1.06579
0.171052
-4.76966e-06
1.06579
0.171054
-5.76741e-06
1.06579
0.171049
1.06576
0.171049
5.47643e-06
0.63996
0.425803
5.03064e-06
0.639986
0.42581
-1.11232e-06
0.639988
0.425812
-7.13595e-06
0.639984
0.425813
-1.12969e-05
0.639992
0.425805
0.639938
0.425809
7.34169e-06
0.0668438
0.573108
4.71815e-06
0.0668704
0.573118
-1.13918e-06
0.0668757
0.573118
-6.88209e-06
0.066871
0.573118
-1.49538e-05
0.0668871
0.573113
0.0668089
0.573115
2.05541e-05
-0.293149
0.359972
5.22397e-06
-0.29312
0.360006
-7.59232e-07
-0.293117
0.359999
-5.56843e-06
-0.29312
0.359996
-2.06612e-05
-0.2931
0.360002
-0.293176
0.359964
-1.84741e-05
-0.293131
-1.99013e-05
-0.293119
-1.36591e-05
-0.293123
-4.103e-06
-0.293129
2.04883e-05
-0.293124
-0.293155
-1.19207e-05
0.688181
-1.06263
-5.35524e-06
0.688173
-1.06264
2.61269e-05
0.688183
-1.06268
2.5206e-05
0.688169
-1.06263
-4.14574e-06
0.68816
-1.06259
0.688202
-1.06266
-1.49314e-05
1.21696
-0.872279
-7.22378e-06
1.21694
-0.872291
2.59468e-05
1.21695
-0.872315
3.58541e-05
1.21693
-0.872276
8.88508e-06
1.21693
-0.872238
1.21698
-0.872293
-2.29597e-06
1.56906
-0.557408
3.29161e-06
1.56907
-0.557425
1.8446e-05
1.56906
-0.557423
2.75734e-05
1.56904
-0.557411
1.76277e-05
1.56905
-0.557398
1.56909
-0.557387
1.25686e-05
1.77012
-0.344693
1.03028e-05
1.77016
-0.344699
2.05674e-05
1.77013
-0.344696
2.38958e-05
1.77012
-0.344687
2.33836e-06
1.77015
-0.34467
1.77014
-0.344666
2.79639e-05
1.90749
-0.243703
1.30926e-05
1.90757
-0.243683
1.94453e-05
1.90752
-0.243688
1.97505e-05
1.90751
-0.243682
-9.28021e-06
1.90755
-0.243658
1.9075
-0.243671
4.23156e-05
2.03314
-0.188711
1.37565e-05
2.03325
-0.18866
1.61344e-05
2.03319
-0.188676
1.60909e-05
2.03318
-0.188674
-1.81097e-05
2.03322
-0.188643
2.03314
-0.188677
5.1271e-05
2.14563
-0.113195
1.16524e-05
2.14577
-0.113124
1.05721e-05
2.14569
-0.113153
1.00791e-05
2.14569
-0.113156
-2.47347e-05
2.14574
-0.113126
2.14564
-0.113171
5.77124e-05
1.95822
0.358388
9.95636e-06
1.9584
0.358468
7.28415e-06
1.95832
0.358431
5.94945e-06
1.95831
0.358428
-3.1592e-05
1.95837
0.358454
1.95825
0.358402
8.06177e-05
1.46353
0.920412
2.03624e-05
1.46371
0.920556
1.06922e-05
1.46363
0.920504
2.1205e-06
1.46363
0.920502
-4.64292e-05
1.46369
0.920535
1.46357
0.920442
5.19729e-05
0.941318
1.09527
2.72104e-05
0.941508
1.09535
1.38417e-05
0.941442
1.09532
-5.83828e-07
0.941442
1.09533
-3.21612e-05
0.941496
1.09534
0.941361
1.0953
4.87943e-05
0.425275
0.875967
1.81749e-05
0.425456
0.876089
8.48386e-06
0.42541
0.87604
-3.37434e-06
0.425409
0.876041
-2.68521e-05
0.425458
0.876063
0.425314
0.875984
-5.871e-05
0.132203
-2.41072e-05
0.132303
-7.70948e-06
0.132271
5.33629e-06
0.132267
4.46011e-05
0.132295
0.132204
-0.000124117
0.205259
-1.26777
-6.4281e-05
0.205229
-1.26794
-3.00357e-05
0.20522
-1.26794
3.80038e-05
0.205219
-1.26792
0.000134368
0.205228
-1.26792
0.205253
-1.26778
-0.000119662
0.450796
-1.1177
-4.73991e-05
0.450742
-1.11788
2.95268e-06
0.450725
-1.11787
6.36377e-05
0.450731
-1.11785
0.00015032
0.450758
-1.11785
0.450797
-1.11768
-9.44323e-05
0.85196
-0.95848
-3.12198e-05
0.851909
-0.958658
1.67475e-05
0.85189
-0.958638
6.06679e-05
0.851901
-0.958624
0.000121054
0.851935
-0.958635
0.851976
-0.958445
-0.000102373
1.50007
-0.992705
-4.25486e-05
1.50003
-0.99288
5.45355e-06
1.50001
-0.992858
5.37057e-05
1.50002
-0.992849
0.000123933
1.50006
-0.992862
1.5001
-0.992665
-0.000111992
2.33132
-1.07483
-6.55156e-05
2.33127
-1.07497
-2.28553e-05
2.33123
-1.07496
2.8446e-05
2.33124
-1.07496
9.92483e-05
2.33128
-1.07496
2.33132
-1.0748
-0.00013614
3.34915
-1.20641
-0.000122082
3.3491
-1.2065
-6.80896e-05
3.34901
-1.20651
4.89434e-06
3.349
-1.20651
6.82069e-05
3.34906
-1.20649
3.34909
-1.20638
-0.00015774
4.15647
-0.920358
-0.000130771
4.15642
-0.92047
-8.69862e-05
4.15636
-0.920548
-1.92244e-05
4.15636
-0.920585
7.96321e-05
4.15641
-0.920573
4.15647
-0.920468
-2.82395e-05
3.637
0.877883
-3.08482e-05
3.63717
0.877717
-3.11172e-05
3.63708
0.877706
-3.52969e-05
3.63708
0.877699
3.33484e-05
3.63715
0.877644
3.63711
0.877793
0.000200962
1.96639
2.59082
-9.54657e-07
1.96686
2.59107
1.3795e-05
1.96665
2.59092
2.69881e-05
1.96667
2.5909
-7.49951e-05
1.9668
2.59099
1.96656
2.59092
0.000138971
0.920076
2.14144
3.66408e-05
0.920357
2.14195
4.3767e-05
0.920238
2.14173
1.98188e-05
0.920247
2.14177
-7.90481e-05
0.920322
2.14191
0.920152
2.14163
0.000187972
0.354075
1.44178
4.9751e-05
0.354405
1.44218
1.76567e-05
0.354292
1.44202
-1.85188e-06
0.354299
1.44201
-8.46625e-05
0.354388
1.44208
0.354152
1.4419
-0.00012155
0.4864
-2.38321e-05
0.48661
-6.83466e-06
0.486546
1.18775e-05
0.486547
9.13272e-05
0.486603
0.486447
-1.20923e-05
-0.331389
-0.936366
-2.72022e-06
-0.33135
-0.936593
-1.15574e-05
-0.331364
-0.936559
-1.32102e-05
-0.33136
-0.93655
3.957e-06
-0.331345
-0.936583
-0.331419
-0.936358
2.55767e-06
-0.519818
-0.929276
5.54377e-06
-0.519713
-0.92952
-1.24538e-05
-0.519735
-0.929482
-1.06319e-05
-0.51973
-0.929479
1.5351e-05
-0.519699
-0.929521
-0.519845
-0.929244
-2.34726e-06
-0.628597
-0.849697
3.00656e-06
-0.628435
-0.849941
-8.06455e-06
-0.62846
-0.849901
-4.75424e-06
-0.628457
-0.849901
2.35657e-05
-0.628417
-0.849945
-0.628607
-0.849661
-5.53272e-05
-0.658511
-0.962736
-4.3542e-05
-0.658344
-0.962983
-4.45844e-05
-0.658377
-0.96294
-2.83618e-05
-0.658379
-0.962942
3.09765e-05
-0.658346
-0.962993
-0.658524
-0.962717
-0.000106119
-0.70836
-1.02488
-7.81119e-05
-0.708231
-1.02511
-6.43149e-05
-0.708277
-1.02507
-3.58437e-05
-0.708287
-1.02508
4.62395e-05
-0.708261
-1.02513
-0.708394
-1.02488
-0.000141932
-0.710488
-1.20414
-8.8187e-05
-0.710445
-1.20434
-6.6414e-05
-0.710493
-1.20431
-2.46413e-05
-0.710524
-1.20432
9.18582e-05
-0.710526
-1.20434
-0.710536
-1.20414
-0.000200658
0.0116671
-1.64232
-5.29341e-05
0.0114124
-1.64248
-1.33245e-06
0.0113859
-1.64248
6.10699e-05
0.0113495
-1.64252
0.000325229
0.0111901
-1.64255
0.0116905
-1.64237
-5.43364e-05
1.56783
-0.678234
0.000101899
1.56757
-0.678602
0.000136365
1.56758
-0.67853
9.30013e-05
1.56759
-0.678499
0.000100248
1.56747
-0.67864
1.56781
-0.678232
0.000184151
1.14378
3.01469
0.000206904
1.14368
3.01494
0.000152436
1.14372
3.01483
4.6715e-05
1.14372
3.01488
-0.000124791
1.1437
3.01493
1.14373
3.01488
0.000250464
-0.524769
3.80975
9.22769e-05
-0.523707
3.80949
6.49611e-05
-0.524124
3.8096
3.30042e-05
-0.524178
3.8097
-0.000148849
-0.52378
3.80957
-0.524382
3.80959
0.000279244
0.167489
0.749242
8.81891e-05
0.16783
0.750833
2.15052e-05
0.167707
0.750254
6.46076e-06
0.167681
0.750165
-0.000138462
0.1677
0.750745
0.167644
0.749735
-8.47764e-05
0.653973
7.37119e-06
0.654349
2.56335e-05
0.654235
3.38696e-05
0.65422
1.46303e-05
0.654323
0.654106
-1.81128e-06
-0.0142528
0.0142546
-2.64987e-06
-0.0142537
0.0142545
-2.82912e-06
-0.0142543
0.0142545
-2.50204e-06
-0.0142548
0.0142546
-1.63293e-06
-0.0142553
0.0142546
-0.0142559
0.0142545
-2.55954e-06
-0.0291024
0.014852
-3.47459e-06
-0.0291043
0.0148523
-3.72956e-06
-0.0291058
0.0148525
-3.37931e-06
-0.0291071
0.0148527
-2.26689e-06
-0.0291084
0.0148527
-0.0291101
0.0148524
-3.34617e-06
-0.0452454
0.0161467
-4.97259e-06
-0.0452501
0.0161487
-5.74726e-06
-0.0452536
0.0161497
-5.46611e-06
-0.0452567
0.0161502
-3.79702e-06
-0.0452597
0.0161502
-0.0452632
0.0161497
-7.03539e-06
-0.0633946
0.018157
-1.07883e-05
-0.0634048
0.0181587
-1.21661e-05
-0.0634112
0.018159
-1.13375e-05
-0.0634159
0.0181582
-7.94407e-06
-0.06342
0.0181565
-0.0634253
0.0181536
-1.66344e-05
-0.084148
0.0207702
-2.13031e-05
-0.0841654
0.0207632
-2.04361e-05
-0.0841724
0.0207585
-1.65723e-05
-0.0841753
0.0207537
-1.05149e-05
-0.0841763
0.0207487
-0.0841797
0.020743
-3.10603e-05
-0.10751
0.0233922
-2.88569e-05
-0.107531
0.0233601
-1.79489e-05
-0.10753
0.0233444
-7.10843e-06
-0.107522
0.0233341
-8.04354e-07
-0.107511
0.0233272
-0.107504
0.0233229
-3.29419e-05
-0.132505
0.025026
-6.70272e-06
-0.132515
0.0249552
2.74479e-05
-0.132493
0.0249271
4.84102e-05
-0.13246
0.0249166
4.35343e-05
-0.132424
0.0249175
-0.13239
0.0249293
-2.31572e-06
-0.155038
0.0225348
7.48473e-05
-0.155024
0.0224321
0.000145743
-0.154973
0.0224096
0.000171824
-0.154907
0.0224205
0.000132285
-0.154838
0.0224533
-0.154767
0.0225092
7.87465e-05
-0.167733
0.0126157
0.00020247
-0.16767
0.0125229
0.00029072
-0.167612
0.0125514
0.000307672
-0.167555
0.0126312
0.000220731
-0.16749
0.0127393
-0.16742
0.0128736
0.000134425
-0.158075
-0.00979138
0.000233519
-0.157991
-0.00977661
0.000295218
-0.157939
-0.00973417
0.000295467
-0.157899
-0.00965619
0.000187832
-0.15785
-0.00953239
-0.157756
-0.0094761
8.93413e-05
-0.105384
-0.0527795
0.000100495
-0.105317
-0.052684
9.50811e-05
-0.10528
-0.0526532
8.78249e-05
-0.105252
-0.0526384
7.01228e-05
-0.105213
-0.0526185
-0.105147
-0.0525385
-8.61469e-05
-0.105298
-0.000162996
-0.105241
-0.000195582
-0.105248
-0.000204961
-0.105243
-0.000169584
-0.105249
-0.105316
-2.11256e-06
-0.0139928
0.0282495
-2.8415e-06
-0.0139941
0.0282495
-2.87719e-06
-0.0139949
0.0282497
-2.42228e-06
-0.0139955
0.0282499
-1.50284e-06
-0.0139962
0.0282501
-0.0139969
0.0282502
-3.22539e-06
-0.0282822
0.0291449
-3.86333e-06
-0.0282852
0.0291453
-3.78353e-06
-0.028287
0.0291457
-3.14589e-06
-0.0282885
0.0291461
-1.94095e-06
-0.0282898
0.0291462
-0.0282914
0.0291457
-5.1031e-06
-0.0428492
0.0307199
-5.99573e-06
-0.0428555
0.030722
-5.67894e-06
-0.0428589
0.030723
-4.62922e-06
-0.0428614
0.0307235
-2.90946e-06
-0.0428636
0.0307233
-0.0428665
0.0307223
-7.51751e-06
-0.0571356
0.0324518
-8.11748e-06
-0.0571481
0.0324522
-6.84135e-06
-0.0571529
0.0324517
-5.1306e-06
-0.0571555
0.0324502
-3.30173e-06
-0.057157
0.0324477
-0.0571603
0.0324438
-6.94559e-06
-0.0700325
0.0336732
-3.96059e-06
-0.070052
0.0336615
9.54495e-07
-0.0700557
0.033654
3.59164e-06
-0.0700539
0.0336477
3.09618e-06
-0.0700503
0.0336412
-0.0700492
0.0336346
-1.07243e-06
-0.0801128
0.033471
1.36571e-05
-0.0801418
0.0334316
2.6918e-05
-0.0801391
0.033412
3.07785e-05
-0.0801255
0.0334002
2.25402e-05
-0.0801087
0.033393
-0.0800947
0.0333905
4.26664e-05
-0.086255
0.0311234
7.77769e-05
-0.0862685
0.031045
9.62743e-05
-0.0862462
0.0310147
9.32897e-05
-0.0862111
0.0310046
6.40162e-05
-0.0861714
0.0310089
-0.0861301
0.0310283
9.84486e-05
-0.0887792
0.02496
0.000156863
-0.0887619
0.0248674
0.000181809
-0.0887107
0.0248495
0.000169558
-0.0886435
0.0248649
0.000112461
-0.0885662
0.0249049
-0.0884797
0.0249713
0.000155149
-0.0921263
0.0158082
0.000197972
-0.0920368
0.0157562
0.000189196
-0.0919373
0.0157875
0.000151428
-0.0918317
0.0158572
9.44565e-05
-0.0917235
0.0159542
-0.0915792
0.0160682
0.00018842
-0.105246
0.00314123
0.000244663
-0.105057
0.00318845
0.000229582
-0.104926
0.00327033
0.000187148
-0.104811
0.00336715
0.000160825
-0.10471
0.00348173
-0.104497
0.00360297
-2.73427e-05
-0.0728051
-0.0851925
-0.000189551
-0.0726446
-0.0849337
-0.000332989
-0.0725386
-0.084897
-0.000330322
-0.0724405
-0.0850113
-4.27944e-05
-0.0723662
-0.0852502
-0.0722996
-0.0847782
-0.000246499
-0.177856
-0.000374668
-0.177756
-0.000399276
-0.177761
-0.000451926
-0.177631
-0.000303143
-0.177764
-0.177919
-1.15535e-06
-0.0135864
0.0418369
-1.54557e-06
-0.0135872
0.0418371
-1.52601e-06
-0.0135876
0.0418373
-1.18087e-06
-0.0135878
0.0418375
-6.859e-07
-0.0135879
0.0418377
-0.0135878
0.0418375
-2.11833e-06
-0.0282598
0.0438207
-2.00099e-06
-0.0282618
0.0438212
-1.57322e-06
-0.0282626
0.0438216
-9.45298e-07
-0.0282631
0.0438219
-3.39691e-07
-0.0282632
0.0438219
-0.028263
0.0438213
-3.37778e-06
-0.0455589
0.0480238
-2.59984e-06
-0.0455635
0.0480254
-1.31792e-06
-0.045565
0.0480261
-1.06876e-07
-0.0455655
0.0480264
5.7894e-07
-0.0455652
0.048026
-0.0455642
0.0480248
-4.04024e-06
-0.0677134
0.0546115
-1.57821e-06
-0.067723
0.0546102
1.76261e-06
-0.0677246
0.0546084
3.81402e-06
-0.0677234
0.0546063
3.69146e-06
-0.0677203
0.0546031
-0.0677157
0.054599
-1.33799e-06
-0.0976528
0.0636134
6.28753e-06
-0.0976692
0.0635984
1.40136e-05
-0.097668
0.0635883
1.72521e-05
-0.0976601
0.0635801
1.36809e-05
-0.0976485
0.0635725
-0.0976335
0.0635658
1.2394e-05
-0.13827
0.0740739
3.2737e-05
-0.138289
0.0740283
4.76386e-05
-0.138276
0.0740039
5.01369e-05
-0.138252
0.0739891
3.6339e-05
-0.138223
0.0739806
-0.138187
0.07398
4.01602e-05
-0.191056
0.083868
7.96008e-05
-0.191066
0.0837812
0.000103139
-0.191032
0.0837462
0.000101904
-0.190983
0.0837352
7.01183e-05
-0.190926
0.0837425
-0.19086
0.0837709
8.86903e-05
-0.253027
0.0868413
0.00013904
-0.252991
0.0867423
0.000153863
-0.252925
0.0867272
0.00013361
-0.252851
0.0867535
8.24876e-05
-0.252782
0.0868115
-0.252714
0.0869072
0.00012083
-0.298153
0.0608142
0.000165063
-0.298062
0.0607837
0.000167027
-0.29798
0.0608409
0.000122943
-0.297898
0.0609484
6.04364e-05
-0.297841
0.0610771
-0.297825
0.0612405
8.35242e-06
-0.305858
0.0108393
-5.53121e-05
-0.305758
0.0109496
-0.000125393
-0.305696
0.0110572
-0.000202074
-0.305646
0.0111934
-0.000195329
-0.305616
0.0112507
-0.305773
0.0113557
-0.000243986
-0.159647
-0.231159
-0.00037953
-0.159539
-0.231016
-0.000468083
-0.159478
-0.231026
-0.000469613
-0.159536
-0.231118
-0.000306477
-0.159578
-0.23145
-0.15949
-0.231367
-0.000307048
-0.337196
-0.000242784
-0.337359
4.74038e-05
-0.337529
-0.000322683
-0.336797
-0.00101078
-0.336654
-0.338419
-7.08733e-07
-0.0119831
0.0538206
-7.15869e-07
-0.0119839
0.0538209
-4.73194e-07
-0.011984
0.053821
-2.01334e-07
-0.0119839
0.0538211
-3.56617e-08
-0.0119837
0.0538212
-0.0119834
0.053821
-1.16527e-06
-0.0244562
0.0562952
-4.46465e-07
-0.0244576
0.0562956
2.15702e-07
-0.0244576
0.0562957
6.59706e-07
-0.0244572
0.0562957
7.05925e-07
-0.0244565
0.0562956
-0.0244557
0.056295
-7.06712e-07
-0.0374859
0.0610556
1.16982e-06
-0.0374877
0.0610561
2.74309e-06
-0.037487
0.061056
3.36854e-06
-0.0374854
0.0610556
2.71144e-06
-0.0374833
0.0610549
-0.0374813
0.0610537
4.04591e-06
-0.0504396
0.0675626
8.89466e-06
-0.0504418
0.0675607
1.18375e-05
-0.0504391
0.0675584
1.19508e-05
-0.0504347
0.067556
8.4997e-06
-0.0504296
0.0675532
-0.0504242
0.0675503
1.76293e-05
-0.0616788
0.0748347
2.68494e-05
-0.0616782
0.0748244
2.98807e-05
-0.0616717
0.0748169
2.70885e-05
-0.0616634
0.0748108
1.77083e-05
-0.0616539
0.0748055
-0.061643
0.0748016
3.98036e-05
-0.0688653
0.0812191
4.99289e-05
-0.068855
0.0811931
4.7246e-05
-0.0688454
0.081179
3.74019e-05
-0.0688357
0.0811704
2.13101e-05
-0.068824
0.0811659
-0.0688095
0.0811667
5.72485e-05
-0.0696415
0.0845857
5.24153e-05
-0.0696139
0.0845437
3.21566e-05
-0.0696091
0.0845292
1.24855e-05
-0.0696081
0.0845262
-3.09341e-07
-0.0696029
0.0845328
-0.0695902
0.0845508
2.57741e-05
-0.0613314
0.078505
-3.06805e-05
-0.0612814
0.0784657
-9.42342e-05
-0.0612922
0.0784732
-0.000118798
-0.0613265
0.0784959
-8.76184e-05
-0.0613561
0.0785333
-0.061353
0.0785825
-0.000101287
-0.0458184
0.0454026
-0.000264497
-0.0457296
0.0453954
-0.000393485
-0.045747
0.045425
-0.000394655
-0.0458592
0.0454827
-0.000209305
-0.0460239
0.0455604
-0.0458117
0.0454901
-0.000170089
-0.085258
0.0504497
-0.000443675
-0.0850323
0.0505266
-0.000621996
-0.0850718
0.050561
-0.00064151
-0.0853205
0.0506748
-0.000238217
-0.0860784
0.0509023
-0.0852845
0.0505905
-6.64934e-05
-0.266618
-0.0497314
-0.000673269
-0.266063
-0.0493771
-0.00195158
-0.26563
-0.0491882
-0.00144309
-0.266486
-0.0504611
0.00234826
-0.270316
-0.0510029
-0.263986
-0.0503174
0.000190203
-0.604005
8.62209e-05
-0.603318
-4.68036e-05
-0.603026
-0.00105405
-0.602275
0.000544965
-0.608569
-0.60186
2.69735e-05
-0.984878
0.0484819
5.41143e-06
-0.985065
0.0484909
-1.22728e-05
-0.985035
0.0484914
-2.36328e-05
-0.985032
0.0484922
-3.45918e-05
-0.985065
0.0484928
-0.984875
0.0484814
3.77071e-05
-0.970917
-0.0139954
1.32804e-05
-0.97104
-0.0139968
-9.44905e-08
-0.971021
-0.0139977
-1.18727e-05
-0.971021
-0.0139984
-3.78105e-05
-0.971041
-0.0139991
-0.970914
-0.0140006
2.54566e-05
0.0105098
1.00061e-05
0.0105095
1.98981e-06
0.0105095
-6.79282e-06
0.0105091
-2.49843e-05
0.0105086
0.0105086
3.29021e-05
-1.02267
0.141846
1.07396e-05
-1.02286
0.141858
-5.30792e-06
-1.02283
0.141859
-1.8832e-05
-1.02283
0.141856
-3.85192e-05
-1.02286
0.141855
-1.02265
0.141843
3.97289e-05
-0.999677
-0.0370276
1.21345e-05
-0.9998
-0.0370329
-4.50579e-06
-0.99978
-0.0370335
-2.07297e-05
-0.999779
-0.0370332
-5.06031e-05
-0.999801
-0.0370334
-0.999667
-0.037031
2.64289e-05
0.0151865
9.72723e-06
0.0151859
6.06353e-07
0.0151854
-9.40371e-06
0.015185
-2.93039e-05
0.0151843
0.0151854
2.08558e-05
-0.948484
0.24061
3.10026e-06
-0.948678
0.240611
-6.20501e-06
-0.948646
0.240612
-1.77484e-05
-0.948643
0.240609
-3.61379e-05
-0.94868
0.240608
-0.948458
0.240604
4.08009e-05
-0.936391
-0.0491619
9.59079e-06
-0.936509
-0.0491717
-9.3981e-06
-0.93649
-0.0491699
-2.67855e-05
-0.936489
-0.0491684
-5.81906e-05
-0.936512
-0.0491683
-0.936385
-0.0491566
2.38903e-05
0.0172412
6.19507e-06
0.0172418
-3.31727e-06
0.0172411
-1.16525e-05
0.0172409
-2.89213e-05
0.0172404
0.0172407
1.8617e-05
-1.01385
0.291705
3.25524e-06
-1.01405
0.291691
-5.59172e-06
-1.01401
0.291693
-2.08184e-05
-1.01401
0.291692
-4.18047e-05
-1.01405
0.291685
-1.01384
0.291693
3.91086e-05
-0.970065
-0.0929878
9.01343e-06
-0.970185
-0.0930036
-6.86169e-06
-0.970167
-0.0929984
-2.03813e-05
-0.970167
-0.0929958
-4.89157e-05
-0.970189
-0.0929969
-0.970073
-0.0929749
2.31639e-05
0.000768318
4.84107e-06
0.000770238
-3.8784e-06
0.000769375
-1.01797e-05
0.000769008
-2.48148e-05
0.000769295
0.000767113
1.68879e-05
-0.984135
0.250947
7.64269e-06
-0.984334
0.250929
1.72968e-06
-0.984302
0.250931
-1.18044e-05
-0.984302
0.250933
-3.01427e-05
-0.984342
0.250925
-0.984153
0.250938
4.49926e-05
-0.939106
-0.13806
1.66825e-05
-0.939229
-0.138078
3.11478e-06
-0.939214
-0.138073
-9.54349e-06
-0.939215
-0.138073
-4.07009e-05
-0.939235
-0.138074
-0.939117
-0.138056
2.28379e-05
-0.0225855
5.73676e-06
-0.0225819
-2.04939e-06
-0.0225833
-8.2115e-06
-0.0225842
-2.26229e-05
-0.0225838
-0.0225884
2.34963e-05
-0.983952
0.0307387
7.46815e-06
-0.984121
0.0307286
-5.44909e-06
-0.984098
0.030728
-9.48228e-06
-0.984094
0.0307139
-1.78495e-05
-0.984115
0.0307093
-0.983956
0.0307305
3.58871e-05
-0.937086
-0.184961
1.43801e-05
-0.937201
-0.184976
3.9734e-06
-0.937189
-0.184971
-5.84326e-06
-0.937189
-0.184968
-3.30316e-05
-0.937204
-0.184958
-0.937082
-0.184969
2.03955e-05
-0.0531049
4.04576e-06
-0.053098
-4.88986e-06
-0.0531027
-1.06437e-05
-0.0531062
-2.22555e-05
-0.0531057
-0.0531081
1.49023e-05
-1.06203
-0.549557
1.09102e-05
-1.06217
-0.549583
6.99756e-06
-1.06215
-0.549599
5.06577e-06
-1.06217
-0.54964
3.09137e-07
-1.0622
-0.549645
-1.06203
-0.549603
1.54795e-05
-0.822857
-0.424153
2.60892e-06
-0.822963
-0.424167
4.52382e-07
-0.822951
-0.424169
-1.4319e-05
-0.822953
-0.424167
-4.27865e-05
-0.822982
-0.424143
-0.822862
-0.424183
2.05417e-05
-0.00165482
-1.24129e-06
-0.00163519
-1.08809e-05
-0.0016535
-1.12205e-05
-0.0016682
-1.63073e-05
-0.00167113
-0.00166379
3.36794e-05
-1.56406
0.336242
7.14594e-05
-1.56435
0.336122
8.28254e-05
-1.56427
0.336127
3.39739e-05
-1.56421
0.336121
-3.149e-05
-1.5643
0.336082
-1.56408
0.336214
1.05798e-05
-1.00209
-0.986135
-2.86186e-05
-1.00224
-0.986236
-3.85975e-05
-1.00222
-0.986209
-2.77192e-05
-1.00222
-0.986173
-2.61986e-06
-1.00228
-0.986194
-1.00217
-0.986097
4.26377e-05
-0.203951
-1.8246e-05
-0.203912
-3.34872e-05
-0.203952
-1.00403e-05
-0.203985
-5.95923e-06
-0.203985
-0.203975
0.000193925
1.68723
1.66351
0.00021774
1.68699
1.66404
0.000320401
1.68715
1.66371
0.000223493
1.68733
1.66377
-9.61575e-05
1.68724
1.66408
1.68737
1.66363
8.41054e-05
0.192582
0.508425
-6.22324e-05
0.192213
0.508685
-3.33941e-05
0.192396
0.508513
0.000104812
0.192545
0.508473
0.000299681
0.192456
0.508393
0.19257
0.509003
-1.07125e-05
0.455231
-0.00022033
0.45522
-0.000253727
0.455139
-0.000102695
0.455064
0.00010185
0.454953
0.455293
0.000322632
3.77478
1.69815
7.81999e-05
3.77475
1.69903
0.00010832
3.77477
1.69852
0.000142938
3.7749
1.69854
8.09135e-05
3.77471
1.69901
3.77494
1.69835
0.000239833
4.20188
0.0810831
-0.000127229
4.20228
0.0815238
-0.000376394
4.20224
0.081285
9.15829e-05
4.20248
0.0804217
0.00218962
4.20261
0.0783907
4.20202
0.084116
0.000321455
0.526818
5.41155e-05
0.527225
-0.000113871
0.527013
4.96875e-05
0.526604
0.000731145
0.526021
0.527351
0.000324964
1.77725
0.66981
0.000148951
1.77945
0.670592
-6.80928e-05
1.77865
0.670342
2.81959e-05
1.77832
0.670285
0.000302746
1.77863
0.670847
1.77845
0.669939
0.000130271
2.8448
-0.986598
0.000366635
2.84737
-0.986633
0.000301205
2.84659
-0.986592
-7.47988e-05
2.84647
-0.987353
-0.000902198
2.84741
-0.989561
2.84543
-0.98377
-0.000466599
-0.519775
-0.00017114
-0.518924
-0.000140848
-0.519268
-0.000190384
-0.519557
0.000498745
-0.519855
-0.519799
3.59803e-05
0.616446
0.707302
7.18107e-05
0.61741
0.707495
2.04028e-05
0.617088
0.70754
2.67076e-05
0.617002
0.707497
-4.28346e-06
0.617297
0.707903
0.616775
0.707266
0.000214381
-1.32383
0.953463
0.000303765
-1.32309
0.953781
0.000574228
-1.3235
0.953729
-2.36747e-05
-1.3233
0.953549
-0.00159675
-1.32403
0.953343
-1.32277
0.954177
-0.00087216
1.04767
-0.00129186
1.04847
-0.0017785
1.04822
-0.00145884
1.04722
0.00128854
1.04479
1.04789
0.000763806
-0.34487
-3.05883
3.40294
0.0062223
-0.348484
-3.05894
3.40197
0.0193223
-0.351449
-3.05875
3.3971
0.00359956
-0.331801
-3.05942
3.40695
0.0251865
-0.351927
-3.05485
3.38519
-0.323474
-3.07322
3.42188
0.00176381
1.64074
-1.41779
-0.569588
-0.00336977
1.64619
-1.42008
-0.569454
-0.0102436
1.64326
-1.4275
-0.560339
-0.00199449
1.64843
-1.40757
-0.580906
-0.00533561
1.6644
-1.42269
-0.590292
1.6312
-1.41223
-0.54778
0.00450148
-2.36066
-0.46897
-0.00215461
-2.37088
-0.460454
-0.00162822
-2.36964
-0.466746
-0.000648712
-2.36526
-0.467139
-0.00861989
-2.37926
-0.483276
-2.33368
-0.471838
-0.000398217
-1.03329
-2.02515
-0.00113467
-1.03378
-2.02442
-0.00193903
-1.03371
-2.02424
-0.000240464
-1.03433
-2.02678
0.00969317
-1.0338
-2.03098
-1.03692
-2.02661
0.00027641
0.772581
-3.22393
-0.00230875
0.773418
-3.2247
-0.0129324
0.773516
-3.2241
-0.00165022
0.772969
-3.22616
0.0138789
0.766016
-3.23804
0.778734
-3.214
0.00166103
-4.21212
-0.00279167
-4.21733
-0.0102225
-4.21354
-0.00221566
-4.22348
0.0238899
-4.25071
-4.16329
-7.13637e-05
-0.744064
-1.28102
0.00022049
-0.743946
-1.28077
0.000513111
-0.744024
-1.28051
0.00126089
-0.744717
-1.28282
0.000678939
-0.744833
-1.28557
-0.745471
-1.28046
-0.000598538
-1.48709
-2.4803
-0.00204622
-1.48694
-2.48026
-0.0067482
-1.48404
-2.47938
-0.00214884
-1.49648
-2.479
0.0105186
-1.52643
-2.46911
-1.46674
-2.48221
-0.000521786
-2.67355
-0.0017405
-2.67584
-0.00345793
-2.67355
-0.0115469
-2.67623
-0.0151603
-2.6832
-2.63844
0.000506109
-0.58757
-0.693951
0.00106512
-0.587395
-0.693933
0.00212332
-0.587547
-0.694016
0.00145272
-0.587987
-0.694158
-0.00185312
-0.587776
-0.694485
-0.587907
-0.694405
-0.000423021
-1.33079
-1.73666
-0.000195781
-1.3312
-1.73668
0.000306116
-1.33081
-1.73662
-0.000348374
-1.32992
-1.73641
-0.00302983
-1.3193
-1.7349
-1.33714
-1.73601
-0.00115478
-1.93966
-0.00356357
-1.9396
-0.00629352
-1.93715
-0.00366967
-1.94421
-0.0163073
-1.94057
-1.9216
0.000282919
-0.176345
-0.517889
0.000418959
-0.17624
-0.517828
0.000660704
-0.176399
-0.517859
0.000333005
-0.175626
-0.518204
-0.000955931
-0.174125
-0.519071
-0.178045
-0.517315
-5.03395e-05
-0.429837
-1.48312
-1.04696e-05
-0.429695
-1.48326
-0.000605054
-0.429141
-1.48328
-8.78831e-05
-0.429417
-1.48314
0.00233711
-0.427536
-1.48391
-0.429039
-1.48268
-0.00143098
-1.70641
-0.00240955
-1.7063
-0.00210371
-1.70541
-0.0049748
-1.70744
-0.0081651
-1.7042
-1.70059
9.76059e-05
0.189315
0.000189889
0.189574
0.000428176
0.189443
0.000155746
0.189566
-0.00102657
0.190014
0.188924
8.2706e-05
-0.340426
4.82472e-05
-0.339873
-0.000303619
-0.339759
3.77139e-05
-0.340363
0.00125094
-0.341769
-0.338329
-0.00105791
-0.00127261
-0.00106489
-0.00250156
-0.00161197
4.80243e-08
0.0630556
-0.00923529
6.21611e-08
0.0630558
-0.00923535
6.05638e-08
0.0630558
-0.00923517
4.36483e-08
0.0630558
-0.009235
-2.07271e-08
0.0630558
-0.0092348
0.0630556
-0.0092346
1.0906e-08
0.0687426
-0.00568736
-4.51039e-08
0.0687427
-0.0056874
-7.40691e-08
0.0687427
-0.0056873
-1.16475e-07
0.0687427
-0.00568721
-1.62118e-07
0.0687427
-0.00568711
0.0687425
-0.005687
-6.829e-08
-0.00266244
-7.37664e-08
-0.00266246
-9.10724e-08
-0.00266242
-1.18521e-07
-0.00266237
-1.32145e-07
-0.00266231
-0.00266221
-7.92493e-08
0.0668026
-0.0197425
4.75995e-07
0.0668029
-0.0197423
8.00737e-07
0.0668028
-0.0197419
8.82844e-07
0.0668028
-0.0197414
7.14161e-07
0.0668026
-0.019741
0.0668023
-0.0197406
3.92446e-08
0.0726608
-0.0115456
3.48534e-07
0.072661
-0.0115454
5.42718e-07
0.0726609
-0.0115452
5.57726e-07
0.0726608
-0.0115448
4.25778e-07
0.0726607
-0.0115446
0.0726604
-0.0115444
-7.64118e-08
-0.00622007
5.81599e-08
-0.00622009
1.42223e-07
-0.00622002
1.79135e-07
-0.00621992
2.02397e-07
-0.00621985
-0.0062197
8.47546e-07
0.0747578
-0.033444
2.16556e-06
0.0747581
-0.0334434
2.80424e-06
0.0747579
-0.0334427
2.82134e-06
0.0747576
-0.0334421
2.14651e-06
0.0747572
-0.0334416
0.0747566
-0.0334411
7.09779e-07
0.0807679
-0.0175553
1.47567e-06
0.0807679
-0.0175547
1.81796e-06
0.0807677
-0.0175542
1.7564e-06
0.0807674
-0.0175538
1.25735e-06
0.080767
-0.0175535
0.0807667
-0.0175535
2.58247e-07
-0.0119572
5.50708e-07
-0.0119574
7.17266e-07
-0.0119574
6.9152e-07
-0.0119573
5.33124e-07
-0.0119573
-0.011957
3.6101e-06
0.0879054
-0.053789
5.5287e-06
0.0879047
-0.0537882
6.06202e-06
0.0879035
-0.0537878
5.38556e-06
0.0879022
-0.0537875
3.5741e-06
0.0879008
-0.0537876
0.0878994
-0.0537874
2.60791e-06
0.0935197
-0.0231712
3.57052e-06
0.0935194
-0.0231699
3.60801e-06
0.0935188
-0.0231695
2.88978e-06
0.0935182
-0.0231694
1.46023e-06
0.0935176
-0.0231697
0.0935171
-0.0231705
4.96031e-07
-0.0219897
6.53695e-07
-0.0219901
8.74538e-07
-0.0219905
4.60567e-07
-0.02199
2.94589e-07
-0.0219907
-0.0219898
7.6317e-06
0.107799
-0.0867607
8.99499e-06
0.107794
-0.0867606
8.16631e-06
0.107791
-0.0867616
5.96559e-06
0.107787
-0.0867626
3.45698e-06
0.107784
-0.0867648
0.107782
-0.0867653
4.27144e-06
0.111671
-0.0270477
4.23877e-06
0.11167
-0.0270464
2.98753e-06
0.111669
-0.0270475
1.41848e-06
0.111669
-0.02705
-1.40418e-07
0.111668
-0.0270525
0.111668
-0.0270561
7.22721e-07
-0.040146
5.70247e-07
-0.0401457
1.36807e-06
-0.0401476
1.35955e-09
-0.0401447
3.52706e-07
-0.0401477
-0.0401455
9.68146e-06
0.137257
-0.142809
7.45774e-06
0.137246
-0.142813
3.00934e-06
0.137239
-0.142818
-1.51038e-06
0.137234
-0.142823
-2.06329e-06
0.137232
-0.142831
0.137232
-0.142833
6.10341e-06
0.138536
-0.0283341
3.33346e-06
0.138535
-0.0283337
-1.61897e-06
0.138534
-0.0283383
-4.95825e-06
0.138535
-0.0283472
-6.63366e-06
0.138535
-0.0283542
0.138535
-0.0283662
-9.75998e-08
-0.0695304
-2.11837e-06
-0.0695277
-6.19518e-09
-0.0695362
-3.43097e-06
-0.0695257
3.89464e-07
-0.0695388
-0.0695317
6.39172e-06
0.177174
-0.235405
-5.51201e-06
0.177157
-0.235415
-1.76606e-05
0.177149
-0.235427
-2.88203e-05
0.177149
-0.235436
-2.102e-05
0.177151
-0.235458
0.177158
-0.235462
-4.40857e-06
0.176261
-0.0274171
-2.41242e-05
0.176261
-0.0274185
-4.37214e-05
0.176263
-0.0274326
-4.92761e-05
0.176268
-0.0274606
-4.69098e-05
0.176273
-0.0274797
0.176278
-0.0275331
6.07806e-06
-0.119894
2.41744e-07
-0.119877
1.18304e-06
-0.119898
-1.24929e-05
-0.119869
-1.80182e-05
-0.119895
-0.119915
-1.51801e-05
0.255852
-0.412738
-5.28613e-05
0.255843
-0.412755
-7.59305e-05
0.255846
-0.412777
-0.000105275
0.255873
-0.412784
-6.8658e-05
0.255888
-0.41285
0.255919
-0.412867
-1.7971e-05
0.23875
-0.010297
-3.79274e-05
0.238756
-0.0103115
-7.35441e-05
0.238765
-0.0103164
-6.69115e-05
0.238771
-0.0103652
-9.49901e-05
0.2388
-0.0103634
0.238787
-0.0104959
2.47775e-05
-0.169431
8.4089e-06
-0.169358
-6.58332e-06
-0.169391
-2.59727e-05
-0.169347
-8.4078e-05
-0.169346
-0.169513
-6.11756e-05
0.310059
-0.677333
-0.000104519
0.310073
-0.67739
-0.000118725
0.310064
-0.677403
-0.000289325
0.310071
-0.677202
-0.000327816
0.310135
-0.677385
0.309856
-0.677561
-0.00011772
0.335982
-0.0361018
-0.000311563
0.336036
-0.0360801
-0.000621187
0.336106
-0.0360482
-0.00058866