/*--------------------------------*- C++ -*----------------------------------*\
| =========                 |                                                 |
| \\      /  F ield         | OpenFOAM: The Open Source CFD Toolbox           |
|  \\    /   O peration     | Version:  v1612+                                |
|   \\  /    A nd           | Web:      www.OpenFOAM.com                      |
|    \\/     M anipulation  |                                                 |
\*---------------------------------------------------------------------------*/
FoamFile
{
    version     2.0;
    format      ascii;
    class       volVectorField;
    location    "3.5";
    object      U;
}
// * * * * * * * * * * * * * * * * * * * * * * * * * * * * * * * * * * * * * //

dimensions      [0 1 -1 0 0 0 0];

internalField   nonuniform List<vector> 
1116
(
(0.322986 -2.62064e-06 -0.332728)
(0.32298 9.3219e-06 -0.332736)
(0.322984 9.45667e-06 -0.332722)
(0.322988 9.19662e-06 -0.332719)
(0.322986 -1.24904e-06 -0.332731)
(0.32298 1.94592e-06 -0.332722)
(1.11584 6.11662e-06 -0.364478)
(1.11585 1.07454e-05 -0.364494)
(1.11585 1.11569e-05 -0.364477)
(1.11585 1.45712e-05 -0.364472)
(1.11585 -6.62667e-06 -0.364491)
(1.11584 -1.204e-05 -0.364482)
(1.67563 1.02061e-05 -0.225127)
(1.67566 1.29268e-05 -0.225148)
(1.67565 8.00996e-06 -0.225134)
(1.67565 1.35303e-05 -0.225131)
(1.67566 -6.44883e-06 -0.22515)
(1.67563 -1.27065e-05 -0.225136)
(2.02199 1.0949e-05 -0.0850123)
(2.02203 1.4169e-05 -0.085035)
(2.02202 5.6361e-06 -0.085023)
(2.02202 1.17599e-05 -0.0850222)
(2.02203 -5.27887e-06 -0.0850381)
(2.02199 -1.00339e-05 -0.0850211)
(2.26029 9.78673e-06 0.0127026)
(2.26034 1.37077e-05 0.0126831)
(2.26033 3.97647e-06 0.012693)
(2.26033 9.06221e-06 0.0126934)
(2.26033 -4.94531e-06 0.0126811)
(2.26029 -7.47514e-06 0.0126977)
(2.42525 7.61237e-06 0.0703248)
(2.4253 1.25972e-05 0.0703104)
(2.42529 2.96061e-06 0.0703188)
(2.42529 5.8188e-06 0.0703189)
(2.4253 -5.50086e-06 0.0703089)
(2.42525 -5.03459e-06 0.0703244)
(2.4976 4.0763e-06 0.121753)
(2.49767 1.03297e-05 0.121746)
(2.49766 1.76936e-06 0.121753)
(2.49766 1.78649e-06 0.121753)
(2.49766 -6.69296e-06 0.121744)
(2.49761 -1.8594e-06 0.121758)
(2.44064 1.27764e-07 0.273812)
(2.4407 9.4242e-06 0.27381)
(2.44069 1.2698e-06 0.273814)
(2.44069 -1.49075e-06 0.273814)
(2.44069 -9.41937e-06 0.273806)
(2.44063 1.49989e-07 0.273822)
(1.99944 -2.38164e-06 0.678799)
(1.9995 1.08929e-05 0.678807)
(1.9995 5.76543e-07 0.678804)
(1.99949 -2.19006e-06 0.678805)
(1.9995 -1.48649e-05 0.678799)
(1.99942 -3.12441e-06 0.678815)
(0.991637 -1.03037e-06 0.94919)
(0.991698 1.24161e-05 0.949224)
(0.991703 -1.33035e-06 0.949215)
(0.991693 -2.15153e-07 0.949217)
(0.99172 -1.66145e-05 0.949221)
(0.991578 -7.80528e-06 0.949211)
(-0.394428 1.45784e-05 0.369851)
(-0.394353 1.87159e-05 0.369921)
(-0.394339 -5.47523e-06 0.369911)
(-0.394351 3.77981e-06 0.369906)
(-0.394302 -1.80093e-05 0.369934)
(-0.394521 -1.53622e-05 0.369822)
(-0.9091 -1.69875e-05 -0.899536)
(-0.909038 -2.4221e-05 -0.899567)
(-0.909038 -1.16277e-05 -0.89956)
(-0.909039 -1.75767e-05 -0.899571)
(-0.908996 1.00835e-05 -0.899576)
(-0.909118 3.00459e-05 -0.899588)
(0.537709 1.13847e-05 -1.28083)
(0.537702 -4.04461e-05 -1.28083)
(0.537723 3.48319e-05 -1.28083)
(0.537702 7.21472e-06 -1.28083)
(0.537685 3.10142e-05 -1.28082)
(0.537747 -3.23261e-05 -1.2808)
(1.96051 3.31389e-05 -1.23407)
(1.96048 -6.92064e-05 -1.23405)
(1.9605 5.73659e-05 -1.23407)
(1.96047 -7.67727e-06 -1.23402)
(1.96045 7.18474e-05 -1.23397)
(1.96055 -4.92359e-05 -1.23408)
(2.90453 5.34998e-05 -0.730634)
(2.90451 -5.759e-05 -0.730581)
(2.90451 5.9683e-05 -0.730607)
(2.90448 -1.65318e-05 -0.73057)
(2.90448 7.89275e-05 -0.730521)
(2.90458 -5.37513e-05 -0.73062)
(3.35873 6.37028e-05 -0.551673)
(3.35878 -3.66004e-05 -0.551601)
(3.35874 5.05735e-05 -0.551626)
(3.35871 -5.42508e-06 -0.551605)
(3.35875 6.13185e-05 -0.551558)
(3.35877 -6.07358e-05 -0.551645)
(3.64171 6.97138e-05 -0.481212)
(3.64183 -1.49674e-05 -0.481135)
(3.64175 3.54162e-05 -0.481159)
(3.64174 5.89025e-06 -0.481148)
(3.6418 3.96527e-05 -0.481108)
(3.64173 -6.45792e-05 -0.481183)
(3.88532 7.5246e-05 -0.369009)
(3.88552 3.75233e-06 -0.36894)
(3.8854 2.04946e-05 -0.368956)
(3.88539 1.29799e-05 -0.36895)
(3.88547 2.32694e-05 -0.368923)
(3.88533 -6.40927e-05 -0.368983)
(4.15603 7.8775e-05 -0.151286)
(4.15628 1.53701e-05 -0.151239)
(4.15614 7.48296e-06 -0.151243)
(4.15613 1.33071e-05 -0.151238)
(4.15622 1.00963e-05 -0.151228)
(4.15604 -6.10179e-05 -0.151266)
(4.19705 7.64992e-05 0.23994)
(4.19737 2.33939e-05 0.239971)
(4.19721 2.21509e-07 0.239975)
(4.19721 1.22548e-05 0.23998)
(4.19731 -1.29886e-06 0.239973)
(4.19709 -5.4907e-05 0.239958)
(3.65902 8.7608e-05 0.770809)
(3.65937 4.87298e-05 0.770821)
(3.65922 -1.69859e-06 0.770833)
(3.65922 2.04665e-05 0.770834)
(3.65932 -1.85827e-05 0.770811)
(3.6591 -5.86792e-05 0.770815)
(2.92961 5.45232e-05 1.3033)
(2.93 4.46736e-05 1.30332)
(2.92985 8.77883e-06 1.30332)
(2.92985 1.7598e-05 1.30332)
(2.92995 -1.93867e-05 1.3033)
(2.9297 -3.90374e-05 1.30331)
(1.55969 4.18505e-05 1.13015)
(1.56008 4.07608e-05 1.13023)
(1.55997 1.07503e-06 1.13021)
(1.55996 1.29765e-05 1.1302)
(1.56007 -2.04296e-05 1.1302)
(1.55977 -2.84429e-05 1.13015)
(0.299693 -5.30838e-05 -0.198022)
(0.300083 -5.14663e-05 -0.197946)
(0.299997 -2.85245e-07 -0.197967)
(0.29999 -1.62458e-05 -0.19798)
(0.300088 2.94354e-05 -0.197955)
(0.299773 4.72999e-05 -0.198064)
(0.152929 -7.35162e-05 -2.61939)
(0.152912 -0.00012589 -2.6195)
(0.15291 -1.62508e-05 -2.61959)
(0.152903 -3.54289e-05 -2.61947)
(0.152911 0.000123154 -2.61937)
(0.152929 9.0502e-05 -2.61948)
(0.50421 -8.00927e-05 -1.93853)
(0.504105 -0.000118682 -1.93865)
(0.504072 1.61154e-05 -1.9387)
(0.50408 -1.18185e-05 -1.93861)
(0.504118 0.00014857 -1.93853)
(0.504189 0.000105669 -1.93855)
(1.182 -6.20729e-05 -1.36733)
(1.18189 -9.75412e-05 -1.36747)
(1.18185 3.22973e-05 -1.36746)
(1.18187 -5.51164e-06 -1.36743)
(1.18193 0.000127989 -1.3674)
(1.18202 8.68204e-05 -1.36726)
(2.29664 -7.16061e-05 -0.939319)
(2.29654 -0.000107993 -0.939428)
(2.2965 2.44989e-05 -0.939407)
(2.29653 -1.70469e-05 -0.93938)
(2.29661 0.000125246 -0.939345)
(2.2967 9.65526e-05 -0.939236)
(3.76868 -8.39356e-05 -0.677315)
(3.7686 -0.000124364 -0.677318)
(3.76852 8.61038e-07 -0.677328)
(3.76854 -4.59455e-05 -0.677311)
(3.76863 9.84608e-05 -0.67724)
(3.76872 9.14229e-05 -0.677211)
(5.43971 -9.92043e-05 -0.572149)
(5.43963 -0.000167247 -0.572014)
(5.43956 -5.37283e-05 -0.572071)
(5.43957 -6.83578e-05 -0.572063)
(5.43966 7.23739e-05 -0.571947)
(5.43973 7.32605e-05 -0.572021)
(7.66426 -0.000134821 -0.345597)
(7.66417 -0.000192935 -0.34542)
(7.66392 -5.21895e-05 -0.345563)
(7.66387 -0.000106672 -0.345585)
(7.66406 6.32722e-05 -0.345472)
(7.66412 0.000107454 -0.345583)
(8.43779 -2.56628e-05 1.22395)
(8.43784 -5.70136e-05 1.22411)
(8.43774 1.17238e-05 1.22399)
(8.43774 -8.15369e-05 1.22396)
(8.43782 2.39096e-05 1.22404)
(8.43789 5.17551e-05 1.22389)
(6.00282 0.000153569 2.03426)
(6.00373 8.41483e-05 2.03461)
(6.00334 -4.3631e-06 2.03445)
(6.00337 1.672e-05 2.03444)
(6.00362 -1.08425e-05 2.03454)
(6.00321 -6.06132e-05 2.03433)
(3.29418 0.000115564 2.47595)
(3.2948 8.28504e-05 2.47609)
(3.29452 2.52668e-05 2.47605)
(3.29454 4.71595e-05 2.47606)
(3.29471 -3.02337e-05 2.47609)
(3.29437 -8.05819e-05 2.47599)
(2.01078 0.000176029 2.18452)
(2.0116 0.000134548 2.1849)
(2.01129 -1.76057e-05 2.18474)
(2.01131 4.48213e-05 2.18475)
(2.01152 -5.12351e-05 2.18484)
(2.01099 -9.03866e-05 2.18459)
(0.207603 -0.000113013 0.787782)
(0.208345 -8.54622e-05 0.788122)
(0.208121 2.7439e-05 0.788012)
(0.208133 -3.67671e-05 0.788009)
(0.208335 6.34665e-05 0.7881)
(0.20775 9.39362e-05 0.787844)
(-0.350518 -2.80261e-05 -2.00464)
(-0.350492 1.21711e-05 -2.00509)
(-0.350509 -1.94962e-05 -2.00503)
(-0.350503 1.98086e-06 -2.00502)
(-0.350487 -2.15868e-05 -2.00507)
(-0.350565 2.45803e-05 -2.00463)
(-1.0047 -1.63151e-05 -1.91829)
(-1.00459 2.47508e-05 -1.91878)
(-1.00463 -1.82761e-05 -1.9187)
(-1.00462 -2.87513e-06 -1.91871)
(-1.00458 -1.18065e-05 -1.91879)
(-1.00477 3.1293e-05 -1.91823)
(-1.32188 -1.57635e-05 -1.93196)
(-1.32162 1.36133e-05 -1.93244)
(-1.32166 -9.43458e-06 -1.93236)
(-1.32165 -7.75409e-06 -1.93237)
(-1.32157 1.03629e-06 -1.93245)
(-1.32192 3.50464e-05 -1.93189)
(-1.38276 -5.20581e-05 -2.37982)
(-1.38245 -4.24688e-05 -2.38032)
(-1.3825 -4.19784e-05 -2.38024)
(-1.3825 -4.66789e-05 -2.38025)
(-1.38243 1.65717e-06 -2.38035)
(-1.38277 4.54356e-05 -2.37976)
(-1.58318 -8.89693e-05 -2.81444)
(-1.58291 -9.32861e-05 -2.81489)
(-1.58299 -6.00093e-05 -2.81482)
(-1.583 -6.63645e-05 -2.81484)
(-1.58295 9.87126e-06 -2.81493)
(-1.58322 6.22257e-05 -2.81442)
(-1.93322 -0.000112653 -3.37805)
(-1.93308 -0.000123883 -3.37846)
(-1.93318 -4.92562e-05 -3.37843)
(-1.93321 -7.96616e-05 -3.37845)
(-1.93319 4.02655e-05 -3.3785)
(-1.9333 0.000111603 -3.37808)
(-1.74567 -0.000162934 -3.04982)
(-1.74568 -0.000147288 -3.05022)
(-1.74574 3.51114e-05 -3.05028)
(-1.74582 -4.31668e-05 -3.05038)
(-1.74583 0.000204432 -3.05044)
(-1.74578 0.000287009 -3.05005)
(1.52399 -9.86585e-05 1.62793)
(1.52328 -8.63848e-07 1.62728)
(1.52329 0.000179634 1.62735)
(1.52327 4.72028e-05 1.62736)
(1.52291 0.000117209 1.62712)
(1.52407 0.000135463 1.62778)
(6.01314 0.000273114 7.45373)
(6.01249 0.00020466 7.45457)
(6.01273 6.73146e-05 7.45412)
(6.01275 0.000176253 7.45409)
(6.01249 -4.74331e-05 7.45436)
(6.01285 -0.000180274 7.45405)
(-0.855885 0.000211077 5.78949)
(-0.854574 0.000173787 5.78987)
(-0.8551 5.05223e-05 5.78971)
(-0.855152 8.50022e-05 5.78984)
(-0.854496 -6.58706e-05 5.78987)
(-0.855479 -0.000148079 5.78955)
(2.01993 0.000257363 3.27557)
(2.02107 0.000212667 3.27665)
(2.02061 -1.44437e-05 3.27618)
(2.02057 6.14085e-05 3.27615)
(2.02071 -7.16594e-05 3.27627)
(2.02044 -0.000134154 3.27597)
(-0.250055 -0.000108982 0.92631)
(-0.249328 -3.7483e-05 0.926729)
(-0.249556 4.78558e-05 0.926601)
(-0.249628 1.00338e-05 0.926613)
(-0.249624 3.85008e-05 0.926741)
(-0.249767 -1.09839e-06 0.926387)
(0.0140849 -1.13067e-06 0.0143012)
(0.0140858 -2.47664e-06 0.014301)
(0.0140864 -2.78487e-06 0.0143009)
(0.0140869 -2.76571e-06 0.0143008)
(0.0140875 -2.33728e-06 0.0143008)
(0.0140882 -1.00403e-06 0.0143006)
(0.0428168 -1.5439e-06 0.0149434)
(0.0428194 -3.35848e-06 0.0149437)
(0.0428212 -3.73062e-06 0.0149437)
(0.0428228 -3.69108e-06 0.0149437)
(0.0428246 -3.27727e-06 0.0149434)
(0.0428267 -1.47113e-06 0.0149428)
(0.0733534 -1.8095e-06 0.0165266)
(0.0733591 -4.4642e-06 0.0165292)
(0.0733635 -5.66207e-06 0.0165303)
(0.0733674 -5.82782e-06 0.0165305)
(0.0733715 -5.27793e-06 0.0165303)
(0.0733763 -2.40825e-06 0.0165293)
(0.106991 -3.89229e-06 0.0199979)
(0.107004 -9.65479e-06 0.0200008)
(0.107013 -1.21074e-05 0.0200014)
(0.107021 -1.20247e-05 0.0200005)
(0.107028 -1.07289e-05 0.0199985)
(0.107037 -4.95383e-06 0.0199948)
(0.14478 -1.03421e-05 0.0273606)
(0.144807 -2.14643e-05 0.0273546)
(0.144821 -2.18621e-05 0.0273508)
(0.14483 -1.8661e-05 0.0273461)
(0.144837 -1.47133e-05 0.0273409)
(0.144848 -6.5984e-06 0.0273339)
(0.186753 -2.2415e-05 0.0418716)
(0.186795 -3.63487e-05 0.0418377)
(0.186805 -2.36405e-05 0.0418219)
(0.186804 -1.19819e-05 0.0418111)
(0.186798 -2.21257e-06 0.0418033)
(0.186798 4.584e-07 0.041796)
(0.230909 -3.22771e-05 0.0673476)
(0.230955 -3.07581e-05 0.0672758)
(0.230941 1.50917e-05 0.0672471)
(0.230907 4.01481e-05 0.0672352)
(0.230864 5.39914e-05 0.0672334)
(0.230829 2.81741e-05 0.067239)
(0.270928 -2.75814e-05 0.106373)
(0.270941 2.06297e-05 0.106267)
(0.270881 0.000121608 0.106239)
(0.270793 0.000163767 0.106243)
(0.270695 0.000171909 0.106267)
(0.270595 8.2942e-05 0.106311)
(0.300347 1.39948e-05 0.153669)
(0.300285 0.000128323 0.153575)
(0.300178 0.000261104 0.153579)
(0.300052 0.000306275 0.153628)
(0.299913 0.000297474 0.1537)
(0.299762 0.000140138 0.153796)
(0.291912 6.36211e-05 0.198179)
(0.291746 0.000190216 0.198195)
(0.291607 0.000278106 0.198298)
(0.291472 0.000306578 0.198458)
(0.29132 0.000260006 0.198641)
(0.291113 0.000108156 0.19886)
(0.237934 6.47373e-05 0.169243)
(0.237712 0.000115598 0.169462)
(0.237603 0.000100804 0.169519)
(0.237523 9.42008e-05 0.169545)
(0.237413 9.42954e-05 0.169576)
(0.237178 5.37265e-05 0.169773)
(0.0888044 -3.53408e-05 0.115153)
(0.0886771 -0.000122558 0.115332)
(0.0886351 -0.000187192 0.115342)
(0.0886098 -0.000206546 0.115327)
(0.0885742 -0.000204583 0.115276)
(0.0884629 -9.35332e-05 0.115357)
(0.0135667 -1.36829e-06 0.0414253)
(0.0135679 -2.78639e-06 0.0414254)
(0.0135687 -2.82951e-06 0.0414255)
(0.0135693 -2.68306e-06 0.0414257)
(0.0135699 -2.1195e-06 0.0414259)
(0.0135706 -8.59072e-07 0.0414257)
(0.0409578 -2.04435e-06 0.0428812)
(0.0409617 -3.96816e-06 0.0428821)
(0.0409641 -3.80755e-06 0.0428826)
(0.0409661 -3.51878e-06 0.042883)
(0.040968 -2.75227e-06 0.042883)
(0.0409701 -1.12788e-06 0.042882)
(0.0688335 -3.30272e-06 0.0454277)
(0.0688416 -6.25194e-06 0.0454325)
(0.0688463 -5.84164e-06 0.0454349)
(0.0688499 -5.22898e-06 0.0454359)
(0.0688532 -4.0662e-06 0.0454357)
(0.0688574 -1.76338e-06 0.0454339)
(0.0966964 -5.05856e-06 0.0476849)
(0.096713 -8.9638e-06 0.047688)
(0.0967205 -7.44521e-06 0.0476879)
(0.0967255 -5.90397e-06 0.0476854)
(0.0967295 -4.52613e-06 0.0476808)
(0.0967359 -2.23846e-06 0.0476732)
(0.123217 -6.1886e-06 0.0469177)
(0.123251 -6.95396e-06 0.0468977)
(0.123262 -6.74683e-07 0.0468843)
(0.123266 2.5972e-06 0.0468716)
(0.123267 4.00155e-06 0.0468585)
(0.123273 1.34779e-06 0.0468444)
(0.146648 -5.82598e-06 0.0375977)
(0.146697 3.90567e-06 0.0375173)
(0.146704 2.28718e-05 0.0374778)
(0.146695 2.95197e-05 0.0374526)
(0.146682 2.89329e-05 0.0374363)
(0.146675 1.22995e-05 0.0374279)
(0.165411 1.96e-05 0.0125175)
(0.165472 6.1374e-05 0.0123435)
(0.16546 8.92159e-05 0.0122766)
(0.165421 9.48618e-05 0.0122532)
(0.165371 8.42908e-05 0.012259)
(0.165321 3.64987e-05 0.0122942)
(0.182246 5.09432e-05 -0.0412885)
(0.18229 0.000134991 -0.0415252)
(0.182235 0.000174872 -0.0415702)
(0.182145 0.000176867 -0.0415371)
(0.182039 0.000154998 -0.0414521)
(0.181917 6.84625e-05 -0.0413095)
(0.199192 9.04779e-05 -0.126858)
(0.199118 0.000195221 -0.127044)
(0.19894 0.000202587 -0.12696)
(0.198714 0.000174574 -0.126767)
(0.198465 0.000135704 -0.126512)
(0.198184 5.84754e-05 -0.126203)
(0.256393 0.000122542 -0.260375)
(0.256135 0.000242432 -0.260387)
(0.255865 0.000238842 -0.260195)
(0.25558 0.000209692 -0.259942)
(0.255285 0.000183766 -0.259671)
(0.254834 9.19157e-05 -0.259365)
(0.280871 2.50587e-05 -0.425026)
(0.280395 -7.87146e-05 -0.424825)
(0.280109 -0.000269907 -0.424728)
(0.279879 -0.000376782 -0.424663)
(0.279704 -0.000161513 -0.424572)
(0.27934 4.7732e-05 -0.424442)
(0.203791 -0.000119216 -0.575517)
(0.203548 -0.000313373 -0.575433)
(0.203398 -0.00037831 -0.575459)
(0.203227 -0.0004768 -0.575403)
(0.203078 -0.000377543 -0.575346)
(0.203123 -8.86148e-05 -0.575723)
(0.0128409 -6.57108e-07 0.0668492)
(0.0128418 -1.448e-06 0.0668497)
(0.0128421 -1.52141e-06 0.0668501)
(0.0128423 -1.33216e-06 0.0668505)
(0.0128424 -9.41936e-07 0.0668509)
(0.0128424 -3.37307e-07 0.0668508)
(0.0394472 -1.38979e-06 0.0696602)
(0.0394498 -2.31946e-06 0.0696612)
(0.0394509 -1.72021e-06 0.069662)
(0.0394515 -1.26526e-06 0.0696627)
(0.0394518 -5.78278e-07 0.0696629)
(0.0394516 -8.60458e-08 0.0696619)
(0.0693872 -2.52614e-06 0.0752995)
(0.0693928 -3.56759e-06 0.0753033)
(0.0693948 -1.7328e-06 0.0753053)
(0.0693958 -6.36842e-07 0.0753063)
(0.0693959 4.57132e-07 0.0753059)
(0.0693952 4.49197e-07 0.0753036)
(0.106097 -3.54205e-06 0.0836727)
(0.10611 -3.65987e-06 0.0836718)
(0.106113 5.20225e-07 0.0836697)
(0.106114 2.78799e-06 0.0836664)
(0.106112 4.22237e-06 0.083661)
(0.106109 2.18929e-06 0.0836528)
(0.154783 -3.43514e-06 0.0952379)
(0.15481 8.60859e-07 0.0952104)
(0.154813 1.07559e-05 0.0951929)
(0.154808 1.53679e-05 0.0951787)
(0.154798 1.65042e-05 0.0951647)
(0.154783 7.83728e-06 0.0951511)
(0.220601 1.96629e-06 0.111428)
(0.220649 2.02464e-05 0.111342)
(0.220645 4.10331e-05 0.111297)
(0.220623 4.78182e-05 0.111271)
(0.22059 4.57877e-05 0.111255)
(0.220546 2.11676e-05 0.111252)
(0.309279 1.40099e-05 0.135572)
(0.309335 5.59606e-05 0.135403)
(0.309305 9.2576e-05 0.135335)
(0.309244 0.000101719 0.135312)
(0.309167 9.28307e-05 0.135323)
(0.309072 4.2412e-05 0.135372)
(0.411945 4.46318e-05 0.17208)
(0.411958 0.000115363 0.171892)
(0.411861 0.00014815 0.171853)
(0.411721 0.000144909 0.17189)
(0.411563 0.000117209 0.171988)
(0.411389 5.0779e-05 0.17215)
(0.522085 7.89838e-05 0.224485)
(0.522 0.000158314 0.224423)
(0.521842 0.000164894 0.224498)
(0.521658 0.000148542 0.224654)
(0.521483 9.43901e-05 0.22488)
(0.521318 3.26669e-05 0.225149)
(0.581871 2.87331e-05 0.307226)
(0.581621 -8.82875e-06 0.307441)
(0.581454 -9.05384e-05 0.307606)
(0.58131 -0.000160445 0.307757)
(0.581221 -0.000222294 0.30793)
(0.581299 -0.000113404 0.308146)
(0.46549 -0.000126348 0.204427)
(0.465175 -0.000313382 0.205034)
(0.46506 -0.000417509 0.205045)
(0.465037 -0.000506407 0.204618)
(0.465122 -0.000384485 0.203687)
(0.465335 -0.000106379 0.205175)
(0.119588 -0.000222006 -0.0267554)
(0.119251 -0.000341396 -0.0265417)
(0.119118 -3.07753e-05 -0.0266561)
(0.119392 4.11467e-05 -0.0260793)
(0.119966 -0.000751365 -0.0267638)
(0.118871 -0.000711891 -0.0272638)
(0.0110638 -4.49747e-07 0.0893269)
(0.0110646 -7.57178e-07 0.0893273)
(0.0110647 -5.12253e-07 0.0893276)
(0.0110646 -2.91649e-07 0.0893279)
(0.0110644 -8.35689e-08 0.0893281)
(0.0110641 1.78192e-09 0.0893277)
(0.0335803 -7.80408e-07 0.0935316)
(0.0335824 -8.57095e-07 0.0935324)
(0.0335826 1.17065e-08 0.0935329)
(0.0335822 4.08935e-07 0.0935331)
(0.0335814 7.77935e-07 0.0935329)
(0.0335804 4.37583e-07 0.0935318)
(0.0568324 -8.765e-07 0.101873)
(0.0568356 2.16608e-08 0.101875)
(0.0568351 2.19318e-06 0.101876)
(0.0568333 2.96872e-06 0.101875)
(0.0568309 3.29758e-06 0.101874)
(0.0568284 1.56214e-06 0.101872)
(0.0800933 1.3858e-06 0.113354)
(0.0800976 6.0327e-06 0.11335)
(0.080095 1.0257e-05 0.113345)
(0.0800901 1.1379e-05 0.11334)
(0.0800841 1.04983e-05 0.113334)
(0.0800779 4.57794e-06 0.113327)
(0.101226 9.02195e-06 0.126118)
(0.101232 2.22859e-05 0.126091)
(0.101225 2.75582e-05 0.126073)
(0.101215 2.70783e-05 0.126059)
(0.101203 2.27615e-05 0.126046)
(0.101189 9.65978e-06 0.126036)
(0.117029 2.33464e-05 0.134475)
(0.11703 4.73814e-05 0.134404)
(0.117018 4.72846e-05 0.134365)
(0.117001 4.09682e-05 0.134342)
(0.11698 3.01671e-05 0.13433)
(0.116955 1.18534e-05 0.134332)
(0.124544 3.98137e-05 0.127306)
(0.124528 6.40261e-05 0.127185)
(0.124517 4.1041e-05 0.127139)
(0.124503 2.26384e-05 0.127129)
(0.124482 3.35751e-06 0.127144)
(0.124446 -3.43417e-06 0.127192)
(0.126906 3.77116e-05 0.0788725)
(0.126858 1.51184e-05 0.0787404)
(0.126865 -6.82699e-05 0.0787348)
(0.126886 -0.000103521 0.0787868)
(0.126891 -0.000109527 0.0788767)
(0.126844 -5.31857e-05 0.0790243)
(0.10569 -1.92986e-05 -0.0852362)
(0.105561 -0.000153236 -0.0852644)
(0.105582 -0.00032501 -0.0851647)
(0.105669 -0.000385437 -0.0849959)
(0.105752 -0.000303797 -0.0848432)
(0.105728 -0.000111025 -0.0846422)
(0.169158 -6.1344e-05 -0.342431)
(0.168801 -0.000279949 -0.342277)
(0.168843 -0.000522317 -0.342074)
(0.169243 -0.000637048 -0.34172)
(0.170113 -0.000421597 -0.341742)
(0.168858 -9.14556e-05 -0.341605)
(0.576816 0.00012497 -1.33015)
(0.576104 -0.000172575 -1.33005)
(0.576246 -0.00116587 -1.3301)
(0.576647 -0.00271535 -1.33034)
(0.578869 0.000781902 -1.33053)
(0.577656 0.00263173 -1.3324)
(0.965072 0.000160335 -1.47211)
(0.963857 7.90004e-05 -1.47236)
(0.962142 0.000649524 -1.47289)
(0.965009 -0.00143556 -1.47288)
(0.975646 -0.00043556 -1.46951)
(0.956778 0.00180443 -1.48005)
(0.0873524 3.24079e-05 -1.62612)
(0.0873615 2.12263e-05 -1.62652)
(0.087361 -1.25633e-05 -1.62645)
(0.0873657 -9.52813e-06 -1.62644)
(0.0873691 -3.23688e-05 -1.62652)
(0.0873491 -3.44617e-05 -1.62611)
(0.00935008 3.47199e-05 -1.88374)
(0.00934735 3.10283e-05 -1.88402)
(0.00934702 -4.38352e-06 -1.88397)
(0.00934576 4.40677e-06 -1.88397)
(0.00934408 -2.95801e-05 -1.88402)
(0.00934425 -3.46312e-05 -1.88373)
(0.0116922 1.98666e-05 -1.80936)
(0.0116924 2.04038e-05 -1.80951)
(0.0116925 1.16035e-06 -1.80949)
(0.0116919 2.84948e-06 -1.80949)
(0.0116913 -1.8298e-05 -1.80951)
(0.0116907 -2.0682e-05 -1.80935)
(0.122876 4.24098e-05 -1.69739)
(0.122904 2.46055e-05 -1.69783)
(0.122907 -6.86394e-06 -1.69776)
(0.122905 -3.5247e-06 -1.69775)
(0.122904 -2.98377e-05 -1.69782)
(0.122876 -4.64322e-05 -1.69734)
(-0.0707737 3.49859e-05 -1.94455)
(-0.0707771 3.3217e-05 -1.94483)
(-0.07078 -8.18019e-06 -1.94479)
(-0.0707811 7.48117e-07 -1.94479)
(-0.0707823 -4.34295e-05 -1.94484)
(-0.0707887 -4.32955e-05 -1.94453)
(0.0275995 2.08841e-05 -1.8519)
(0.0275982 2.0753e-05 -1.85205)
(0.0275976 3.53967e-07 -1.85203)
(0.0275966 1.11943e-06 -1.85203)
(0.0275954 -2.1969e-05 -1.85205)
(0.0275968 -2.39136e-05 -1.85189)
(0.412994 3.17839e-05 -1.41503)
(0.413017 1.37531e-05 -1.41547)
(0.413015 -1.0009e-05 -1.4154)
(0.413008 -7.4027e-07 -1.41539)
(0.413006 -2.82385e-05 -1.41547)
(0.412981 -4.74258e-05 -1.41496)
(-0.070747 3.56073e-05 -1.90199)
(-0.0707649 3.29901e-05 -1.90226)
(-0.070764 -1.25992e-05 -1.90222)
(-0.0707619 -3.40377e-06 -1.90221)
(-0.070762 -5.12157e-05 -1.90227)
(-0.0707458 -4.85715e-05 -1.90196)
(0.0368134 2.01958e-05 -1.72688)
(0.0368124 1.71204e-05 -1.72702)
(0.0368111 -3.07695e-06 -1.727)
(0.0368104 -2.56765e-06 -1.727)
(0.036809 -2.25998e-05 -1.72703)
(0.0368122 -2.30903e-05 -1.72688)
(0.569725 2.74412e-05 -1.46521)
(0.569703 1.37557e-05 -1.46565)
(0.569705 -1.03906e-05 -1.46557)
(0.569701 1.18065e-06 -1.46556)
(0.569696 -3.42755e-05 -1.46566)
(0.569706 -5.37514e-05 -1.46519)
(-0.128492 3.46389e-05 -2.03187)
(-0.128521 3.06981e-05 -2.03215)
(-0.128513 -1.17617e-05 -2.0321)
(-0.128508 -5.67303e-08 -2.0321)
(-0.128509 -4.19304e-05 -2.03215)
(-0.128469 -4.1176e-05 -2.03187)
(0.0243359 2.07485e-05 -1.75321)
(0.0243392 1.56375e-05 -1.75336)
(0.0243377 -4.68771e-06 -1.75335)
(0.0243374 -2.58216e-06 -1.75335)
(0.0243374 -1.93069e-05 -1.75338)
(0.0243349 -2.00994e-05 -1.75324)
(0.577043 2.36381e-05 -1.33553)
(0.577003 1.4128e-05 -1.33596)
(0.577006 -3.99503e-06 -1.33589)
(0.577004 6.67853e-06 -1.33589)
(0.576991 -2.25202e-05 -1.33599)
(0.577016 -4.36472e-05 -1.33557)
(-0.234129 3.70376e-05 -2.01011)
(-0.234164 3.72717e-05 -2.0104)
(-0.234153 -3.3721e-06 -2.01035)
(-0.234147 9.58335e-06 -2.01035)
(-0.23415 -3.07146e-05 -2.0104)
(-0.234101 -3.52283e-05 -2.01014)
(-0.0224349 2.07786e-05 -1.68243)
(-0.0224299 1.61255e-05 -1.68259)
(-0.0224321 -3.29371e-06 -1.68258)
(-0.0224338 -6.11911e-07 -1.68258)
(-0.0224337 -1.72296e-05 -1.6826)
(-0.0224412 -1.93024e-05 -1.68245)
(0.34207 3.26648e-05 -1.39736)
(0.342042 2.00654e-05 -1.39771)
(0.342054 -9.69555e-06 -1.39765)
(0.342067 -3.36793e-07 -1.39764)
(0.342052 -1.27547e-05 -1.39768)
(0.342083 -2.88652e-05 -1.39736)
(-0.346541 3.20194e-05 -1.97973)
(-0.346579 3.12989e-05 -1.97999)
(-0.34657 -1.89855e-06 -1.97997)
(-0.346569 1.00724e-05 -1.97997)
(-0.346571 -2.4227e-05 -1.98)
(-0.346541 -2.87261e-05 -1.97974)
(-0.0649834 1.82512e-05 -1.66985)
(-0.0649744 1.45127e-05 -1.66999)
(-0.0649796 -4.46644e-06 -1.66998)
(-0.0649835 -4.42539e-06 -1.66998)
(-0.0649831 -1.839e-05 -1.66999)
(-0.0649937 -1.79657e-05 -1.66983)
(-0.125223 1.75649e-05 -2.55427)
(-0.125246 1.9934e-05 -2.55451)
(-0.12526 -2.71922e-06 -2.55448)
(-0.125349 1.24359e-05 -2.55455)
(-0.12536 2.3479e-06 -2.55463)
(-0.125282 -1.09691e-05 -2.55428)
(-0.304679 2.02293e-05 -1.5174)
(-0.304701 1.54549e-05 -1.51763)
(-0.304692 -1.01795e-05 -1.51761)
(-0.304681 9.5041e-06 -1.5176)
(-0.304644 -3.6916e-05 -1.51764)
(-0.304712 -5.10552e-05 -1.51741)
(-0.183682 1.75579e-05 -1.61275)
(-0.183661 1.13548e-05 -1.61289)
(-0.183676 -1.11385e-05 -1.61286)
(-0.183686 -7.93218e-06 -1.61287)
(-0.183683 -1.46364e-05 -1.61291)
(-0.183682 -1.27891e-05 -1.61274)
(-2.53837 3.06658e-05 -3.61857)
(-2.53846 5.73001e-05 -3.61916)
(-2.53854 4.38337e-05 -3.619)
(-2.53864 9.51746e-05 -3.6189)
(-2.53864 -8.64381e-06 -3.61912)
(-2.53854 -7.45668e-05 -3.61847)
(-1.72113 4.13781e-05 -1.91853)
(-1.72116 -3.52229e-06 -1.91898)
(-1.72119 -6.43789e-05 -1.91885)
(-1.7212 -1.36936e-05 -1.91877)
(-1.72113 -1.21617e-05 -1.91888)
(-1.72124 -1.61452e-05 -1.91869)
(0.211297 4.11023e-05 -1.52672)
(0.211359 1.9501e-05 -1.52683)
(0.211298 -4.37945e-05 -1.52683)
(0.211247 -1.35973e-05 -1.52688)
(0.21123 -4.63088e-06 -1.52696)
(0.211259 -1.0918e-05 -1.52676)
(4.30423 0.000192714 5.5763)
(4.30384 0.000212647 5.57628)
(4.30394 0.0002018 5.57637)
(4.30399 0.000341307 5.57659)
(4.30381 2.8526e-05 5.57648)
(4.30437 -0.000190809 5.57672)
(-1.74023 0.000127543 1.28999)
(-1.74063 1.5804e-05 1.28904)
(-1.7405 -0.00011364 1.28953)
(-1.74037 3.33905e-05 1.29)
(-1.74064 0.000227342 1.28979)
(-1.73978 0.00018851 1.29)
(-1.29806 3.50037e-05 -0.809576)
(-1.29797 -9.6312e-05 -0.80978)
(-1.29808 -0.000254088 -0.809702)
(-1.29817 -0.000190878 -0.809703)
(-1.29817 3.72617e-05 -0.80976)
(-1.29811 9.71596e-05 -0.809598)
(3.10365 0.000280155 7.73819)
(3.10556 0.000169508 7.73767)
(3.10435 1.57854e-05 7.73786)
(3.10452 0.000228305 7.73813)
(3.10598 0.000112493 7.7378)
(3.10369 -9.66666e-05 7.73806)
(3.5918 0.000378298 7.60618)
(3.59302 0.000111501 7.60663)
(3.59241 -0.000351903 7.60654)
(3.59182 -0.000508375 7.60684)
(3.59204 0.00114571 7.60682)
(3.59282 0.00147984 7.60629)
(3.86252 0.000420515 7.51336)
(3.86236 0.000277659 7.51439)
(3.8621 -0.000179594 7.51438)
(3.86179 -0.000147109 7.51487)
(3.86125 0.00042916 7.51501)
(3.86278 0.000488257 7.51468)
(2.22247 0.000326474 1.64961)
(2.22479 0.000263563 1.65509)
(2.22384 -6.00494e-05 1.65315)
(2.22367 1.1712e-05 1.65287)
(2.22485 0.000158819 1.65512)
(2.22313 8.94768e-05 1.65112)
(-3.73155 0.000234015 2.26574)
(-3.73201 0.000265729 2.26944)
(-3.73191 0.000106453 2.26815)
(-3.73316 0.000620038 2.26727)
(-3.73805 -0.000700081 2.26711)
(-3.72574 -0.00133519 2.26866)
(-2.63191 -0.000238138 7.08612)
(-2.6305 -0.000301314 7.08912)
(-2.63091 -0.000188999 7.0883)
(-2.63196 -0.000223927 7.08811)
(-2.63356 0.000171557 7.08852)
(-2.63012 0.000157827 7.08796)
(1.37269 1.53805e-05 1.66191)
(1.37331 6.59129e-05 1.66291)
(1.37322 4.36517e-05 1.66261)
(1.37322 7.88414e-06 1.66255)
(1.37389 2.25455e-05 1.6628)
(1.37267 -1.77035e-05 1.66234)
(1.03674 0.000219606 1.24328)
(1.03772 0.000231614 1.24614)
(1.03755 0.000301615 1.24516)
(1.03622 0.000826411 1.24491)
(1.03434 -0.000929763 1.24589)
(1.03988 -0.00152312 1.24411)
(0.939946 -0.000447117 -5.5588)
(0.94168 -0.000993255 -5.55841)
(0.940928 -0.00155401 -5.55915)
(0.94137 -0.00217498 -5.55876)
(0.941788 0.000326311 -5.5611)
(0.937647 0.00140733 -5.55657)
(6.91269 0.000239308 -2.33578)
(6.91042 0.00275671 -2.34726)
(6.90439 0.0249862 -2.3596)
(6.93392 0.00633116 -2.25409)
(6.87907 0.0166322 -2.35867)
(6.98774 0.0357948 -2.22359)
(1.2939 0.00162214 -0.689103)
(1.30185 0.00163719 -0.704679)
(1.33308 -0.0118231 -0.710886)
(1.24531 -0.0102471 -0.680527)
(1.28143 -0.000370604 -0.735152)
(1.29074 -0.000641044 -0.644015)
(2.96409 0.00505077 12.8913)
(2.99276 0.00901671 12.9454)
(2.99165 -0.0132857 12.9298)
(2.97007 0.00337091 12.9357)
(3.01114 -0.00194764 13.0993)
(2.89937 -0.0247885 12.7793)
(4.04826 -0.000671032 -5.17752)
(4.047 -0.000454754 -5.1807)
(4.04686 -0.00138957 -5.17989)
(4.05314 -0.00780258 -5.17836)
(4.06518 0.00901503 -5.16944)
(4.04595 0.0159775 -5.1922)
(6.21333 4.06406e-05 -0.768319)
(6.21556 0.000639332 -0.768202)
(6.21402 -0.00993022 -0.768591)
(6.22387 -0.0227968 -0.770626)
(6.25156 0.0166083 -0.775955)
(6.19292 0.0300497 -0.769925)
(6.95636 0.00202633 7.17168)
(6.96886 0.00311012 7.17754)
(6.96578 -0.0112221 7.17884)
(6.95869 -0.0212439 7.17531)
(6.95174 0.0190196 7.13791)
(6.94508 0.0303507 7.20502)
(3.70489 -0.000392502 -3.08182)
(3.70362 4.59236e-05 -3.0832)
(3.70288 0.00109475 -3.08425)
(3.70967 -0.000212529 -3.07775)
(3.72032 0.00205634 -3.04955)
(3.7033 0.00173537 -3.10675)
(6.07322 -0.000592742 -0.746618)
(6.07338 -0.00112983 -0.744433)
(6.07201 -0.00433607 -0.743954)
(6.07077 -0.0179152 -0.753582)
(6.06493 0.0105387 -0.779704)
(6.0713 0.0258571 -0.730833)
(7.85452 0.00105176 -8.95239)
(7.8622 -0.00389524 -8.95761)
(7.8539 -0.00266451 -8.94161)
(7.87353 0.000339395 -8.9868)
(7.94815 -0.0393468 -9.15466)
(7.71355 -0.00434519 -8.87806)
(1.675 0.00027942 -1.96057)
(1.67526 0.00106574 -1.96201)
(1.67539 0.00226868 -1.96209)
(1.6751 0.00411655 -1.95942)
(1.67426 -0.000568335 -1.95798)
(1.67798 -0.00404459 -1.96434)
(4.00271 -0.000418543 -1.03053)
(4.00267 -0.000589686 -1.02809)
(4.00171 -0.000140201 -1.02887)
(3.99966 0.00139382 -1.03361)
(3.98196 -0.00294673 -1.0332)
(4.00556 -0.00411983 -1.02906)
(4.12082 -0.000248728 -6.29454)
(4.12297 -0.00523239 -6.29928)
(4.11893 -0.000473898 -6.29744)
(4.14021 -0.0172648 -6.29624)
(4.11975 -0.0188412 -6.24256)
(4.08179 0.00153097 -6.32059)
(0.867429 0.000239557 -0.382204)
(0.867002 0.000536988 -0.3832)
(0.867014 0.000725797 -0.383207)
(0.868522 0.0015442 -0.380834)
(0.871054 -0.000751004 -0.374507)
(0.865464 -0.00178284 -0.38833)
(3.01407 -0.000143186 -0.353126)
(3.01417 6.27551e-05 -0.351602)
(3.01433 -0.000193747 -0.352403)
(3.01441 -0.00159783 -0.350927)
(3.01797 0.00190141 -0.349608)
(3.01126 0.00298502 -0.355587)
(4.08208 -0.00122156 -2.02541)
(4.08002 -0.00345211 -2.02639)
(4.07601 -0.000167874 -2.02379)
(4.0844 -0.00828621 -2.02979)
(4.08231 -0.011152 -2.02151)
(4.05667 -0.000970475 -2.01644)
(1.36372 4.39249e-05 0.960462)
(1.36393 0.000219998 0.960538)
(1.36409 0.000271883 0.960522)
(1.36402 0.00121539 0.960437)
(1.36489 -0.000851051 0.960773)
(1.36348 -0.00198227 0.960402)
(2.70385 9.22991e-05 0.560958)
(2.70433 0.000261979 0.562664)
(2.70426 -0.000179777 0.561776)
(2.70439 -0.000888841 0.562669)
(2.70499 0.00116344 0.565402)
(2.70407 0.00169353 0.558352)
(2.95741 -0.000992756 -2.96464)
(2.95926 -0.0018685 -2.9628)
(2.95856 -0.00151398 -2.96173)
(2.95703 -0.00335054 -2.96733)
(2.94752 -0.00289668 -2.97698)
(2.95741 0.00011586 -2.94888)
(0.00913946 5.89587e-08 0.108025)
(0.00913961 4.77076e-08 0.108025)
(0.00913944 3.18998e-08 0.108025)
(0.0091393 9.86858e-08 0.108025)