/*--------------------------------*- C++ -*----------------------------------*\
| =========                 |                                                 |
| \\      /  F ield         | OpenFOAM: The Open Source CFD Toolbox           |
|  \\    /   O peration     | Version:  v1612+                                |
|   \\  /    A nd           | Web:      www.OpenFOAM.com                      |
|    \\/     M anipulation  |                                                 |
\*---------------------------------------------------------------------------*/
FoamFile
{
    version     2.0;
    format      ascii;
    class       volScalarField;
    location    "7.65";
    object      p_rgh;
}
// * * * * * * * * * * * * * * * * * * * * * * * * * * * * * * * * * * * * * //

dimensions      [1 -1 -2 0 0 0 0];

internalField   nonuniform List<scalar> 
320
(
-9800.21
-9800.21
-9800.22
-9800.21
-0.00329397
-0.00180183
-0.00122607
0.000936156
-0.00267402
-0.00110042
-0.000490811
-0.00304472
0.00213314
0.00183552
0.0097726
-0.0060182
-9799.8
-9799.77
-9799.79
-9799.88
-9799.78
-9799.83
-9799.79
-9799.78
-9799.84
-9799.86
-9799.98
-9799.81
-9800.21
-9800.2
-9800.2
-9800.21
-9800.21
-9800.21
-9800.22
-9800.22
-9800.22
-9800.2
-9800.2
-9800.21
-9800.21
-9800.21
-9800.21
-9800.21
-9800.21
-9800.2
-9800.2
-9800.21
-9800.2
-9800.21
-9800.21
-9800.21
-9800.21
-9800.21
-9800.2
-9800.21
-0.00288987
-0.00893998
0.00310377
-0.00711984
0.00564358
0.0131571
0.0172649
0.0178739
-0.00183166
0.0021653
0.0161435
0.0164433
-0.00308858
0.0149696
0.0156518
0.0142858
0.0145019
0.000943082
-0.00832342
0.0102205
-9799.81
-9799.77
-9799.94
-9799.82
-9799.99
-9800.02
-9800.02
-9800.03
-9799.84
-9799.92
-9800.02
-9800.03
-9799.8
-9799.97
-9800
-9800
-9799.98
-9799.91
-9799.78
-9799.97
-9800.2
-9800.2
-9800.19
-9800.19
-9800.17
-9800.18
-9800.19
-9800.19
-9800.19
-9800.19
-9800.19
-9800.19
-9800.21
-9800.21
-9800.2
-9800.2
-9800.2
-9800.21
-9800.21
-9800.21
-9800.2
-9800.21
-9800.2
-9800.2
-9800.18
-9800.19
-9800.19
-9800.19
-9800.2
-9800.2
-9800.2
-9800.2
-9800.2
-9800.2
-9800.2
-9800.21
-9800.21
-9800.21
-9800.21
-9800.21
-9800.21
-9800.21
-9800.21
-9800.2
-9800.21
-9800.2
-9800.2
-9800.21
-9800.2
-9800.21
-9800.21
-9800.21
-9800.21
-9800.21
-9800.21
-9800.21
-9800.2
-9800.21
-9800.2
-9800.2
-9800.19
-9800.19
-9800.2
-9800.19
-9800.2
-9800.19
-9800.2
-9800.2
-9800.2
-9800.2
-9800.21
-9800.21
-9800.21
-9800.21
-9800.21
-9800.21
0.00277027
-0.00498437
-0.00820938
-0.000593819
-0.00221729
-0.00125765
-0.0203984
-0.00169481
0.00152961
-0.00786239
-0.00434234
-0.0069826
-0.00912853
-0.00257541
-0.00132448
-0.0109976
-0.0078084
-0.000135414
-0.0015667
0.000478688
-0.00181245
-0.00218485
-0.0118499
-0.00535578
0.00247393
-0.00208672
0.0022102
-0.00733937
-9799.87
-9799.78
-9799.79
-9799.94
-9799.86
-9799.86
-9799.74
-9799.83
-9799.9
-9799.78
-9799.79
-9799.8
-9799.75
-9799.85
-9799.86
-9799.76
-9799.78
-9799.81
-9799.84
-9799.8
-9799.8
-9799.8
-9799.72
-9799.8
-9799.86
-9799.79
-9799.85
-9799.72
-9800.22
-9800.21
-9800.2
-9800.18
-9800.18
-9800.17
-9800.18
-9800.18
-9800.19
-9800.2
-9800.2
-9800.2
-9800.2
-9800.19
-9800.2
-9800.2
-9800.2
-9800.21
-9800.2
-9800.21
-9800.21
-9800.21
-9800.22
-9800.21
-9800.22
-9800.22
-9800.23
-9800.23
-9800.22
-9800.21
-9800.2
-9800.19
-9800.19
-9800.18
-9800.19
-9800.19
-9800.19
-9800.2
-9800.2
-9800.2
-9800.2
-9800.2
-9800.2
-9800.2
-9800.2
-9800.2
-9800.21
-9800.21
-9800.21
-9800.21
-9800.21
-9800.21
-9800.22
-9800.22
-9800.22
-9800.22
-9800.21
-9800.21
-9800.2
-9800.19
-9800.19
-9800.19
-9800.19
-9800.19
-9800.19
-9800.2
-9800.2
-9800.2
-9800.2
-9800.2
-9800.2
-9800.2
-9800.2
-9800.2
-9800.21
-9800.21
-9800.21
-9800.21
-9800.21
-9800.21
-9800.21
-9800.21
-9800.21
-9800.22
4.77022e-05
-0.00334944
0.00106706
-0.00167809
-9799.81
-9799.75
-9799.83
-9799.76
)
;

boundaryField
{
    top_fluid_surface
    {
        type            totalPressure;
        rho             rho;
        psi             none;
        gamma           1;
        p0              uniform 0;
        value           nonuniform List<scalar> 
64
(
-6.22296e-09
-1.73618e-09
-1.62172e-10
0
-3.97874e-09
-1.3545e-09
-1.23919e-09
-3.85777e-09
0
0
0
-1.18019e-08
-2.21736e-09
-2.29591e-08
0
-1.0716e-08
0
0
0
0
-1.36271e-09
0
0
0
-8.61224e-09
0
0
0
0
0
-1.52632e-08
0
0
-3.34989e-09
-1.61394e-08
0
-4.67474e-10
-1.89324e-09
-1.1113e-07
-1.75047e-09
0
-2.51599e-08
-1.22196e-08
-1.33588e-08
-1.67649e-08
-1.43702e-09
-6.33078e-08
-2.6671e-08
-2.11634e-08
-1.75897e-11
-6.7271e-10
-2.62162e-10
-5.55309e-09
-7.67334e-10
-1.76275e-08
-1.1468e-08
0
-2.46773e-09
0
-1.84841e-08
-8.59921e-10
-9.00828e-10
0
-1.96066e-10
)
;
    }
    bottom_fluid_surface
    {
        type            fixedFluxPressure;
        gradient        uniform 0;
        value           nonuniform List<scalar> 
64
(
-9800.21
-9800.21
-9800.21
-9800.2
-9800.21
-9800.2
-9800.2
-9800.21
-9800.2
-9800.21
-9800.21
-9800.21
-9800.21
-9800.21
-9800.21
-9800.21
-9800.2
-9800.21
-9800.2
-9800.2
-9800.19
-9800.19
-9800.2
-9800.19
-9800.2
-9800.19
-9800.2
-9800.2
-9800.2
-9800.2
-9800.21
-9800.21
-9800.21
-9800.21
-9800.21
-9800.21
-9800.21
-9800.21
-9800.2
-9800.19
-9800.19
-9800.19
-9800.19
-9800.19
-9800.19
-9800.2
-9800.2
-9800.2
-9800.2
-9800.2
-9800.2
-9800.2
-9800.2
-9800.2
-9800.21
-9800.21
-9800.21
-9800.21
-9800.21
-9800.21
-9800.21
-9800.21
-9800.21
-9800.22
)
;
    }
    lateral_surface_1
    {
        type            fixedFluxPressure;
        gradient        uniform 0;
        value           nonuniform List<scalar> 
40
(
0.00277027
-0.00498437
-0.00820938
-0.000593819
-0.00221729
-0.00125765
-0.0203984
-0.00733937
-9799.87
-9799.78
-9799.79
-9799.94
-9799.86
-9799.86
-9799.74
-9799.72
-9800.22
-9800.21
-9800.2
-9800.18
-9800.18
-9800.17
-9800.18
-9800.23
-9800.22
-9800.21
-9800.2
-9800.19
-9800.19
-9800.18
-9800.19
-9800.22
-9800.21
-9800.21
-9800.2
-9800.19
-9800.19
-9800.19
-9800.19
-9800.22
)
;
    }
    lateral_surface_2
    {
        type            fixedFluxPressure;
        gradient        uniform 0;
        value           nonuniform List<scalar> 
40
(
-0.00257541
-0.00132448
-0.0109976
-0.0078084
-0.000135414
-0.0015667
0.000478688
-0.00181245
-9799.85
-9799.86
-9799.76
-9799.78
-9799.81
-9799.84
-9799.8
-9799.8
-9800.19
-9800.2
-9800.2
-9800.2
-9800.21
-9800.2
-9800.21
-9800.21
-9800.2
-9800.2
-9800.2
-9800.2
-9800.2
-9800.21
-9800.21
-9800.21
-9800.2
-9800.2
-9800.2
-9800.2
-9800.2
-9800.21
-9800.21
-9800.21
)
;
    }
    lateral_surface_3
    {
        type            fixedFluxPressure;
        gradient        uniform 0;
        value           nonuniform List<scalar> 
40
(
-0.0203984
-0.00169481
0.00152961
-0.00786239
-0.00434234
-0.0069826
-0.00912853
-0.00257541
-9799.74
-9799.83
-9799.9
-9799.78
-9799.79
-9799.8
-9799.75
-9799.85
-9800.18
-9800.18
-9800.19
-9800.2
-9800.2
-9800.2
-9800.2
-9800.19
-9800.19
-9800.19
-9800.19
-9800.2
-9800.2
-9800.2
-9800.2
-9800.2
-9800.19
-9800.19
-9800.19
-9800.2
-9800.2
-9800.2
-9800.2
-9800.2
)
;
    }
    lateral_surface_4
    {
        type            fixedFluxPressure;
        gradient        uniform 0;
        value           nonuniform List<scalar> 
40
(
-0.00181245
-0.00218485
-0.0118499
-0.00535578
0.00247393
-0.00208672
0.0022102
-0.00733937
-9799.8
-9799.8
-9799.72
-9799.8
-9799.86
-9799.79
-9799.85
-9799.72
-9800.21
-9800.21
-9800.22
-9800.21
-9800.22
-9800.22
-9800.23
-9800.23
-9800.21
-9800.21
-9800.21
-9800.21
-9800.22
-9800.22
-9800.22
-9800.22
-9800.21
-9800.21
-9800.21
-9800.21
-9800.21
-9800.21
-9800.21
-9800.22
)
;
    }
}


// ************************************************************************* //
