/*--------------------------------*- C++ -*----------------------------------*\
| =========                 |                                                 |
| \\      /  F ield         | OpenFOAM: The Open Source CFD Toolbox           |
|  \\    /   O peration     | Version:  v1612+                                |
|   \\  /    A nd           | Web:      www.OpenFOAM.com                      |
|    \\/     M anipulation  |                                                 |
\*---------------------------------------------------------------------------*/
FoamFile
{
    version     2.0;
    format      ascii;
    class       surfaceScalarField;
    location    "7.65";
    object      phi;
}
// * * * * * * * * * * * * * * * * * * * * * * * * * * * * * * * * * * * * * //

dimensions      [0 3 -1 0 0 0 0];

internalField   nonuniform List<scalar> 
816
(
-3.99523e-07
-1.03449e-05
5.46107e-06
-1.22394e-05
-1.49698e-05
3.25488e-05
5.38375e-06
4.32846e-06
-5.21816e-06
7.50225e-06
-1.24579e-05
-7.91911e-06
1.31391e-06
2.54284e-06
7.52143e-06
-1.38343e-05
-4.53089e-06
8.14068e-06
8.82997e-06
-1.47001e-05
0.000116513
-6.52883e-05
3.57739e-06
-0.000254964
0.000367304
0.000170286
-4.4807e-06
-7.66164e-05
0.000162426
0.000254636
-4.88909e-06
-0.000290261
0.000274263
0.000221537
-9.76905e-06
9.92807e-05
-5.87511e-05
0.000243439
1.22803e-05
0.000192132
-9.81908e-05
0.000106171
3.47585e-07
-6.17334e-05
0.000277178
0.000117293
3.26306e-07
0.000168653
-0.000132092
0.000290145
1.3179e-05
0.000121097
-0.000202325
-0.000204559
-2.57478e-06
0.000229871
0.000165452
-6.39492e-05
-0.000189357
0.000126879
-4.80476e-05
-0.000361989
-5.21192e-06
0.000111301
-0.000243398
5.94504e-06
-0.000188224
7.52747e-06
2.18422e-05
-2.60947e-06
-2.77515e-05
1.37732e-06
1.18504e-05
3.03184e-05
-2.75616e-05
1.45546e-05
7.16373e-06
-1.51184e-07
3.20107e-07
-1.85003e-06
3.08257e-05
-8.93165e-06
1.54135e-05
-1.68322e-06
-1.41652e-05
8.71789e-06
-5.5607e-06
1.12061e-05
-9.76123e-06
-2.95016e-06
-2.7821e-05
8.88225e-06
2.55018e-05
3.13342e-06
-2.72716e-05
8.40878e-06
1.4044e-05
1.87683e-05
1.74431e-06
-1.15345e-05
4.92712e-06
9.27344e-06
-4.02931e-05
1.80325e-05
3.50857e-05
2.23164e-05
-2.98712e-05
1.06518e-05
4.84336e-06
-1.10365e-05
4.81747e-05
5.69923e-06
-2.20555e-05
-1.61626e-05
3.37953e-06
5.32647e-06
-9.91235e-06
8.2822e-07
-1.38297e-05
6.27782e-07
-1.57568e-05
-1.06076e-05
-6.5397e-06
1.13555e-06
7.66956e-07
-9.1397e-07
-1.64985e-05
3.43823e-06
6.56244e-06
1.42686e-06
-2.62732e-06
-1.99994e-06
-1.94452e-06
-1.54946e-06
-1.41275e-05
-3.95669e-06
-1.09128e-05
-4.52597e-06
-1.26585e-05
-3.48222e-06
-8.83064e-06
1.5232e-06
5.89804e-06
-4.80746e-06
-1.86117e-05
-8.66037e-06
-1.69466e-05
-1.32115e-05
-1.39623e-05
-4.76887e-06
3.87738e-06
2.08431e-05
-1.99144e-06
-8.74301e-06
-6.35126e-07
-2.12883e-06
-1.02825e-06
-6.51288e-06
3.57783e-06
-6.32251e-06
-4.67888e-06
2.86568e-06
3.30288e-06
-2.85133e-06
3.33353e-06
-4.00521e-06
1.1211e-06
1.9891e-06
1.87591e-06
-1.7268e-06
5.03361e-06
4.31807e-06
-5.82931e-06
1.18806e-08
-2.72807e-08
-4.55293e-06
-8.49339e-06
-3.31495e-06
-1.39267e-06
1.08371e-07
-7.30159e-09
-8.29929e-06
4.65364e-07
2.77051e-06
1.15132e-06
-2.4923e-07
-5.40542e-07
2.07556e-07
-6.71535e-07
-2.03778e-06
-2.13938e-06
-6.15651e-06
-4.38002e-06
-3.42733e-06
-1.63899e-06
-4.59399e-06
-4.54586e-06
4.22828e-06
-4.42619e-07
-1.9944e-06
-5.83617e-06
-1.01543e-05
-5.08421e-06
-7.19726e-06
-3.01972e-06
-3.81455e-06
2.19967e-06
-1.40973e-06
6.46853e-06
-9.68483e-07
-2.43338e-06
-3.15552e-06
-0.000241988
0.000306802
1.29827e-05
-0.000163229
4.69469e-05
1.3693e-06
-0.000161973
1.80291e-06
-3.04311e-06
-0.000115209
0.000108834
-3.68108e-08
-0.000110401
0.000381636
9.05325e-07
-0.000363824
-0.00020043
0.000213726
1.46323e-06
-0.000178248
-3.39676e-05
-5.38963e-06
-0.000370255
-0.000334464
-1.06049e-06
-0.000336327
-0.000117618
5.42356e-06
-0.00021425
0.000326491
7.27397e-06
-0.000398837
-0.000149856
0.000107052
3.20168e-06
-0.000240871
-0.00013763
3.69164e-06
-0.00030527
0.000163252
1.21973e-05
-3.32183e-05
1.99697e-05
-6.0222e-06
-0.000163543
-4.91748e-05
-3.06814e-06
-0.000262482
-0.000323495
-0.000221025
-4.41687e-06
-0.000250407
-0.000437508
-8.92935e-06
-0.000273359
-0.000369338
-1.07739e-06
-3.04564e-05
-1.848e-05
3.91058e-06
-1.39377e-05
4.1328e-06
-0.000153211
-2.91175e-05
-1.27195e-05
5.26677e-06
1.31129e-05
8.61238e-06
1.264e-05
-2.38814e-05
2.74645e-06
1.09144e-05
-5.64421e-06
1.91242e-05
6.01388e-06
-4.22344e-06
6.41225e-06
1.78257e-05
5.04742e-05
-3.36717e-05
-3.06835e-05
-8.18367e-07
6.30247e-05
-1.27139e-05
-1.70992e-05
5.42676e-05
-4.17726e-05
-4.27809e-05
7.83861e-05
-4.23942e-05
-2.06172e-05
-5.98021e-06
-4.17641e-06
2.18152e-05
-1.77222e-05
-1.56168e-05
-1.66087e-05
-7.9913e-06
5.75018e-05
-6.4932e-06
-3.13093e-05
6.43761e-05
-2.94121e-05
9.69988e-06
-4.13187e-05
-3.12692e-06
4.40209e-06
4.30353e-05
-1.68224e-05
2.49082e-05
3.99865e-05
-3.95356e-05
-2.03361e-05
-8.03623e-07
5.19862e-05
8.20523e-06
-2.53999e-05
5.56724e-05
-2.64493e-05
-1.78668e-05
1.01258e-05
-1.18425e-05
-1.44847e-06
-2.21549e-06
-6.02189e-06
4.96302e-05
-1.6041e-05
-2.70472e-05
8.56713e-06
-6.30072e-07
6.57747e-06
-1.98995e-06
-4.29362e-06
-1.13026e-05
8.547e-07
-5.62247e-06
-1.67288e-06
-9.22394e-06
-2.95946e-06
-2.71108e-06
-5.11975e-06
-9.91803e-06
2.32149e-05
1.70445e-05
1.71521e-05
1.26933e-06
2.81868e-05
7.07644e-06
9.85947e-06
2.42172e-05
2.28773e-05
2.46029e-05
3.49908e-05
2.66518e-05
1.53337e-05
-3.7236e-06
3.07988e-06
-1.61589e-05
-7.4615e-06
1.09944e-05
1.02283e-05
-1.64198e-07
2.54557e-05
5.11386e-06
1.46574e-05
2.84381e-05
1.76343e-05
-4.05626e-06
-1.85931e-05
1.93256e-06
-1.67746e-06
2.02852e-05
1.17998e-05
-1.37537e-05
1.81789e-05
2.16187e-05
1.2354e-05
6.53399e-07
2.27932e-05
-2.10312e-06
1.29569e-05
2.56185e-05
1.29706e-05
8.57234e-06
4.70419e-06
7.82551e-06
2.20729e-06
-1.06419e-06
3.09597e-06
2.23492e-05
1.20226e-05
1.68211e-05
5.50983e-06
-7.96221e-07
2.58573e-06
-1.6986e-06
-1.97505e-06
-3.77261e-06
-1.22486e-07
-3.14288e-06
1.68788e-06
-5.53587e-06
-1.45472e-06
-1.17341e-06
-3.28294e-06
-5.50708e-06
7.37764e-06
1.00828e-05
9.78927e-06
3.11185e-07
1.03625e-05
3.64441e-06
5.55307e-06
7.79329e-06
1.23057e-05
1.39666e-05
1.15136e-05
1.52453e-05
8.38332e-06
-1.41256e-06
1.1251e-06
-9.54187e-06
-6.44789e-07
5.96929e-06
5.10715e-06
-2.62992e-07
7.18213e-06
2.87404e-06
7.72565e-06
9.39102e-06
9.43061e-06
-3.4715e-06
-4.05903e-06
8.87975e-07
-1.45178e-06
6.44189e-06
6.05451e-06
-7.44488e-06
5.3902e-06
1.17708e-05
7.02857e-06
4.04674e-07
7.46515e-06
-2.67531e-06
7.35106e-06
8.24049e-06
7.40751e-06
4.35465e-06
2.43362e-06
3.86146e-06
7.29744e-07
-1.73659e-07
2.91792e-07
5.83394e-06
6.66111e-06
9.78301e-06
3.59933e-08
-3.33878e-06
2.01046e-06
-3.45341e-06
2.68893e-06
2.53233e-07
3.24985e-07
-3.33928e-06
1.86035e-07
1.66051e-06
-9.25404e-07
4.54198e-06
-4.74934e-06
1.33337e-06
8.30931e-07
-4.02649e-06
-1.88252e-06
4.55974e-07
3.93259e-07
-4.43169e-06
2.79078e-07
2.15273e-07
-4.77351e-07
-8.62307e-07
-1.37406e-06
-6.23072e-07
-2.87508e-06
-1.68208e-06
2.40888e-07
-3.22634e-06
1.2709e-06
-2.07062e-06
-1.39145e-06
-4.86334e-06
-3.54858e-06
-7.18524e-07
7.99588e-07
-1.35152e-06
-1.02288e-06
1.19678e-08
1.83097e-06
2.34825e-07
-4.947e-07
-1.80446e-06
6.93632e-07
-3.76587e-07
-1.62882e-06
-5.19265e-07
-6.47028e-07
-2.09708e-06
3.76928e-06
5.19216e-06
1.2884e-06
2.50632e-06
3.47597e-06
5.80575e-06
7.72395e-06
6.41035e-06
4.10557e-06
1.60576e-06
-3.4751e-06
3.20621e-06
3.78398e-06
-4.34328e-07
1.30498e-06
3.71593e-06
5.47928e-06
-4.66008e-07
1.36402e-06
2.21838e-07
4.34485e-06
-3.50766e-06
5.61162e-06
3.49619e-06
-2.08008e-07
-6.8173e-07
3.50543e-06
3.81748e-06
3.18989e-06
1.39878e-06
1.44955e-06
1.59002e-06
3.44181e-06
4.09843e-06
-0.000117697
-9.98291e-05
-6.58492e-06
-9.32625e-05
-1.6469e-06
0.000109134
-2.71124e-06
-3.81467e-05
4.852e-07
-0.000108644
1.22426e-05
-0.000418013
1.07567e-05
0.000469076
-3.3901e-07
0.000364063
-7.12265e-07
8.88227e-05
6.69125e-06
7.41173e-05
4.22106e-07
1.55912e-05
-3.67161e-06
7.9905e-05
5.73448e-06
4.56306e-05
1.12148e-07
6.84999e-05
2.1557e-05
-3.28479e-06
0.000261413
0.000124938
9.50406e-06
0.000156788
6.94594e-06
0.00021263
-4.98695e-06
2.31877e-05
-3.95695e-06
-9.29032e-05
-1.28044e-05
3.72712e-05
8.9369e-07
-0.000221607
-1.89966e-06
-3.58739e-05
-3.89468e-06
-8.50849e-05
4.50587e-06
-0.000213989
-1.31575e-06
-0.000170879
1.58415e-05
-0.00022902
-3.9209e-06
-2.75994e-06
1.20615e-05
-2.56685e-05
-1.35557e-05
9.67541e-06
1.18284e-05
2.51551e-05
-1.88669e-05
-2.49723e-06
4.16671e-05
-2.17768e-05
3.36961e-05
-3.19168e-05
-1.65429e-05
2.47189e-05
-6.30904e-05
1.44657e-05
-2.3995e-05
-2.05594e-05
2.84007e-05
-8.29116e-06
-5.21722e-05
1.27271e-05
-7.19639e-05
2.3132e-05
-1.01891e-05
1.04102e-05
-1.66799e-05
-1.07224e-05
2.19778e-05
-9.48175e-06
-2.72981e-05
-1.09948e-05
-1.1214e-05
-4.96773e-06
-3.27948e-05
1.44756e-06
-5.33656e-06
-8.06416e-06
-1.52229e-05
-1.44373e-05
-3.31849e-05
3.68025e-05
-4.71069e-05
1.51285e-05
-1.24005e-06
-1.07247e-05
2.42179e-05
-3.19841e-06
-2.89571e-05
-1.30187e-05
-4.61471e-06
-1.23926e-05
3.98594e-06
-1.22264e-05
-3.32032e-05
-4.12154e-05
-9.21798e-06
1.42712e-05
-6.61781e-06
-5.01598e-06
5.66798e-06
-1.43156e-05
-8.7574e-06
-9.99642e-07
1.90884e-05
1.29281e-05
1.46762e-05
2.06184e-05
-7.16393e-06
-1.3886e-05
-2.86069e-05
-8.69687e-06
-1.20392e-05
1.39222e-05
1.28888e-05
6.96598e-06
-2.23633e-05
-6.71658e-06
-3.16564e-05
-8.06815e-06
-5.7309e-06
-6.42742e-06
-7.37945e-06
6.46943e-06
9.12581e-06
1.8084e-06
-1.24237e-05
9.39361e-07
-5.23764e-06
7.71432e-07
-1.49609e-05
3.12347e-07
-2.83364e-06
4.28431e-06
-7.4109e-06
6.72675e-06
-1.40086e-05
-1.86738e-05
-2.16765e-05
-6.71795e-06
-8.3924e-07
3.09765e-06
1.23026e-05
5.68544e-07
-1.34288e-05
4.99943e-06
-1.21995e-06
1.02258e-05
1.87848e-06
9.28117e-06
-1.54544e-05
-1.77151e-05
-4.42191e-06
6.88187e-06
-2.43129e-06
-2.30516e-06
1.88451e-06
-7.50278e-06
-3.6756e-06
8.54184e-08
5.95766e-06
8.41567e-06
3.07876e-06
1.16452e-05
-3.06928e-07
-8.16075e-06
-8.83868e-06
-5.80273e-06
-4.62364e-06
7.43312e-06
3.31096e-06
4.58524e-06
-7.21009e-06
-3.49191e-06
-8.30748e-06
-4.75094e-06
-3.29103e-06
-3.96321e-06
-2.1708e-06
3.83001e-06
1.24648e-06
1.08107e-06
-4.48407e-06
-4.3101e-11
-1.28929e-06
-4.63901e-07
-5.06156e-06
-3.28285e-07
-1.97883e-06
2.05825e-06
-3.76668e-06
3.91697e-06
-4.11292e-06
-1.04978e-05
-7.26153e-06
-4.0586e-06
-2.32369e-07
2.57639e-06
2.98707e-06
3.94244e-07
-3.86155e-06
2.31864e-06
7.26772e-07
5.74282e-06
-1.23653e-06
4.24288e-06
-4.13221e-06
-6.5977e-06
-2.98455e-06
3.98944e-06
-1.57475e-06
-4.55897e-06
-2.48897e-07
2.18038e-06
5.66612e-06
-3.1652e-06
-2.59913e-06
3.21125e-06
1.79747e-06
-7.66879e-08
-1.71067e-06
-6.11147e-07
6.55482e-07
-1.09817e-08
1.13731e-08
4.07158e-07
-1.96415e-07
3.83141e-07
1.86154e-06
-5.42441e-06
-2.15246e-06
1.68353e-07
1.37507e-07
2.26392e-06
2.60997e-06
2.60481e-06
-8.97726e-05
0.000275657
-4.11451e-06
5.76105e-05
-3.09465e-06
-1.36392e-07
-7.82922e-06
-2.43185e-06
5.45555e-06
2.0688e-05
-1.24264e-05
1.0747e-05
)
;

boundaryField
{
    top_fluid_surface
    {
        type            calculated;
        value           nonuniform List<scalar> 
64
(
-0.000178776
-9.95792e-05
-4.66186e-05
7.1668e-05
-0.000146328
-6.84739e-05
-6.3043e-05
-0.000147266
2.72337e-05
0.00021761
0.000445484
-0.000272304
-0.000122494
-0.000391546
0.000121586
-0.000284782
0.000292286
0.000604413
0.000753932
0.000814155
-8.54197e-05
7.86856e-05
0.000715079
0.000726071
-0.000188983
0.000642352
0.000658051
0.000627725
0.000651272
4.89437e-05
-0.0003366
0.000451556
0.000112051
-0.000181698
-0.000337239
3.69886e-05
-7.10523e-05
-8.29436e-05
-0.000863689
-9.00538e-05
7.72855e-05
-0.000378496
-0.00023726
-0.000298426
-0.000349065
-8.79748e-05
-0.000241164
-0.000429924
-0.000354997
-1.26338e-05
-6.07431e-05
-2.57438e-05
-0.000145273
-8.14396e-05
-0.000414852
-0.000257165
9.66645e-05
-0.000109034
5.62368e-05
-0.000336057
-4.59789e-05
-0.00011146
6.6091e-05
-6.83179e-05
)
;
    }
    bottom_fluid_surface
    {
        type            calculated;
        value           uniform 0;
    }
    lateral_surface_1
    {
        type            calculated;
        value           uniform 0;
    }
    lateral_surface_2
    {
        type            calculated;
        value           uniform 0;
    }
    lateral_surface_3
    {
        type            calculated;
        value           uniform 0;
    }
    lateral_surface_4
    {
        type            calculated;
        value           uniform 0;
    }
}


// ************************************************************************* //
