/*--------------------------------*- C++ -*----------------------------------*\
| =========                 |                                                 |
| \\      /  F ield         | OpenFOAM: The Open Source CFD Toolbox           |
|  \\    /   O peration     | Version:  v1612+                                |
|   \\  /    A nd           | Web:      www.OpenFOAM.com                      |
|    \\/     M anipulation  |                                                 |
\*---------------------------------------------------------------------------*/
FoamFile
{
    version     2.0;
    format      ascii;
    class       volScalarField;
    location    "0.75";
    object      alpha.water;
}
// * * * * * * * * * * * * * * * * * * * * * * * * * * * * * * * * * * * * * //

dimensions      [0 0 0 0 0 0 0];

internalField   nonuniform List<scalar> 
1116
(
1
1
1
1
1
1
1
1
1
1
1
1
1
1
1
1
1
1
1
1
1
1
1
1
0.388481
0.388481
0.388481
0.388481
0.388481
0.38848
0.000221863
0.000221854
0.000221852
0.000221853
0.000221859
0.000221856
3.36212e-06
3.36166e-06
3.36149e-06
3.36153e-06
3.3617e-06
3.36168e-06
2.88344e-08
2.8827e-08
2.88248e-08
2.88263e-08
2.88295e-08
2.88308e-08
1.17112e-10
1.17086e-10
1.17091e-10
1.17118e-10
1.1715e-10
1.17172e-10
3.19864e-13
3.19896e-13
3.19981e-13
3.20109e-13
3.20238e-13
3.2032e-13
4.85882e-16
4.86224e-16
4.8645e-16
4.86654e-16
4.86854e-16
4.87035e-16
2.29706e-17
2.29892e-17
2.3004e-17
2.30156e-17
2.3025e-17
2.3034e-17
1
1
1
1
1
1
1
1
1
1
1
1
1
1
1
1
1
1
1
1
1
1
1
1
0.115036
0.115036
0.115035
0.115035
0.115034
0.115034
7.18428e-05
7.1838e-05
7.18377e-05
7.18387e-05
7.18415e-05
7.18418e-05
7.33807e-07
7.33608e-07
7.33572e-07
7.33617e-07
7.33692e-07
7.33816e-07
3.43452e-09
3.43258e-09
3.43258e-09
3.43348e-09
3.43454e-09
3.43598e-09
6.98904e-12
6.98185e-12
6.98661e-12
6.99459e-12
7.00155e-12
7.00898e-12
-3.37517e-14
-3.37483e-14
-3.37502e-14
-3.37579e-14
-3.37674e-14
-3.37644e-14
1.43637e-17
1.43794e-17
1.43876e-17
1.43915e-17
1.43932e-17
1.43931e-17
4.5777e-18
4.59451e-18
4.60764e-18
4.61796e-18
4.62631e-18
4.6344e-18
1
1
1
1
1
1
1
1
1
1
1
1
1
1
1
1
1
1
0.977607
0.977607
0.977607
0.977606
0.977606
0.977606
0.000795086
0.000795126
0.000795072
0.000794973
0.000794881
0.000794856
2.13233e-05
2.13286e-05
2.1324e-05
2.13159e-05
2.13087e-05
2.12993e-05
8.78946e-07
8.78728e-07
8.78731e-07
8.78931e-07
8.79234e-07
8.79533e-07
2.14629e-11
2.145e-11
2.14517e-11
2.14579e-11
2.14635e-11
2.14703e-11
2.31637e-14
2.31526e-14
2.31753e-14
2.32028e-14
2.32245e-14
2.32476e-14
3.74497e-17
3.74682e-17
3.74998e-17
3.75402e-17
3.75826e-17
3.76397e-17
1.31982e-17
1.321e-17
1.3228e-17
1.32449e-17
1.32586e-17
1.32717e-17
9.23391e-21
9.28405e-21
9.32161e-21
9.35129e-21
9.37587e-21
9.40029e-21
1
1
1
1
1
1
1
1
1
1
1
1
0.999995
0.999995
0.999995
0.999995
0.999995
0.999995
0.873623
0.873623
0.873623
0.873623
0.873624
0.873623
1.00178e-09
1.00202e-09
1.00196e-09
1.00193e-09
1.0019e-09
1.00158e-09
3.42857e-08
3.42914e-08
3.42893e-08
3.42888e-08
3.42888e-08
3.42805e-08
1.3464e-08
1.34631e-08
1.34623e-08
1.34656e-08
1.34717e-08
1.34758e-08
1.18736e-13
1.18689e-13
1.18726e-13
1.18772e-13
1.18796e-13
1.18838e-13
9.46751e-17
9.4691e-17
9.47931e-17
9.48959e-17
9.49658e-17
9.50285e-17
1.61758e-17
1.61767e-17
1.61795e-17
1.61821e-17
1.61836e-17
1.61849e-17
6.33659e-20
6.34891e-20
6.36724e-20
6.38494e-20
6.39973e-20
6.41396e-20
9.4933e-24
9.55002e-24
9.59219e-24
9.62602e-24
9.65439e-24
9.68291e-24
0
0
0
0
0
0
0
0
0
0
0
0
0
0
0
0
0
0
0
0
0
0
0
0
0
0
0
0
0
0
0
0
0
0
0
0
0
0
0
0
0
0
0
0
0
0
0
0
0
0
0
0
0
0
0
0
0
0
0
0
0
0
0
0
0
0
0
0
0
0
0
0
0
0
0
0
0
0
0
0
0
0
0
0
0
0
0
0
0
0
0
0
0
0
0
0
0
0
0
0
0
0
0
0
0
0
0
0
0
0
0
0
0
0
0
0
0
0
0
0
0
0
0
0
0
0
0
0
0
0
0
0
0
0
0
0
0
0
0
0
0
0
0
0
0
0
0
0
0
0
0
0
0
0
0
0
0
0
0
0
0
0
0
0
0
0
0
0
0
0
0
0
0
0
0
0
0
0
0
0
0
0
0
0
0
0
0
0
0
0
0
0
0
0
0
0
0
0
0
0
0
0
0
0
0
0
0
0
0
0
0
0
0
0
0
0
0
0
0
0
0
0
0
0
0
0
0
0
0
0
0
0
0
0
0
0
0
0
0
0
0
0
0
0
0
0
0
0
0
0
0
0
0
0
0
0
0
0
0
0
0
0
0
0
0
0
0
0
0
0
0
0
0
0
0
0
0
0
0
0
0
0
0
0
0
0
0
0
1
1
1
1
1
1
0.999999
0.999999
0.999999
0.999999
0.999999
0.999999
0.999987
0.999987
0.999987
0.999987
0.999987
0.999987
1
1
1
1
1
1
0.999991
0.999991
0.999991
0.999991
0.999991
0.999991
0.999912
0.999912
0.999912
0.999912
0.999912
0.999912
0.999747
0.999747
0.999747
0.999747
0.999747
0.999747
0.917253
0.917252
0.917252
0.917252
0.917252
0.917253
0.707255
0.707255
0.707255
0.707255
0.707255
0.707256
0.630351
0.630351
0.630351
0.630351
0.630351
0.630352
0.166569
0.166569
0.166569
0.166569
0.166569
0.16657
1.51375e-17
1.39739e-17
1.51375e-17
1.6173e-17
1.50734e-17
1.39418e-17
1.37611e-11
1.37641e-11
1.3763e-11
1.37626e-11
1.37627e-11
1.37597e-11
-4.49159e-24
-4.48332e-24
-4.61567e-24
-4.49986e-24
-4.53709e-24
-4.47918e-24
0
0
0
0
0
0
2.21784e-10
2.21772e-10
2.21735e-10
2.21762e-10
2.21834e-10
2.21864e-10
5.89918e-18
5.89872e-18
5.89845e-18
5.89776e-18
5.89918e-18
5.89918e-18
0
0
0
0
0
0
-1.03949e-13
-1.04037e-13
-1.03957e-13
-1.04061e-13
-1.04172e-13
-1.04002e-13
4.61135e-23
4.59473e-23
4.60389e-23
4.6094e-23
4.61049e-23
4.61257e-23
0
0
0
0
0
0
-1.14258e-13
-1.14209e-13
-1.14211e-13
-1.14226e-13
-1.14244e-13
-1.14252e-13
1.06292e-17
1.06213e-17
1.06254e-17
1.06283e-17
1.06294e-17
1.06307e-17
0
0
0
0
0
0
1.39576e-17
1.39586e-17
1.39586e-17
1.3958e-17
1.39572e-17
1.39568e-17
0
0
0
0
0
0
0
0
0
0
0
0
2.25424e-19
2.25698e-19
2.26041e-19
2.26337e-19
2.26493e-19
2.26572e-19
0
0
0
0
0
0
0
0
0
0
0
0
3.9122e-23
3.921e-23
3.93354e-23
3.9459e-23
3.9559e-23
3.96468e-23
0
0
0
0
0
0
0
0
0
0
0
0
2.68509e-27
2.70117e-27
2.71384e-27
2.72426e-27
2.73289e-27
2.74152e-27
0
0
0
0
0
0
0
0
0
0
0
0
0
0
0
0
0
0
0
0
0
0
0
0
0
0
0
0
0
0
0
0
0
0
0
0
0
0
0
0
0
0
0
0
0
0
0
0
0
0
0
0
0
0
0
0
0
0
0
0
0
0
0
0
0
0
0
0
0
0
0
0
0
0
0
0
0
0
0
0
0
0
0
0
0
0
0
0
0
0
0
0
0
0
0
0
0
0
0
0
0
0
0
0
0
0
0
0
0
0
0
0
0
0
0
0
0
0
0
0
0
0
0
0
0
0
0
0
0
0
0
0
0
0
0
0
0
0
0
0
0
0
0
0
0
0
0
0
0
0
0
0
0
0
0
0
0
0
0
0
0
0
0
0
0
0
0
0
0
0
0
0
0
0
0
0
0
0
0
0
0
0
0
0
0
0
0
0
0
0
0
0
0
0
0
0
0
0
0
0
0
0
0
0
0
0
0
0
0
0
0
0
0
0
0
0
0
0
0
0
0
0
0
0
0
0
0
0
0
0
0
0
0
0
0
0
0
0
0
0
0
0
0
0
0
0
0
0
0
0
0
0
0
0
0
0
0
0
0
0
0
0
0
0
0
0
0
0
0
0
0
0
0
0
0
0
0
0
0
0
0
0
0
0
0
0
0
0
0
0
0
0
0
0
0
0
0
0
0
0
0
0
0
0
0
0
0
0
0
0
0
0
0
0
0
0
0
0
0
0
0
0
0
0
0
0
0
0
0
0
0
0
0
0
0
0
)
;

boundaryField
{
    seabed_topleft_surface
    {
        type            zeroGradient;
    }
    seabed_topright_surface
    {
        type            zeroGradient;
    }
    breakwater_top_surface
    {
        type            zeroGradient;
    }
    breakwater_left_surface
    {
        type            zeroGradient;
    }
    breakwater_right_surface
    {
        type            zeroGradient;
    }
    water_front_surface
    {
        type            zeroGradient;
    }
    water_back_surface
    {
        type            zeroGradient;
    }
    water_left_surface
    {
        type            zeroGradient;
    }
    water_right_surface
    {
        type            zeroGradient;
    }
    water_top_surface
    {
        type            inletOutlet;
        inletValue      uniform 0;
        value           nonuniform List<scalar> 
180
(
0.999987
0.999987
0.999987
0.999987
0.999987
0.999987
0.999912
0.999912
0.999912
0.999912
0.999912
0.999912
0.707255
0.707255
0.707255
0.707255
0.707255
0.707256
1.51375e-17
1.39739e-17
1.51375e-17
1.6173e-17
1.50734e-17
1.39418e-17
0
0
0
0
0
0
0
0
0
0
0
0
0
0
0
0
0
0
0
0
0
0
0
0
0
0
0
0
0
0
0
0
0
0
0
0
0
0
0
0
0
0
0
0
0
0
0
0
0
0
0
0
0
0
0
0
0
0
0
0
0
0
0
0
0
0
0
0
0
0
0
0
0
0
0
0
0
0
0
0
0
0
0
0
0
0
0
0
0
0
0
0
0
0
0
0
0
0
0
0
0
0
0
0
0
0
0
0
0
0
0
0
0
0
0
0
0
0
0
0
0
0
0
0
0
0
0
0
0
0
0
0
0
0
0
0
0
0
0
0
0
0
0
0
0
0
0
0
0
0
0
0
0
0
0
0
)
;
    }
}


// ************************************************************************* //
