/*--------------------------------*- C++ -*----------------------------------*\
| =========                 |                                                 |
| \\      /  F ield         | OpenFOAM: The Open Source CFD Toolbox           |
|  \\    /   O peration     | Version:  v1612+                                |
|   \\  /    A nd           | Web:      www.OpenFOAM.com                      |
|    \\/     M anipulation  |                                                 |
\*---------------------------------------------------------------------------*/
FoamFile
{
    version     2.0;
    format      ascii;
    class       surfaceScalarField;
    location    "0.75";
    object      alphaPhi;
}
// * * * * * * * * * * * * * * * * * * * * * * * * * * * * * * * * * * * * * //

dimensions      [0 3 -1 0 0 0 0];

internalField   nonuniform List<scalar> 
2916
(
-1.76901e-07
0.104768
-0.104768
-2.24386e-07
0.104769
-0.104768
-3.7041e-07
0.104769
-0.104769
-4.34719e-07
0.104769
-0.104769
-2.9829e-07
0.104769
-0.104769
0.104769
-0.104769
4.7983e-07
0.282058
-0.17729
8.93901e-07
0.282059
-0.17729
1.20108e-06
0.282059
-0.17729
1.07693e-06
0.282058
-0.17729
4.3742e-07
0.282058
-0.177289
0.282057
-0.177288
4.88201e-07
0.594975
-0.312918
1.04305e-06
0.594977
-0.312918
1.3728e-06
0.594976
-0.312918
1.36833e-06
0.594976
-0.312917
7.55459e-07
0.594975
-0.312917
0.594974
-0.312916
1.55749e-07
1.26073
-0.665757
3.76344e-07
1.26073
-0.665757
4.26616e-07
1.26073
-0.665757
5.23507e-07
1.26073
-0.665758
3.47034e-07
1.26073
-0.665758
1.26073
-0.665757
7.51866e-07
0.0171153
-0.273127
-7.27102e-08
0.0171159
-0.273125
-1.44868e-06
0.017116
-0.273125
-2.10318e-06
0.0171159
-0.273125
-3.35919e-06
0.0171157
-0.273125
0.0171155
-0.273126
-2.1896e-07
0.000174609
0.0153443
-4.33206e-07
0.000174602
0.0153449
-4.51932e-07
0.000174606
0.0153449
-3.78197e-07
0.000174609
0.0153447
-5.93718e-07
0.000174616
0.0153448
0.000174604
0.0153438
4.88413e-09
1.65121e-06
0.000141387
-6.11297e-09
1.6508e-06
0.000141402
-7.09887e-09
1.6506e-06
0.000141398
-2.27681e-09
1.65056e-06
0.000141395
9.83479e-10
1.65062e-06
0.000141403
1.65061e-06
0.000141395
1.46694e-10
7.72876e-09
1.29092e-06
1.42639e-10
7.72538e-09
1.29075e-06
1.61241e-10
7.72339e-09
1.29057e-06
1.52435e-10
7.72296e-09
1.29055e-06
8.18856e-11
7.72361e-09
1.29064e-06
7.72433e-09
1.29061e-06
9.32158e-13
1.78636e-11
5.68249e-09
2.67952e-12
1.78522e-11
5.67892e-09
3.11917e-12
1.78497e-11
5.67833e-09
2.2668e-12
1.78525e-11
5.67892e-09
1.01563e-12
1.78572e-11
5.67957e-09
1.78596e-11
5.67968e-09
1.74107e-14
1.78443e-14
1.13059e-11
2.64652e-14
1.78371e-14
1.1303e-11
2.74421e-14
1.78399e-14
1.13077e-11
2.24745e-14
1.78468e-14
1.13147e-11
1.35919e-14
1.78525e-14
1.13215e-11
1.78535e-14
1.13271e-11
2.96686e-17
1.83909e-16
6.58286e-15
3.97608e-17
1.84535e-16
6.58996e-15
3.99814e-17
1.85059e-16
6.59788e-15
3.43414e-17
1.8548e-16
6.60604e-15
2.24543e-17
1.85822e-16
6.61372e-15
1.86162e-16
6.62102e-15
9.19291e-21
3.88306e-17
1.50313e-20
3.88816e-17
1.87755e-20
3.89105e-17
1.81721e-20
3.89354e-17
1.17788e-20
3.89609e-17
3.8989e-17
-4.80192e-07
0.0355824
-0.14035
-1.26726e-06
0.0355827
-0.14035
-1.80636e-06
0.0355822
-0.14035
-1.82097e-06
0.0355815
-0.14035
-1.27809e-06
0.0355805
-0.14035
0.0355798
-0.14035
1.23972e-07
0.121246
-0.262953
3.97319e-07
0.121246
-0.262953
6.20874e-07
0.121245
-0.262953
6.09844e-07
0.121244
-0.262952
2.26341e-07
0.121243
-0.262951
0.121241
-0.26295
6.08444e-07
0.294437
-0.486109
1.63662e-06
0.294436
-0.48611
2.34149e-06
0.294435
-0.486109
2.31239e-06
0.294434
-0.486107
1.57698e-06
0.294432
-0.486106
0.294431
-0.486104
6.82152e-07
0.655775
-1.0271
1.06492e-06
0.655775
-1.0271
1.31237e-06
0.655774
-1.0271
1.13838e-06
0.655772
-1.0271
4.70588e-07
0.65577
-1.0271
0.655768
-1.02709
1.53237e-07
-0.0136628
-0.0561885
-4.58145e-08
-0.0136636
-0.0561877
-2.58907e-07
-0.0136636
-0.0561875
-4.13589e-07
-0.0136634
-0.0561874
-1.15311e-06
-0.0136635
-0.0561876
-0.0136623
-0.0561878
1.30761e-07
-9.95215e-05
0.0012881
1.29041e-07
-9.95383e-05
0.00128817
4.94658e-08
-9.95302e-05
0.00128818
-7.62146e-08
-9.95283e-05
0.00128819
-1.93699e-07
-9.95353e-05
0.0012882
-9.95328e-05
0.00128806
-7.80952e-10
-9.23949e-07
3.47039e-05
-1.3409e-09
-9.23838e-07
3.47031e-05
3.84697e-09
-9.23743e-07
3.47016e-05
7.07888e-09
-9.23769e-07
3.47025e-05
7.21219e-09
-9.23859e-07
3.47057e-05
-9.23788e-07
3.47064e-05
3.98745e-11
-4.85408e-09
3.14873e-07
1.00188e-10
-4.85129e-09
3.14828e-07
1.15274e-10
-4.85122e-09
3.1479e-07
8.55204e-11
-4.85188e-09
3.14776e-07
2.99042e-11
-4.85239e-09
3.14781e-07
-4.85224e-09
3.14771e-07
6.28426e-13
-1.14035e-11
6.73564e-10
8.20534e-13
-1.1402e-11
6.73347e-10
6.15226e-13
-1.14066e-11
6.73183e-10
2.94037e-13
-1.14133e-11
6.73102e-10
5.69197e-14
-1.14199e-11
6.73045e-10
-1.14252e-11
6.72963e-10
7.11026e-16
-6.32417e-15
2.60802e-13
2.17352e-16
-6.3309e-15
2.60555e-13
-2.65816e-16
-6.33835e-15
2.60425e-13
-4.58953e-16
-6.34616e-15
2.60378e-13
-4.2051e-16
-6.35358e-15
2.60334e-13
-6.36062e-15
2.60268e-13
-3.07217e-19
1.2295e-16
2.04024e-16
-6.32054e-19
1.23267e-16
2.03665e-16
-7.60233e-19
1.23576e-16
2.03196e-16
-6.95966e-19
1.23831e-16
2.02773e-16
-4.43729e-19
1.24037e-16
2.02447e-16
1.24241e-16
2.02158e-16
-4.30805e-22
3.88124e-19
-5.3104e-22
3.90037e-19
-4.77731e-22
3.91535e-19
-3.58271e-22
3.92733e-19
-1.97309e-22
3.93729e-19
3.94726e-19
-1.17505e-06
-0.0777
-0.0626484
-2.30248e-06
-0.0777007
-0.0626486
-2.63464e-06
-0.0777018
-0.0626486
-2.11926e-06
-0.0777028
-0.0626482
-1.04191e-06
-0.0777036
-0.0626477
-0.0777035
-0.0626471
-3.43622e-07
-0.130634
-0.210019
-6.69024e-07
-0.130635
-0.210019
-7.01801e-07
-0.130637
-0.210018
-4.76085e-07
-0.130638
-0.210017
5.88458e-08
-0.130639
-0.210016
-0.130639
-0.210015
1.14774e-06
-0.0628104
-0.553934
1.87757e-06
-0.0628109
-0.553935
1.93508e-06
-0.0628121
-0.553933
1.37647e-06
-0.0628134
-0.553931
7.46071e-07
-0.0628146
-0.55393
-0.062814
-0.553928
9.2592e-07
0.0833516
-1.17682
4.55366e-07
0.0833516
-1.17681
-1.57817e-07
0.0833501
-1.17681
-4.47063e-07
0.0833475
-1.17681
-4.20007e-07
0.0833452
-1.17681
0.0833451
-1.17681
6.68635e-08
-0.00153407
-4.11311e-07
7.93942e-08
-0.0015341
-4.11342e-07
7.09995e-08
-0.00153403
-4.1133e-07
5.42001e-08
-0.00153393
-4.11314e-07
-2.83267e-09
-0.00153382
-4.11301e-07
-0.00153372
-4.11251e-07
-4.28682e-09
-2.7983e-05
1.12794e-05
-1.31604e-09
-2.79856e-05
1.12811e-05
5.50134e-09
-2.7983e-05
1.12807e-05
8.10368e-09
-2.79792e-05
1.12803e-05
6.43928e-09
-2.79758e-05
1.12797e-05
-2.79705e-05
1.12771e-05
-1.12423e-11
-3.12671e-07
1.00871e-07
2.08247e-10
-3.12625e-07
1.00824e-07
3.89824e-10
-3.12589e-07
1.00831e-07
3.9318e-10
-3.12575e-07
1.00932e-07
2.82877e-10
-3.1258e-07
1.01089e-07
-3.12569e-07
1.01211e-07
2.45903e-13
-6.70322e-10
2.46589e-09
1.22937e-12
-6.70111e-10
2.46521e-09
1.34616e-12
-6.69947e-10
2.46504e-09
1.00018e-12
-6.69864e-10
2.46519e-09
6.10201e-13
-6.69805e-10
2.46546e-09
-6.69721e-10
2.46561e-09
3.52868e-15
-2.59896e-13
2.88042e-12
2.42145e-15
-2.59652e-13
2.87933e-12
7.22756e-16
-2.5952e-13
2.87938e-12
-3.26551e-16
-2.5947e-13
2.87981e-12
-5.89052e-16
-2.59423e-13
2.88017e-12
-2.59354e-13
2.88047e-12
-1.33001e-18
-3.0289e-18
1.68985e-16
-5.05861e-18
-3.02883e-18
1.68937e-16
-7.06689e-18
-3.03415e-18
1.68778e-16
-7.02595e-18
-3.04007e-18
1.68641e-16
-4.85695e-18
-3.04501e-18
1.68569e-16
-3.04994e-18
1.6852e-16
-4.30438e-21
-1.7952e-22
2.56421e-18
-6.84698e-21
-1.80091e-22
2.56843e-18
-7.51845e-21
-1.80677e-22
2.57515e-18
-6.67985e-21
-1.81175e-22
2.58174e-18
-4.35103e-21
-1.81642e-22
2.58736e-18
-1.82196e-22
2.59289e-18
-6.92236e-25
4.48666e-22
-7.9611e-25
4.51237e-22
-7.00436e-25
4.53183e-22
-4.93844e-25
4.5475e-22
-2.42119e-25
4.56064e-22
4.57389e-22
-1.08996e-06
-0.208335
0.145688
-1.65653e-06
-0.208336
0.145688
-1.59528e-06
-0.208337
0.145688
-6.775e-07
-0.208337
0.145688
3.11341e-07
-0.208337
0.145688
-0.208335
0.145688
-6.10631e-07
-0.433864
0.0155112
-1.5835e-06
-0.433865
0.0155113
-2.21217e-06
-0.433866
0.0155117
-2.06923e-06
-0.433866
0.0155122
-1.15189e-06
-0.433866
0.0155126
-0.433864
0.0155128
-4.09028e-07
-0.487731
-0.50004
-1.13933e-06
-0.487732
-0.500041
-2.09483e-06
-0.487731
-0.50004
-2.73611e-06
-0.487732
-0.500039
-2.59979e-06
-0.487731
-0.500038
-0.48773
-0.500038
5.92324e-07
-1.04471e-05
-1.19184
5.46423e-07
-1.04484e-05
-1.19184
1.52016e-06
-1.04482e-05
-1.19184
1.58584e-06
-1.04478e-05
-1.19184
1.69891e-07
-1.04473e-05
-1.19184
-1.04452e-05
-1.19184
2.93248e-12
-1.0884e-05
2.19851e-08
7.45407e-12
-1.08854e-05
2.19975e-08
1.30165e-11
-1.08851e-05
2.19964e-08
1.4924e-11
-1.08847e-05
2.1994e-08
1.01903e-11
-1.08842e-05
2.19902e-08
-1.0882e-05
2.19752e-08
-1.24094e-11
1.97317e-08
1.21131e-07
1.25562e-10
1.97418e-08
1.21154e-07
2.09227e-10
1.9746e-08
1.21146e-07
2.50944e-10
1.97382e-08
1.21145e-07
2.4946e-10
1.97211e-08
1.21147e-07
1.96994e-08
1.21117e-07
1.46529e-13
-2.45206e-09
9.40967e-10
1.97882e-12
-2.45139e-09
9.4104e-10
1.45733e-12
-2.45122e-09
9.40903e-10
4.30942e-13
-2.45137e-09
9.40968e-10
2.94883e-13
-2.45163e-09
9.41167e-10
-2.45178e-09
9.41127e-10
4.55944e-15
-2.87767e-12
1.4181e-11
5.47482e-15
-2.87657e-12
1.41746e-11
4.48542e-15
-2.87662e-12
1.41746e-11
3.7442e-15
-2.87704e-12
1.41768e-11
3.08854e-15
-2.8774e-12
1.41795e-11
-2.87771e-12
1.41803e-11
-6.64022e-19
-8.04524e-17
6.03679e-16
-3.32757e-18
-8.03993e-17
6.03428e-16
-3.20535e-18
-8.04307e-17
6.03476e-16
-1.44558e-18
-8.04788e-17
6.03666e-16
2.90117e-19
-8.0511e-17
6.03892e-16
-8.05389e-17
6.04006e-16
-1.35882e-20
-5.07803e-21
8.69078e-18
-2.17292e-20
-5.08492e-21
8.69918e-18
-2.30171e-20
-5.09809e-21
8.71054e-18
-1.93007e-20
-5.11135e-21
8.72079e-18
-1.13335e-20
-5.12262e-21
8.72671e-18
-5.13341e-21
8.73035e-18
-5.85926e-24
-3.16e-25
1.96355e-21
-8.66894e-24
-3.17739e-25
1.96778e-21
-9.29641e-24
-3.19152e-25
1.97393e-21
-8.09333e-24
-3.20323e-25
1.98e-21
-5.19988e-24
-3.21348e-25
1.98495e-21
-3.22412e-25
1.98936e-21
-3.16678e-28
1.45582e-25
-3.31097e-28
1.46454e-25
-2.74824e-28
1.4714e-25
-1.85933e-28
1.47706e-25
-8.86599e-29
1.48174e-25
1.48642e-25
0
0
0
0
0
0
0
0
0
0
0
0
0
0
0
0
0
0
0
0
0
0
0
0
0
0
0
0
0
0
0
0
0
0
0
0
0
0
0
0
0
0
0
0
0
0
0
0
0
0
0
0
0
0
0
0
0
0
0
0
0
0
0
0
0
0
0
0
0
0
0
0
0
0
0
0
0
0
0
0
0
0
0
0
0
0
0
0
0
0
0
0
0
0
0
0
0
0
0
0
0
0
0
0
0
0
0
0
0
0
0
0
0
0
0
0
0
0
0
0
0
0
0
0
0
0
0
0
0
0
0
0
0
0
0
0
0
0
0
0
0
0
0
0
0
0
0
0
0
0
0
0
0
0
0
0
0
0
0
0
0
0
0
0
0
0
0
0
0
0
0
0
0
0
0
0
0
0
0
0
0
0
0
0
0
0
0
0
0
0
0
0
0
0
0
0
0
0
0
0
0
0
0
0
0
0
0
0
0
0
0
0
0
0
0
0
0
0
0
0
0
0
0
0
0
0
0
0
0
0
0
0
0
0
0
0
0
0
0
0
0
0
0
0
0
0
0
0
0
0
0
0
0
0
0
0
0
0
0
0
0
0
0
0
0
0
0
0
0
0
0
0
0
0
0
0
0
0
0
0
0
0
0
0
0
0
0
0
0
0
0
0
0
0
0
0
0
0
0
0
0
0
0
0
0
0
0
0
0
0
0
0
0
0
0
0
0
0
0
0
0
0
0
0
0
0
0
0
0
0
0
0
0
0
0
0
0
0
0
0
0
0
0
0
0
0
0
0
0
0
0
0
0
0
0
0
0
0
0
0
0
0
0
0
0
0
0
0
0
0
0
0
0
0
0
0
0
0
0
0
0
0
0
0
0
0
0
0
0
0
0
0
0
0
0
0
0
0
0
0
0
0
0
0
0
0
0
0
0
0
0
0
0
0
0
0
0
0
0
0
0
0
0
0
0
0
0
0
0
0
0
0
0
0
0
0
0
0
0
0
0
0
0
0
0
0
0
0
0
0
0
0
0
0
0
0
0
0
0
0
0
0
0
0
0
0
0
0
0
0
0
0
0
0
0
0
0
0
0
0
0
0
0
0
0
0
0
0
0
0
0
0
0
0
0
0
0
0
0
0
0
0
0
0
0
0
0
0
0
0
0
0
0
0
0
0
0
0
0
0
0
0
0
0
0
0
0
0
0
0
0
0
0
0
0
0
0
0
0
0
0
0
0
0
0
0
0
0
0
0
0
0
0
0
0
0
0
0
0
0
0
0
0
0
0
0
0
0
0
0
0
0
0
0
0
0
0
0
0
0
0
0
0
0
0
0
0
0
0
0
0
0
0
0
0
0
0
0
0
0
0
0
0
0
0
0
0
0
0
0
0
0
0
0
0
0
0
0
0
0
0
0
0
0
0
0
0
0
0
0
0
0
0
0
0
0
0
0
0
0
0
0
0
0
0
0
0
0
0
0
0
0
0
0
0
0
0
0
0
0
0
0
0
0
0
0
0
0
0
0
0
0
0
0
0
0
0
0
0
0
0
0
0
0
0
0
0
0
0
0
0
0
0
0
0
0
0
0
0
0
0
0
0
0
0
0
0
0
0
0
0
0
0
0
0
0
0
0
0
0
0
0
0
0
0
0
0
0
0
0
0
0
0
0
0
0
0
0
0
0
0
0
0
0
0
0
0
0
0
0
0
0
0
0
0
0
0
0
0
0
0
0
0
0
0
0
0
0
0
0
0
0
0
0
0
0
0
0
0
0
0
0
0
0
0
0
0
0
0
0
0
0
-2.04027e-07
0.565275
-0.419587
-4.78443e-07
0.565275
-0.419587
-6.90453e-07
0.565275
-0.419587
-6.00631e-07
0.565276
-0.419587
-1.49138e-07
0.565276
-0.419588
0.565276
-0.419587
1.07144e-06
1.00401
-0.438726
7.38825e-07
1.00401
-0.438726
6.37183e-07
1.00401
-0.438726
4.17479e-07
1.00401
-0.438726
5.35609e-07
1.00401
-0.438726
1.00401
-0.438726
5.98649e-06
-0.735461
3.68508e-06
-0.735451
2.57822e-06
-0.735451
2.65147e-06
-0.735451
3.57662e-06
-0.735451
-0.735444
-4.25849e-07
0.444537
-0.848607
-8.42922e-07
0.444537
-0.848608
-9.01894e-07
0.444537
-0.848608
-7.59906e-07
0.444537
-0.848607
-3.14875e-07
0.444537
-0.848607
0.444537
-0.848607
-8.50592e-07
1.18472
-1.17876
-7.62931e-07
1.18472
-1.17876
-8.0177e-07
1.18472
-1.17876
-9.01059e-07
1.18472
-1.17876
-4.37394e-07
1.18472
-1.17876
1.18471
-1.17876
-1.32629e-06
-2.15764
-3.25793e-07
-2.15763
7.96994e-07
-2.15763
8.25713e-07
-2.15763
8.91193e-07
-2.15763
-2.15762
-6.49788e-07
-0.262342
-1.07531
-1.22886e-06
-0.262343
-1.07531
-1.51362e-06
-0.262343
-1.07531
-1.57512e-06
-0.262342
-1.07531
-1.22035e-06
-0.262343
-1.07531
-0.262343
-1.07531
-3.87415e-07
1.09443
-1.50509
-3.69376e-07
1.09443
-1.50509
-2.8371e-07
1.09443
-1.50509
-1.8665e-07
1.09443
-1.50509
1.6713e-07
1.09443
-1.50509
1.09443
-1.50509
-2.31782e-06
-1.12663
-3.49604e-07
-1.12663
2.90866e-06
-1.12663
6.8301e-06
-1.12663
7.00076e-06
-1.12663
-1.12664
3.0675e-08
-0.516505
-1.38531e-07
-8.96406e-07
-0.516505
-1.38562e-07
-2.97923e-07
-0.516505
-1.38555e-07
4.01276e-07
-0.516505
-1.38551e-07
-3.6967e-07
-0.516505
-1.38547e-07
-0.516503
-1.38506e-07
2.07624e-07
-0.000724935
-2.03982e-09
-1.28643e-06
-0.000725101
-2.04026e-09
-8.34996e-07
-0.00072524
-2.0401e-09
-3.11774e-07
-0.00072521
-2.04005e-09
-1.44212e-06
-0.000725116
-2.04007e-09
-0.000724784
-2.03962e-09
-8.39578e-08
-0
-1.70835e-07
-0
-1.35085e-07
-0
-9.91127e-08
-0
-1.08087e-07
-0
-0
-4.25043e-14
2.92499e-10
-1.16846e-07
1.16772e-14
2.92586e-10
-1.16865e-07
6.90785e-14
2.92565e-10
-1.16858e-07
1.09107e-13
2.92541e-10
-1.16856e-07
1.17557e-13
2.92534e-10
-1.16857e-07
2.92482e-10
-1.1683e-07
-4.65136e-16
0
-1.74764e-09
-1.05497e-15
0
-1.74799e-09
-1.2384e-15
0
-1.74785e-09
-1.34393e-15
0
-1.74782e-09
-1.12577e-15
0
-1.74785e-09
0
-1.74745e-09
0
0
0
0
0
0
0
0
0
0
0
-1.69817e-12
1.74764e-09
-9.57825e-10
-1.95608e-13
1.74801e-09
-9.57891e-10
1.08003e-13
1.74785e-09
-9.57762e-10
1.12083e-12
1.74783e-09
-9.57827e-10
2.60994e-12
1.74786e-09
-9.58021e-10
1.74743e-09
-9.5798e-10
-7.16143e-15
-0
-3.92011e-18
8.36118e-15
-0
-3.90708e-18
1.12698e-14
-0
-3.91432e-18
1.30772e-14
-0
-3.91898e-18
2.19976e-14
-0
-3.92021e-18
-0
-3.92089e-18
0
0
0
0
0
0
0
0
0
0
0
-3.57446e-17
-3.14682e-17
-1.61932e-11
1.81226e-17
-3.1357e-17
-1.61862e-11
-8.61401e-15
-3.14141e-17
-1.61862e-11
-1.16357e-14
-3.14547e-17
-1.61887e-11
-5.21565e-15
-3.14723e-17
-1.61918e-11
-3.14902e-17
-1.61926e-11
-3.20549e-24
-0
-3.53908e-17
-5.00234e-24
-0
-3.52665e-17
-8.87709e-24
-0
-3.53309e-17
-8.97227e-24
-0
-3.53762e-17
-1.28966e-24
-0
-3.5395e-17
-0
-3.54136e-17
0
0
0
0
0
0
0
0
0
0
0
3.87315e-18
6.11141e-16
-9.72003e-16
-1.86154e-18
6.10586e-16
-9.71542e-16
-4.41421e-18
6.10873e-16
-9.71609e-16
-3.8936e-18
6.11074e-16
-9.71917e-16
-2.21386e-18
6.11157e-16
-9.72274e-16
6.11241e-16
-9.72455e-16
-1.79013e-23
-0
-0
-4.81968e-22
-0
-0
-4.30131e-22
-0
-0
-2.58823e-22
-0
-0
-5.05597e-23
-0
-0
-0
-0
0
0
0
0
0
0
0
0
0
0
0
-1.23192e-20
-0
-3.95389e-20
-1.14566e-20
-0
-3.95881e-20
-4.88185e-21
-0
-3.96481e-20
1.04107e-22
-0
-3.97001e-20
2.4825e-21
-0
-3.97275e-20
-0
-3.97405e-20
0
0
0
0
0
0
0
0
0
0
0
0
0
0
0
0
0
0
0
0
0
0
0
0
0
0
0
0
-7.25466e-24
-0
-3.72026e-24
-5.56452e-24
-0
-3.72857e-24
-2.43928e-24
-0
-3.74049e-24
4.25068e-25
-0
-3.75234e-24
1.994e-24
-0
-3.76199e-24
-0
-3.77038e-24
0
0
0
0
0
0
0
0
0
0
0
0
0
0
0
0
0
0
0
0
0
0
0
0
0
0
0
0
-3.71168e-28
-0
-1.39477e-28
-4.92228e-28
-0
-1.40312e-28
-4.73484e-28
-0
-1.40969e-28
-3.14575e-28
-0
-1.41509e-28
-1.26208e-28
-0
-1.41957e-28
-0
-1.42403e-28
0
0
0
0
0
0
0
0
0
0
0
0
0
0
0
0
0
0
0
0
0
0
0
0
0
0
0
0
-1.7038e-32
-0
-0
-2.32301e-32
-0
-0
-2.3842e-32
-0
-0
-2.1134e-32
-0
-0
-1.15018e-32
-0
-0
-0
-0
0
0
0
0
0
0
0
0
0
0
0
0
0
0
0
0
0
0
0
0
0
0
0
0
0
0
0
0
0
0
0
0
0
0
0
0
0
0
0
0
0
0
0
0
0
0
0
0
0
0
0
0
0
0
0
0
0
0
0
0
0
0
0
0
0
0
0
0
0
0
0
0
0
0
0
0
0
0
0
0
0
0
0
0
0
0
0
0
0
0
0
0
0
0
0
0
0
0
0
0
0
0
0
0
0
0
0
0
0
0
0
0
0
0
0
0
0
0
0
0
0
0
0
0
0
0
0
0
0
0
0
0
0
0
0
0
0
0
0
0
0
0
0
0
0
0
0
0
0
0
0
0
0
0
0
0
0
0
0
0
0
0
0
0
0
0
0
0
0
0
0
0
0
0
0
0
0
0
0
0
0
0
0
0
0
0
0
0
0
0
0
0
0
0
0
0
0
0
0
0
0
0
0
0
0
0
0
0
0
0
0
0
0
0
0
0
0
0
0
0
0
0
0
0
0
0
0
0
0
0
0
0
0
0
0
0
0
0
0
0
0
0
0
0
0
0
0
0
0
0
0
0
0
0
0
0
0
0
0
0
0
0
0
0
0
0
0
0
0
0
0
0
0
0
0
0
0
0
0
0
0
0
0
0
0
0
0
0
0
0
0
0
0
0
0
0
0
0
0
0
0
0
0
0
0
0
0
0
0
0
0
0
0
0
0
0
0
0
0
0
0
0
0
0
0
0
0
0
0
0
0
0
0
0
0
0
0
0
0
0
0
0
0
0
0
0
0
0
0
0
0
0
0
0
0
0
0
0
0
0
0
0
0
0
0
0
0
0
0
0
0
0
0
0
0
0
0
0
0
0
0
0
0
0
0
0
0
0
0
0
0
0
0
0
0
0
0
0
0
0
0
0
0
0
0
0
0
0
0
0
0
0
0
0
0
0
0
0
0
0
0
0
0
0
0
0
0
0
0
0
0
0
0
0
0
0
0
0
0
0
0
0
0
0
0
0
0
0
0
0
0
0
0
0
0
0
0
0
0
0
0
0
0
0
0
0
0
0
0
0
0
0
0
0
0
0
0
0
0
0
0
0
0
0
0
0
0
0
0
0
0
0
0
0
0
0
0
0
0
0
0
0
0
0
0
0
0
0
0
0
0
0
0
0
0
0
0
0
0
0
0
0
0
0
0
0
0
0
0
0
0
0
0
0
0
0
0
0
0
0
0
0
0
0
0
0
0
0
0
0
0
0
0
0
0
0
0
0
0
0
0
0
0
0
0
0
0
0
0
0
0
0
0
0
0
0
0
0
0
0
0
0
0
0
0
0
0
0
0
0
0
0
0
0
0
0
0
0
0
0
0
0
0
0
0
0
0
0
0
0
0
0
0
0
0
0
0
0
0
0
0
0
0
0
0
0
0
0
0
0
0
0
0
0
0
0
0
0
0
0
0
0
0
0
0
0
0
0
0
0
0
0
0
0
0
0
0
0
0
0
0
0
0
0
0
0
0
0
0
0
0
0
0
0
0
0
0
0
0
0
0
0
0
0
0
0
0
0
0
0
0
0
0
0
0
0
0
0
0
0
0
0
0
0
0
0
0
0
0
0
0
0
0
0
0
0
0
0
0
0
0
0
0
0
0
0
0
0
0
0
0
0
0
0
0
0
0
0
0
0
0
0
0
0
0
0
0
0
0
0
0
0
0
0
0
0
0
0
0
0
0
0
0
0
0
0
0
0
0
0
0
0
0
0
0
0
0
0
0
0
0
0
0
0
0
0
0
0
0
0
0
0
0
0
0
0
0
0
0
0
0
0
0
0
0
0
0
0
0
0
0
0
0
0
0
0
0
0
0
0
)
;

boundaryField
{
    seabed_topleft_surface
    {
        type            calculated;
        value           uniform 0;
    }
    seabed_topright_surface
    {
        type            calculated;
        value           uniform 0;
    }
    breakwater_top_surface
    {
        type            calculated;
        value           uniform 0;
    }
    breakwater_left_surface
    {
        type            calculated;
        value           uniform 0;
    }
    breakwater_right_surface
    {
        type            calculated;
        value           uniform 0;
    }
    water_front_surface
    {
        type            calculated;
        value           uniform 0;
    }
    water_back_surface
    {
        type            calculated;
        value           uniform 0;
    }
    water_left_surface
    {
        type            calculated;
        value           uniform 0;
    }
    water_right_surface
    {
        type            calculated;
        value           uniform 0;
    }
    water_top_surface
    {
        type            calculated;
        value           nonuniform List<scalar> 
180
(
1.73965
1.73966
1.73965
1.73965
1.73965
1.73965
2.60837
2.60837
2.60837
2.60837
2.60837
2.60836
3.0795
3.0795
3.0795
3.0795
3.0795
3.0795
0.0122611
0.012261
0.0122609
0.0122609
0.012261
0.0122612
0
0
0
0
0
0
0
0
0
0
0
0
0
0
0
0
0
0
0
0
0
0
0
0
0
0
0
0
0
0
0
0
0
0
0
0
0
0
0
0
0
0
0
0
0
0
0
0
0
0
0
0
0
0
0
0
0
0
0
0
0
0
0
0
0
0
0
0
0
0
0
0
0
0
0
0
0
0
0
0
0
0
0
0
0
0
0
0
0
0
0
0
0
0
0
0
0
0
0
0
0
0
0
0
0
0
0
0
0
0
0
0
0
0
0
0
0
0
0
0
0
0
0
0
0
0
0
0
0
0
0
0
0
0
0
0
0
0
0
0
0
0
0
0
0
0
0
0
0
0
0
0
0
0
0
0
)
;
    }
}


// ************************************************************************* //
