/*--------------------------------*- C++ -*----------------------------------*\
| =========                 |                                                 |
| \\      /  F ield         | OpenFOAM: The Open Source CFD Toolbox           |
|  \\    /   O peration     | Version:  v1612+                                |
|   \\  /    A nd           | Web:      www.OpenFOAM.com                      |
|    \\/     M anipulation  |                                                 |
\*---------------------------------------------------------------------------*/
FoamFile
{
    version     2.0;
    format      ascii;
    class       surfaceScalarField;
    location    "0.75";
    object      phi;
}
// * * * * * * * * * * * * * * * * * * * * * * * * * * * * * * * * * * * * * //

dimensions      [0 3 -1 0 0 0 0];

internalField   nonuniform List<scalar> 
2916
(
-5.6283e-08
0.11002
-0.11002
-3.64197e-07
0.110021
-0.11002
-6.6994e-07
0.110021
-0.110021
-7.68415e-07
0.110021
-0.110021
-5.46294e-07
0.110021
-0.110021
0.11002
-0.110021
3.45664e-07
0.294846
-0.184826
7.29755e-07
0.294847
-0.184826
1.03947e-06
0.294847
-0.184826
9.95262e-07
0.294847
-0.184826
5.09903e-07
0.294846
-0.184825
0.294845
-0.184824
4.9992e-07
0.619836
-0.324991
1.00048e-06
0.619837
-0.324991
1.33937e-06
0.619837
-0.324991
1.39889e-06
0.619837
-0.32499
9.04315e-07
0.619836
-0.32499
0.619835
-0.324989
-1.04396e-09
1.29995
-0.680113
1.88472e-07
1.29995
-0.680114
2.80241e-07
1.29995
-0.680114
5.2509e-07
1.29995
-0.680115
4.7385e-07
1.29995
-0.680115
1.29995
-0.680114
1.4268e-06
2.48423
-1.18428
-1.37916e-06
2.48422
-1.18427
-4.85746e-06
2.48423
-1.18427
-6.26213e-06
2.48423
-1.18428
-8.82515e-06
2.48424
-1.18428
2.48424
-1.18429
-2.97097e-05
1.40272
1.08154
-4.31307e-05
1.40268
1.08156
-3.27322e-05
1.40267
1.08155
-2.26643e-05
1.40267
1.08155
-3.64278e-05
1.4027
1.08155
1.40269
1.08151
5.88718e-06
0.837934
0.564776
-3.06313e-05
0.837861
0.564843
-2.69127e-05
0.837829
0.564826
-9.64993e-06
0.83783
0.56482
-1.24577e-06
0.837844
0.56484
0.837848
0.564836
3.29015e-05
0.482815
0.35509
2.97824e-05
0.482772
0.355097
3.03409e-05
0.482762
0.355069
2.81944e-05
0.482774
0.355061
1.52186e-05
0.482791
0.355067
0.482803
0.355061
2.42842e-05
0.27701
0.205777
6.92454e-05
0.277012
0.205716
7.71239e-05
0.277033
0.205716
5.54389e-05
0.277067
0.205725
2.38426e-05
0.277097
0.205722
0.277116
0.205711
0.000101393
0.14996
0.126949
0.000150573
0.149996
0.126963
0.000158258
0.150023
0.127005
0.000132305
0.150047
0.127047
8.13429e-05
0.150068
0.12708
0.150085
0.127112
7.85517e-05
0.0676421
0.0822445
0.000101483
0.0676655
0.0823042
0.000105019
0.0676759
0.0823466
9.16959e-05
0.0676801
0.0823827
6.15523e-05
0.0676843
0.0824169
0.0676936
0.0824543
6.83387e-06
0.0676364
1.18729e-05
0.0676651
1.72231e-05
0.0676755
1.73539e-05
0.067683
1.24433e-05
0.0676923
0.0677065
-6.16772e-07
0.0390193
-0.149039
-1.57563e-06
0.0390196
-0.149039
-2.16614e-06
0.039019
-0.149039
-2.06142e-06
0.039018
-0.149039
-1.26884e-06
0.039017
-0.149039
0.0390163
-0.149039
2.76421e-09
0.130755
-0.276562
1.21002e-07
0.130755
-0.276562
2.93113e-07
0.130755
-0.276562
3.68787e-07
0.130753
-0.276561
3.27364e-07
0.130752
-0.27656
0.130751
-0.276558
6.85541e-07
0.31529
-0.509526
1.84525e-06
0.31529
-0.509527
2.57445e-06
0.315289
-0.509526
2.43046e-06
0.315287
-0.509525
1.54182e-06
0.315286
-0.509523
0.315284
-0.509521
5.77634e-07
0.715427
-1.08025
1.05702e-06
0.715427
-1.08025
1.36703e-06
0.715425
-1.08025
1.20104e-06
0.715423
-1.08025
4.0018e-07
0.715422
-1.08025
0.71542
-1.08025
4.4439e-07
2.26502
-2.73387
-1.01248e-06
2.265
-2.73385
-1.44886e-06
2.26502
-2.73386
-1.55378e-06
2.26504
-2.7339
-8.56985e-06
2.26508
-2.73394
2.26508
-2.73397
1.55383e-05
1.52856
1.81798
1.19033e-05
1.52849
1.81808
-1.51928e-06
1.52848
1.8181
-2.25691e-05
1.52849
1.81812
-4.86606e-05
1.52853
1.81812
1.52854
1.818
-1.56591e-05
0.580377
1.51298
-2.12699e-05
0.580264
1.51307
2.4573e-05
0.58024
1.51302
5.9927e-05
0.580259
1.51302
7.01191e-05
0.58029
1.51307
0.580376
1.51307
4.72877e-05
0.283092
0.652323
9.95576e-05
0.283027
0.652278
0.000107937
0.283035
0.652263
7.55167e-05
0.283077
0.652273
2.32646e-05
0.28312
0.652292
0.283173
0.65229
0.000127985
0.135257
0.353488
0.000169022
0.135228
0.353475
0.000134346
0.135288
0.353502
7.20311e-05
0.135354
0.353511
2.2554e-05
0.1354
0.353494
0.135449
0.353461
7.3399e-05
0.0653406
0.196794
2.33721e-05
0.0653874
0.196851
-2.31609e-05
0.0654339
0.196907
-4.28358e-05
0.065473
0.196946
-3.98331e-05
0.0655074
0.196971
0.0655385
0.196984
-4.22299e-05
0.0258856
0.12174
-7.74326e-05
0.0259299
0.1218
-8.94771e-05
0.0259574
0.121839
-8.19838e-05
0.0259757
0.121873
-5.11757e-05
0.0259906
0.121905
0.0260046
0.121938
-6.86995e-05
0.093588
-8.59422e-05
0.0936158
-7.92436e-05
0.09363
-6.08283e-05
0.093643
-3.31504e-05
0.0936581
0.0936781
-1.47824e-06
-0.0784032
-0.070634
-2.69451e-06
-0.078404
-0.0706342
-2.98725e-06
-0.0784051
-0.070634
-2.28878e-06
-0.0784063
-0.0706337
-9.15483e-07
-0.0784072
-0.0706332
-0.0784068
-0.0706326
-3.44437e-07
-0.129173
-0.225792
-8.15598e-07
-0.129174
-0.225792
-9.01755e-07
-0.129175
-0.225792
-7.68912e-07
-0.129177
-0.22579
-3.59038e-07
-0.129178
-0.225789
-0.129178
-0.225788
1.07229e-06
-0.0515456
-0.587154
2.03644e-06
-0.0515464
-0.587155
2.31414e-06
-0.0515476
-0.587154
1.6718e-06
-0.051549
-0.587152
6.33998e-07
-0.0515499
-0.58715
-0.0515497
-0.587148
5.59441e-07
0.152435
-1.28423
2.95759e-07
0.152434
-1.28423
-8.06198e-08
0.152431
-1.28423
-2.97702e-07
0.152428
-1.28423
-4.37253e-07
0.152425
-1.28423
0.152425
-1.28422
3.78524e-05
-1.35105
-1.23042
4.73851e-05
-1.35104
-1.23038
4.91041e-05
-1.35104
-1.23039
4.14876e-05
-1.35105
-1.23041
6.30843e-06
-1.35104
-1.23044
-1.35102
-1.23051
-1.53893e-05
-0.908598
1.37554
3.11148e-06
-0.908603
1.37562
5.04938e-05
-0.908589
1.3756
7.07668e-05
-0.908567
1.37562
5.49977e-05
-0.908531
1.37563
-0.908484
1.37552
-9.14815e-07
-0.286359
0.89074
6.38556e-05
-0.286378
0.890778
0.000118795
-0.286351
0.890728
0.000118949
-0.286298
0.890748
8.63474e-05
-0.286238
0.890816
-0.286159
0.890834
2.16083e-05
-0.118814
0.484756
9.58804e-05
-0.118853
0.484675
0.000109126
-0.1188
0.484701
8.33802e-05
-0.118727
0.484729
4.87716e-05
-0.118652
0.484742
-0.11856
0.484738
0.000107142
-0.0501003
0.284666
7.73807e-05
-0.0500936
0.284747
2.90504e-05
-0.0500368
0.284793
-3.20107e-06
-0.0499783
0.284799
-1.41255e-05
-0.0499213
0.284778
-0.0498519
0.284739
-3.57156e-05
-0.0230388
0.169768
-0.000132466
-0.0229905
0.169849
-0.000186027
-0.0229501
0.169879
-0.000187271
-0.0229167
0.169888
-0.000129424
-0.0228881
0.169883
-0.0228591
0.169863
-0.000119326
-0.0101829
0.109002
-0.000186045
-0.0101423
0.109022
-0.000203546
-0.0101255
0.109036
-0.000181217
-0.0101155
0.109051
-0.00011821
-0.0101122
0.109066
-0.0101173
0.10908
-6.69707e-05
0.0834749
-7.87658e-05
0.0834878
-7.13297e-05
0.0834983
-5.14038e-05
0.0835097
-2.52673e-05
0.0835213
0.0835356
-1.1931e-06
-0.215948
0.145315
-1.79097e-06
-0.215949
0.145315
-1.64817e-06
-0.215949
0.145315
-6.19479e-07
-0.21595
0.145315
3.0872e-07
-0.215949
0.145315
-0.215948
0.145316
-6.49955e-07
-0.447721
0.00598158
-1.52613e-06
-0.447722
0.00598175
-1.93563e-06
-0.447723
0.00598216
-1.71536e-06
-0.447723
0.0059828
-1.08621e-06
-0.447722
0.00598348
-0.44772
0.00598357
-5.81086e-07
-0.478592
-0.556284
-1.40322e-06
-0.478592
-0.556285
-2.35709e-06
-0.478592
-0.556284
-2.88132e-06
-0.478592
-0.556283
-2.47877e-06
-0.478591
-0.556282
-0.47859
-0.556281
4.99793e-07
-0.356876
-1.40595
6.75669e-07
-0.356877
-1.40595
1.95277e-06
-0.356877
-1.40594
2.10347e-06
-0.356875
-1.40594
4.91861e-07
-0.356872
-1.40594
-0.356874
-1.40594
1.7793e-05
-1.59182
0.00449866
5.40256e-05
-1.59184
0.00454657
8.51423e-05
-1.59185
0.00454703
0.000100157
-1.59183
0.00453645
7.12889e-05
-1.5918
0.00451921
-1.59179
0.00446607
9.14636e-07
-1.03218
0.815906
2.89891e-05
-1.03221
0.815954
5.31193e-05
-1.0322
0.815933
6.53901e-05
-1.03218
0.815944
6.30795e-05
-1.03213
0.815967
-1.03213
0.815925
-3.25543e-07
-0.467606
0.326165
4.57009e-05
-0.467623
0.32615
3.7585e-05
-0.467594
0.32613
1.37751e-05
-0.46755
0.32615
6.02246e-06
-0.467502
0.326193
-0.467492
0.326209
5.82769e-05
-0.253444
0.270535
7.14487e-05
-0.253447
0.270489
5.90388e-05
-0.253393
0.270512
4.94423e-05
-0.25334
0.270531
3.98625e-05
-0.253292
0.27054
-0.253253
0.27054
-4.42151e-06
-0.130767
0.161992
-2.75082e-05
-0.130717
0.162045
-2.72325e-05
-0.130662
0.162064
-1.18283e-05
-0.130619
0.162064
3.90122e-06
-0.130582
0.162052
-0.130545
0.162034
-9.21533e-05
-0.0647484
0.103843
-0.000148949
-0.0647026
0.103896
-0.000159568
-0.0646767
0.103907
-0.000135439
-0.0646598
0.103906
-7.96907e-05
-0.064648
0.103895
-0.0646358
0.103873
-8.31718e-05
-0.0251341
0.0694743
-0.000124238
-0.0251177
0.0694799
-0.000134257
-0.0251156
0.0694854
-0.000117195
-0.0251172
0.0694931
-7.56087e-05
-0.0251226
0.069498
-0.0251307
0.0694985
-3.00842e-05
0.0583744
-3.35204e-05
0.0583752
-2.9525e-05
0.0583791
-2.18147e-05
0.0583842
-1.06848e-05
0.0583885
0.058393
6.29259e-07
1.4631e-06
-2.09236e-06
1.80741e-07
1.43404e-06
-2.15915e-06
2.09586e-08
1.40258e-06
-2.19828e-06
-6.17467e-08
1.39733e-06
-2.20776e-06
-9.04297e-08
1.37895e-06
-2.22622e-06
1.31979e-06
-2.28189e-06
5.67018e-07
2.20074e-06
-2.00849e-06
1.2594e-07
2.21855e-06
-2.07767e-06
-5.41606e-08
2.2165e-06
-2.09863e-06
-1.58406e-07
2.2138e-06
-2.11932e-06
-2.41251e-07
2.20341e-06
-2.13942e-06
2.18597e-06
-2.18976e-06
6.74626e-07
2.6541e-06
-1.79463e-06
1.56876e-07
2.67921e-06
-1.87469e-06
-5.85902e-08
2.68113e-06
-1.88798e-06
-1.86069e-07
2.67077e-06
-1.91633e-06
-2.82363e-07
2.65208e-06
-1.9394e-06
2.6235e-06
-1.99333e-06
8.1127e-07
2.54128e-06
-1.48435e-06
1.77098e-07
2.5438e-06
-1.58579e-06
-8.97585e-08
2.53729e-06
-1.60955e-06
-2.48095e-07
2.50948e-06
-1.64522e-06
-3.58779e-07
2.47482e-06
-1.67732e-06
2.43228e-06
-1.7402e-06
8.73759e-07
1.91792e-06
-1.24326e-06
1.19028e-07
1.88105e-06
-1.37325e-06
-1.84974e-07
1.85027e-06
-1.41847e-06
-3.59589e-07
1.81059e-06
-1.46126e-06
-4.7758e-07
1.77508e-06
-1.49598e-06
1.73465e-06
-1.56289e-06
7.65846e-07
1.41345e-06
-1.48489e-06
-2.41768e-08
1.33964e-06
-1.64424e-06
-3.20631e-07
1.28563e-06
-1.70545e-06
-4.88152e-07
1.26022e-06
-1.74284e-06
-5.90045e-07
1.24449e-06
-1.76969e-06
1.22937e-06
-1.82243e-06
4.78622e-07
2.98677e-06
-3.39353e-06
-1.86892e-07
2.89779e-06
-3.57917e-06
-4.30319e-07
2.85717e-06
-3.62948e-06
-5.54051e-07
2.86147e-06
-3.65491e-06
-6.22343e-07
2.88276e-06
-3.66101e-06
2.91004e-06
-3.6805e-06
6.95235e-08
1.0611e-05
-8.92132e-06
-3.38806e-07
1.053e-05
-9.1307e-06
-4.50495e-07
1.05278e-05
-9.17271e-06
-4.91341e-07
1.05754e-05
-9.17845e-06
-5.1562e-07
1.06414e-05
-9.1552e-06
1.07272e-05
-9.12661e-06
-3.08658e-07
2.16307e-05
-1.15788e-05
-3.98207e-07
2.15885e-05
-1.18205e-05
-3.52255e-07
2.16348e-05
-1.18566e-05
-2.95251e-07
2.17212e-05
-1.18418e-05
-2.77611e-07
2.18263e-05
-1.1781e-05
2.19485e-05
-1.16953e-05
-4.78594e-07
2.14798e-05
2.62417e-07
-2.63427e-07
2.14762e-05
4.44515e-08
-9.36691e-08
2.15617e-05
3.56958e-08
3.49248e-08
2.1656e-05
9.39101e-08
5.98502e-08
2.1783e-05
2.08611e-07
2.1941e-05
3.60442e-07
-3.26085e-07
2.97573e-05
-7.84848e-06
3.39714e-08
2.97733e-05
-7.82732e-06
2.05271e-07
2.98281e-05
-7.77219e-06
3.23101e-07
2.98641e-05
-7.67532e-06
3.21931e-07
2.99391e-05
-7.52387e-06
3.01074e-05
-7.3222e-06
-4.01817e-08
3.02053e-05
1.49082e-07
3.03948e-05
1.97443e-07
3.04531e-05
2.00455e-07
3.0495e-05
1.98353e-07
3.05637e-05
3.06813e-05
4.53733e-07
2.90912e-06
-6.19545e-06
8.41229e-08
2.88063e-06
-6.23604e-06
-7.31371e-08
2.86875e-06
-6.24326e-06
-1.64428e-07
2.85487e-06
-6.25153e-06
-2.39256e-07
2.8375e-06
-6.25729e-06
2.78755e-06
-6.25906e-06
3.92238e-07
5.34317e-06
-6.12604e-06
2.79402e-08
5.3481e-06
-6.16987e-06
-1.24598e-07
5.35179e-06
-6.16721e-06
-2.44081e-07
5.34043e-06
-6.18195e-06
-3.76929e-07
5.32534e-06
-6.18989e-06
5.30073e-06
-6.18993e-06
4.56567e-07
7.61885e-06
-5.92677e-06
1.26457e-08
7.6269e-06
-5.97715e-06
-1.56295e-07
7.61902e-06
-5.98246e-06
-2.98107e-07
7.60045e-06
-5.99763e-06
-4.52149e-07
7.57115e-06
-6.00478e-06
7.53136e-06
-6.00057e-06
5.37445e-07
9.33503e-06
-5.44456e-06
-2.84607e-09
9.32161e-06
-5.51663e-06
-2.1926e-07
9.29586e-06
-5.53179e-06
-3.94467e-07
9.2592e-06
-5.55169e-06
-5.88018e-07
9.21785e-06
-5.55845e-06
9.16506e-06
-5.54891e-06
5.39612e-07
1.00464e-05
-4.58025e-06
-8.46989e-08
1.00026e-05
-4.68242e-06
-3.39903e-07
9.9579e-06
-4.70794e-06
-5.45405e-07
9.91946e-06
-4.72599e-06
-7.60184e-07
9.88298e-06
-4.72394e-06
9.84526e-06
-4.69633e-06
3.92267e-07
8.86045e-06
-3.03064e-06
-2.32086e-07
8.79319e-06
-3.16322e-06
-4.91792e-07
8.75324e-06
-3.18886e-06
-6.87011e-07
8.73471e-06
-3.19183e-06
-8.85436e-07
8.72706e-06
-3.16664e-06
8.72746e-06
-3.10771e-06
1.18389e-07
2.7482e-06
3.6138e-07
-3.99299e-07
2.68097e-06
1.98524e-07
-5.9067e-07
2.65902e-06
1.77693e-07
-7.28627e-07
2.67987e-06
1.97858e-07
-8.76475e-07
2.71892e-06
2.51784e-07
2.77357e-06
3.42525e-07
-1.85046e-07
-1.57338e-05
8.03893e-06
-4.75666e-07
-1.58013e-05
7.82114e-06
-5.5415e-07
-1.57911e-05
7.79956e-06
-6.0257e-07
-1.57288e-05
7.83431e-06
-6.63748e-07
-1.56375e-05
7.9115e-06
-1.55145e-05
8.02953e-06
-3.87259e-07
-3.52935e-05
7.48868e-06
-4.05212e-07
-3.54127e-05
7.21422e-06
-3.50106e-07
-3.53853e-05
7.19247e-06
-3.09247e-07
-3.53002e-05
7.24482e-06
-2.91472e-07
-3.51723e-05
7.36155e-06
-3.50139e-05
7.54039e-06
-4.59485e-07
-2.40429e-05
-1.05656e-05
-2.30245e-07
-2.42563e-05
-1.09198e-05
-5.64038e-08
-2.42188e-05
-1.09331e-05
7.74733e-08
-2.412e-05
-1.08563e-05
1.01822e-07
-2.3938e-05
-1.06837e-05
-2.36915e-05
-1.04483e-05
-2.83928e-07
-7.67835e-07
-3.02598e-05
7.33357e-08
-9.93182e-07
-3.03799e-05
2.84521e-07
-9.98941e-07
-3.03113e-05
4.36834e-07
-9.36539e-07
-3.01588e-05
4.67253e-07
-7.83926e-07
-2.99028e-05
-4.94883e-07
-2.95143e-05
1.15238e-07
3.01294e-05
1.7148e-07
3.02523e-05
1.39367e-07
3.02907e-05
1.21708e-07
3.03311e-05
1.60749e-07
3.04134e-05
3.05857e-05
3.71557e-07
4.27724e-06
-1.14728e-05
4.22379e-08
4.25093e-06
-1.15182e-05
-1.01423e-07
4.25171e-06
-1.15141e-05
-1.87587e-07
4.23579e-06
-1.15205e-05
-2.56243e-07
4.22112e-06
-1.15206e-05
4.17978e-06
-1.15128e-05
3.00727e-07
8.36868e-06
-1.16421e-05
-3.6463e-08
8.37146e-06
-1.16874e-05
-1.61423e-07
8.3709e-06
-1.16835e-05
-2.6773e-07
8.36199e-06
-1.16909e-05
-3.86234e-07
8.35094e-06
-1.16916e-05
8.33387e-06
-1.16794e-05
3.39147e-07
1.27459e-05
-1.18518e-05
-4.50311e-08
1.27457e-05
-1.19043e-05
-1.9937e-07
1.2735e-05
-1.19049e-05
-3.27306e-07
1.27166e-05
-1.19119e-05
-4.61505e-07
1.26927e-05
-1.191e-05
1.26655e-05
-1.18911e-05
3.68175e-07
1.72781e-05
-1.18057e-05
-8.44607e-08
1.7256e-05
-1.18759e-05
-2.74114e-07
1.72282e-05
-1.18811e-05
-4.30018e-07
1.71969e-05
-1.18874e-05
-5.90805e-07
1.71664e-05
-1.18791e-05
1.71343e-05
-1.18484e-05
3.0148e-07
2.18495e-05
-1.12091e-05
-1.97885e-07
2.18038e-05
-1.13003e-05
-4.08715e-07
2.1765e-05
-1.13067e-05
-5.77385e-07
2.174e-05
-1.13022e-05
-7.37148e-07
2.17215e-05
-1.12762e-05
2.17085e-05
-1.12196e-05
1.12736e-07
2.72062e-05
-1.03938e-05
-3.48262e-07
2.71507e-05
-1.05028e-05
-5.40021e-07
2.7122e-05
-1.04991e-05
-6.81646e-07
2.71221e-05
-1.04708e-05
-8.10533e-07
2.71329e-05
-1.04149e-05
2.71497e-05
-1.03234e-05
-1.26569e-07
3.94614e-05
-1.34579e-05
-4.49657e-07
3.94063e-05
-1.35923e-05
-5.76308e-07
3.93982e-05
-1.3578e-05
-6.63587e-07
3.94314e-05
-1.35259e-05
-7.4749e-07
3.94777e-05
-1.34424e-05
3.95276e-05
-1.3323e-05
-3.23186e-07
7.56006e-05
-2.89204e-05
-4.44976e-07
7.55203e-05
-2.91263e-05
-4.79984e-07
7.55275e-05
-2.91169e-05
-4.89991e-07
7.55825e-05
-2.90609e-05
-4.95506e-07
7.56635e-05
-2.89595e-05
7.57537e-05
-2.8812e-05
-4.27954e-07
0.000122931
-3.98359e-05
-3.26823e-07
0.000122765
-4.01845e-05
-2.42885e-07
0.000122778
-4.02005e-05
-1.81762e-07
0.000122861
-4.01418e-05
-1.65141e-07
0.000122996
-4.00094e-05
0.000123132
-3.9805e-05
-3.27162e-07
0.000114052
-1.15591e-06
-4.63915e-08
0.000113708
-1.58324e-06
1.55744e-07
0.0001137
-1.59052e-06
2.83647e-07
0.000113808
-1.47746e-06
2.36688e-07
0.000114
-1.2641e-06
0.000114252
-9.39488e-07
-8.21831e-09
5.26889e-05
3.16714e-05
2.55673e-07
5.22298e-05
3.1626e-05
4.00394e-07
5.21734e-05
3.17331e-05
5.1183e-07
5.22641e-05
3.19378e-05
4.84013e-07
5.24771e-05
3.22523e-05
5.2816e-05
3.2744e-05
2.77636e-07
8.31776e-05
1.16066e-07
8.31572e-05
-9.34301e-08
8.31147e-05
-1.77184e-07
8.31283e-05
-8.28088e-08
8.32186e-05
8.34288e-05
2.86223e-07
5.34652e-06
-1.7691e-05
9.7576e-09
5.32322e-06
-1.77459e-05
-1.15652e-07
5.32632e-06
-1.77312e-05
-1.91109e-07
5.31252e-06
-1.77375e-05
-2.50309e-07
5.3007e-06
-1.77345e-05
5.26749e-06
-1.77207e-05
2.15532e-07
1.09073e-05
-1.84147e-05
-6.79424e-08
1.09053e-05
-1.84631e-05
-1.73774e-07
1.09022e-05
-1.84564e-05
-2.64671e-07
1.08955e-05
-1.84585e-05
-3.65693e-07
1.0888e-05
-1.84532e-05
1.08761e-05
-1.84312e-05
2.27222e-07
1.74445e-05
-1.96696e-05
-8.26183e-08
1.74356e-05
-1.97221e-05
-2.12513e-07
1.74246e-05
-1.97175e-05
-3.19401e-07
1.74092e-05
-1.97181e-05
-4.29709e-07
1.73925e-05
-1.97092e-05
1.73752e-05
-1.96805e-05
2.1067e-07
2.52511e-05
-2.10531e-05
-1.38135e-07
2.52246e-05
-2.11134e-05
-2.87222e-07
2.51995e-05
-2.11099e-05
-4.10571e-07
2.51788e-05
-2.11049e-05
-5.32875e-07
2.51619e-05
-2.10872e-05
2.51473e-05
-2.10463e-05
1.00317e-07
3.39448e-05
-2.13998e-05
-2.49339e-07
3.39084e-05
-2.14685e-05
-4.02661e-07
3.38834e-05
-2.14573e-05
-5.21652e-07
3.38773e-05
-2.14381e-05
-6.24507e-07
3.38787e-05
-2.14025e-05
3.38851e-05
-2.13392e-05
-7.916e-08
3.94814e-05
-1.72197e-05
-3.51754e-07
3.94596e-05
-1.72875e-05
-4.73274e-07
3.94544e-05
-1.72597e-05
-5.57413e-07
3.94762e-05
-1.72203e-05
-6.25642e-07
3.95033e-05
-1.71612e-05
3.95289e-05
-1.70739e-05
-2.298e-07
2.7055e-05
-1.84328e-06
-3.62001e-07
2.70569e-05
-1.91368e-06
-4.33293e-07
2.70793e-05
-1.87568e-06
-4.78934e-07
2.71214e-05
-1.82524e-06
-5.17883e-07
2.71693e-05
-1.75319e-06
2.72103e-05
-1.6559e-06
-2.61881e-07
-3.46934e-05
3.25761e-05
-2.52267e-07
-3.46819e-05
3.24682e-05
-2.70647e-07
-3.46404e-05
3.2492e-05
-2.85287e-07
-3.45805e-05
3.25314e-05
-2.8086e-07
-3.45084e-05
3.25986e-05
-3.44392e-05
3.27043e-05
-1.6574e-07
-0.000160451
8.61019e-05
-7.6141e-08
-0.000160492
8.5921e-05
-5.91734e-08
-0.00016045
8.59161e-05
-4.45025e-08
-0.00016037
8.5947e-05
-5.07883e-08
-0.000160253
8.60216e-05
-0.000160117
8.6154e-05
-4.4253e-08
-0.000297079
0.000135884
9.54187e-08
-0.000297262
0.000135616
1.41303e-07
-0.000297206
0.000135607
1.87493e-07
-0.000297055
0.000135665
1.77169e-07
-0.000296834
0.000135779
-0.000296525
0.00013599
9.91211e-08
-0.000407485
0.000142451
9.93703e-08
-0.000407649
0.000142408
8.84841e-08
-0.000407629
0.000142473
1.35004e-07
-0.000407484
0.000142614
2.61093e-07
-0.000407188
0.000142866
-0.000406662
0.000143285
-3.30214e-07
-0.000323613
-6.778e-07
-0.000324149
-9.00431e-07
-0.000324273
-1.00454e-06
-0.000324239
-7.50437e-07
-0.000324121
-0.00032408
-2.91794e-07
0.590606
-0.445291
-4.57046e-07
0.590607
-0.445292
-7.8526e-07
0.590607
-0.445292
-5.5699e-07
0.590607
-0.445292
-4.2791e-08
0.590607
-0.445292
0.590607
-0.445292
7.68353e-07
1.05691
-0.466304
8.88238e-07
1.05691
-0.466304
7.48439e-07
1.05691
-0.466304
4.38291e-07
1.05691
-0.466305
4.5152e-07
1.05691
-0.466305
1.05691
-0.466304
5.48811e-06
-0.808263
3.42821e-06
-0.808255
2.41162e-06
-0.808255
2.6419e-06
-0.808255
3.38045e-06
-0.808254
-0.808249
-6.20355e-07
0.44405
-0.883359
-9.06921e-07
0.444051
-0.88336
-9.95353e-07
0.444051
-0.88336
-7.98327e-07
0.44405
-0.88336
-2.00022e-07
0.444051
-0.88336
0.44405
-0.883359
-9.11855e-07
1.26139
-1.28364
-7.01644e-07
1.26139
-1.28364
-6.55372e-07
1.26139
-1.28364
-6.56697e-07
1.26139
-1.28364
-2.67666e-07
1.26139
-1.28364
1.26139
-1.28364
-1.54149e-06
-2.40026
-3.92623e-07
-2.40025
7.56568e-07
-2.40025
8.03153e-07
-2.40025
1.23183e-06
-2.40025
-2.40024
-6.51699e-07
-0.33959
-1.10005
-1.3285e-06
-0.339592
-1.10005
-1.77314e-06
-0.339591
-1.10005
-1.8245e-06
-0.339591
-1.10005
-1.25259e-06
-0.339591
-1.10005
-0.339591
-1.10005
-1.12672e-07
1.33489
-2.95812
-4.32629e-07
1.33489
-2.95812
-3.53486e-07
1.33489
-2.95812
6.09562e-08
1.33489
-2.95812
6.3673e-07
1.33489
-2.95812
1.33488
-2.95811
-3.58083e-06
-5.53139
-1.2846e-06
-5.5314
3.11653e-06
-5.5314
7.27641e-06
-5.5314
7.36656e-06
-5.53139
-5.53137
9.63365e-08
-1.19101
-1.31499
-1.59904e-06
-1.19101
-1.31499
-3.16788e-07
-1.19101
-1.31499
1.06389e-06
-1.19101
-1.31499
-5.75731e-07
-1.19101
-1.31498
-1.191
-1.31499
9.66547e-07
-0.980916
-3.16821
-9.32834e-06
-0.980923
-3.16819
-6.24319e-06
-0.980928
-3.1682
-2.71698e-06
-0.980927
-3.1682
-1.05403e-05
-0.980926
-3.16819
-0.980919
-3.16821
-1.00726e-05
-5.71627
-1.81157e-05
-5.71627
-1.5043e-05
-5.71627
-1.16557e-05
-5.71627
-1.0859e-05
-5.71626
-5.71625
-1.40136e-05
-0.0419207
-1.26855
5.22881e-06
-0.0419132
-1.26854
2.6919e-05
-0.0419165
-1.26855
4.86298e-05
-0.0419228
-1.26855
5.60571e-05
-0.0419228
-1.26855
-0.0418909
-1.26858
-1.8623e-05
-1.21833
-1.99177
-3.50973e-05
-1.21834
-1.99175
-3.9201e-05
-1.21834
-1.99177
-4.76564e-05
-1.21835
-1.99177
-4.66867e-05
-1.21835
-1.99177
-1.21834
-1.99181
-1.79701e-05
-2.64363
-1.14057e-05
-2.64363
-7.13806e-06
-2.64363
-1.06912e-05
-2.64362
-8.23994e-06
-2.64361
-2.64358
-2.74524e-05
0.420811
-0.873433
-2.88411e-06
0.42083
-0.873441
4.80379e-07
0.420819
-0.873442
1.28198e-05
0.420819
-0.873442
3.90398e-05
0.420827
-0.873441
0.420824
-0.873439
-1.62631e-05
-0.687143
-0.883804
1.40874e-05
-0.687149
-0.883806
2.1387e-05
-0.68715
-0.88381
2.22234e-05
-0.687148
-0.88381
3.71553e-05
-0.687148
-0.883813
-0.687135
-0.883811
-1.97269e-05
-1.07938
-2.30612e-05
-1.07938
-2.71248e-05
-1.07938
-2.5425e-05
-1.07938
-2.01296e-05
-1.07938
-1.07937
-3.78226e-06
-0.0632729
-0.48399
-1.90907e-06
-0.0632907
-0.483998
-2.21763e-05
-0.063295
-0.484
-3.05885e-05
-0.0632869
-0.483998
-1.19905e-05
-0.0632722
-0.483994
-0.0632584
-0.483985
-6.50805e-06
-0.348259
-0.598814
-8.77876e-06
-0.348272
-0.598825
-1.68624e-05
-0.348273
-0.598827
-1.73646e-05
-0.348271
-0.598828
-4.8714e-06
-0.348268
-0.59883
-0.348257
-0.59882
-5.23113e-06
-0.632607
-4.20574e-06
-0.632613
-5.46455e-06
-0.632612
-3.18705e-06
-0.632612
-5.11305e-07
-0.632612
-0.632603
1.05964e-05
0.0676983
-0.281161
-4.63606e-06
0.0676847
-0.281173
-1.29593e-05
0.0676941
-0.281171
-1.19758e-05
0.0677003
-0.281169
-5.71143e-06
0.0677029
-0.281164
0.0677051
-0.281156
-4.47005e-07
-0.233577
-0.297538
-9.18269e-06
-0.233587
-0.297547
-9.27704e-06
-0.233585
-0.297548
-6.08178e-06
-0.233585
-0.297548
-2.50236e-06
-0.233584
-0.297548
-0.233577
-0.297542
-4.37437e-07
-0.273223
-3.19947e-06
-0.273226
-4.34411e-06
-0.273227
-3.53023e-06
-0.273227
-3.23899e-06
-0.273226
-0.273223
-2.31687e-05
0.0289099
-0.148054
-2.14026e-05
0.0289315
-0.148059
-9.26741e-06
0.0289415
-0.148059
4.38966e-08
0.0289436
-0.148058
5.73689e-06
0.0289415
-0.148058
0.0289387
-0.148055
-1.46906e-05
-0.113038
-0.155574
-1.43348e-05
-0.11304
-0.155577
-8.6127e-06
-0.113037
-0.155576
-3.62984e-06
-0.113036
-0.155576
3.98931e-07
-0.113036
-0.155576
-0.113032
-0.155573
-2.74996e-06
-0.129304
-3.22795e-06
-0.129305
-3.51109e-06
-0.129305
-2.53278e-06
-0.129305
-1.3852e-06
-0.129305
-0.129302
-2.86493e-05
0.0301479
-0.0743281
-2.17991e-05
0.030158
-0.074327
-8.8806e-06
0.0301623
-0.0743272
2.78826e-06
0.0301637
-0.0743294
9.03678e-06
0.0301623
-0.0743329
0.0301602
-0.0743342
-6.65388e-06
-0.0480717
-0.0773472
-6.99244e-06
-0.048072
-0.077348
-4.58824e-06
-0.04807
-0.0773475
-1.15312e-06
-0.048069
-0.0773477
7.88574e-07
-0.048069
-0.0773482
-0.0480664
-0.077347
-1.84703e-06
-0.0566486
-2.45032e-06
-0.0566494
-2.71245e-06
-0.0566492
-1.59256e-06
-0.056649
-1.01334e-06
-0.056649
-0.056648
-7.01326e-06
0.0274288
-0.0322739
-1.10218e-05
0.027429
-0.0322743
-1.11368e-05
0.0274307
-0.0322742
-7.71252e-06
0.0274328
-0.0322742
-3.50904e-06
0.0274339
-0.032275
0.0274346
-0.0322744
-1.46599e-06
-0.015685
-0.0342328
-3.15856e-06
-0.0156867
-0.0342337
-3.35932e-06
-0.015686
-0.0342334
-2.28764e-06
-0.0156852
-0.0342333
-1.23379e-06
-0.0156848
-0.0342334
-0.0156825
-0.0342323
-7.00491e-07
-0.0239164
-1.08031e-06
-0.0239169
-1.40715e-06
-0.0239168
-1.20628e-06
-0.0239167
-9.37944e-07
-0.0239167
-0.0239161
-5.52591e-06
0.0184787
0.0076267
-9.85675e-06
0.0184756
0.00762636
-1.05569e-05
0.0184758
0.00762794
-1.03807e-05
0.0184762
0.00762948
-6.48104e-06
0.0184766
0.00763099
0.0184773
0.00763276
7.01476e-07
-0.00457038
-0.011187
-3.51164e-07
-0.00457232
-0.011188
-7.74576e-07
-0.0045722
-0.0111877
-7.31853e-07
-0.00457211
-0.0111876
-5.86396e-07
-0.00457205
-0.0111874
-0.00457049
-0.0111866
-2.40482e-07
-0.00930408
-5.02469e-07
-0.00930447
-8.06997e-07
-0.00930441
-7.8279e-07
-0.00930435
-7.40103e-07
-0.00930431
-0.00930399
6.67848e-07
-0.000348788
0.0007471
-0.00039898
-4.7857e-08
-0.000348934
0.000747374
-0.000399289
-3.69556e-07
-0.000348987
0.000747346
-0.000399366
-3.96419e-07
-0.000348998
0.00074726
-0.000399353
-2.58227e-07
-0.000348976
0.000747221
-0.000399301
-0.000348888
0.000746839
-0.000399065
2.96117e-07
-0.000326799
0.000837974
-0.000860912
-2.57097e-07
-0.000326978
0.000838154
-0.000861177
-3.95583e-07
-0.000326951
0.000838058
-0.000861187
-3.46208e-07
-0.000326918
0.000837957
-0.000861168
-2.23504e-07
-0.000326881
0.00083792
-0.000861115
-0.000326704
0.000837623
-0.000860923
3.77258e-08
0.000544358
-0.000380291
-1.4711e-07
0.000544399
-0.00038039
-2.26354e-07
0.000544435
-0.000380415
-1.91297e-07
0.000544466
-0.000380396
-5.23705e-08
0.000544509
-0.000380338
0.00054441
-0.000380227
5.94503e-07
-0.000190654
0.00093614
-1.50144e-07
-0.000190824
0.000936441
-4.46482e-07
-0.000190905
0.000936373
-5.6684e-07
-0.000190918
0.000936278
-5.10446e-07
-0.000190888
0.000936337
-0.000190746
0.000935897
1.92694e-07
-0.000395561
0.00104105
-4.29808e-07
-0.000395781
0.00104134
-5.33327e-07
-0.0003957
0.00104134
-5.08037e-07
-0.000395606
0.00104129
-4.46522e-07
-0.000395531
0.00104126
-0.000395255
0.00104087
-1.43979e-08
0.00085163
-8.96252e-08
0.000851719
-1.61614e-07
0.000851745
-1.56973e-07
0.000851741
-1.06864e-07
0.000851714
0.000851511
5.31924e-07
7.48783e-05
0.000859397
-3.7082e-07
7.47039e-05
0.000859754
-5.58453e-07
7.46539e-05
0.000859533
-5.39155e-07
7.46652e-05
0.00085928
-6.56372e-07
7.4656e-05
0.000859057
7.48223e-05
0.000858505
2.46691e-07
-0.000418879
0.00153275
-4.86114e-07
-0.000419187
0.0015331
-6.05267e-07
-0.00041909
0.00153312
-6.22092e-07
-0.000418975
0.00153308
-6.65144e-07
-0.000418893
0.00153299
-0.000418538
0.00153272
-1.6572e-08
0.00144675
-8.1066e-08
0.00144689
-1.6614e-07
0.00144687
-2.12811e-07
0.00144683
-2.83419e-07
0.00144677
0.00144665
2.40638e-07
0.000736735
0.00012056
-8.13862e-07
0.000736559
0.000121108
-1.08415e-06
0.000736616
0.000120771
-9.49016e-07
0.000736724
0.00012045
-8.30657e-07
0.000736772
0.000120086
0.000737051
0.00011897
1.91164e-07
-0.00039924
0.00266663
-4.88054e-07
-0.000399634
0.00266713
-6.95653e-07
-0.00039955
0.00266714
-7.50617e-07
-0.000399431
0.00266706
-5.68762e-07
-0.00039933
0.00266699
-0.000398913
0.00266631
-4.55215e-08
0.00261379
-1.33183e-07
0.00261397
-2.3313e-07
0.00261388
-2.85666e-07
0.00261388
-2.69874e-07
0.00261386
0.00261359
-2.13454e-08
0.00226799
-0.0021493
-1.2582e-06
0.00226773
-0.00214908
-1.53914e-06
0.00226787
-0.00214983
-1.47462e-06
0.00226804
-0.00215042
-1.63488e-06
0.00226817
-0.00215091
0.00226858
-0.00215216
1.66707e-07
-0.000405675
0.00533844
-4.78125e-07
-0.000406203
0.0053388
-7.50523e-07
-0.00040616
0.00533871
-8.49306e-07
-0.000406013
0.00533859
-9.21223e-07
-0.000405886
0.00533857
-0.000405294
0.00533787
-1.1533e-07
0.00486973
-2.51261e-07
0.00486987
-2.2733e-07
0.00486987
-2.9696e-07
0.00486977
-3.97579e-07
0.00486967
0.00486931
-1.91815e-06
0.00547661
-3.29946e-06
0.00547633
-3.62248e-06
0.00547639
-3.22172e-06
0.0054765
-2.73447e-06
0.00547653
0.00547675
-6.05049e-07
-0.0003746
-9.23983e-07
-0.000375165
-1.41378e-06
-0.000374975
-1.16979e-06
-0.000374719
-1.29616e-06
-0.000374536
-0.000373737
-2.9886e-07
-2.63052e-07
-4.14363e-07
-4.34177e-07
-5.83425e-07
1.78219e-07
-2.22683e-05
3.88037e-06
-3.83964e-08
-2.23253e-05
3.86649e-06
-1.26226e-07
-2.23146e-05
3.86462e-06
-1.83253e-07
-2.23136e-05
3.85491e-06
-2.29053e-07
-2.23046e-05
3.84495e-06
-2.22822e-05
3.81834e-06
6.11684e-08
-2.54804e-05
2.74035e-06
-6.37151e-08
-2.55307e-05
2.73213e-06
-1.13732e-07
-2.55198e-05
2.729e-06
-1.49882e-07
-2.55096e-05
2.72336e-06
-1.81159e-07
-2.54932e-05
2.71707e-06
-2.54612e-05
2.69996e-06
-1.76484e-08
1.16274e-06
-5.44642e-08
1.16056e-06
-6.91693e-08
1.16003e-06
-8.60106e-08
1.15873e-06
-1.05466e-07
1.15704e-06
1.15207e-06
1.19346e-07
-2.35228e-05
8.04707e-06
-8.87949e-08
-2.35726e-05
8.04699e-06
-1.70864e-07
-2.35633e-05
8.04335e-06
-2.4229e-07
-2.35572e-05
8.03685e-06
-3.21706e-07
-2.35437e-05
8.02939e-06
-2.35094e-05
8.01836e-06
2.53848e-08
-2.72072e-05
5.8151e-06
-9.13832e-08
-2.72497e-05
5.81238e-06
-1.40674e-07
-2.72356e-05
5.80995e-06
-1.87503e-07
-2.72198e-05
5.80601e-06
-2.4155e-07
-2.71976e-05
5.80188e-06
-2.71503e-05
5.79561e-06
-2.34581e-08
2.54043e-06
-5.90519e-08
2.54019e-06
-7.54658e-08
2.53952e-06
-9.64642e-08
2.53844e-06
-1.23046e-07
2.53706e-06
2.53492e-06
1.11362e-07
-2.59549e-05
1.3372e-05
-1.08108e-07
-2.60083e-05
1.33649e-05
-2.0311e-07
-2.59976e-05
1.33541e-05
-2.84134e-07
-2.59888e-05
1.33404e-05
-3.67418e-07
-2.59715e-05
1.33254e-05
-2.5932e-05
1.33105e-05
2.08035e-08
-3.07389e-05
9.98729e-06
-1.0262e-07
-3.0779e-05
9.97935e-06
-1.58446e-07
-3.07629e-05
9.97223e-06
-2.11126e-07
-3.0744e-05
9.96456e-06
-2.67396e-07
-3.07188e-05
9.95638e-06
-3.06673e-05
9.94882e-06
-2.59788e-08
4.50019e-06
-6.21623e-08
4.49793e-06
-8.01505e-08
4.49548e-06
-1.03163e-07
4.49302e-06
-1.33251e-07
4.49076e-06
4.48838e-06
6.84946e-08
-2.96366e-05
2.09446e-05
-1.59574e-07
-2.96911e-05
2.09203e-05
-2.61856e-07
-2.96762e-05
2.0901e-05
-3.4913e-07
-2.96602e-05
2.08857e-05
-4.34574e-07
-2.9635e-05
2.08738e-05
-2.95868e-05
2.08652e-05
-1.22077e-08
-3.6575e-05
1.63164e-05
-1.35034e-07
-3.66082e-05
1.62998e-05
-1.93113e-07
-3.65867e-05
1.62895e-05
-2.46068e-07
-3.65616e-05
1.62837e-05
-3.01561e-07
-3.65294e-05
1.62817e-05