/*--------------------------------*- C++ -*----------------------------------*\
| =========                 |                                                 |
| \\      /  F ield         | OpenFOAM: The Open Source CFD Toolbox           |
|  \\    /   O peration     | Version:  v1612+                                |
|   \\  /    A nd           | Web:      www.OpenFOAM.com                      |
|    \\/     M anipulation  |                                                 |
\*---------------------------------------------------------------------------*/
FoamFile
{
    version     2.0;
    format      ascii;
    class       volVectorField;
    location    "0.75";
    object      U;
}
// * * * * * * * * * * * * * * * * * * * * * * * * * * * * * * * * * * * * * //

dimensions      [0 1 -1 0 0 0 0];

internalField   nonuniform List<vector> 
1116
(
(0.115005 3.29107e-08 -0.123819)
(0.115006 -1.83852e-07 -0.12382)
(0.115006 -5.52251e-07 -0.12382)
(0.115006 -7.34837e-07 -0.12382)
(0.115006 -6.46594e-07 -0.12382)
(0.115006 -2.56244e-07 -0.12382)
(0.293943 2.16224e-07 -0.204671)
(0.293944 4.71511e-07 -0.204671)
(0.293944 8.6117e-07 -0.204671)
(0.293944 1.03698e-06 -0.20467)
(0.293943 8.67637e-07 -0.20467)
(0.293942 2.72414e-07 -0.204669)
(0.995168 3.0181e-07 -0.360796)
(0.995171 7.19385e-07 -0.360797)
(0.99517 1.10171e-06 -0.360796)
(0.995169 1.34926e-06 -0.360796)
(0.995168 1.26998e-06 -0.360795)
(0.995166 5.04767e-07 -0.360794)
(1.2978 3.15056e-11 -0.783509)
(1.29781 1.0969e-07 -0.783509)
(1.29781 6.06893e-08 -0.78351)
(1.2978 3.26827e-07 -0.78351)
(1.2978 5.39185e-07 -0.783511)
(1.2978 4.26095e-07 -0.783509)
(2.86246 1.97096e-06 -1.05397)
(2.86246 1.4561e-06 -1.05397)
(2.86246 -4.20434e-06 -1.05397)
(2.86246 -4.75485e-06 -1.05397)
(2.86246 -9.20024e-06 -1.05397)
(2.86246 -6.18983e-06 -1.05397)
(5.04215 -2.49604e-05 -0.095403)
(5.04212 -2.92755e-05 -0.0954451)
(5.04213 -4.23008e-05 -0.095451)
(5.04214 -2.22256e-05 -0.0954524)
(5.04221 -4.10777e-05 -0.0954436)
(5.04217 -9.34203e-06 -0.0954107)
(2.28202 7.23241e-06 0.365468)
(2.28188 -3.05972e-06 0.36554)
(2.28181 -3.85529e-05 0.365527)
(2.28181 -2.01275e-05 0.365512)
(2.28186 -5.5618e-06 0.365531)
(2.28187 7.41731e-06 0.365514)
(1.24531 1.52419e-05 0.404699)
(1.24519 3.22929e-05 0.404753)
(1.24514 3.0232e-05 0.404706)
(1.24513 2.89212e-05 0.404682)
(1.24514 2.45356e-05 0.404681)
(1.24515 1.12312e-05 0.404665)
(0.774903 -5.36975e-06 0.233318)
(0.774804 4.35856e-05 0.233201)
(0.774839 8.69003e-05 0.233202)
(0.774915 6.67098e-05 0.233219)
(0.77498 4.14613e-05 0.233216)
(0.77501 1.43063e-05 0.233198)
(0.433798 6.45624e-05 0.142654)
(0.433867 0.000143378 0.142647)
(0.433943 0.000158713 0.142706)
(0.434028 0.000146387 0.14277)
(0.434102 0.000108492 0.142817)
(0.434159 4.2881e-05 0.142857)
(0.226204 5.29274e-05 0.0927728)
(0.226302 0.00010378 0.0928624)
(0.226349 0.000103535 0.0929281)
(0.226377 9.87195e-05 0.092983)
(0.226404 7.76361e-05 0.0930322)
(0.226441 3.19987e-05 0.0930828)
(0.0821464 3.50753e-06 0.0771836)
(0.0821832 9.36037e-06 0.0772249)
(0.0821906 1.49228e-05 0.0772363)
(0.0821889 1.82712e-05 0.0772421)
(0.0821898 1.51023e-05 0.0772505)
(0.082202 6.05785e-06 0.0772661)
(0.0404525 -2.87591e-07 -0.282048)
(0.0404528 -1.07897e-06 -0.282049)
(0.0404523 -1.86894e-06 -0.28205)
(0.0404513 -2.08638e-06 -0.28205)
(0.0404502 -1.61509e-06 -0.28205)
(0.0404495 -5.93791e-07 -0.282049)
(0.0858125 -3.63912e-08 -0.487416)
(0.0858132 -9.20453e-09 -0.487417)
(0.0858116 2.29294e-07 -0.487416)
(0.0858089 4.48292e-07 -0.487415)
(0.0858061 4.02001e-07 -0.487413)
(0.0858043 1.25545e-07 -0.487411)
(0.4807 2.06174e-07 -0.851017)
(0.480701 1.16547e-06 -0.851017)
(0.480698 2.23121e-06 -0.851016)
(0.480695 2.58572e-06 -0.851014)
(0.480691 2.1068e-06 -0.851011)
(0.480689 8.52186e-07 -0.851008)
(0.429361 1.11203e-07 -1.80268)
(0.429361 8.79042e-07 -1.80268)
(0.429359 1.21851e-06 -1.80268)
(0.429356 1.30192e-06 -1.80268)
(0.429353 6.90601e-07 -1.80268)
(0.429351 2.31851e-07 -1.80268)
(1.39778 2.03823e-06 -2.93517)
(1.39779 -2.28095e-07 -2.93513)
(1.39779 -1.39964e-06 -2.93513)
(1.39778 -2.98607e-07 -2.93514)
(1.39778 -5.1347e-06 -2.93516)
(1.39777 -6.49877e-06 -2.9352)
(7.13728 -1.98619e-05 3.06444)
(7.1372 3.89932e-05 3.06456)
(7.13724 8.66944e-06 3.06455)
(7.1373 -6.70125e-06 3.06454)
(7.13745 -5.28438e-05 3.06455)
(7.13733 -3.37481e-05 3.06437)
(0.95356 -1.57641e-05 2.39339)
(0.953378 -2.43024e-05 2.3936)
(0.953309 -3.89784e-06 2.39353)
(0.953313 5.58062e-05 2.39351)
(0.953359 6.79549e-05 2.39358)
(0.953557 3.22093e-05 2.39357)
(1.09025 8.27452e-06 1.1008)
(1.09009 7.04128e-05 1.10077)
(1.09006 0.000116049 1.10071)
(1.09011 9.66929e-05 1.1007)
(1.09018 4.80665e-05 1.10072)
(1.09027 4.6681e-06 1.10073)
(0.472091 8.30202e-05 0.595257)
(0.471926 0.000166817 0.595121)
(0.471989 0.000149008 0.595143)
(0.472116 0.000100521 0.595165)
(0.472226 4.21459e-05 0.595143)
(0.472335 7.20467e-06 0.595092)
(0.253968 6.86061e-05 0.340402)
(0.254041 6.75455e-05 0.340468)
(0.254164 -1.36948e-05 0.340586)
(0.254279 -3.62563e-05 0.340686)
(0.254381 -4.45198e-05 0.340757)
(0.254478 -2.08606e-05 0.340812)
(0.129412 -1.98309e-05 0.21393)
(0.129578 -6.09186e-05 0.214075)
(0.129685 -8.67333e-05 0.214175)
(0.129763 -8.72925e-05 0.214258)
(0.12983 -6.97286e-05 0.214335)
(0.129895 -2.80721e-05 0.214417)
(0.0636126 -4.37238e-05 0.169569)
(0.0636935 -8.59203e-05 0.169638)
(0.0637285 -8.17051e-05 0.169667)
(0.0637502 -6.98159e-05 0.16969)
(0.0637694 -4.82029e-05 0.169717)
(0.0637912 -1.77401e-05 0.169755)
(-0.0814947 -7.05549e-07 -0.246904)
(-0.0814955 -2.05388e-06 -0.246905)
(-0.0814967 -2.77216e-06 -0.246905)
(-0.081498 -2.53482e-06 -0.246904)
(-0.081499 -1.50034e-06 -0.246904)
(-0.0814987 -4.33097e-07 -0.246902)
(-0.231777 -1.53052e-07 -0.505884)
(-0.231779 -5.75013e-07 -0.505885)
(-0.231782 -8.28298e-07 -0.505884)
(-0.231785 -6.69959e-07 -0.505881)
(-0.231787 -4.90284e-07 -0.505879)
(-0.231786 -2.17211e-07 -0.505876)
(-0.250458 3.16623e-07 -1.05109)
(-0.250461 1.58699e-06 -1.05109)
(-0.250464 2.29216e-06 -1.05109)
(-0.250468 2.0757e-06 -1.05109)
(-0.25047 1.01374e-06 -1.05108)
(-0.250469 2.32456e-07 -1.05108)
(-0.277437 4.64877e-07 -2.26303)
(-0.277438 5.33126e-07 -2.26303)
(-0.27744 1.607e-07 -2.26303)
(-0.277442 -3.19709e-07 -2.26303)
(-0.277444 -3.79924e-07 -2.26303)
(-0.277443 -2.72488e-07 -2.26303)
(-0.466483 3.43318e-05 -5.14279)
(-0.466477 3.19301e-05 -5.14272)
(-0.466501 4.77792e-05 -5.14277)
(-0.466536 4.27444e-05 -5.14285)
(-0.466566 3.16518e-05 -5.14295)
(-0.466574 -8.60303e-06 -5.14303)
(-2.89318 -4.75087e-05 4.09898)
(-2.89312 -2.07523e-05 4.0992)
(-2.89308 3.77179e-05 4.09923)
(-2.89305 7.66018e-05 4.09929)
(-2.89299 6.17277e-05 4.09931)
(-2.89296 1.59483e-05 4.09901)
(-0.769695 -1.64507e-05 2.50629)
(-0.769693 1.53177e-05 2.50644)
(-0.769693 9.58357e-05 2.50632)
(-0.769619 0.000131301 2.50635)
(-0.769511 0.000102951 2.50648)
(-0.76936 3.13147e-05 2.50649)
(-0.177246 -1.54697e-07 1.13954)
(-0.17736 5.37303e-05 1.13938)
(-0.177262 0.000107516 1.13939)
(-0.177101 9.82078e-05 1.13943)
(-0.176928 6.05848e-05 1.13947)
(-0.176732 1.51658e-05 1.13946)
(-0.0441007 8.31129e-05 0.637827)
(-0.0441285 0.00011172 0.637921)
(-0.0439833 4.13907e-05 0.637995)
(-0.0438321 1.02304e-05 0.638007)
(-0.0436937 -1.36604e-05 0.637973)
(-0.0435343 -1.15104e-05 0.637907)
(0.00278144 -3.7341e-06 0.363716)
(0.00289784 -7.52761e-05 0.363874)
(0.00301919 -0.000163906 0.363957)
(0.00312127 -0.000183947 0.363996)
(0.0032119 -0.000158714 0.364011)
(0.00331231 -6.72484e-05 0.363999)
(0.0179597 -6.69499e-05 0.229754)
(0.0180791 -0.000158817 0.229832)
(0.0181468 -0.000191744 0.229879)
(0.0181983 -0.000188218 0.22992)
(0.0182378 -0.000149656 0.22996)
(0.0182672 -6.13599e-05 0.23)
(0.0323735 -4.16704e-05 0.177326)
(0.0324235 -7.933e-05 0.177363)
(0.0324452 -7.2726e-05 0.17739)
(0.0324603 -6.00833e-05 0.177417)
(0.0324689 -3.7619e-05 0.177445)
(0.0324685 -1.23031e-05 0.177479)
(-0.20699 -5.71565e-07 0.0020199)
(-0.206991 -1.49214e-06 0.00202008)
(-0.206992 -1.63464e-06 0.00202045)
(-0.206992 -1.01849e-06 0.00202097)
(-0.206992 4.18489e-08 0.00202162)
(-0.20699 2.28776e-07 0.00202228)
(-0.666443 -3.73627e-07 -0.356777)
(-0.666445 -9.81089e-07 -0.356777)
(-0.666447 -1.57982e-06 -0.356776)
(-0.666447 -1.70205e-06 -0.356773)
(-0.666446 -1.42993e-06 -0.356771)
(-0.666443 -5.49842e-07 -0.35677)
(-1.14895 -8.88944e-07 -1.18648)
(-1.14895 -3.45611e-07 -1.18648)
(-1.14895 -1.82682e-06 -1.18648)
(-1.14896 -2.42042e-06 -1.18648)
(-1.14895 -3.38611e-06 -1.18648)
(-1.14895 -8.15555e-07 -1.18647)
(-0.921428 1.11989e-06 -2.44779)
(-0.921426 -2.39554e-07 -2.44779)
(-0.921426 1.63577e-06 -2.44778)
(-0.921425 1.83689e-06 -2.44778)
(-0.921424 1.8424e-06 -2.44778)
(-0.921423 -9.60522e-07 -2.44778)
(-1.38094 4.9569e-05 -0.652147)
(-1.38094 -1.8597e-06 -0.65201)
(-1.38095 7.47034e-05 -0.65202)
(-1.38094 8.16368e-05 -0.652041)
(-1.38093 0.000121549 -0.652088)
(-1.38094 4.47031e-06 -0.652303)
(-3.27239 -7.15738e-06 1.72456)
(-3.27244 5.821e-06 1.72465)
(-3.27245 3.9736e-05 1.72459)
(-3.27241 6.6606e-05 1.72462)
(-3.27232 7.06552e-05 1.72467)
(-3.27231 4.23202e-05 1.72453)
(-1.10624 -1.58219e-05 1.09096)
(-1.10627 1.91443e-05 1.09095)
(-1.10627 5.3859e-05 1.09088)
(-1.10619 1.97402e-05 1.09093)
(-1.10606 9.3329e-06 1.09105)
(-1.10605 8.118e-06 1.09109)
(-0.588149 4.38448e-05 0.711626)
(-0.58822 7.68382e-05 0.711505)
(-0.588116 6.21717e-05 0.711562)
(-0.588005 4.98798e-05 0.711608)
(-0.587898 4.09067e-05 0.711626)
(-0.587836 2.00192e-05 0.711607)
(-0.295369 8.86202e-06 0.422166)
(-0.295268 -1.33676e-05 0.422369)
(-0.295127 -3.49208e-05 0.422458)
(-0.295019 -1.92432e-05 0.422471)
(-0.294934 -7.5246e-07 0.422443)
(-0.29486 5.70229e-06 0.422383)
(-0.136074 -5.27646e-05 0.25909)
(-0.135927 -0.000125352 0.259224)
(-0.135831 -0.000149029 0.259255)
(-0.135767 -0.000140893 0.259256)
(-0.135722 -0.000104691 0.259235)
(-0.135679 -4.03633e-05 0.259188)
(-0.0494126 -4.74579e-05 0.166628)
(-0.0493495 -0.000106625 0.166646)
(-0.049328 -0.000123315 0.166659)
(-0.049317 -0.00011983 0.166677)
(-0.0493163 -9.31926e-05 0.16669)
(-0.0493225 -3.76396e-05 0.166696)
(0.00571905 -1.81683e-05 0.1275)
(0.0057261 -3.30207e-05 0.127502)
(0.00571993 -2.89284e-05 0.127509)
(0.00571189 -2.42152e-05 0.127519)
(0.00570021 -1.40769e-05 0.127529)
(0.0056841 -3.79047e-06 0.12754)
(-1.37935e-06 5.51442e-07 -2.06948e-06)
(-1.34633e-06 5.38709e-07 -2.13903e-06)
(-1.3125e-06 -8.38282e-09 -2.17951e-06)
(-1.30588e-06 -4.13951e-08 -2.19021e-06)
(-1.28594e-06 -1.02818e-07 -2.20982e-06)
(-1.22295e-06 -5.70797e-08 -2.26723e-06)
(-3.38701e-06 4.90982e-07 -1.97596e-06)
(-3.37166e-06 4.148e-07 -2.04811e-06)
(-3.33601e-06 -8.13532e-08 -2.07077e-06)
(-3.32642e-06 -8.7111e-08 -2.09248e-06)
(-3.29597e-06 -2.56551e-07 -2.11388e-06)
(-3.2159e-06 -1.75175e-07 -2.16684e-06)
(-4.42696e-06 5.37033e-07 -1.73935e-06)
(-4.4669e-06 4.65736e-07 -1.82246e-06)
(-4.46649e-06 -7.56416e-08 -1.83736e-06)
(-4.4521e-06 -9.93352e-08 -1.86693e-06)
(-4.42205e-06 -2.8626e-07 -1.89142e-06)
(-4.37441e-06 -1.91867e-07 -1.94823e-06)
(-4.74502e-06 5.95952e-07 -1.35717e-06)
(-4.76488e-06 5.39644e-07 -1.46229e-06)
(-4.75799e-06 -7.40402e-08 -1.48783e-06)
(-4.71702e-06 -1.4034e-07 -1.52509e-06)
(-4.66099e-06 -3.48836e-07 -1.55896e-06)
(-4.58477e-06 -2.26873e-07 -1.62584e-06)
(-4.11765e-06 6.07854e-07 -9.70924e-07)
(-4.07022e-06 5.50004e-07 -1.10531e-06)
(-4.02828e-06 -1.22826e-07 -1.15179e-06)
(-3.95646e-06 -2.45792e-07 -1.19678e-06)
(-3.88271e-06 -4.64955e-07 -1.23331e-06)
(-3.79297e-06 -2.84828e-07 -1.30484e-06)
(-3.13312e-06 5.32521e-07 -9.8552e-07)
(-3.00323e-06 4.22229e-07 -1.1486e-06)
(-2.91141e-06 -2.48258e-07 -1.2106e-06)
(-2.84171e-06 -3.803e-07 -1.24969e-06)
(-2.78725e-06 -5.80514e-07 -1.27769e-06)
(-2.72531e-06 -3.38896e-07 -1.33412e-06)
(-4.22804e-06 3.68178e-07 -2.73029e-06)
(-4.03964e-06 1.49944e-07 -2.92001e-06)
(-3.93825e-06 -4.07391e-07 -2.97142e-06)
(-3.91379e-06 -4.61616e-07 -2.99807e-06)
(-3.91847e-06 -6.23875e-07 -3.00603e-06)
(-3.9275e-06 -3.52115e-07 -3.03089e-06)
(-1.33214e-05 1.53702e-07 -1.12006e-05)
(-1.31194e-05 -1.57716e-07 -1.14135e-05)
(-1.30698e-05 -5.02799e-07 -1.14568e-05)
(-1.31209e-05 -4.32589e-07 -1.1465e-05)
(-1.32116e-05 -5.38495e-07 -1.14456e-05)
(-1.33277e-05 -2.979e-07 -1.14269e-05)
(-3.28106e-05 -4.91502e-08 -3.96628e-05)
(-3.26508e-05 -3.87111e-07 -3.98922e-05)
(-3.26893e-05 -4.55609e-07 -3.99273e-05)
(-3.28263e-05 -2.54451e-07 -3.99142e-05)
(-3.30082e-05 -2.92541e-07 -3.98556e-05)
(-3.32306e-05 -1.5612e-07 -3.97771e-05)
(-4.03802e-05 -1.40527e-07 -8.64136e-05)
(-4.02986e-05 -4.04255e-07 -8.66429e-05)
(-4.04227e-05 -2.39958e-07 -8.66579e-05)
(-4.06103e-05 4.21973e-08 -8.66226e-05)
(-4.08601e-05 2.31915e-08 -8.65256e-05)
(-4.11643e-05 4.59146e-09 -8.63972e-05)
(-0.000100447 -7.29683e-08 -0.000100299)
(-0.000100427 -1.87783e-07 -0.000100292)
(-0.000100582 4.48131e-08 -0.000100227)
(-0.000100722 3.21332e-07 -0.000100146)
(-0.000100953 2.90484e-07 -9.99922e-05)
(-0.000101314 1.30075e-07 -9.97812e-05)
(-8.53716e-05 1.28783e-08 -3.28103e-05)
(-8.53891e-05 -7.36427e-09 -3.26347e-05)
(-8.54649e-05 1.05165e-07 -3.25711e-05)
(-8.55019e-05 2.29795e-07 -3.25387e-05)
(-8.55897e-05 1.69718e-07 -3.24719e-05)
(-8.57713e-05 6.34094e-08 -3.23774e-05)
(-2.73334e-06 4.17688e-07 -8.11484e-06)
(-2.70141e-06 3.26215e-07 -8.22154e-06)
(-2.68789e-06 -1.07127e-07 -8.26815e-06)
(-2.67285e-06 -9.84209e-08 -8.28637e-06)
(-2.65429e-06 -2.5425e-07 -8.31097e-06)
(-2.60126e-06 -1.70969e-07 -8.36809e-06)
(-7.71051e-06 3.6211e-07 -7.93325e-06)
(-7.68229e-06 2.50032e-07 -8.04575e-06)
(-7.6727e-06 -1.53359e-07 -8.06501e-06)
(-7.64563e-06 -1.57131e-07 -8.10048e-06)
(-7.6116e-06 -3.86698e-07 -8.12895e-06)
(-7.53414e-06 -2.70851e-07 -8.18006e-06)
(-1.21082e-05 3.87486e-07 -7.477e-06)
(-1.21155e-05 2.95678e-07 -7.60685e-06)
(-1.21105e-05 -1.48238e-07 -7.6263e-06)
(-1.20785e-05 -1.94276e-07 -7.66993e-06)
(-1.20327e-05 -4.41587e-07 -7.70068e-06)
(-1.19667e-05 -3.03739e-07 -7.75167e-06)
(-1.59449e-05 4.20379e-07 -6.59104e-06)
(-1.59265e-05 3.28494e-07 -6.76323e-06)
(-1.58898e-05 -1.76368e-07 -6.80258e-06)
(-1.58302e-05 -2.71266e-07 -6.85827e-06)
(-1.57565e-05 -5.50899e-07 -6.89776e-06)
(-1.56596e-05 -3.64106e-07 -6.95296e-06)
(-1.8456e-05 4.08228e-07 -5.10308e-06)
(-1.83764e-05 2.81296e-07 -5.33234e-06)
(-1.82992e-05 -2.7673e-07 -5.40231e-06)
(-1.8218e-05 -4.09684e-07 -5.46354e-06)
(-1.81369e-05 -7.07179e-07 -5.4969e-06)
(-1.80425e-05 -4.47261e-07 -5.5383e-06)
(-1.8388e-05 3.24761e-07 -2.73814e-06)
(-1.82434e-05 1.18398e-07 -3.02405e-06)
(-1.81489e-05 -4.29217e-07 -3.10898e-06)
(-1.80873e-05 -5.50536e-07 -3.14928e-06)
(-1.80431e-05 -8.30105e-07 -3.15145e-06)
(-1.80068e-05 -5.02349e-07 -3.14656e-06)
(-1.20435e-05 1.75213e-07 1.59357e-06)
(-1.18636e-05 -1.13444e-07 1.25555e-06)
(-1.17928e-05 -5.54617e-07 1.18667e-06)
(-1.17949e-05 -6.14067e-07 1.18162e-06)
(-1.1833e-05 -8.38608e-07 1.22789e-06)
(-1.1898e-05 -4.90341e-07 1.29641e-06)
(9.14426e-06 1.62822e-08 1.36537e-05)
(9.33999e-06 -3.28299e-07 1.32434e-05)
(9.35999e-06 -5.83546e-07 1.31836e-05)
(9.2706e-06 -5.25014e-07 1.32134e-05)
(9.12384e-06 -6.69604e-07 1.33104e-05)
(8.92382e-06 -3.83236e-07 1.34488e-05)
(3.72161e-05 -9.50884e-08 5.27668e-05)
(3.74903e-05 -4.17753e-07 5.22545e-05)
(3.7464e-05 -4.50216e-07 5.21906e-05)
(3.73072e-05 -2.59122e-07 5.22485e-05)
(3.70605e-05 -3.03106e-07 5.24104e-05)
(3.674e-05 -1.7103e-07 5.26413e-05)
(1.90043e-05 -1.51729e-07 0.000138965)
(1.94357e-05 -3.73468e-07 0.000138428)
(1.93772e-05 -1.96957e-07 0.000138413)
(1.91687e-05 7.49081e-08 0.000138542)
(1.88063e-05 6.45133e-08 0.000138816)
(1.83329e-05 1.51278e-08 0.000139172)
(-0.000105562 -8.921e-08 0.000191142)
(-0.000105083 -1.3745e-07 0.000191137)
(-0.000105141 1.21457e-07 0.00019129)
(-0.000105345 3.96343e-07 0.000191533)
(-0.000105758 4.05843e-07 0.000191923)
(-0.000106399 1.81421e-07 0.000192473)
(-0.000161699 8.54051e-08 0.000348048)
(-0.000161509 9.77198e-08 0.000348392)
(-0.000161526 9.49017e-08 0.000348507)
(-0.000161597 1.67661e-07 0.00034859)
(-0.000161776 1.07948e-07 0.000348731)
(-0.000162112 1.99249e-08 0.00034899)
(-3.95807e-06 3.47792e-07 -1.70641e-05)
(-3.92884e-06 2.44527e-07 -1.71447e-05)
(-3.92897e-06 -1.33117e-07 -1.71473e-05)
(-3.91188e-06 -1.21618e-07 -1.71609e-05)
(-3.89635e-06 -2.66533e-07 -1.71661e-05)
(-3.85253e-06 -1.74297e-07 -1.7159e-05)
(-1.16537e-05 2.92339e-07 -1.70928e-05)
(-1.16267e-05 1.92814e-07 -1.71774e-05)
(-1.16267e-05 -1.63221e-07 -1.71708e-05)
(-1.16005e-05 -1.87686e-07 -1.71919e-05)
(-1.1574e-05 -3.89426e-07 -1.72e-05)
(-1.15146e-05 -2.65444e-07 -1.7188e-05)
(-1.9442e-05 3.07109e-07 -1.70039e-05)
(-1.94406e-05 2.12837e-07 -1.71014e-05)
(-1.94292e-05 -1.74046e-07 -1.71067e-05)
(-1.94009e-05 -2.26717e-07 -1.71277e-05)
(-1.9366e-05 -4.44413e-07 -1.71324e-05)
(-1.93239e-05 -2.97478e-07 -1.71097e-05)
(-2.77519e-05 3.14399e-07 -1.64011e-05)
(-2.77191e-05 2.05146e-07 -1.65355e-05)
(-2.76789e-05 -2.26761e-07 -1.65544e-05)
(-2.7627e-05 -3.16639e-07 -1.6579e-05)
(-2.75727e-05 -5.53844e-07 -1.65771e-05)
(-2.7516e-05 -3.54719e-07 -1.65377e-05)
(-3.64581e-05 2.73793e-07 -1.45755e-05)
(-3.63717e-05 1.12475e-07 -1.47575e-05)
(-3.6302e-05 -3.46498e-07 -1.47873e-05)
(-3.62446e-05 -4.54163e-07 -1.47996e-05)
(-3.61984e-05 -6.92087e-07 -1.47724e-05)
(-3.61617e-05 -4.23102e-07 -1.46903e-05)
(-4.63782e-05 1.7516e-07 -1.07658e-05)
(-4.62504e-05 -6.60122e-08 -1.0992e-05)
(-4.61812e-05 -4.85743e-07 -1.10117e-05)
(-4.61601e-05 -5.63657e-07 -1.09867e-05)
(-4.61625e-05 -7.70984e-07 -1.09089e-05)
(-4.61849e-05 -4.5189e-07 -1.07628e-05)
(-6.39098e-05 4.89366e-08 -6.85212e-06)
(-6.37639e-05 -2.55912e-07 -7.12708e-06)
(-6.37279e-05 -5.60966e-07 -7.13133e-06)
(-6.37725e-05 -5.67174e-07 -7.06127e-06)
(-6.38489e-05 -7.24784e-07 -6.92924e-06)
(-6.39447e-05 -4.13766e-07 -6.72558e-06)
(-0.000110481 -5.97119e-08 -1.53685e-05)
(-0.000110287 -3.77116e-07 -1.57621e-05)
(-0.000110286 -5.1048e-07 -1.57727e-05)
(-0.000110388 -4.17796e-07 -1.56849e-05)
(-0.000110542 -5.22488e-07 -1.55148e-05)
(-0.00011072 -2.98056e-07 -1.52614e-05)
(-0.000196093 -1.25757e-07 -7.18564e-05)
(-0.000195746 -3.83612e-07 -7.24643e-05)
(-0.000195759 -3.2785e-07 -7.25121e-05)
(-0.000195913 -1.37058e-07 -7.24124e-05)
(-0.000196168 -1.79226e-07 -7.21847e-05)
(-0.000196451 -1.12624e-07 -7.18432e-05)
(-0.000205551 -1.02019e-07 -0.000229331)
(-0.000204892 -2.11666e-07 -0.000230105)
(-0.000204888 4.45054e-11 -0.000230136)
(-0.000205115 2.56463e-07 -0.00022995)
(-0.000205514 2.17434e-07 -0.000229574)
(-0.000206008 6.94765e-08 -0.000229026)
(-0.000234494 2.18854e-08 -0.000502327)
(-0.00023359 5.94842e-08 -0.000502516)
(-0.000233547 2.66184e-07 -0.000502361)
(-0.000233811 4.87691e-07 -0.000502008)
(-0.000234338 4.64893e-07 -0.000501454)
(-0.000235124 2.03099e-07 -0.000500585)
(-3.51603e-05 1.68947e-07 -0.000807719)
(-3.46715e-05 1.43456e-07 -0.000807593)
(-3.46048e-05 -3.06046e-08 -0.0008076)
(-3.46963e-05 -6.29393e-08 -0.000807551)
(-3.49455e-05 -1.11279e-07 -0.000807407)
(-3.53833e-05 -7.16514e-08 -0.000807019)
(-4.84944e-06 2.70389e-07 -2.77472e-05)
(-4.82338e-06 1.76435e-07 -2.78405e-05)
(-4.82626e-06 -1.34839e-07 -2.78228e-05)
(-4.81124e-06 -1.31339e-07 -2.78346e-05)
(-4.79858e-06 -2.5465e-07 -2.78317e-05)
(-4.7629e-06 -1.63798e-07 -2.78113e-05)
(-1.46752e-05 2.21011e-07 -2.85602e-05)
(-1.46463e-05 1.35126e-07 -2.8648e-05)
(-1.46464e-05 -1.58871e-07 -2.86378e-05)
(-1.46249e-05 -1.92512e-07 -2.86468e-05)
(-1.46051e-05 -3.61224e-07 -2.86426e-05)
(-1.45595e-05 -2.41721e-07 -2.86109e-05)
(-2.55179e-05 2.25133e-07 -2.98781e-05)
(-2.55028e-05 1.35929e-07 -2.9976e-05)
(-2.54889e-05 -1.779e-07 -2.99722e-05)
(-2.54667e-05 -2.28912e-07 -2.99793e-05)
(-2.54432e-05 -4.08288e-07 -2.99692e-05)
(-2.54174e-05 -2.68106e-07 -2.99247e-05)
(-3.84097e-05 2.12663e-07 -3.1029e-05)
(-3.83642e-05 1.01806e-07 -3.11508e-05)
(-3.8328e-05 -2.38024e-07 -3.11521e-05)
(-3.82915e-05 -3.13042e-07 -3.11534e-05)
(-3.82598e-05 -4.98371e-07 -3.1129e-05)
(-3.82327e-05 -3.12548e-07 -3.10622e-05)
(-5.34492e-05 1.5599e-07 -3.04451e-05)
(-5.33711e-05 -9.43115e-09 -3.0594e-05)
(-5.33216e-05 -3.48063e-07 -3.05895e-05)
(-5.32971e-05 -4.20087e-07 -3.05673e-05)
(-5.32875e-05 -5.91005e-07 -3.05098e-05)
(-5.32912e-05 -3.53627e-07 -3.03981e-05)
(-6.71304e-05 6.64951e-08 -2.45688e-05)
(-6.70537e-05 -1.60303e-07 -2.4733e-05)
(-6.7028e-05 -4.38437e-07 -2.47032e-05)
(-6.70524e-05 -4.67082e-07 -2.46401e-05)
(-6.70948e-05 -6.03338e-07 -2.45329e-05)
(-6.71484e-05 -3.47923e-07 -2.43662e-05)
(-6.32229e-05 -9.82037e-09 -5.26569e-06)
(-6.31797e-05 -2.58857e-07 -5.45556e-06)
(-6.3206e-05 -4.31697e-07 -5.40555e-06)
(-6.32847e-05 -3.98238e-07 -5.30948e-06)
(-6.33811e-05 -5.08229e-07 -5.16437e-06)
(-6.34757e-05 -2.92445e-07 -4.96414e-06)
(1.20633e-07 -4.22649e-08 4.34821e-05)
(1.49284e-07 -2.4889e-07 4.31853e-05)
(7.94948e-08 -3.11276e-07 4.32148e-05)
(-3.53235e-08 -2.29592e-07 4.33005e-05)
(-1.77669e-07 -3.21139e-07 4.3454e-05)
(-3.20578e-07 -1.95304e-07 4.36835e-05)
(0.000167735 -1.86608e-08 0.000147267)
(0.000167853 -1.29485e-07 0.000146756)
(0.000167776 -1.04154e-07 0.000146726)
(0.000167625 6.51644e-09 0.000146801)
(0.000167407 -6.96095e-08 0.000146986)
(0.000167151 -6.7674e-08 0.000147295)
(0.000379448 2.06483e-08 0.000362013)
(0.000379821 -1.92289e-09 0.00036128)
(0.000379736 7.36702e-08 0.000361239)
(0.000379476 2.03157e-07 0.000361385)
(0.000379078 1.61764e-07 0.000361685)
(0.000378532 5.71284e-08 0.000362192)
(0.000495953 6.22022e-08 0.000861679)
(0.000496427 5.41376e-08 0.000861515)
(0.000496332 7.57388e-08 0.000861659)
(0.000495932 1.63175e-07 0.000861995)
(0.000495193 1.88784e-07 0.000862562)
(0.000493986 1.16231e-07 0.000863473)
(0.000133551 -1.59654e-07 0.00109866)
(0.000134115 -5.27033e-07 0.00109735)
(0.000134168 -7.61182e-07 0.00109709)
(0.000133953 -8.41418e-07 0.00109726)
(0.000133451 -8.09673e-07 0.00109771)
(0.00013265 -3.57592e-07 0.00109813)
(-0.424414 -1.40219e-07 0.66368)
(-0.424414 -3.64337e-07 0.663681)
(-0.424414 -4.87242e-07 0.663681)
(-0.424414 -6.0131e-07 0.663681)
(-0.424414 -2.08031e-07 0.663681)
(-0.424414 -2.11229e-08 0.663681)
(-0.413406 7.10058e-07 1.30605)
(-0.413407 8.66146e-07 1.30606)
(-0.413408 8.11906e-07 1.30606)
(-0.413408 5.40037e-07 1.30606)
(-0.413408 3.65643e-07 1.30606)
(-0.413407 1.28097e-07 1.30606)
(-0.689342 3.1796e-06 3.2714)
(-0.689343 4.702e-06 3.27141)
(-0.689343 2.51377e-06 3.2714)
(-0.689344 2.23239e-06 3.2714)
(-0.689344 3.03786e-06 3.2714)
(-0.689343 1.86359e-06 3.2714)
(-1.32544 -5.95272e-07 0.444893)
(-1.32544 -5.9944e-07 0.444894)
(-1.32544 -8.19402e-07 0.444894)
(-1.32544 -7.76615e-07 0.444894)
(-1.32544 -7.11084e-07 0.444895)
(-1.32544 3.10344e-07 0.444894)
(-1.51093 -9.37834e-07 0.835632)
(-1.51093 -4.45337e-07 0.835634)
(-1.51093 -8.00248e-07 0.835634)
(-1.51093 -1.5251e-07 0.835633)
(-1.51093 -9.80027e-07 0.835633)
(-1.51092 3.10358e-07 0.835633)
(-2.67752 -3.34205e-06 4.94353)
(-2.67749 -7.01559e-07 4.94353)
(-2.67749 4.41543e-07 4.94352)
(-2.67749 1.39184e-06 4.94352)
(-2.67748 3.06182e-07 4.94352)
(-2.67746 1.20734e-06 4.94352)
(-2.12027 -1.81751e-06 -0.591179)
(-2.12027 5.07954e-07 -0.591181)
(-2.12027 -2.55178e-06 -0.591179)
(-2.12027 -6.89047e-07 -0.591178)
(-2.12027 -3.04302e-06 -0.591178)
(-2.12027 9.63254e-07 -0.591178)
(-3.69286 -1.75474e-06 -0.944996)
(-3.69286 1.05423e-06 -0.944999)
(-3.69286 -1.44455e-06 -0.944999)
(-3.69286 1.02796e-06 -0.944999)
(-3.69286 -1.22387e-06 -0.945)
(-3.69285 2.29453e-06 -0.945)
(-6.40797 -1.10066e-06 7.60204)
(-6.40798 -4.19277e-06 7.60205)
(-6.40798 1.51838e-06 7.60205)
(-6.40798 3.76553e-06 7.60205)
(-6.40798 9.77171e-06 7.60205)
(-6.40796 4.36362e-06 7.60204)
(-2.07001 4.39093e-06 -2.59002)
(-2.07001 -4.17248e-06 -2.59002)
(-2.07001 1.05722e-06 -2.59002)
(-2.07001 -1.63511e-06 -2.59001)
(-2.07001 3.71863e-06 -2.59001)
(-2.07001 -5.01258e-06 -2.59)
(-7.0523 1.87535e-05 -1.59426)
(-7.05231 -1.61752e-05 -1.59426)
(-7.05231 -1.84899e-06 -1.59426)
(-7.05231 -9.77801e-06 -1.59426)
(-7.05231 5.70581e-06 -1.59425)
(-7.0523 -2.66537e-05 -1.59424)
(-15.0461 2.21773e-05 -1.7937)
(-15.0461 -3.8708e-05 -1.79372)
(-15.0461 3.18218e-06 -1.79374)
(-15.0461 -3.0482e-05 -1.79374)
(-15.0461 1.13492e-05 -1.79374)
(-15.0461 -3.61705e-05 -1.79373)
(-3.15259 5.64753e-05 -0.278037)
(-3.15257 -6.0683e-05 -0.278024)
(-3.15259 5.00156e-05 -0.278029)
(-3.15259 1.28456e-05 -0.278051)
(-3.15258 0.000107052 -0.278067)
(-3.15261 -4.60623e-05 -0.278036)
(-7.2206 7.28834e-05 1.4796)
(-7.22055 -8.05929e-05 1.47963)
(-7.22059 -1.84679e-05 1.47963)
(-7.2206 -5.06034e-05 1.47962)
(-7.22058 6.29476e-06 1.47964)
(-7.22066 -0.00013498 1.47972)
(-9.04017 1.09099e-05 -7.94863)
(-9.04017 -3.40155e-05 -7.94868)
(-9.04018 7.51875e-06 -7.9487)
(-9.04017 -2.61757e-05 -7.9487)
(-9.04015 1.12041e-05 -7.94873)
(-9.04011 -2.32719e-05 -7.94875)
(-2.00694 -2.17607e-05 1.2396)
(-2.00694 -1.32359e-05 1.23968)
(-2.00695 4.4717e-06 1.23965)
(-2.00695 -4.11165e-06 1.23965)
(-2.00695 3.14037e-05 1.23969)
(-2.00698 3.97858e-05 1.23967)
(-0.476057 -1.94426e-05 0.83251)
(-0.476026 3.14724e-06 0.832518)
(-0.476043 1.59331e-05 0.832509)
(-0.47604 2.31239e-05 0.832509)
(-0.476035 2.73459e-05 0.832505)
(-0.476069 2.24194e-05 0.832499)
(-1.54352 -1.1975e-05 -4.18794)
(-1.5435 -2.13315e-05 -4.18798)
(-1.5435 -2.28394e-05 -4.18797)
(-1.54349 -2.56196e-05 -4.18797)
(-1.54347 -2.58832e-05 -4.18796)
(-1.54346 -8.68478e-06 -4.18791)
(-1.44454 -2.47373e-06 0.19568)
(-1.44455 1.48685e-06 0.195645)
(-1.44456 -7.5798e-06 0.195633)
(-1.44456 -3.1449e-05 0.195653)
(-1.44455 -2.09774e-05 0.195691)
(-1.44453 5.0824e-07 0.195717)
(-2.19123 -2.30973e-06 -0.204917)
(-2.19126 -5.10214e-06 -0.204937)
(-2.19126 -1.44628e-05 -0.204939)
(-2.19127 -1.67905e-05 -0.204932)
(-2.19127 -1.11131e-05 -0.204923)
(-2.19125 2.11891e-07 -0.204907)
(-2.4009 -3.81691e-06 -1.48559)
(-2.40093 -4.39993e-06 -1.48562)
(-2.40092 -3.8445e-06 -1.48562)
(-2.40092 -4.93966e-06 -1.48562)
(-2.40092 -1.79287e-06 -1.48562)
(-2.4009 1.44361e-06 -1.48559)
(-0.689622 1.31811e-05 0.313717)
(-0.689643 5.28925e-06 0.31368)
(-0.689645 -1.29785e-05 0.313711)
(-0.68964 -1.23343e-05 0.313732)
(-0.68963 -8.69167e-06 0.313739)
(-0.689614 -2.17522e-06 0.313739)
(-0.581105 2.29049e-06 -0.0242226)
(-0.581122 -3.92573e-06 -0.0242381)
(-0.581124 -1.00338e-05 -0.0242331)
(-0.581124 -7.13831e-06 -0.0242304)
(-0.581123 -3.69458e-06 -0.0242278)
(-0.581111 -1.30949e-06 -0.0242187)
(-0.547507 5.80997e-07 -1.08311)
(-0.547513 -2.23068e-06 -1.08313)
(-0.547513 -3.11046e-06 -1.08313)
(-0.547512 -3.85286e-06 -1.08313)
(-0.547512 -2.87382e-06 -1.08313)
(-0.547504 -2.73709e-06 -1.08311)
(-0.421034 -1.55295e-05 0.180312)
(-0.421055 -2.55483e-05 0.180406)
(-0.421055 -1.43171e-05 0.180446)
(-0.421055 -3.6581e-06 0.180453)
(-0.421053 4.5447e-06 0.180443)
(-0.42104 3.94981e-06 0.180421)
(-0.455162 -8.9382e-06 -0.0453688)
(-0.455174 -1.52199e-05 -0.0453673)
(-0.455174 -1.06897e-05 -0.0453622)
(-0.455175 -5.69686e-06 -0.0453599)
(-0.455175 -1.06385e-06 -0.04536)
(-0.455166 9.79754e-07 -0.0453544)
(-0.415414 -1.30008e-06 -0.474243)
(-0.415421 -2.90535e-06 -0.474253)
(-0.415421 -3.16425e-06 -0.474251)
(-0.415421 -2.85476e-06 -0.47425)
(-0.415421 -1.80808e-06 -0.474251)
(-0.415414 -6.88955e-07 -0.474239)
(-0.209584 -1.98735e-05 0.124306)
(-0.209585 -2.97125e-05 0.124355)
(-0.209583 -1.4096e-05 0.124365)
(-0.209585 -2.84907e-06 0.124364)
(-0.209588 8.01781e-06 0.124353)
(-0.209585 6.54448e-06 0.124331)
(-0.212615 -4.03634e-06 -0.00728602)
(-0.212617 -7.40129e-06 -0.00728144)
(-0.212615 -5.60564e-06 -0.00727688)
(-0.212614 -2.77075e-06 -0.00727509)
(-0.212614 3.23368e-07 -0.00727597)
(-0.21261 8.89279e-07 -0.00727389)
(-0.159935 -7.76828e-07 -0.221389)
(-0.159937 -2.16354e-06 -0.221395)
(-0.159937 -2.47687e-06 -0.221393)
(-0.159937 -2.03487e-06 -0.221392)
(-0.159936 -1.08304e-06 -0.221392)
(-0.159933 -5.40383e-07 -0.221384)
(-0.0940561 -4.99071e-06 0.0860503)
(-0.0940515 -9.72111e-06 0.0860475)
(-0.0940491 -1.02561e-05 0.086051)
(-0.0940493 -9.23759e-06 0.086058)
(-0.0940523 -4.46031e-06 0.0860624)
(-0.0940532 -6.50195e-07 0.0860622)
(-0.102354 -9.10866e-07 0.0128955)
(-0.102355 -2.40122e-06 0.0128941)
(-0.102353 -3.13135e-06 0.0128963)
(-0.102353 -2.71318e-06 0.0128988)
(-0.102353 -1.38712e-06 0.0129005)
(-0.10235 -3.03745e-07 0.0129045)
(-0.0736972 -3.11515e-07 -0.0887985)
(-0.0736983 -8.7432e-07 -0.0888029)
(-0.0736978 -1.1794e-06 -0.0888018)
(-0.0736974 -1.21616e-06 -0.0888006)
(-0.0736972 -9.00784e-07 -0.0887999)
(-0.0736957 -4.12964e-07 -0.0887944)
(-0.0232319 -2.35115e-06 0.0655301)
(-0.0232332 -7.05607e-06 0.0655247)
(-0.0232317 -9.64179e-06 0.0655258)
(-0.02323 -9.91374e-06 0.0655282)
(-0.0232291 -7.69215e-06 0.06553)
(-0.0232265 -2.72239e-06 0.0655331)
(-0.0422593 5.17733e-07 0.0159482)
(-0.0422613 2.63809e-07 0.0159465)
(-0.0422609 -5.31402e-07 0.0159488)
(-0.0422607 -6.90387e-07 0.0159511)
(-0.0422608 -4.16054e-07 0.0159534)
(-0.0422591 -1.39714e-07 0.0159575)
(-0.0302551 -1.18829e-07 -0.0349006)
(-0.0302559 -3.75171e-07 -0.0349041)
(-0.0302557 -6.02879e-07 -0.034904)
(-0.0302555 -7.57985e-07 -0.0349037)
(-0.0302554 -6.79658e-07 -0.0349034)
(-0.0302545 -3.4025e-07 -0.0349)
(-0.000987491 4.59447e-07 -0.000827824)
(-0.000988045 3.95807e-07 -0.000828074)
(-0.00098809 -2.40953e-07 -0.000828157)
(-0.000987991 -5.07336e-07 -0.000828177)
(-0.000987897 -5.02122e-07 -0.000828149)
(-0.00098726 -2.42884e-07 -0.000828033)
(-0.00159915 1.70003e-07 -0.00141022)
(-0.00159958 -2.6131e-08 -0.00141075)
(-0.00159949 -4.46931e-07 -0.00141079)
(-0.00159937 -4.86375e-07 -0.00141076)
(-0.00159928 -4.35634e-07 -0.00141068)
(-0.00159877 -2.01906e-07 -0.00141029)
(-0.000872456 9.75791e-09 -0.00217465)
(-0.000872615 -1.02004e-07 -0.00217518)
(-0.000872677 -2.71674e-07 -0.00217502)
(-0.000872696 -2.85304e-07 -0.00217482)
(-0.000872683 -1.73133e-07 -0.00217464)
(-0.000872482 -4.63355e-08 -0.00217408)
(-0.00134891 3.70283e-07 -0.000760989)
(-0.00134941 2.72689e-07 -0.000761288)
(-0.00134931 -3.94079e-07 -0.000761419)
(-0.00134911 -7.02929e-07 -0.000761448)
(-0.00134911 -7.78725e-07 -0.000761415)
(-0.00134824 -4.67164e-07 -0.000761233)
(-0.0016799 7.56697e-08 -0.00147102)