/*--------------------------------*- C++ -*----------------------------------*\
| =========                 |                                                 |
| \\      /  F ield         | OpenFOAM: The Open Source CFD Toolbox           |
|  \\    /   O peration     | Version:  v1612+                                |
|   \\  /    A nd           | Web:      www.OpenFOAM.com                      |
|    \\/     M anipulation  |                                                 |
\*---------------------------------------------------------------------------*/
FoamFile
{
    version     2.0;
    format      ascii;
    class       volScalarField;
    location    "9.65";
    object      p;
}
// * * * * * * * * * * * * * * * * * * * * * * * * * * * * * * * * * * * * * //

dimensions      [1 -1 -2 0 0 0 0];

internalField   nonuniform List<scalar> 
320
(
14724.8
14724.8
14724.8
14724.8
5.01001
5.01131
5.01432
5.01236
5.01069
5.01143
5.01064
5.00949
5.00905
5.00865
5.00899
5.00944
4914.91
4914.91
4914.94
4914.92
4914.86
4914.91
4914.92
4914.91
4914.91
4914.86
4914.89
4914.92
14724.8
14724.8
14724.8
14724.8
14724.8
14724.8
14724.8
14724.8
14724.8
14724.8
14724.8
14724.8
24534.8
24534.8
24534.8
24534.8
24534.8
24534.8
24534.8
24534.8
24534.8
24534.8
24534.8
24534.8
24534.8
24534.8
24534.8
24534.8
5.00976
5.00997
5.011
5.01232
5.01217
5.01211
5.01134
5.01237
5.01174
5.01105
5.01054
5.01014
5.00939
5.0085
5.00828
5.00887
5.00825
5.00836
5.00902
5.01031
4914.91
4914.92
4914.92
4914.92
4914.88
4914.88
4914.86
4914.86
4914.92
4914.9
4914.88
4914.87
4914.9
4914.89
4914.89
4914.89
4914.89
4914.9
4914.91
4914.89
14724.8
14724.8
14724.8
14724.8
14724.8
14724.8
14724.8
14724.8
14724.8
14724.8
14724.8
14724.8
14724.8
14724.8
14724.8
14724.8
14724.8
14724.8
14724.8
14724.8
24534.8
24534.8
24534.8
24534.8
24534.8
24534.8
24534.8
24534.8
24534.8
24534.8
24534.8
24534.8
24534.8
24534.8
24534.8
24534.8
24534.8
24534.8
24534.8
24534.8
34344.8
34344.8
34344.8
34344.8
34344.8
34344.8
34344.8
34344.8
34344.8
34344.8
34344.8
34344.8
34344.8
34344.8
34344.8
34344.8
34344.8
34344.8
34344.8
34344.8
34344.8
34344.8
34344.8
34344.8
34344.8
34344.8
34344.8
34344.8
34344.8
34344.8
34344.8
34344.8
34344.8
34344.8
34344.8
34344.8
5.0128
5.00971
5.01037
5.01042
5.01291
5.01244
5.01235
5.01184
5.01174
5.0121
5.01265
5.01161
5.01127
5.01048
5.01025
5.01021
5.00986
5.00855
5.01046
5.00695
5.00957
5.0094
5.00867
5.00817
5.00831
5.00871
5.00951
5.01041
4914.94
4914.91
4914.93
4914.93
4914.94
4914.9
4914.93
4914.91
4914.91
4914.92
4914.93
4914.9
4914.92
4914.93
4914.91
4914.91
4914.86
4914.86
4914.93
4914.92
4914.93
4914.92
4914.93
4914.93
4914.92
4914.91
4914.91
4914.93
14724.8
14724.8
14724.8
14724.8
14724.8
14724.8
14724.8
14724.8
14724.8
14724.8
14724.8
14724.8
14724.8
14724.8
14724.8
14724.8
14724.8
14724.8
14724.8
14724.8
14724.8
14724.8
14724.8
14724.8
14724.8
14724.8
14724.8
14724.8
24534.8
24534.8
24534.8
24534.8
24534.8
24534.8
24534.8
24534.8
24534.8
24534.8
24534.8
24534.8
24534.8
24534.8
24534.8
24534.8
24534.8
24534.8
24534.8
24534.8
24534.8
24534.8
24534.8
24534.8
24534.8
24534.8
24534.8
24534.8
34344.8
34344.9
34344.8
34344.8
34344.8
34344.8
34344.8
34344.8
34344.8
34344.8
34344.8
34344.8
34344.8
34344.8
34344.8
34344.8
34344.8
34344.8
34344.8
34344.8
34344.8
34344.8
34344.8
34344.8
34344.8
34344.8
34344.8
34344.7
5.00946
5.01008
5.00942
5.01064
4914.9
4914.9
4914.9
4914.9
)
;

boundaryField
{
    top_fluid_surface
    {
        type            calculated;
        value           nonuniform List<scalar> 
64
(
-4.40376e-09
-2.91654e-09
-3.80714e-09
-5.94007e-09
-4.22677e-11
-5.35946e-09
-7.42247e-09
-3.12268e-09
-1.19318e-08
0
0
-4.99924e-10
-3.77875e-09
-5.09305e-09
-1.44861e-09
-6.63756e-09
0
0
0
0
-3.05162e-09
-1.08414e-08
0
0
-6.13683e-10
0
0
0
0
0
-4.7891e-10
0
-2.60632e-09
-3.38477e-09
-3.74922e-08
-3.88337e-11
-3.24065e-08
0
-6.39841e-08
-1.4526e-09
-8.45874e-11
-3.19807e-08
-2.00223e-08
-1.43869e-10
-2.28707e-08
-1.99686e-12
-1.39549e-09
-2.76482e-09
0
-5.32153e-10
-5.64296e-09
-2.07082e-08
-2.78041e-08
-8.68313e-09
-3.40844e-08
-1.90496e-08
-6.5669e-09
-6.49566e-10
-1.09498e-09
-6.52525e-08
-3.45436e-09
-4.03444e-10
0
-7.77721e-09
)
;
    }
    bottom_fluid_surface
    {
        type            calculated;
        value           nonuniform List<scalar> 
64
(
39249.8
39249.8
39249.8
39249.8
39249.8
39249.8
39249.8
39249.8
39249.8
39249.8
39249.8
39249.8
39249.8
39249.8
39249.8
39249.8
39249.8
39249.8
39249.8
39249.8
39249.8
39249.8
39249.8
39249.8
39249.8
39249.8
39249.8
39249.8
39249.8
39249.8
39249.8
39249.8
39249.8
39249.8
39249.8
39249.8
39249.8
39249.9
39249.8
39249.8
39249.8
39249.8
39249.8
39249.8
39249.8
39249.8
39249.8
39249.8
39249.8
39249.8
39249.8
39249.8
39249.8
39249.8
39249.8
39249.8
39249.8
39249.8
39249.8
39249.8
39249.8
39249.8
39249.8
39249.7
)
;
    }
    lateral_surface_1
    {
        type            calculated;
        value           nonuniform List<scalar> 
40
(
5.0128
5.00971
5.01037
5.01042
5.01291
5.01244
5.01235
5.01041
4914.94
4914.91
4914.93
4914.93
4914.94
4914.9
4914.93
4914.93
14724.8
14724.8
14724.8
14724.8
14724.8
14724.8
14724.8
14724.8
24534.8
24534.8
24534.8
24534.8
24534.8
24534.8
24534.8
24534.8
34344.8
34344.9
34344.8
34344.8
34344.8
34344.8
34344.8
34344.7
)
;
    }
    lateral_surface_2
    {
        type            calculated;
        value           nonuniform List<scalar> 
40
(
5.01048
5.01025
5.01021
5.00986
5.00855
5.01046
5.00695
5.00957
4914.93
4914.91
4914.91
4914.86
4914.86
4914.93
4914.92
4914.93
14724.8
14724.8
14724.8
14724.8
14724.8
14724.8
14724.8
14724.8
24534.8
24534.8
24534.8
24534.8
24534.8
24534.8
24534.8
24534.8
34344.8
34344.8
34344.8
34344.8
34344.8
34344.8
34344.8
34344.8
)
;
    }
    lateral_surface_3
    {
        type            calculated;
        value           nonuniform List<scalar> 
40
(
5.01235
5.01184
5.01174
5.0121
5.01265
5.01161
5.01127
5.01048
4914.93
4914.91
4914.91
4914.92
4914.93
4914.9
4914.92
4914.93
14724.8
14724.8
14724.8
14724.8
14724.8
14724.8
14724.8
14724.8
24534.8
24534.8
24534.8
24534.8
24534.8
24534.8
24534.8
24534.8
34344.8
34344.8
34344.8
34344.8
34344.8
34344.8
34344.8
34344.8
)
;
    }
    lateral_surface_4
    {
        type            calculated;
        value           nonuniform List<scalar> 
40
(
5.00957
5.0094
5.00867
5.00817
5.00831
5.00871
5.00951
5.01041
4914.93
4914.92
4914.93
4914.93
4914.92
4914.91
4914.91
4914.93
14724.8
14724.8
14724.8
14724.8
14724.8
14724.8
14724.8
14724.8
24534.8
24534.8
24534.8
24534.8
24534.8
24534.8
24534.8
24534.8
34344.8
34344.8
34344.8
34344.8
34344.8
34344.8
34344.8
34344.7
)
;
    }
}


// ************************************************************************* //
