/*--------------------------------*- C++ -*----------------------------------*\
| =========                 |                                                 |
| \\      /  F ield         | OpenFOAM: The Open Source CFD Toolbox           |
|  \\    /   O peration     | Version:  v1612+                                |
|   \\  /    A nd           | Web:      www.OpenFOAM.com                      |
|    \\/     M anipulation  |                                                 |
\*---------------------------------------------------------------------------*/
FoamFile
{
    version     2.0;
    format      ascii;
    class       volScalarField;
    location    "9.65";
    object      p_rgh;
}
// * * * * * * * * * * * * * * * * * * * * * * * * * * * * * * * * * * * * * //

dimensions      [1 -1 -2 0 0 0 0];

internalField   nonuniform List<scalar> 
320
(
-9800.21
-9800.2
-9800.21
-9800.21
-0.00243132
-0.00106339
-0.00130546
-0.00849016
-0.000299831
-0.00245755
-0.00354519
-0.00282706
-0.00370235
0.00242506
0.00506959
-0.000571956
-9799.74
-9799.74
-9799.69
-9799.69
-9799.77
-9799.73
-9799.73
-9799.74
-9799.73
-9799.8
-9799.87
-9799.77
-9800.21
-9800.2
-9800.2
-9800.21
-9800.21
-9800.21
-9800.21
-9800.21
-9800.21
-9800.21
-9800.2
-9800.2
-9800.2
-9800.2
-9800.2
-9800.21
-9800.2
-9800.2
-9800.21
-9800.21
-9800.21
-9800.21
-9800.2
-9800.2
-9800.2
-9800.2
-9800.2
-9800.2
-0.00397418
-0.00289807
0.000101996
-0.00491203
0.0170298
0.0214948
0.0215819
0.0238322
-0.00208162
-0.00625169
0.021658
0.0211777
0.00113888
0.0104302
0.0142506
0.014462
0.0112105
0.00367812
-0.000640379
0.0106917
-9799.72
-9799.75
-9799.77
-9799.71
-9799.95
-9799.97
-9799.98
-9799.97
-9799.75
-9799.68
-9799.98
-9799.98
-9799.76
-9799.94
-9799.97
-9799.96
-9799.94
-9799.89
-9799.75
-9799.91
-9800.2
-9800.21
-9800.19
-9800.2
-9800.19
-9800.19
-9800.19
-9800.19
-9800.2
-9800.2
-9800.2
-9800.19
-9800.2
-9800.19
-9800.18
-9800.19
-9800.19
-9800.19
-9800.21
-9800.2
-9800.2
-9800.22
-9800.2
-9800.2
-9800.19
-9800.2
-9800.2
-9800.2
-9800.2
-9800.21
-9800.2
-9800.2
-9800.2
-9800.19
-9800.19
-9800.19
-9800.19
-9800.2
-9800.21
-9800.21
-9800.2
-9800.2
-9800.2
-9800.2
-9800.2
-9800.2
-9800.2
-9800.21
-9800.21
-9800.21
-9800.2
-9800.2
-9800.2
-9800.2
-9800.2
-9800.21
-9800.19
-9800.21
-9800.21
-9800.21
-9800.19
-9800.19
-9800.2
-9800.2
-9800.2
-9800.2
-9800.2
-9800.2
-9800.2
-9800.2
-9800.19
-9800.19
-9800.19
-9800.2
-9800.22
-9800.24
0.000467559
-0.00371839
-0.0108707
-0.00100998
-0.0154206
0.000975145
-0.0125461
0.000920239
-0.000813906
-0.00844188
-0.00631449
-0.000324073
-0.0089902
-0.000922812
-0.000125026
-0.00186399
0.00117116
-0.00260689
-0.00354717
-0.00979767
-0.00860813
-0.00537582
-0.0131309
-0.00695632
-0.00432375
-0.0012944
-0.00015825
-0.0129665
-9799.71
-9799.73
-9799.69
-9799.78
-9799.66
-9799.83
-9799.67
-9799.76
-9799.74
-9799.7
-9799.73
-9799.72
-9799.68
-9799.79
-9799.75
-9799.73
-9799.78
-9799.78
-9799.75
-9799.73
-9799.73
-9799.73
-9799.69
-9799.75
-9799.76
-9799.76
-9799.75
-9799.66
-9800.19
-9800.2
-9800.22
-9800.19
-9800.19
-9800.18
-9800.2
-9800.2
-9800.2
-9800.2
-9800.19
-9800.2
-9800.21
-9800.2
-9800.2
-9800.21
-9800.22
-9800.22
-9800.2
-9800.19
-9800.19
-9800.19
-9800.2
-9800.19
-9800.2
-9800.2
-9800.21
-9800.22
-9800.19
-9800.17
-9800.23
-9800.21
-9800.21
-9800.2
-9800.2
-9800.2
-9800.2
-9800.21
-9800.2
-9800.2
-9800.21
-9800.2
-9800.21
-9800.21
-9800.21
-9800.21
-9800.2
-9800.2
-9800.19
-9800.19
-9800.2
-9800.2
-9800.19
-9800.19
-9800.21
-9800.23
-9800.21
-9800.13
-9800.18
-9800.2
-9800.21
-9800.2
-9800.2
-9800.2
-9800.2
-9800.2
-9800.2
-9800.2
-9800.2
-9800.2
-9800.2
-9800.2
-9800.2
-9800.2
-9800.2
-9800.2
-9800.2
-9800.19
-9800.2
-9800.2
-9800.19
-9800.19
-9800.21
-9800.28
-0.000816608
-0.00200912
0.00100769
-0.00514828
-9799.74
-9799.73
-9799.74
-9799.69
)
;

boundaryField
{
    top_fluid_surface
    {
        type            totalPressure;
        rho             rho;
        psi             none;
        gamma           1;
        p0              uniform 0;
        value           nonuniform List<scalar> 
64
(
-4.40376e-09
-2.91654e-09
-3.80714e-09
-5.94007e-09
-4.22677e-11
-5.35946e-09
-7.42247e-09
-3.12268e-09
-1.19318e-08
0
0
-4.99924e-10
-3.77875e-09
-5.09305e-09
-1.44861e-09
-6.63756e-09
0
0
0
0
-3.05162e-09
-1.08414e-08
0
0
-6.13683e-10
0
0
0
0
0
-4.7891e-10
0
-2.60632e-09
-3.38477e-09
-3.74922e-08
-3.88337e-11
-3.24065e-08
0
-6.39841e-08
-1.4526e-09
-8.45874e-11
-3.19807e-08
-2.00223e-08
-1.43869e-10
-2.28707e-08
-1.99686e-12
-1.39549e-09
-2.76482e-09
0
-5.32153e-10
-5.64296e-09
-2.07082e-08
-2.78041e-08
-8.68313e-09
-3.40844e-08
-1.90496e-08
-6.5669e-09
-6.49566e-10
-1.09498e-09
-6.52525e-08
-3.45436e-09
-4.03444e-10
0
-7.77721e-09
)
;
    }
    bottom_fluid_surface
    {
        type            fixedFluxPressure;
        gradient        uniform 0;
        value           nonuniform List<scalar> 
64
(
-9800.2
-9800.2
-9800.2
-9800.2
-9800.2
-9800.2
-9800.2
-9800.21
-9800.21
-9800.21
-9800.2
-9800.2
-9800.2
-9800.2
-9800.2
-9800.21
-9800.19
-9800.21
-9800.21
-9800.21
-9800.19
-9800.19
-9800.2
-9800.2
-9800.2
-9800.2
-9800.2
-9800.2
-9800.2
-9800.2
-9800.19
-9800.19
-9800.19
-9800.2
-9800.22
-9800.24
-9800.21
-9800.13
-9800.18
-9800.2
-9800.21
-9800.2
-9800.2
-9800.2
-9800.2
-9800.2
-9800.2
-9800.2
-9800.2
-9800.2
-9800.2
-9800.2
-9800.2
-9800.2
-9800.2
-9800.2
-9800.2
-9800.19
-9800.2
-9800.2
-9800.19
-9800.19
-9800.21
-9800.28
)
;
    }
    lateral_surface_1
    {
        type            fixedFluxPressure;
        gradient        uniform 0;
        value           nonuniform List<scalar> 
40
(
0.000467559
-0.00371839
-0.0108707
-0.00100998
-0.0154206
0.000975145
-0.0125461
-0.0129665
-9799.71
-9799.73
-9799.69
-9799.78
-9799.66
-9799.83
-9799.67
-9799.66
-9800.19
-9800.2
-9800.22
-9800.19
-9800.19
-9800.18
-9800.2
-9800.22
-9800.19
-9800.17
-9800.23
-9800.21
-9800.21
-9800.2
-9800.2
-9800.23
-9800.21
-9800.13
-9800.18
-9800.2
-9800.21
-9800.2
-9800.2
-9800.28
)
;
    }
    lateral_surface_2
    {
        type            fixedFluxPressure;
        gradient        uniform 0;
        value           nonuniform List<scalar> 
40
(
-0.000922812
-0.000125026
-0.00186399
0.00117116
-0.00260689
-0.00354717
-0.00979767
-0.00860813
-9799.79
-9799.75
-9799.73
-9799.78
-9799.78
-9799.75
-9799.73
-9799.73
-9800.2
-9800.2
-9800.21
-9800.22
-9800.22
-9800.2
-9800.19
-9800.19
-9800.2
-9800.21
-9800.21
-9800.21
-9800.21
-9800.2
-9800.2
-9800.19
-9800.2
-9800.2
-9800.2
-9800.2
-9800.2
-9800.2
-9800.2
-9800.2
)
;
    }
    lateral_surface_3
    {
        type            fixedFluxPressure;
        gradient        uniform 0;
        value           nonuniform List<scalar> 
40
(
-0.0125461
0.000920239
-0.000813906
-0.00844188
-0.00631449
-0.000324073
-0.0089902
-0.000922812
-9799.67
-9799.76
-9799.74
-9799.7
-9799.73
-9799.72
-9799.68
-9799.79
-9800.2
-9800.2
-9800.2
-9800.2
-9800.19
-9800.2
-9800.21
-9800.2
-9800.2
-9800.2
-9800.2
-9800.21
-9800.2
-9800.2
-9800.21
-9800.2
-9800.2
-9800.2
-9800.2
-9800.2
-9800.2
-9800.2
-9800.2
-9800.2
)
;
    }
    lateral_surface_4
    {
        type            fixedFluxPressure;
        gradient        uniform 0;
        value           nonuniform List<scalar> 
40
(
-0.00860813
-0.00537582
-0.0131309
-0.00695632
-0.00432375
-0.0012944
-0.00015825
-0.0129665
-9799.73
-9799.73
-9799.69
-9799.75
-9799.76
-9799.76
-9799.75
-9799.66
-9800.19
-9800.19
-9800.2
-9800.19
-9800.2
-9800.2
-9800.21
-9800.22
-9800.19
-9800.19
-9800.2
-9800.2
-9800.19
-9800.19
-9800.21
-9800.23
-9800.2
-9800.19
-9800.2
-9800.2
-9800.19
-9800.19
-9800.21
-9800.28
)
;
    }
}


// ************************************************************************* //
