/*--------------------------------*- C++ -*----------------------------------*\
| =========                 |                                                 |
| \\      /  F ield         | OpenFOAM: The Open Source CFD Toolbox           |
|  \\    /   O peration     | Version:  v1612+                                |
|   \\  /    A nd           | Web:      www.OpenFOAM.com                      |
|    \\/     M anipulation  |                                                 |
\*---------------------------------------------------------------------------*/
FoamFile
{
    version     2.0;
    format      ascii;
    class       surfaceScalarField;
    location    "1.65";
    object      alphaPhi;
}
// * * * * * * * * * * * * * * * * * * * * * * * * * * * * * * * * * * * * * //

dimensions      [0 3 -1 0 0 0 0];

internalField   nonuniform List<scalar> 
816
(
1.38788e-07
1.03341e-06
7.02509e-07
8.95413e-07
4.52876e-06
-7.29495e-06
7.26032e-07
4.44406e-07
1.00414e-06
2.96549e-06
-5.028e-06
1.06494e-06
1.23633e-06
-1.20632e-06
6.18831e-07
-7.05084e-07
2.12451e-07
1.34636e-06
-7.41041e-07
9.98193e-07
5.31149e-10
-4.90595e-10
1.99877e-06
2.73136e-10
2.31784e-10
1.78743e-12
1.65405e-06
1.7805e-10
6.02446e-12
2.99727e-10
2.74026e-06
-9.26793e-11
3.59066e-10
2.19329e-11
-6.9535e-06
-4.77097e-11
6.06446e-11
-4.11377e-11
-8.70277e-06
1.17927e-10
-8.95915e-11
-2.53333e-10
-2.01168e-06
3.30537e-10
4.44479e-10
-7.37494e-10
-1.02712e-05
-1.97751e-10
3.91112e-10
-9.19971e-10
-2.56051e-06
-3.75625e-10
6.04373e-10
6.5482e-10
1.70615e-06
-4.17813e-11
4.26632e-10
1.86877e-10
2.78779e-06
-1.23781e-10
3.50387e-10
1.01595e-10
2.60517e-06
-1.77384e-10
7.72401e-10
-2.33466e-06
5.94747e-10
-2.98818e-10
-1.04899e-06
4.86306e-06
-6.0844e-07
6.91818e-06
-1.22504e-06
3.50342e-06
-1.35554e-06
6.62415e-06
2.91993e-06
6.96293e-06
4.09801e-06
4.47684e-07
6.524e-06
8.73691e-07
-1.65645e-07
2.52319e-06
-7.0916e-06
-2.50516e-06
-3.37154e-06
-2.91179e-06
-2.86953e-06
3.51094e-06
-2.04633e-06
-3.14102e-06
2.45331e-06
-5.19028e-06
-3.4999e-06
-2.99222e-06
2.63896e-07
-6.16484e-06
-1.21908e-07
-1.31727e-06
-1.68773e-06
-7.82619e-07
-1.628e-06
1.50727e-06
4.16843e-07
1.56773e-06
6.06009e-06
5.31939e-06
1.68532e-06
4.82137e-06
1.59419e-06
7.49284e-06
-6.8062e-07
6.52817e-06
7.77277e-06
7.04172e-07
3.78916e-07
-1.22769e-06
-1.05316e-07
1.05094e-06
-1.23294e-06
-1.41424e-07
8.24739e-07
1.89591e-06
1.8304e-06
-7.16951e-07
-1.40607e-07
1.93291e-06
-1.41284e-07
9.81494e-07
5.71759e-07
-1.95341e-06
1.49139e-07
2.80111e-07
-1.48728e-06
-5.23548e-07
2.53341e-07
-8.39404e-07
-1.40784e-06
3.88942e-07
-3.15536e-07
-4.53016e-07
1.04996e-06
-1.38161e-06
-7.99002e-07
1.01424e-06
-7.71998e-07
-2.80684e-07
2.74757e-06
1.01839e-06
-1.53184e-07
8.8897e-07
1.46705e-06
2.53455e-06
1.42247e-06
1.21164e-06
4.17501e-07
1.26645e-06
5.92024e-07
8.78958e-07
1.35095e-06
8.27462e-07
1.94651e-07
1.42087e-06
9.53496e-07
1.07719e-06
1.58763e-06
-8.04624e-07
2.41585e-08
3.77239e-07
9.78399e-07
-2.04138e-07
1.25327e-07
-2.94825e-07
7.69491e-07
-1.00183e-07
-3.59308e-07
6.61502e-07
-1.28264e-07
1.35646e-06
-5.47987e-07
2.13454e-07
4.68329e-07
1.56494e-06
8.78135e-07
1.87213e-07
6.52687e-07
-9.93826e-08
-5.68716e-07
-8.3703e-08
-5.50781e-07
2.33476e-07
-4.17917e-07
-6.33812e-07
3.15751e-07
-1.98397e-07
-4.96976e-07
1.03912e-06
-3.45613e-08
-7.89001e-07
7.61272e-07
-1.14652e-06
-1.0571e-07
-1.70215e-07
5.43922e-07
8.05155e-07
1.89748e-07
1.06092e-06
3.47326e-07
9.42069e-07
6.70732e-07
8.37089e-07
6.27174e-10
-7.20957e-10
-4.1927e-06
4.70707e-10
2.71159e-10
-3.96925e-06
4.20876e-10
-3.57541e-10
-3.71791e-06
1.59633e-10
-2.17095e-10
4.11716e-06
1.71632e-10
9.71164e-11
4.18873e-11
2.4552e-11
-5.19317e-10
1.03099e-10
6.28216e-07
1.01614e-10
9.82143e-11
-7.14737e-06
-1.33503e-10
-6.04802e-11
-1.28085e-06
1.01734e-11
-6.11119e-11
3.50456e-13
2.72353e-11
-4.59134e-10
1.09304e-06
3.13851e-10
1.5772e-10
-5.17417e-10
-2.75761e-06
5.16942e-10
-8.48154e-10
2.8432e-11
-3.60853e-12
-3.23863e-10
-8.21671e-07
-2.10173e-10
2.71235e-10
-2.11104e-06
3.85447e-10
6.67223e-11
2.8715e-06
-3.10259e-11
1.43561e-10
2.56717e-10
2.6269e-06
3.43754e-10
1.22735e-11
-5.56452e-06
1.85163e-11
-1.87548e-10
-1.51049e-05
-2.43053e-13
1.17975e-10
-4.84171e-06
-5.02933e-11
-8.10109e-07
7.31274e-10
-2.75645e-10
4.06129e-07
-5.65102e-06
4.70734e-06
3.49132e-06
-1.62409e-06
7.19032e-09
3.6146e-06
-4.80053e-06
3.67106e-07
4.91155e-06
-2.82368e-06
7.59806e-06
8.00269e-06
2.7923e-06
7.52917e-06
5.26657e-06
-2.67005e-06
4.30242e-06
4.64148e-06
6.40932e-06
-3.11183e-06
2.55075e-06
-3.62052e-07
-6.77124e-06
5.03786e-06
-4.23496e-06
-4.02765e-06
6.68261e-06
-4.41059e-06
1.82384e-06
-2.83796e-06
3.17218e-06
2.44423e-06
-1.81994e-06
2.40294e-06
2.70035e-06
-3.30444e-06
2.78874e-06
3.35823e-06
-2.16357e-06
-1.80855e-06
-1.78139e-06
-3.60519e-06
-1.37583e-06
1.14211e-06
1.94513e-06
4.1824e-06
4.11083e-06
-3.10474e-06
8.1063e-06
3.00867e-06
6.58799e-06
3.85911e-06
9.38256e-08
4.08693e-06
-1.9966e-06
4.06976e-06
1.69878e-06
-8.71709e-07
1.46591e-06
-6.44569e-06
-2.99247e-06
2.08833e-06
-7.73754e-06
-5.59858e-07
2.24955e-06
2.09738e-06
2.36838e-06
-9.41417e-07
1.21872e-07
1.33098e-06
-1.61023e-06
6.87168e-07
1.17425e-06
3.82414e-07
3.77279e-06
1.13628e-06
-6.2284e-07
3.27181e-06
2.97229e-06
2.29255e-06
5.34252e-07
1.84018e-06
1.50555e-06
4.08791e-07
9.47699e-07
2.70832e-06
1.05854e-06
2.09743e-06
2.43455e-06
2.89566e-06
3.17024e-06
1.17232e-06
-7.58479e-07
-1.30896e-06
-7.40876e-07
2.89513e-06
-5.06501e-07
7.32457e-07
1.6761e-06
6.86472e-08
9.76692e-07
1.63315e-06
-8.447e-07
-1.28331e-06
1.44598e-06
-1.25376e-06
-1.07885e-06
1.14314e-06
-3.35744e-08
2.64055e-06
1.02122e-06
-6.94049e-07
4.31408e-07
1.6875e-06
1.08292e-07
-5.51363e-08
-2.03716e-07
1.80934e-06
9.92341e-07
1.59429e-06
2.89373e-06
2.04528e-06
2.14584e-07
1.41905e-06
-1.78085e-06
1.47856e-06
1.59401e-06
-6.05646e-07
1.45655e-06
6.51723e-07
1.52479e-06
-6.15638e-07
1.79423e-07
7.1266e-07
-6.56479e-07
3.56225e-07
1.03009e-06
4.26169e-07
1.20028e-06
9.41679e-07
-1.86071e-07
1.02646e-06
1.75758e-06
1.11706e-06
3.12855e-07
5.84709e-07
9.64995e-07
5.96605e-08
5.52432e-07
1.51528e-06
4.27186e-07
5.28549e-07
1.09629e-06
1.64593e-06
9.76429e-07
4.48349e-07
-1.64233e-07
-3.70059e-07
-4.98038e-07
1.38511e-06
-2.81161e-07
1.43935e-07
9.23807e-07
-1.32162e-07
1.77431e-07
9.6616e-07
-1.18007e-06
-2.5586e-07
1.0698e-06
-1.82551e-06
-1.35286e-07
4.77081e-07
3.36081e-07
7.42693e-07
6.48423e-07
-8.9025e-07
7.0906e-07
5.33757e-07
-3.34474e-07
1.37604e-07
5.42992e-08
8.68796e-07
7.52687e-07
5.67006e-07
1.50191e-06
1.21688e-06
9.51797e-08
3.25575e-07
-4.63154e-07
6.91285e-07
6.57707e-07
1.24609e-07
6.38868e-07
2.22793e-07
3.59012e-07
3.85451e-07
1.35765e-07
5.50044e-07
4.79443e-07
6.52482e-07
-4.73018e-07
2.41603e-07
4.11171e-07
3.4178e-08
-1.59461e-07
2.36558e-07
-1.9985e-07
2.3251e-07
5.91463e-07
-3.72516e-07
4.63556e-08
9.39354e-07
3.77046e-07
5.17012e-07
8.35212e-08
-2.35159e-07
-5.48052e-08
3.77968e-07
-3.7132e-07
3.33563e-07
-2.55476e-07
5.03621e-07
-2.90479e-07
3.53796e-07
-4.1776e-07
-3.74753e-08
8.81163e-08
1.67049e-07
5.02445e-07
4.73361e-07
3.62134e-07
-3.85953e-07
7.84749e-07
7.17659e-07
-3.66882e-07
3.89476e-07
-3.20903e-07
5.36663e-07
1.86054e-07
3.1219e-07
-3.60103e-08
7.10611e-07
5.35636e-07
1.87751e-07
3.95757e-07
3.29558e-07
7.71507e-07
3.55304e-07
5.65554e-07
9.06546e-07
3.50993e-07
-1.99318e-07
-3.9852e-08
7.64944e-07
-3.02814e-07
6.06189e-07
-3.40525e-07
5.48493e-07
-6.64439e-07
5.78412e-07
-7.60617e-07
3.26253e-07
9.23935e-08
2.51328e-07
-3.51915e-07
2.5802e-07
-3.32248e-08
7.7856e-08
3.27519e-07
4.56095e-07
6.88453e-07
6.10113e-07
3.04259e-07
4.86793e-07
4.45094e-07
1.48827e-10
-2.17411e-11
-6.38391e-06
3.32968e-10
-6.80276e-06
1.32854e-11
-5.6797e-06
-2.80489e-10
-5.34491e-06
-3.65745e-10
-1.02477e-05
-4.35425e-10
-1.30261e-05
3.44739e-10
3.41568e-06
5.39484e-10
2.0204e-06
3.47169e-10
-1.63571e-05
2.33207e-11
-1.19576e-05
2.54215e-10
-5.9836e-06
5.27832e-10
2.64524e-06
2.15137e-10
-7.1001e-07
-1.03364e-10
-5.37092e-06
-2.50206e-10
-4.27146e-06
-8.2251e-10
-9.31522e-06
-1.0431e-09
-9.90806e-06
-1.74198e-10
1.06428e-06
-1.1716e-10
-4.18059e-06
-2.72788e-10
-7.00207e-06
6.85891e-10
3.33605e-06
2.18311e-10
3.42444e-11
5.66362e-11
-4.72257e-06
-1.72259e-10
-1.20949e-05
-1.81368e-10
-9.02972e-06
7.33456e-11
3.55945e-06
8.04536e-10
3.00312e-06
-2.393e-06
2.58342e-06
-6.2621e-06
-3.88551e-06
-4.86619e-07
-2.82137e-06
9.46954e-07
-3.41769e-06
1.79363e-06
-1.72104e-06
-3.76329e-06
1.1158e-07
-1.02984e-05
-6.54664e-06
4.07883e-06
-1.82898e-06
1.03478e-05
-1.05569e-06
1.173e-06
-1.1651e-06
-8.22984e-06
-6.08279e-06
-2.3986e-06
-8.00202e-06
7.1894e-06
-6.59553e-07
4.9537e-06
4.37875e-06
-1.56145e-06
-1.28598e-06
1.61143e-06
-7.29003e-06
-1.32706e-06
-3.73179e-06
-7.98478e-06
-3.3551e-06
-1.36627e-06
-3.96629e-06
-1.11501e-06
-3.27947e-06
-5.6731e-06
-1.14194e-06
4.56447e-06
2.73792e-06
8.1596e-06
4.39269e-06
4.49874e-06
1.93571e-06
-3.91123e-06
-4.77879e-06
-8.39901e-06
-7.09367e-06
-1.48324e-06
1.59171e-07
4.48857e-06
-2.37038e-06
-4.26458e-06
-1.43587e-06
9.65187e-07
-1.93549e-06
-3.43333e-07
-1.55528e-06
-1.14884e-06
-1.28284e-06
-5.88624e-07
-1.1086e-06
8.10904e-07
-1.49511e-07
3.22459e-07
-3.06714e-06
-6.12165e-07
-8.96162e-07
5.53634e-07
8.85036e-08
1.82254e-06
-9.26394e-07
1.10216e-06
-2.65977e-06
-1.20211e-06
-3.2687e-06
-6.59062e-07
-2.31045e-08
1.23478e-06
1.75761e-06
9.3749e-07
-9.92656e-07
-6.25176e-07
-2.8157e-06
-7.53725e-07
-1.9255e-06
-6.97734e-07
-1.77277e-06
-7.44183e-07
-2.46682e-06
-1.50152e-06
-1.37176e-06
-1.29354e-06
-3.11104e-07
-4.66943e-08
1.49014e-06
9.14693e-07
2.75701e-06
1.84522e-06
1.13825e-06
1.07325e-06
-2.1879e-06
-9.29168e-08
-3.00345e-06
1.14773e-06
3.38783e-07
1.4958e-06
-1.12275e-06
-1.80543e-06
-6.99394e-07
1.94382e-07
-7.41689e-07
-3.36761e-07
-3.98726e-07
-4.35156e-07
-4.73791e-07
-6.96273e-08
-4.46822e-07
6.01401e-07
1.13621e-07
9.22242e-08
-8.03856e-07
-5.10304e-07
-2.96515e-07
6.50669e-07
4.41406e-08
9.04318e-07
-2.23009e-07
4.90046e-07
-7.32223e-07
-6.05775e-07
-1.05464e-06
-2.67688e-08
-1.68261e-07
8.97868e-07
3.17997e-07
3.4467e-07
-4.48405e-07
-9.68401e-08
-9.99996e-07
-3.11657e-07
-7.93789e-07
-4.86068e-07
-6.30916e-07
-1.11729e-06
-7.58649e-07
-1.53206e-06
-4.63853e-07
-1.20471e-06
2.72173e-08
-1.52463e-07
4.48211e-07
9.59867e-07
7.68545e-07
1.54861e-06
2.24879e-07
7.77246e-07
-5.37457e-07
1.0155e-07
-8.19302e-07
8.05916e-07
-3.791e-08
7.7805e-07
-4.38177e-07
-8.31148e-07
-5.48658e-07
2.96184e-07
-2.29424e-07
-3.17636e-07
-2.30431e-07
1.92076e-07
9.46856e-08
-2.03469e-07
3.70483e-07
5.32282e-07
5.60786e-07
6.12183e-08
2.33148e-07
4.96357e-07
4.21475e-08
-2.02876e-07
-3.90917e-07
-4.70087e-07
-6.42644e-07
-7.75721e-07
-4.82619e-07
-2.78815e-08
3.99234e-07
5.93307e-07
3.84654e-07
2.55629e-07
5.26355e-07
5.36134e-07
3.11835e-10
-1.6484e-10
6.24023e-10
-1.26671e-10
1.91771e-11
1.91251e-10
2.53243e-07
-5.662e-06
7.09109e-06
4.70988e-06
4.48858e-06
4.7294e-06
)
;

boundaryField
{
    top_fluid_surface
    {
        type            calculated;
        value           nonuniform List<scalar> 
64
(
0
1.23638e-10
0
3.0049e-10
7.88808e-11
0
3.58007e-10
0
0
0
0
0
3.22427e-11
2.73523e-11
6.23104e-10
0
2.99615e-11
3.2073e-10
2.01898e-10
2.39833e-10
2.42504e-10
0
2.79067e-10
4.73277e-11
0
0
0
0
2.0752e-10
1.43374e-10
0
0
4.39915e-10
3.00525e-10
5.76443e-10
4.62185e-10
2.97107e-10
1.70662e-10
0
0
4.1657e-10
2.42501e-10
0
0
5.52294e-10
3.73285e-10
3.79443e-10
7.44657e-10
1.05249e-10
0
2.22437e-10
1.02887e-10
0
2.97552e-10
5.42312e-10
3.99648e-10
9.15373e-11
0
0
4.67792e-10
3.2882e-10
5.8165e-10
4.24196e-10
3.97944e-10
)
;
    }
    bottom_fluid_surface
    {
        type            calculated;
        value           uniform 0;
    }
    lateral_surface_1
    {
        type            calculated;
        value           uniform 0;
    }
    lateral_surface_2
    {
        type            calculated;
        value           uniform 0;
    }
    lateral_surface_3
    {
        type            calculated;
        value           uniform 0;
    }
    lateral_surface_4
    {
        type            calculated;
        value           uniform 0;
    }
}


// ************************************************************************* //
