/*--------------------------------*- C++ -*----------------------------------*\
| =========                 |                                                 |
| \\      /  F ield         | OpenFOAM: The Open Source CFD Toolbox           |
|  \\    /   O peration     | Version:  v1612+                                |
|   \\  /    A nd           | Web:      www.OpenFOAM.com                      |
|    \\/     M anipulation  |                                                 |
\*---------------------------------------------------------------------------*/
FoamFile
{
    version     2.0;
    format      ascii;
    class       volScalarField;
    location    "1.65";
    object      alpha.water;
}
// * * * * * * * * * * * * * * * * * * * * * * * * * * * * * * * * * * * * * //

dimensions      [0 0 0 0 0 0 0];

internalField   nonuniform List<scalar> 
320
(
1
1
1
1
4.18085e-06
4.68083e-06
4.43085e-06
4.02524e-06
4.2587e-06
4.53272e-06
3.79162e-06
4.37397e-06
5.52565e-06
3.67773e-06
4.1208e-06
4.91134e-06
0.999995
0.999993
0.999996
0.999998
0.999998
0.999996
0.999995
0.999999
0.999996
0.999997
0.999994
1
1
1
1
1
1
1
1
1
1
1
1
1
1
1
1
1
1
1
1
1
1
1
1
1
1
1
1
1
4.07333e-06
3.99707e-06
3.15489e-06
4.2573e-06
3.647e-06
5.07026e-06
4.03405e-06
3.63914e-06
3.38041e-06
3.99234e-06
5.21192e-06
3.75749e-06
4.67194e-06
4.92433e-06
3.50264e-06
3.88097e-06
5.21207e-06
3.97878e-06
5.32972e-06
5.01939e-06
1
0.999998
0.999996
0.999995
0.999999
0.999998
1
1
0.999998
0.999993
0.999998
0.999997
0.999997
0.999997
0.999992
0.999995
0.999997
1
0.999998
0.999994
1
1
1
1
1
1
1
1
1
1
1
1
1
1
1
1
1
1
1
1
1
1
1
1
1
1
1
1
1
1
1
1
1
1
1
1
1
1
1
1
1
1
1
1
1
1
1
1
1
1
1
1
1
1
1
1
1
1
1
1
1
1
1
1
1
1
1
1
1
1
1
1
1
1
1
1
3.44371e-06
3.74505e-06
2.98942e-06
3.5357e-06
4.09768e-06
4.21946e-06
4.5679e-06
4.52582e-06
4.10256e-06
4.1511e-06
4.2178e-06
4.90152e-06
3.3064e-06
3.6946e-06
3.46309e-06
2.95825e-06
4.12442e-06
4.86616e-06
3.51968e-06
3.74517e-06
4.55532e-06
2.92892e-06
3.12926e-06
3.69642e-06
4.00107e-06
3.90795e-06
4.67314e-06
2.88005e-06
0.999995
0.999997
0.999993
0.999997
0.999998
0.999997
0.999995
0.999994
0.999998
0.999994
0.999989
0.999993
0.999999
0.999996
0.99999
0.999996
0.999996
0.999995
0.999995
0.999993
0.999992
0.999995
0.999996
0.999994
0.999993
0.999996
0.999993
0.999994
1
1
1
1
1
1
1
1
1
1
1
1
1
1
1
1
1
1
1
1
1
1
1
1
1
1
1
1
1
1
1
1
1
1
1
1
1
1
1
1
1
1
1
1
1
1
1
1
1
1
1
1
1
1
1
1
1
1
1
1
1
1
1
1
1
1
1
1
1
1
1
1
1
1
1
1
1
1
1
1
1
1
1
1
2.79579e-06
2.79579e-06
3.03875e-06
3.58614e-06
0.999994
0.999997
0.999997
0.999999
)
;

boundaryField
{
    top_fluid_surface
    {
        type            inletOutlet;
        inletValue      uniform 0;
        value           nonuniform List<scalar> 
64
(
0
4.68083e-06
0
4.02524e-06
4.2587e-06
0
3.79162e-06
0
0
0
0
0
4.07333e-06
3.99707e-06
3.15489e-06
0
3.647e-06
5.07026e-06
4.03405e-06
3.63914e-06
3.38041e-06
0
5.21192e-06
3.75749e-06
0
0
0
0
5.21207e-06
3.97878e-06
0
0
3.44371e-06
3.74505e-06
2.98942e-06
3.5357e-06
4.09768e-06
4.21946e-06
0
0
4.10256e-06
4.1511e-06
0
0
3.3064e-06
3.6946e-06
3.46309e-06
2.95825e-06
4.12442e-06
0
3.51968e-06
3.74517e-06
0
2.92892e-06
3.12926e-06
3.69642e-06
4.00107e-06
0
0
2.88005e-06
2.79579e-06
2.79579e-06
3.03875e-06
3.58614e-06
)
;
    }
    bottom_fluid_surface
    {
        type            zeroGradient;
    }
    lateral_surface_1
    {
        type            zeroGradient;
    }
    lateral_surface_2
    {
        type            zeroGradient;
    }
    lateral_surface_3
    {
        type            zeroGradient;
    }
    lateral_surface_4
    {
        type            zeroGradient;
    }
}


// ************************************************************************* //
