/*--------------------------------*- C++ -*----------------------------------*\
| =========                 |                                                 |
| \\      /  F ield         | OpenFOAM: The Open Source CFD Toolbox           |
|  \\    /   O peration     | Version:  v1612+                                |
|   \\  /    A nd           | Web:      www.OpenFOAM.com                      |
|    \\/     M anipulation  |                                                 |
\*---------------------------------------------------------------------------*/
FoamFile
{
    version     2.0;
    format      ascii;
    class       surfaceScalarField;
    location    "8.3";
    object      alphaPhi;
}
// * * * * * * * * * * * * * * * * * * * * * * * * * * * * * * * * * * * * * //

dimensions      [0 3 -1 0 0 0 0];

internalField   nonuniform List<scalar> 
816
(
-2.51481e-06
-9.41418e-06
5.58326e-06
-1.28308e-05
-1.67197e-05
3.5888e-05
7.08592e-06
2.0366e-06
-1.14101e-05
1.00272e-06
-1.23265e-06
-8.69848e-06
2.15652e-06
2.22715e-06
4.66412e-06
-9.75498e-06
-9.06216e-06
6.28876e-06
2.38485e-07
9.20711e-07
1.19907e-09
-1.54753e-09
-2.66396e-06
-1.53069e-09
1.80634e-09
4.57886e-09
-3.07913e-07
4.01966e-09
-1.92355e-09
-7.3962e-10
-2.08404e-06
1.089e-09
5.92062e-09
1.19294e-10
1.35024e-06
3.2793e-09
-2.02386e-09
3.83297e-09
-2.6012e-06
5.49411e-09
-2.07836e-09
2.66872e-09
4.06222e-07
7.63414e-10
5.31282e-09
3.91948e-09
-3.81059e-07
7.68751e-09
-2.27499e-09
8.66353e-09
-2.79547e-06
3.12311e-09
-2.00066e-09
5.31525e-10
6.49192e-07
5.56407e-09
5.64909e-09
4.60619e-10
-1.63432e-06
2.42924e-09
-5.25192e-09
-5.2328e-09
8.29799e-11
5.94109e-10
-7.92354e-09
-7.02218e-06
-4.82801e-09
-2.30417e-09
1.88761e-05
1.50098e-06
-3.18177e-05
-3.73767e-06
1.23589e-05
3.25894e-05
-3.58926e-05
1.228e-05
1.01567e-05
1.56212e-06
-4.63537e-06
-1.10556e-07
3.45063e-05
-3.37073e-06
2.37371e-05
1.58137e-06
-1.09261e-05
8.63403e-06
-1.686e-05
8.10419e-06
-1.17282e-05
4.37089e-06
-2.4434e-05
6.7469e-06
2.35015e-05
8.53312e-06
-3.26533e-05
1.11345e-05
1.27939e-05
1.86552e-05
-8.17719e-06
-8.1306e-06
-1.2094e-06
9.15514e-06
-4.74721e-05
2.42657e-05
3.58569e-05
2.36996e-05
-3.21744e-05
1.11135e-05
2.14618e-06
-6.75197e-06
5.69174e-05
7.49176e-06
-2.8486e-05
-2.39255e-05
-5.30406e-07
7.15113e-06
-1.31852e-05
3.98948e-06
-1.59185e-05
-1.11891e-06
-2.02784e-05
-1.53708e-05
-1.13851e-05
8.59387e-07
-1.99337e-06
-1.41076e-06
-2.23519e-05
5.07041e-06
1.03575e-05
-2.26007e-06
-5.41698e-06
-7.60573e-06
-7.85844e-06
3.74996e-06
-1.26568e-05
-6.89737e-06
-1.40621e-05
-1.03943e-06
-1.56398e-05
-5.97541e-06
-9.8268e-06
-3.58187e-06
6.33704e-06
-5.40558e-06
-2.19115e-05
-1.09194e-05
-1.90777e-05
-1.48541e-05
-1.4117e-05
-6.40503e-06
6.71091e-06
2.44682e-05
-1.94226e-06
-1.13232e-05
-5.01047e-07
-1.38105e-06
-1.90369e-06
-5.52929e-06
3.11687e-06
-6.72825e-06
-5.67367e-06
4.15517e-06
9.26272e-07
-7.88954e-06
1.94242e-06
-4.30658e-06
1.59431e-06
1.25071e-06
5.93584e-07
-5.23066e-06
2.90182e-06
2.40531e-06
-7.25106e-06
1.52908e-06
-1.473e-06
-5.55916e-06
-1.17179e-05
-7.3058e-06
-2.64022e-06
6.89986e-07
-1.68592e-06
-1.2339e-05
-3.58103e-07
4.27455e-06
-1.71861e-06
6.23325e-07
-2.2938e-06
-4.11764e-06
-2.12412e-06
2.00543e-06
-4.84934e-06
-7.98998e-06
-4.10703e-06
-7.74333e-07
-3.79503e-06
-6.18023e-06
-4.91365e-06
4.2862e-06
-2.09911e-06
-2.82601e-06
-6.83559e-06
-1.06738e-05
-6.52861e-06
-8.30562e-06
-3.34257e-06
-4.05792e-06
3.05549e-06
-6.45131e-07
7.01912e-06
-1.03694e-06
-1.284e-06
-4.42856e-06
-7.97976e-10
-6.11476e-10
8.83712e-05
-2.78776e-09
2.65121e-09
2.20869e-07
-2.08364e-09
2.16646e-09
3.68734e-10
7.67975e-10
3.3747e-09
-0.000127597
-5.02196e-10
9.2358e-10
7.67304e-07
-5.37251e-09
-4.70848e-09
-1.25039e-09
-2.16268e-06
-6.56378e-09
-4.39536e-09
-3.14089e-06
-5.15323e-09
-8.72383e-09
-2.45436e-06
-6.08211e-09
-4.54764e-09
5.91001e-07
-1.63584e-09
8.53416e-09
-0.000122874
-1.12835e-08
-4.43615e-09
4.07313e-09
-3.2957e-07
-3.78128e-09
-1.85107e-09
-1.79449e-06
-3.74977e-09
4.87401e-09
-6.65789e-06
-1.57412e-10
1.62331e-09
-1.78523e-07
-1.92472e-09
4.87176e-10
9.21354e-11
-7.69102e-09
-7.97899e-09
-3.35976e-09
1.45978e-06
-5.60733e-09
-7.94942e-09
3.88509e-07
-5.48564e-09
-7.51955e-09
-1.9213e-06
-6.8573e-09
-3.76741e-09
3.92965e-05
-5.16223e-09
8.415e-11
-6.83421e-09
-6.59906e-09
-2.27638e-05
5.81218e-06
1.64249e-06
-2.33773e-08
6.81229e-06
-2.88047e-05
-4.55264e-06
1.00181e-05
3.02499e-06
1.69109e-05
6.84647e-06
-1.38249e-06
1.12766e-05
2.27776e-05
6.15395e-05
-3.47947e-05
-3.65561e-05
1.18467e-06
7.39322e-05
-1.82693e-05
-2.03096e-05
6.75817e-05
-4.38902e-05
-5.33252e-05
8.9831e-05
-5.25035e-05
-3.19725e-05
-6.46046e-06
-5.89279e-06
3.84129e-05
-8.04396e-06
-2.37357e-05
-1.9292e-05
3.17902e-06
7.56988e-05
-1.40274e-05
-2.94864e-05
7.15935e-05
-3.69939e-05
9.71347e-06
-5.30454e-05
-4.48479e-06
1.76124e-06
4.76949e-05
-1.85742e-05
2.60245e-05
4.95608e-05
-4.58262e-05
-3.04103e-05
-3.28518e-06
6.38962e-05
1.17975e-06
-2.69064e-05
6.68198e-05
-2.36469e-05
-1.53132e-05
1.22194e-05
-1.85908e-05
-5.63466e-06
-1.21799e-05
-8.40458e-06
5.60382e-05
-2.60989e-05
-3.38072e-05
5.81015e-06
-2.35793e-06
1.26003e-06
-4.0759e-06
-9.36612e-06
-1.34063e-05
-1.27915e-06
-9.14854e-06
3.02907e-06
-1.1609e-05
-6.46519e-06
-1.9557e-07
-5.27504e-06
-1.02351e-05
2.88394e-05
1.98514e-05
1.65891e-05
1.89451e-06
3.33479e-05
6.11797e-06
1.21375e-05
3.00328e-05
2.50542e-05
2.69036e-05
4.01596e-05
2.70501e-05
1.41307e-05
-2.73412e-06
2.16192e-06
-1.55043e-05
-2.08018e-06
1.29653e-05
1.06655e-05
5.85174e-06
3.2902e-05
7.39494e-06
2.01645e-05
3.22386e-05
1.90626e-05
-4.61769e-06
-2.385e-05
1.94888e-06
-1.7741e-06
2.18343e-05
1.20387e-05
-1.55082e-05
2.20982e-05
2.5671e-05
1.5508e-05
1.40106e-06
2.74842e-05
3.60345e-07
1.58627e-05
2.93296e-05
1.65869e-05
1.0945e-05
6.15856e-06
9.05715e-06
-3.29692e-07
-5.06562e-06
2.81545e-06
2.52785e-05
1.0083e-05
1.7964e-05
3.08352e-06
-1.00415e-06
1.22747e-06
-2.95855e-06
-5.66745e-06
-4.3574e-06
-1.69905e-06
-5.81591e-06
3.13075e-06
-7.25437e-06
-3.32895e-06
-6.82817e-07
-3.6959e-06
-4.96001e-06
9.80943e-06
1.09366e-05
9.72398e-06
1.04592e-06
1.2405e-05
2.60839e-06
6.79861e-06
9.80616e-06
1.27453e-05
1.45805e-05
1.32557e-05
1.49943e-05
7.61755e-06
-7.75012e-07
1.58643e-07
-8.26441e-06
1.40922e-06
6.85759e-06
5.5413e-06
3.55847e-06
9.43196e-06
3.68889e-06
1.15445e-05
1.04751e-05
9.98505e-06
-3.24177e-06
-5.62414e-06
8.9637e-07
-1.09316e-06
6.73901e-06
6.10632e-06
-8.30263e-06
6.51834e-06
1.38166e-05
8.97554e-06
6.6924e-07
8.67844e-06
-8.93435e-07
8.33378e-06
9.14547e-06
9.18331e-06
5.25439e-06
2.78551e-06
5.82522e-06
-7.51963e-07
-1.61652e-06
1.28203e-06
6.65419e-06
5.85945e-06
1.10166e-05
-1.73008e-06
-2.80688e-06
1.64658e-06
-2.74131e-06
3.45163e-06
-8.15636e-07
-2.40626e-06
-4.93008e-06
4.54961e-07
2.2929e-06
-3.30491e-06
4.25982e-06
-6.78011e-06
3.04957e-06
-1.48073e-07
-6.45943e-06
-3.77255e-06
6.59781e-07
-3.52532e-07
-7.12453e-06
8.54988e-07
-1.98905e-06
-1.04961e-06
-3.51673e-06
1.53035e-06
-2.91418e-06
-3.75942e-06
2.37362e-07
-6.31461e-07
-2.61548e-06
1.24204e-06
-2.62874e-06
-1.84884e-06
-4.67115e-06
-4.07023e-06
-2.8735e-07
9.69233e-07
-7.33391e-07
-1.49105e-06
1.10832e-06
5.69862e-08
7.69499e-07
-1.03886e-06
-4.31899e-06
-9.19427e-08
-2.35733e-06
-2.58716e-06
-2.5145e-06
-8.72016e-07
-1.46985e-06
4.00141e-06
4.77678e-06
1.97132e-06
1.83008e-06
4.23192e-06
5.54173e-06
8.03672e-06
5.92344e-06
3.6671e-06
6.76428e-07
-1.93225e-06
3.04295e-06
3.96652e-06
2.31783e-06
1.44653e-06
6.40906e-06
5.74298e-06
4.8095e-07
1.55212e-06
8.54375e-07
4.4903e-06
-3.79043e-06
6.47479e-06
4.57248e-06
-1.66696e-07
3.52615e-07
3.85411e-06
4.8121e-06
3.57396e-06
2.34221e-06
6.89849e-07
2.38803e-06
3.03378e-06
5.11236e-06
6.24258e-09
-9.66338e-09
-4.71514e-06
4.63453e-09
2.90607e-06
4.58238e-09
1.43557e-06
8.25756e-10
9.24555e-11
-6.66808e-11
-3.01958e-06
-6.39009e-09
-2.78874e-06
4.60761e-09
2.6108e-06
3.54072e-10
9.5064e-07
-1.45732e-09
1.49519e-06
-6.61817e-10
-5.65724e-06
-2.84196e-09
-1.88957e-06
-1.02788e-09
1.02073e-07
9.41924e-10
1.63203e-06
7.73266e-10
-3.79728e-06
2.20006e-09
2.7563e-06
6.32371e-09
2.64125e-07
3.37216e-09
-3.76619e-06
4.14095e-09
-2.92019e-06
2.06721e-10
-1.02151e-05
-3.46431e-09
-2.12503e-05
1.19481e-09
5.31166e-08
-1.58669e-09
-3.37276e-05
-2.16752e-09
-1.64214e-05
-4.85414e-09
-9.94895e-05
-6.54596e-09
-8.95218e-06
-6.09119e-09
-2.37139e-06
-9.46171e-09
-3.27866e-06
-5.00752e-06
1.27619e-05
-2.38943e-05
-6.39311e-06
6.59515e-06
1.01263e-05
2.94573e-05
-1.51621e-05
3.46579e-06
5.16194e-05
-2.69794e-05
3.49101e-05
-4.72504e-05
-1.84276e-05
3.33936e-05
-6.44181e-05
2.01904e-05
-1.79668e-05
-1.7369e-05
3.30067e-05
-1.21756e-05
-5.72913e-05
1.02496e-05
-7.42e-05
1.55068e-05
-1.12261e-05
1.57316e-05
-1.61266e-05
-1.67966e-05
2.78114e-05
-3.87503e-06
-2.13666e-05
6.02898e-07
-1.32953e-05
1.97405e-06
-4.01287e-05
3.32825e-06
-1.02658e-05
-1.02116e-05
-1.42842e-05
-1.32311e-05
-3.95853e-05
3.07483e-05
-5.31363e-05
1.19143e-05
-4.9126e-06
-4.58844e-06
1.77776e-05
-1.34331e-06
-3.58778e-05
-1.02236e-05
-4.97423e-06
-1.88071e-05
-2.06501e-06
-1.77789e-05
-3.42745e-05
-4.78619e-05
-9.53307e-06
1.71718e-05
-3.93301e-06
-8.08819e-06
4.63952e-06
-1.77993e-05
-6.72107e-06
-1.95357e-06
2.41328e-05
1.19803e-05
1.57148e-05
2.02255e-05
-6.80117e-06
-1.60068e-05
-2.82358e-05
-7.95838e-06
-9.43253e-06
1.62772e-05
1.4869e-05
7.52664e-06
-2.34718e-05
-7.00039e-06
-3.26371e-05
-1.08282e-05
-5.24101e-06
-7.09033e-06
-6.89829e-06
7.84053e-06
1.29127e-05
6.8253e-06
-9.73356e-06
6.44088e-06
-5.52217e-06
2.87002e-06
-1.7481e-05
7.37498e-07
-6.15574e-06
5.52559e-06
-7.03323e-06
8.89789e-06
-1.73166e-05
-1.97416e-05
-2.45159e-05
-6.53694e-06
-2.62471e-06
2.84538e-06
8.78337e-06
-4.174e-07
-1.60748e-05
6.42642e-06
-2.77815e-06
9.45815e-06
-2.27459e-06
9.41128e-06
-1.62745e-05
-2.1225e-05
-5.38967e-06
9.0537e-06
-1.70479e-06
-5.12615e-06
1.43759e-06
-1.03101e-05
-3.20443e-06
-1.23331e-06
7.82127e-06
7.478e-06
3.32318e-06
1.13572e-05
2.69528e-07
-8.64108e-06
-8.23835e-06
-4.87839e-06
-3.47827e-06
8.70832e-06
3.9019e-06
5.22064e-06
-7.24234e-06
-4.00668e-06
-8.42089e-06
-6.29238e-06
-2.80774e-06
-4.79295e-06
-1.55357e-06
5.4067e-06
2.75328e-06
4.39498e-06
-3.17352e-06
3.68933e-06
-1.13956e-06
1.98095e-06
-5.81352e-06
2.97052e-07
-3.57161e-06
3.2162e-06
-3.84956e-06
5.02992e-06
-5.03501e-06
-1.10408e-05
-8.44972e-06
-3.90808e-06
-8.7922e-07
2.37613e-06
1.60764e-06
1.35092e-07
-4.69598e-06
2.91126e-06
2.91292e-07
4.74243e-06
-2.77409e-06
4.22466e-06
-4.73422e-06
-7.92716e-06
-4.01451e-06
5.35413e-06
-3.63392e-06
-6.92305e-06
-1.68692e-06
7.666e-07
5.04483e-06
-3.17162e-06
-1.88106e-06
3.8442e-06
2.14413e-06
-3.43644e-07
-2.46703e-06
-1.01363e-06
1.72946e-06
2.523e-06
2.83656e-06
2.75241e-06
7.08385e-07
1.2687e-06
2.73182e-06
-5.75399e-06
-2.11825e-06
-1.86854e-07
-9.21715e-08
2.53937e-06
2.15341e-06
2.53242e-06
-4.17037e-09
3.9526e-09
-7.87295e-08
-1.92954e-09
-1.24693e-06
-2.72003e-09
2.26383e-06
-4.19827e-06
-5.50052e-07
2.31024e-05
-9.4504e-06
1.67094e-05
)
;

boundaryField
{
    top_fluid_surface
    {
        type            calculated;
        value           nonuniform List<scalar> 
64
(
1.05792e-11
0
0
0
0
0
0
0
0
2.51477e-09
1.04057e-08
1.42492e-09
0
0
3.09929e-09
4.32486e-10
1.01418e-08
1.18588e-08
1.03704e-08
1.19228e-08
0
8.86797e-10
1.06877e-08
1.37594e-08
0
8.59018e-09
1.21081e-08
1.13487e-08
1.0947e-08
4.88406e-09
0
7.20007e-09
0
0
0
4.16373e-09
3.99512e-10
2.10024e-10
0
0
0
0
0
0
0
2.11116e-10
0
0
0
0
2.35701e-09
0
0
3.7794e-10
0
5.70943e-10
0
0
0
0
0
0
0
0
)
;
    }
    bottom_fluid_surface
    {
        type            calculated;
        value           uniform 0;
    }
    lateral_surface_1
    {
        type            calculated;
        value           uniform 0;
    }
    lateral_surface_2
    {
        type            calculated;
        value           uniform 0;
    }
    lateral_surface_3
    {
        type            calculated;
        value           uniform 0;
    }
    lateral_surface_4
    {
        type            calculated;
        value           uniform 0;
    }
}


// ************************************************************************* //
