/*--------------------------------*- C++ -*----------------------------------*\
| =========                 |                                                 |
| \\      /  F ield         | OpenFOAM: The Open Source CFD Toolbox           |
|  \\    /   O peration     | Version:  v1612+                                |
|   \\  /    A nd           | Web:      www.OpenFOAM.com                      |
|    \\/     M anipulation  |                                                 |
\*---------------------------------------------------------------------------*/
FoamFile
{
    version     2.0;
    format      ascii;
    class       volScalarField;
    location    "2.85";
    object      p;
}
// * * * * * * * * * * * * * * * * * * * * * * * * * * * * * * * * * * * * * //

dimensions      [1 -1 -2 0 0 0 0];

internalField   nonuniform List<scalar> 
1116
(
9591.43
9591.45
9591.44
9591.43
9591.42
9591.41
8988.1
8988.12
8988.1
8988.09
8988.09
8988.08
8313.66
8313.68
8313.66
8313.65
8313.65
8313.64
8273.43
8273.45
8273.43
8273.42
8273.42
8273.41
8741.52
8741.53
8741.53
8741.52
8741.52
8741.5
9339.91
9339.92
9339.91
9339.91
9339.91
9339.89
9904.37
9904.38
9904.37
9904.36
9904.37
9904.35
10957.5
10957.5
10957.5
10957.4
10957.4
10957.5
12876.6
12876.6
12876.6
12876.6
12876.6
12876.6
15919.1
15919.1
15919.1
15919.1
15919.1
15919.1
20291.3
20291.3
20291.3
20291.3
20291.3
20291.3
23442.5
23442.5
23442.5
23442.5
23442.5
23442.5
2104.62
2104.62
2104.61
2104.61
2104.61
2104.6
1184.86
1184.85
1184.85
1184.84
1184.83
1184.85
1075.23
1075.23
1075.23
1075.22
1075.21
1075.22
1280.97
1280.96
1280.96
1280.95
1280.94
1280.95
1660.35
1660.34
1660.35
1660.35
1660.33
1660.34
2015.15
2015.16
2015.17
2015.17
2015.15
2015.15
2133.82
2133.81
2133.82
2133.82
2133.81
2133.8
2068.26
2068.25
2068.26
2068.25
2068.25
2068.24
2102
2101.99
2101.99
2101.99
2102
2102.02
4191.57
4191.62
4191.62
4191.62
4191.64
4191.67
11389.6
11389.5
11389.5
11389.6
11389.5
11389.6
17397.4
17397.7
17397.6
17397.6
17397.7
17397.5
-23.3043
-23.304
-23.3042
-23.3041
-23.3039
-23.3043
-18.1154
-18.1151
-18.1153
-18.1154
-18.1151
-18.1155
-19.8091
-19.8089
-19.809
-19.8089
-19.8086
-19.8089
-26.2542
-26.2537
-26.254
-26.254
-26.2537
-26.2542
-38.0505
-38.05
-38.0502
-38.0502
-38.0501
-38.0507
-49.4567
-49.4563
-49.4561
-49.456
-49.4559
-49.4563
-56.0385
-56.039
-56.0387
-56.0389
-56.0388
-56.0381
26.6346
26.6339
26.6344
26.6338
26.6327
26.634
195.103
195.104
195.105
195.105
195.105
195.107
514.076
514.114
514.114
514.106
514.108
514.11
2113.43
2113.31
2113.33
2113.36
2113.31
2113.42
9784.12
9784.4
9784.29
9784.33
9784.36
9784.1
-28.3438
-28.3437
-28.3437
-28.3438
-28.3439
-28.3439
-25.4172
-25.417
-25.417
-25.4171
-25.4171
-25.4171
-26.1261
-26.126
-26.1262
-26.1262
-26.1261
-26.126
-28.3352
-28.3351
-28.3353
-28.3353
-28.3351
-28.3353
-34.0311
-34.031
-34.0312
-34.0313
-34.0311
-34.0316
-43.148
-43.1481
-43.1483
-43.1483
-43.1483
-43.1489
-53.8761
-53.876
-53.8764
-53.8768
-53.8771
-53.8778
-56.4331
-56.433
-56.4331
-56.4333
-56.4338
-56.4347
-36.6913
-36.6936
-36.6951
-36.6962
-36.6978
-36.6932
-8.89175
-8.89616
-8.8956
-8.89567
-8.90016
-8.89797
192.576
192.593
192.592
192.592
192.58
192.558
1451.62
1451.77
1451.69
1451.7
1451.75
1451.46
-4.75631
-4.75631
-4.75631
-4.75631
-4.75631
-4.75631
-4.74751
-4.74752
-4.74752
-4.74751
-4.74751
-4.74751
-4.72948
-4.72949
-4.72949
-4.72948
-4.72948
-4.72947
-4.70126
-4.70126
-4.70126
-4.70125
-4.70124
-4.70123
-4.66142
-4.66141
-4.6614
-4.66138
-4.66136
-4.66135
-4.60766
-4.60764
-4.60761
-4.60758
-4.60755
-4.60752
-4.53715
-4.5371
-4.53705
-4.537
-4.53696
-4.53694
-4.45325
-4.45317
-4.45312
-4.45308
-4.45307
-4.45308
-4.35948
-4.35941
-4.35942
-4.3595
-4.3596
-4.35971
-4.2597
-4.25968
-4.25979
-4.26007
-4.26041
-4.26073
-4.16841
-4.16855
-4.16876
-4.16902
-4.16927
-4.16948
-4.06903
-4.06914
-4.06921
-4.06926
-4.06928
-4.06931
-14.5746
-14.5746
-14.5746
-14.5746
-14.5746
-14.5746
-14.5661
-14.5661
-14.5661
-14.5661
-14.5661
-14.5661
-14.5487
-14.5487
-14.5486
-14.5486
-14.5486
-14.5486
-14.5215
-14.5215
-14.5215
-14.5215
-14.5215
-14.5215
-14.484
-14.484
-14.484
-14.484
-14.4839
-14.4839
-14.4379
-14.4378
-14.4378
-14.4377
-14.4377
-14.4377
-14.3895
-14.3894
-14.3893
-14.3893
-14.3892
-14.3892
-14.3321
-14.3321
-14.332
-14.3321
-14.3321
-14.3322
-14.2584
-14.2584
-14.2585
-14.2587
-14.2589
-14.2591
-14.1711
-14.1713
-14.1716
-14.1718
-14.172
-14.1721
-14.0832
-14.0835
-14.0837
-14.0839
-14.084
-14.0841
-13.978
-13.978
-13.9779
-13.9776
-13.9774
-13.9771
-24.4008
-24.4008
-24.4008
-24.4008
-24.4008
-24.4008
-24.393
-24.393
-24.393
-24.393
-24.393
-24.393
-24.3769
-24.3769
-24.3769
-24.3769
-24.3769
-24.3769
-24.3514
-24.3514
-24.3514
-24.3514
-24.3514
-24.3514
-24.3142
-24.3142
-24.3142
-24.3142
-24.3142
-24.3142
-24.2588
-24.2587
-24.2587
-24.2588
-24.2588
-24.2588
-24.1741
-24.1742
-24.1742
-24.1743
-24.1743
-24.1744
-24.0656
-24.0657
-24.0658
-24.066
-24.0662
-24.0663
-23.9365
-23.9367
-23.937
-23.9372
-23.9375
-23.9376
-23.7541
-23.7544
-23.7548
-23.7552
-23.7555
-23.7557
-23.6772
-23.6772
-23.6772
-23.6771
-23.677
-23.6768
-23.148
-23.1481
-23.1481
-23.148
-23.1478
-23.1479
-34.234
-34.234
-34.234
-34.234
-34.234
-34.234
-34.2273
-34.2273
-34.2273
-34.2273
-34.2273
-34.2273
-34.2138
-34.2138
-34.2137
-34.2137
-34.2137
-34.2137
-34.1927
-34.1927
-34.1927
-34.1927
-34.1927
-34.1927
-34.1643
-34.1642
-34.1642
-34.1642
-34.1643
-34.1643
-34.132
-34.132
-34.132
-34.132
-34.132
-34.132
-34.1
-34.1
-34.1
-34.1001
-34.1002
-34.1002
-34.0538
-34.0539
-34.054
-34.0541
-34.0543
-34.0544
-33.9748
-33.9749
-33.9751
-33.9752
-33.9754
-33.9754
-33.8398
-33.84
-33.8401
-33.8402
-33.8403
-33.8402
-33.6773
-33.6771
-33.6771
-33.6769
-33.6769
-33.6768
-33.5131
-33.5129
-33.513
-33.5131
-33.5135
-33.5137
-43.6745
-43.6745
-43.6746
-43.6746
-43.6747
-43.6747
-55.8962
-55.8962
-55.8962
-55.8963
-55.8963
-55.8963
-68.6045
-68.6046
-68.6045
-68.6045
-68.6045
-68.6044
-43.3766
-43.3766
-43.3767
-43.3768
-43.3768
-43.3768
-55.879
-55.879
-55.8791
-55.8791
-55.8791
-55.8791
-69.1255
-69.1256
-69.1256
-69.1255
-69.1255
-69.1254
-45.1489
-45.149
-45.149
-45.149
-45.149
-45.149
-56.0351
-56.0351
-56.0351
-56.0351
-56.0352
-56.0351
-69.5516
-69.5517
-69.5516
-69.5516
-69.5516
-69.5515
-47.6147
-47.6147
-47.6147
-47.6147
-47.6146
-47.6146
-57.6002
-57.6002
-57.6002
-57.6002
-57.6003
-57.6002
-70.9006
-70.9007
-70.9007
-70.9007
-70.9007
-70.9006
-50.6182
-50.6183
-50.6183
-50.6182
-50.6182
-50.6182
-59.1889
-59.1889
-59.1889
-59.1889
-59.189
-59.1889
-71.5004
-71.5006
-71.5006
-71.5006
-71.5006
-71.5005
-52.5233
-52.5235
-52.5236
-52.5235
-52.5233
-52.5232
-61.0168
-61.0169
-61.017
-61.017
-61.0169
-61.0169
-71.9116
-71.9117
-71.9117
-71.9117
-71.9117
-71.9116
-52.0353
-52.0353
-52.0356
-52.0355
-52.0353
-52.0352
-61.3705
-61.3705
-61.3706
-61.3705
-61.3703
-61.3701
-71.2709
-71.2709
-71.2709
-71.271
-71.2711
-71.2711
-46.4829
-46.4824
-46.4832
-46.4832
-46.4841
-46.4832
-58.4754
-58.4753
-58.4754
-58.4753
-58.4755
-58.475
-69.1495
-69.1497
-69.1497
-69.1498
-69.1501
-69.1498
-31.6513
-31.6521
-31.6531
-31.6536
-31.6556
-31.6558
-50.7316
-50.7316
-50.7319
-50.7319
-50.7321
-50.7337
-71.6226
-71.6225
-71.6225
-71.622
-71.6219
-71.6226
-43.0608
-43.0683
-43.0697
-43.068
-43.0688
-43.0723
-40.7351
-40.7357
-40.7368
-40.7353
-40.7397
-40.7335
-64.7945
-64.7925
-64.7935
-64.7913
-64.7947
-64.7917
-67.5898
-67.5794
-67.5828
-67.5875
-67.5674
-67.6209
-58.5944
-58.5942
-58.5906
-58.5876
-58.5934
-58.5693
-81.269
-81.2682
-81.2688
-81.2676
-81.2653
-81.2736
-145.116
-144.997
-145.073
-145.101
-144.262
-146.051
-152.917
-152.99
-152.947
-152.887
-152.908
-152.88
-127.658
-127.648
-127.656
-127.67
-127.674
-127.682
-40.4525
-40.4546
-40.4578
-40.4626
-40.4693
-40.4545
-61.6286
-61.6375
-61.6401
-61.6592
-61.6732
-61.6198
-65.2623
-65.26
-65.2617
-65.2511
-65.2452
-65.3038
-35.6817
-35.6837
-35.6852
-35.6884
-35.6852
-35.6876
-66.7392
-66.7528
-66.7491
-66.759
-66.7632
-66.731
-72.9312
-72.941
-72.9335
-72.9337
-72.9587
-72.9056
-16.2913
-16.2758
-16.2866
-16.283
-16.2749
-16.3444
-104.632
-104.647
-104.652
-104.665
-104.63
-104.629
-163.884
-164.11
-163.978
-164.115
-164.878
-163.215
-19.1433
-19.1167
-19.13
-19.114
-19.086
-19.2176
-1105.53
-1105.38
-1105.34
-1105.61
-1107.03
-1103.99
-1262.45
-1263.77
-1263.11
-1262.95
-1264.54
-1261.28
-252.389
-252.526
-252.553
-252.203
-251.301
-253.708
-445.607
-444.759
-445.422
-445.191
-445.385
-446.873
-499.04
-499.081
-499.102
-498.948
-498.775
-499.568
-3058.97
-3058.75
-3059.01
-3058.68
-3059.21
-3060.59
-282.258
-282.116
-282.242
-283.056
-285.001
-280.362
-259.819
-259.822
-259.832
-259.755
-259.657
-260.063
-44.0571
-44.0571
-44.0571
-44.0571
-44.0571
-44.0571
-53.9003
-53.9003
-53.9003
-53.9003
-53.9003
-53.9003
-63.7462
-63.7462
-63.7462
-63.7462
-63.7462
-63.7462
-44.052
-44.052
-44.052
-44.052
-44.052
-44.052
-53.8973
-53.8973
-53.8973
-53.8973
-53.8973
-53.8973
-63.7447
-63.7447
-63.7447
-63.7447
-63.7447
-63.7447
-44.0416
-44.0416
-44.0416
-44.0416
-44.0416
-44.0416
-53.8913
-53.8913
-53.8913
-53.8913
-53.8913
-53.8913
-63.7413
-63.7413
-63.7413
-63.7413
-63.7413
-63.7413
-44.0247
-44.0247
-44.0247
-44.0247
-44.0247
-44.0247
-53.883
-53.883
-53.883
-53.883
-53.883
-53.883
-63.7347
-63.7347
-63.7347
-63.7347
-63.7347
-63.7347
-43.9971
-43.9971
-43.9971
-43.9971
-43.9971
-43.9971
-53.8753
-53.8753
-53.8753
-53.8753
-53.8753
-53.8753
-63.7232
-63.7232
-63.7232
-63.7232
-63.7232
-63.7232
-43.9502
-43.9502
-43.9502
-43.9502
-43.9503
-43.9503
-53.8715
-53.8715
-53.8715
-53.8715
-53.8715
-53.8715
-63.7027
-63.7027
-63.7027
-63.7027
-63.7027
-63.7027
-43.8753
-43.8754
-43.8754
-43.8754
-43.8755
-43.8755
-53.8717
-53.8717
-53.8717
-53.8717
-53.8717
-53.8717
-63.6765
-63.6765
-63.6765
-63.6766
-63.6766
-63.6766
-43.7706
-43.7706
-43.7707
-43.7707
-43.7707
-43.7707
-53.8669
-53.8669
-53.8669
-53.8669
-53.8669
-53.8669
-63.6625
-63.6625
-63.6625
-63.6625
-63.6625
-63.6625
-43.6459
-43.646
-43.646
-43.6459
-43.6459
-43.6458
-53.8518
-53.8518
-53.8518
-53.8518
-53.8518
-53.8518
-63.6576
-63.6576
-63.6576
-63.6577
-63.6577
-63.6577
-43.1972
-43.1971
-43.197
-43.1969
-43.1968
-43.1967
-53.8399
-53.8399
-53.84
-53.84
-53.8401
-53.8402
-63.8476
-63.8477
-63.8478
-63.8479
-63.8483
-63.8479
-43.3606
-43.3606
-43.3608
-43.361
-43.3614
-43.3614
-54.149
-54.1493
-54.1496
-54.1502
-54.1503
-54.1506
-63.9255
-63.9256
-63.9258
-63.9268
-63.9269
-63.9297
-40.5803
-40.5809
-40.5817
-40.5841
-40.5839
-40.5867
-55.0076
-55.0085
-55.0099
-55.0125
-55.0131
-55.0112
-65.8909
-65.8911
-65.8909
-65.8875
-65.8943
-65.889
)
;

boundaryField
{
    seabed_topleft_surface
    {
        type            calculated;
        value           nonuniform List<scalar> 
72
(
14108.4
14108.4
14108.4
14108.4
14108.4
14108.4
13514.4
13514.3
13514.3
13514.3
13514.3
13514.3
12877
12877
12877
12877
12877
12877
12911.8
12911.8
12911.7
12911.7
12911.7
12911.7
13448.5
13448.5
13448.5
13448.5
13448.4
13448.4
14083.3
14083.3
14083.3
14083.3
14083.3
14083.3
14661.5
14661.5
14661.5
14661.5
14661.5
14661.5
15744.4
15744.4
15744.3
15744.3
15744.3
15744.3
17666.3
17666.3
17666.3
17666.3
17666.3
17666.3
20708.8
20708.8
20708.8
20708.8
20708.8
20708.8
25081
25081
25081
25081
25080.9
25081
28201.1
28201.1
28201.1
28201.1
28201.1
28201
)
;
    }
    seabed_topright_surface
    {
        type            calculated;
        value           nonuniform List<scalar> 
72
(
0.165549
0.165547
0.165546
0.165547
0.165547
0.165548
0.174342
0.17434
0.174339
0.174341
0.174343
0.174345
0.192373
0.192369
0.192371
0.192374
0.192378
0.192383
0.220593
0.220591
0.220596
0.220605
0.220614
0.220623
0.260437
0.260442
0.260456
0.260475
0.260493
0.260511
0.314195
0.314217
0.314246
0.31428
0.31431
0.314335
0.384701
0.384753
0.384803
0.384853
0.384893
0.38492
0.468602
0.468687
0.46874
0.468772
0.468783
0.46878
0.562373
0.562449
0.562432
0.56236
0.562256
0.562147
0.662156
0.662179
0.662063
0.661781
0.661445
0.66113
0.753442
0.753302
0.753093
0.752836
0.752586
0.752371
0.852824
0.852717
0.852647
0.852597
0.852571
0.852549
)
;
    }
    breakwater_top_surface
    {
        type            calculated;
        value           nonuniform List<scalar> 
36
(
-35.5475
-35.5496
-35.5528
-35.5576
-35.5643
-35.5495
-30.7765
-30.7785
-30.78
-30.7832
-30.78
-30.7824
-9.72881
-9.7084
-9.72306
-9.70701
-9.68657
-9.81113
80.8893
80.84
80.8559
81.1568
81.3845
80.7357
1772.09
1771.51
1771.19
1773.7
1778.99
1766.33
-600.09
-599.918
-600.192
-599.921
-600.507
-601.475
)
;
    }
    breakwater_left_surface
    {
        type            calculated;
        value           nonuniform List<scalar> 
24
(
23458.8
23458.8
23458.8
23458.8
23458.8
23458.8
17413.4
17413.6
17413.6
17413.6
17413.6
17413.5
9798.67
9798.94
9798.83
9798.88
9798.9
9798.64
1465.43
1465.58
1465.5
1465.51
1465.56
1465.27
)
;
    }
    breakwater_right_surface
    {
        type            calculated;
        value           nonuniform List<scalar> 
24
(
-4.05218
-4.05228
-4.05235
-4.0524
-4.05243
-4.05245
-13.9615
-13.9615
-13.9613
-13.9611
-13.9608
-13.9606
-23.1318
-23.1319
-23.1319
-23.1319
-23.1317
-23.1317
-33.4973
-33.497
-33.4971
-33.4972
-33.4976
-33.4978
)
;
    }
    water_front_surface
    {
        type            calculated;
        value           nonuniform List<scalar> 
186
(
9591.43
8988.1
8313.66
8273.43
8741.52
9339.91
9904.37
10957.5
12876.6
15919.1
20291.3
23442.5
2104.62
1184.86
1075.23
1280.97
1660.35
2015.15
2133.82
2068.26
2102
4191.57
11389.6
17397.4
-23.3043
-18.1154
-19.8091
-26.2542
-38.0505
-49.4567
-56.0385
26.6346
195.103
514.076
2113.43
9784.12
-28.3438
-25.4172
-26.1261
-28.3352
-34.0311
-43.148
-53.8761
-56.4331
-36.6913
-8.89175
192.576
1451.62
-4.75631
-4.74751
-4.72948
-4.70126
-4.66142
-4.60766
-4.53715
-4.45325
-4.35948
-4.2597
-4.16841
-4.06903
-14.5746
-14.5661
-14.5487
-14.5215
-14.484
-14.4379
-14.3895
-14.3321
-14.2584
-14.1711
-14.0832
-13.978
-24.4008
-24.393
-24.3769
-24.3514
-24.3142
-24.2588
-24.1741
-24.0656
-23.9365
-23.7541
-23.6772
-23.148
-34.234
-34.2273
-34.2138
-34.1927
-34.1643
-34.132
-34.1
-34.0538
-33.9748
-33.8398
-33.6773
-33.5131
-43.6745
-55.8962
-68.6045
-43.3766
-55.879
-69.1255
-45.1489
-56.0351
-69.5516
-47.6147
-57.6002
-70.9006
-50.6182
-59.1889
-71.5004
-52.5233
-61.0168
-71.9116
-52.0353
-61.3705
-71.2709
-46.4829
-58.4754
-69.1495
-31.6513
-50.7316
-71.6226
-43.0608
-40.7351
-64.7945
-67.5898
-58.5944
-81.269
-145.116
-152.917
-127.658
-40.4525
-61.6286
-65.2623
-35.6817
-66.7392
-72.9312
-16.2913
-104.632
-163.884
-19.1433
-1105.53
-1262.45
-252.389
-445.607
-499.04
-3058.97
-282.258
-259.819
-44.0571
-53.9003
-63.7462
-44.052
-53.8973
-63.7447
-44.0416
-53.8913
-63.7413
-44.0247
-53.883
-63.7347
-43.9971
-53.8753
-63.7232
-43.9502
-53.8715
-63.7027
-43.8753
-53.8717
-63.6765
-43.7706
-53.8669
-63.6625
-43.6459
-53.8518
-63.6576
-43.1972
-53.8399
-63.8476
-43.3606
-54.149
-63.9255
-40.5803
-55.0076
-65.8909
)
;
    }
    water_back_surface
    {
        type            calculated;
        value           nonuniform List<scalar> 
186
(
9591.41
8988.08
8313.64
8273.41
8741.5
9339.89
9904.35
10957.5
12876.6
15919.1
20291.3
23442.5
2104.6
1184.85
1075.22
1280.95
1660.34
2015.15
2133.8
2068.24
2102.02
4191.67
11389.6
17397.5
-23.3043
-18.1155
-19.8089
-26.2542
-38.0507
-49.4563
-56.0381
26.634
195.107
514.11
2113.42
9784.1
-28.3439
-25.4171
-26.126
-28.3353
-34.0316
-43.1489
-53.8778
-56.4347
-36.6932
-8.89797
192.558
1451.46
-4.75631
-4.74751
-4.72947
-4.70123
-4.66135
-4.60752
-4.53694
-4.45308
-4.35971
-4.26073
-4.16948
-4.06931
-14.5746
-14.5661
-14.5486
-14.5215
-14.4839
-14.4377
-14.3892
-14.3322
-14.2591
-14.1721
-14.0841
-13.9771
-24.4008
-24.393
-24.3769
-24.3514
-24.3142
-24.2588
-24.1744
-24.0663
-23.9376
-23.7557
-23.6768
-23.1479
-34.234
-34.2273
-34.2137
-34.1927
-34.1643
-34.132
-34.1002
-34.0544
-33.9754
-33.8402
-33.6768
-33.5137
-43.6747
-55.8963
-68.6044
-43.3768
-55.8791
-69.1254
-45.149
-56.0351
-69.5515
-47.6146
-57.6002
-70.9006
-50.6182
-59.1889
-71.5005
-52.5232
-61.0169
-71.9116
-52.0352
-61.3701
-71.2711
-46.4832
-58.475
-69.1498
-31.6558
-50.7337
-71.6226
-43.0723
-40.7335
-64.7917
-67.6209
-58.5693
-81.2736
-146.051
-152.88
-127.682
-40.4545
-61.6198
-65.3038
-35.6876
-66.731
-72.9056
-16.3444
-104.629
-163.215
-19.2176
-1103.99
-1261.28
-253.708
-446.873
-499.568
-3060.59
-280.362
-260.063
-44.0571
-53.9003
-63.7462
-44.052
-53.8973
-63.7447
-44.0416
-53.8913
-63.7413
-44.0247
-53.883
-63.7347
-43.9971
-53.8753
-63.7232
-43.9503
-53.8715
-63.7027
-43.8755
-53.8717
-63.6766
-43.7707
-53.8669
-63.6625
-43.6458
-53.8518
-63.6577
-43.1967
-53.8402
-63.8479
-43.3614
-54.1506
-63.9297
-40.5867
-55.0112
-65.889
)
;
    }
    water_left_surface
    {
        type            calculated;
        value           nonuniform List<scalar> 
42
(
9606.9
9606.92
9606.9
9606.9
9606.89
9606.88
2111.76
2111.77
2111.76
2111.75
2111.75
2111.74
-23.2881
-23.2879
-23.288
-23.2879
-23.2877
-23.2881
-28.3279
-28.3278
-28.3278
-28.3279
-28.328
-28.3281
-43.6745
-43.6745
-43.6746
-43.6746
-43.6747
-43.6747
-55.8962
-55.8962
-55.8962
-55.8963
-55.8963
-55.8963
-68.6045
-68.6046
-68.6045
-68.6045
-68.6045
-68.6044
)
;
    }
    water_right_surface
    {
        type            calculated;
        value           nonuniform List<scalar> 
42
(
-4.73945
-4.73945
-4.73945
-4.73945
-4.73945
-4.73945
-14.5581
-14.5581
-14.5581
-14.5581
-14.5581
-14.5581
-24.3846
-24.3846
-24.3846
-24.3846
-24.3846
-24.3846
-34.2181
-34.2181
-34.2181
-34.2181
-34.2181
-34.2181
-44.0571
-44.0571
-44.0571
-44.0571
-44.0571
-44.0571
-53.9003
-53.9003
-53.9003
-53.9003
-53.9003
-53.9003
-63.7462
-63.7462
-63.7462
-63.7462
-63.7462
-63.7462
)
;
    }
    water_top_surface
    {
        type            calculated;
        value           nonuniform List<scalar> 
180
(
-74.8634
-74.8638
-74.8637
-74.8636
-74.8637
-74.8632
-75.4074
-75.4079
-75.4077
-75.4077
-75.4077
-75.4072
-74.9947
-74.9951
-74.995
-74.995
-74.9951
-74.9946
-76.2634
-76.264
-76.264
-76.264
-76.2641
-76.2636
-75.9548
-75.9554
-75.9554
-75.9554
-75.9555
-75.955
-76.6453
-76.6457
-76.6457
-76.6458
-76.646
-76.6455
-76.609
-76.6094
-76.6094
-76.6095
-76.6098
-76.6095
-75.9846
-75.985
-75.985
-75.9852
-75.9856
-75.9845
-77.8792
-77.8796
-77.8792
-77.8789
-77.8795
-77.8769
-68.67
-68.67
-68.67
-68.67
-68.67
-68.67
-68.6835
-68.6835
-68.6835
-68.6835
-68.6836
-68.6835
-69.3662
-69.3663
-69.3663
-69.3664
-69.3668
-69.3658
-68.67
-68.67
-68.67
-68.67
-68.67
-68.67
-68.67
-68.67
-68.67
-68.67
-68.67
-68.67
-4498.49
-4501.47
-4498.47
-4505.5
-4522.53
-4479.18
-9499.84
-9518.23
-9506.97
-9507.52
-9522.18
-9483.73
-1049.64
-1047.06
-1048.39
-1048.07
-1045.47
-1053.88
-165.155
-165.105
-165.15
-165.174
-165.008
-165.368
-68.6703
-68.6703
-68.6703
-68.6703
-68.6703
-68.6703
-68.6704
-68.6704
-68.6704
-68.6704
-68.6704
-68.6704
-68.6705
-68.6705
-68.6705
-68.6705
-68.6705
-68.6705
-68.6707
-68.6707
-68.6707
-68.6707
-68.6707
-68.6707
-68.671
-68.671
-68.671
-68.671
-68.671
-68.671
-68.6716
-68.6716
-68.6716
-68.6716
-68.6716
-68.6716
-68.6728
-68.6728
-68.6728
-68.6728
-68.6728
-68.6728
-68.6755
-68.6755
-68.6755
-68.6755
-68.6755
-68.6755
-68.682
-68.682
-68.682
-68.682
-68.682
-68.682
-68.7057
-68.7057
-68.7057
-68.7056
-68.7057
-68.7056
-68.8288
-68.8289
-68.8288
-68.8289
-68.8297
-68.8279
-69.6238
-69.6241
-69.6247
-69.6235
-69.626
-69.622
)
;
    }
}


// ************************************************************************* //
