/*--------------------------------*- C++ -*----------------------------------*\
| =========                 |                                                 |
| \\      /  F ield         | OpenFOAM: The Open Source CFD Toolbox           |
|  \\    /   O peration     | Version:  v1612+                                |
|   \\  /    A nd           | Web:      www.OpenFOAM.com                      |
|    \\/     M anipulation  |                                                 |
\*---------------------------------------------------------------------------*/
FoamFile
{
    version     2.0;
    format      ascii;
    class       volScalarField;
    location    "2.85";
    object      p_rgh;
}
// * * * * * * * * * * * * * * * * * * * * * * * * * * * * * * * * * * * * * //

dimensions      [1 -1 -2 0 0 0 0];

internalField   nonuniform List<scalar> 
1116
(
14108.4
14108.4
14108.4
14108.4
14108.4
14108.4
13514.4
13514.3
13514.3
13514.3
13514.3
13514.3
12877
12877
12877
12877
12877
12877
12911.8
12911.8
12911.7
12911.7
12911.7
12911.7
13448.5
13448.5
13448.5
13448.5
13448.4
13448.4
14083.3
14083.3
14083.3
14083.3
14083.3
14083.3
14661.5
14661.5
14661.5
14661.5
14661.5
14661.5
15744.4
15744.4
15744.3
15744.3
15744.3
15744.3
17666.3
17666.3
17666.3
17666.3
17666.3
17666.3
20708.8
20708.8
20708.8
20708.8
20708.8
20708.8
25081
25081
25081
25081
25080.9
25081
28201.1
28201.1
28201.1
28201.1
28201.1
28201
8476.7
8476.72
8476.68
8476.66
8476.66
8476.62
4708.04
4708
4708
4707.96
4707.92
4707.98
4247.57
4247.54
4247.53
4247.5
4247.45
4247.52
5054.81
5054.76
5054.77
5054.74
5054.68
5054.76
6600.32
6600.28
6600.32
6600.29
6600.23
6600.29
8030.75
8030.74
8030.8
8030.79
8030.74
8030.74
8558.64
8558.62
8558.66
8558.65
8558.61
8558.6
8300.23
8300.21
8300.24
8300.23
8300.21
8300.2
7784.56
7784.44
7784.47
7784.48
7784.47
7784.55
11788.7
11788.5
11788.6
11788.6
11788.5
11788.8
24425.8
24425.5
24425.6
24425.6
24425.5
24425.8
31638.9
31639.2
31639.1
31639.1
31639.2
31638.9
1.2378
1.23806
1.23795
1.23804
1.23819
1.23777
6.42623
6.42651
6.42632
6.42626
6.42648
6.42617
4.73235
4.73261
4.73247
4.7326
4.73293
4.7326
-1.71285
-1.71239
-1.71268
-1.71263
-1.71237
-1.71286
-13.5093
-13.5088
-13.509
-13.509
-13.5089
-13.5095
-24.9155
-24.9151
-24.9149
-24.9148
-24.9147
-24.9151
-31.4973
-31.4978
-31.4975
-31.4977
-31.4976
-31.4969
51.1758
51.1751
51.1755
51.175
51.1739
51.1751
219.624
219.625
219.626
219.626
219.626
219.628
551.541
551.572
551.574
551.567
551.568
551.573
11445
11443.2
11443.5
11443.7
11443.4
11444.1
31837.5
31837.6
31837.7
31837.6
31837.5
31837.8
6.02398
6.02411
6.02408
6.02398
6.0239
6.02384
9.09499
9.09515
9.09511
9.09503
9.09503
9.09501
8.22541
8.22544
8.22532
8.22529
8.22542
8.22549
6.02254
6.02264
6.02242
6.02238
6.02258
6.02245
0.326775
0.326866
0.326662
0.3266
0.326732
0.326281
-8.79716
-8.79721
-8.79745
-8.79747
-8.79739
-8.79798
-19.5252
-19.5252
-19.5255
-19.5259
-19.5262
-19.5269
-22.0822
-22.0821
-22.0823
-22.0825
-22.083
-22.0838
-2.45974
-2.46257
-2.464
-2.46497
-2.46672
-2.46186
27.2135
27.209
27.2096
27.2097
27.206
27.2068
248.361
248.376
248.375
248.376
248.364
248.342
31339.9
31339.4
31339.2
31339.7
31340.8
31337.5
0.165549
0.165547
0.165546
0.165547
0.165547
0.165548
0.174342
0.17434
0.174339
0.174341
0.174343
0.174345
0.192373
0.192369
0.192371
0.192374
0.192378
0.192383
0.220593
0.220591
0.220596
0.220605
0.220614
0.220623
0.260437
0.260442
0.260456
0.260475
0.260493
0.260511
0.314195
0.314217
0.314246
0.31428
0.31431
0.314335
0.384701
0.384753
0.384803
0.384853
0.384893
0.38492
0.468602
0.468687
0.46874
0.468772
0.468783
0.46878
0.562373
0.562449
0.562432
0.56236
0.562256
0.562147
0.662156
0.662179
0.662063
0.661781
0.661445
0.66113
0.753442
0.753302
0.753093
0.752836
0.752586
0.752371
0.852824
0.852717
0.852647
0.852597
0.852571
0.852549
0.156923
0.156922
0.156922
0.156923
0.156924
0.156926
0.165434
0.165433
0.165435
0.165437
0.16544
0.165443
0.182861
0.182862
0.182867
0.182872
0.182878
0.182884
0.21
0.210007
0.210017
0.21003
0.210042
0.210053
0.24748
0.2475
0.247523
0.247549
0.247572
0.24759
0.293645
0.293694
0.293744
0.293792
0.293832
0.293859
0.342006
0.342099
0.342171
0.34223
0.34227
0.34229
0.399379
0.399463
0.399477
0.399456
0.399407
0.399346
0.47316
0.473155
0.473037
0.47285
0.472637
0.472442
0.560436
0.560222
0.559946
0.559713
0.559526
0.559407
0.648294
0.64806
0.647839
0.647652
0.647517
0.647457
0.753488
0.753527
0.753657
0.753888
0.754154
0.754437
0.140397
0.140397
0.140398
0.140399
0.1404
0.140401
0.148215
0.148215
0.148217
0.148219
0.148221
0.148223
0.164293
0.164295
0.164299
0.164303
0.164307
0.164311
0.189747
0.189754
0.189761
0.189769
0.189775
0.18978
0.226982
0.226995
0.227006
0.227014
0.227019
0.227021
0.282433
0.282444
0.282442
0.282434
0.282421
0.282407
0.36705
0.367032
0.366986
0.366923
0.366858
0.366804
0.475551
0.475472
0.475339
0.475174
0.475014
0.474893
0.604674
0.604469
0.604216
0.603944
0.603716
0.603578
0.787086
0.786812
0.786438
0.786029
0.785679
0.785451
0.864028
0.863983
0.863998
0.86407
0.864192
0.864371
1.39317
1.39311
1.39311
1.39314
1.39335
1.39325
0.116918
0.116918
0.116919
0.116919
0.11692
0.116921
0.123549
0.12355
0.123551
0.123553
0.123554
0.123555
0.13712
0.137122
0.137125
0.137127
0.137129
0.137131
0.158126
0.158131
0.158135
0.158137
0.158138
0.158138
0.186624
0.18663
0.18663
0.186627
0.186621
0.186615
0.218922
0.218921
0.218909
0.218887
0.218864
0.218844
0.250919
0.250894
0.250846
0.250783
0.250719
0.250667
0.297075
0.296989
0.29687
0.296734
0.296606
0.296514
0.376103
0.375953
0.375787
0.375626
0.37549
0.375424
0.511042
0.510895
0.510758
0.510671
0.51061
0.510669
0.673604
0.673732
0.673822
0.673936
0.673991
0.674095
0.837739
0.837981
0.837893
0.837791
0.837407
0.837183
0.500647
0.500636
0.500571
0.500507
0.500471
0.500446
-1.93466
-1.93472
-1.93475
-1.93477
-1.93478
-1.93478
-4.83947
-4.83955
-4.83952
-4.8395
-4.8395
-4.83939
1.08352
1.08348
1.08339
1.08334
1.08332
1.08331
-1.76482
-1.76492
-1.76493
-1.76496
-1.76504
-1.76492
-5.36052
-5.3606
-5.36057
-5.36055
-5.36053
-5.3604
-0.996271
-0.996292
-0.996354
-0.996377
-0.996363
-0.996354
-2.07617
-2.07622
-2.07623
-2.07625
-2.07628
-2.07622
-5.78656
-5.78665
-5.78664
-5.78662
-5.78661
-5.78649
-3.45605
-3.45601
-3.45604
-3.45602
-3.45597
-3.45595
-3.6452
-3.64521
-3.6452
-3.64521
-3.64527
-3.64523
-7.13558
-7.13572
-7.13572
-7.13572
-7.13573
-7.13559
-6.45874
-6.45877
-6.45881
-6.45874
-6.45868
-6.45871
-5.22694
-5.22696
-5.22695
-5.22695
-5.22701
-5.22697
-7.73543
-7.73558
-7.7356
-7.73561
-7.73563
-7.73548
-8.37741
-8.37764
-8.37775
-8.37759
-8.37743
-8.37729
-7.06182
-7.06192
-7.06195
-7.06195
-7.06193
-7.06185
-8.14657
-8.14667
-8.14666
-8.14667
-8.1467
-8.14661
-7.89026
-7.89034
-7.89056
-7.89048
-7.89028
-7.89019
-7.41549
-7.41554
-7.41556
-7.41551
-7.41534
-7.41514
-7.50589
-7.50591
-7.50593
-7.50597
-7.50607
-7.50611
-2.33788
-2.33741
-2.33824
-2.3382
-2.3391
-2.33824
-4.5204
-4.52029
-4.52037
-4.52032
-4.52051
-4.52005
-5.38455
-5.38466
-5.38473
-5.38477
-5.38505
-5.38479
12.4905
12.4897
12.4887
12.4882
12.4863
12.486
3.22339
3.22336
3.22312
3.22306
3.22291
3.22128
-7.85757
-7.85754
-7.8575
-7.857
-7.85694
-7.85756
1.23091
1.22344
1.22201
1.22368
1.22296
1.21934
13.2135
13.213
13.2119
13.2133
13.2089
13.2152
-1.02976
-1.02775
-1.02872
-1.0265
-1.02992
-1.02692
-20.9239
-20.9139
-20.9171
-20.922
-20.9025
-20.9541
-4.3927
-4.39258
-4.38891
-4.38595
-4.39188
-4.36745
-17.4914
-17.4906
-17.4912
-17.49
-17.4877
-17.496
22157.9
22157.2
22157.3
22156.3
22153.5
22158.9
790.251
788.272
789.298
791.191
789.512
791.68
-63.2461
-63.2365
-63.2443
-63.2585
-63.2621
-63.2713
3.69252
3.6904
3.6872
3.68242
3.67567
3.69048
-7.67358
-7.68246
-7.68511
-7.70418
-7.71816
-7.66482
-1.49731
-1.49499
-1.49665
-1.48608
-1.48021
-1.53877
8.46501
8.46299
8.46149
8.45829
8.46148
8.45903
-12.7841
-12.7977
-12.7941
-12.804
-12.8082
-12.776
-9.16625
-9.17597
-9.16845
-9.16869
-9.19367
-9.14055
42.771
42.8308
42.7851
42.9008
43.0201
42.455
1271.81
1271.56
1271.26
1273.21
1276.6
1266.15
4013.28
4015.83
4013.17
4019.56
4034.61
3996.02
881.15
880.494
880.743
883.323
885.148
880.362
14769.7
14765.4
14763.6
14778.8
14808.4
14737.4
7558.83
7574.59
7564.79
7565.46
7577.48
7545.05
17968
17963.8
17961.1
17980.9
18021.3
17926.6
21774.5
21771.5
21767.9
21787.1
21825.6
21734.6
475.628
473.189
474.403
474.258
472.018
479.039
19071
19070.8
19070.4
19070.2
19069.1
19071.4
6082.38
6089.99
6091.63
6058.04
5992.12
6162.38
-106.46
-106.511
-106.478
-106.379
-106.435
-106.507
0.0879215
0.0879217
0.0879219
0.0879223
0.0879228
0.0879233
0.0546904
0.0546906
0.0546907
0.0546909
0.0546911
0.0546913
0.018847
0.0188471
0.0188471
0.0188472
0.0188472
0.0188472
0.0929569
0.0929574
0.092958
0.0929586
0.0929592
0.0929598
0.0577326
0.0577329
0.0577331
0.0577333
0.0577335
0.0577337
0.0202844
0.0202844
0.0202844
0.0202844
0.0202844
0.0202844
0.103385
0.103387
0.103387
0.103388
0.103389
0.103389
0.0637302
0.0637306
0.0637307
0.0637308
0.0637309
0.0637309
0.0237084
0.0237084
0.0237084
0.0237083
0.0237082
0.0237082
0.120279
0.12028
0.12028
0.120279
0.120278
0.120277
0.071969
0.0719691
0.0719686
0.0719678
0.0719669
0.0719662
0.030348
0.0303479
0.0303476
0.0303472
0.0303468
0.0303465
0.147942
0.14794
0.147935
0.14793
0.147924
0.14792
0.0797391
0.0797374
0.0797344
0.0797305
0.0797265
0.0797235
0.0418394
0.041839
0.0418383
0.0418374
0.0418365
0.0418359
0.194811
0.194795
0.194777
0.194757
0.19474
0.194729
0.0834965
0.0834894
0.0834802
0.0834704
0.083461
0.0834554
0.0623068
0.0623053
0.0623035
0.0623013
0.0622995
0.0622984
0.269673
0.26963
0.26959
0.269552
0.269524
0.26951
0.0833283
0.0833142
0.0832974
0.0832829
0.0832681
0.083263
0.0884623
0.0884581
0.0884539
0.0884486
0.0884447
0.0884429
0.374405
0.374351
0.374313
0.374286
0.374276
0.374283
0.0881388
0.0881227
0.0880936
0.0880917
0.0880698
0.0880782
0.102533
0.102524
0.102515
0.102506
0.102495
0.102504
0.499061
0.499024
0.499023
0.499053
0.499103
0.499175
0.103239
0.103235
0.103194
0.10321
0.103178
0.103198
0.107402
0.107389
0.107366
0.107332
0.107312
0.107267
0.94782
0.94788
0.947971
0.948051
0.948245
0.948255
0.115106
0.115108
0.115
0.114991
0.114931
0.114792
-0.0826025
-0.0826774
-0.0828319
-0.0829056
-0.0833498
-0.0829435
0.78445
0.784432
0.784168
0.783982
0.783609
0.783583
-0.194018
-0.194275
-0.194641
-0.195192
-0.195258
-0.195635
-0.16051
-0.160641
-0.160809
-0.16178
-0.161906
-0.16465
3.56469
3.56414
3.56332
3.56095
3.56114
3.55831
-1.05244
-1.05338
-1.05473
-1.05736
-1.05797
-1.05607
-2.12585
-2.12611
-2.12591
-2.12253
-2.12932
-2.12403
)
;

boundaryField
{
    seabed_topleft_surface
    {
        type            fixedFluxPressure;
        gradient        uniform 0;
        value           nonuniform List<scalar> 
72
(
14108.4
14108.4
14108.4
14108.4
14108.4
14108.4
13514.4
13514.3
13514.3
13514.3
13514.3
13514.3
12877
12877
12877
12877
12877
12877
12911.8
12911.8
12911.7
12911.7
12911.7
12911.7
13448.5
13448.5
13448.5
13448.5
13448.4
13448.4
14083.3
14083.3
14083.3
14083.3
14083.3
14083.3
14661.5
14661.5
14661.5
14661.5
14661.5
14661.5
15744.4
15744.4
15744.3
15744.3
15744.3
15744.3
17666.3
17666.3
17666.3
17666.3
17666.3
17666.3
20708.8
20708.8
20708.8
20708.8
20708.8
20708.8
25081
25081
25081
25081
25080.9
25081
28201.1
28201.1
28201.1
28201.1
28201.1
28201
)
;
    }
    seabed_topright_surface
    {
        type            fixedFluxPressure;
        gradient        uniform 0;
        value           nonuniform List<scalar> 
72
(
0.165549
0.165547
0.165546
0.165547
0.165547
0.165548
0.174342
0.17434
0.174339
0.174341
0.174343
0.174345
0.192373
0.192369
0.192371
0.192374
0.192378
0.192383
0.220593
0.220591
0.220596
0.220605
0.220614
0.220623
0.260437
0.260442
0.260456
0.260475
0.260493
0.260511
0.314195
0.314217
0.314246
0.31428
0.31431
0.314335
0.384701
0.384753
0.384803
0.384853
0.384893
0.38492
0.468602
0.468687
0.46874
0.468772
0.468783
0.46878
0.562373
0.562449
0.562432
0.56236
0.562256
0.562147
0.662156
0.662179
0.662063
0.661781
0.661445
0.66113
0.753442
0.753302
0.753093
0.752836
0.752586
0.752371
0.852824
0.852717
0.852647
0.852597
0.852571
0.852549
)
;
    }
    breakwater_top_surface
    {
        type            fixedFluxPressure;
        gradient        uniform 0;
        value           nonuniform List<scalar> 
36
(
3.69252
3.6904
3.6872
3.68242
3.67567
3.69048
8.46501
8.46299
8.46149
8.45829
8.46148
8.45903
42.771
42.8308
42.7851
42.9008
43.0201
42.455
881.15
880.494
880.743
883.323
885.148
880.362
17968
17963.8
17961.1
17980.9
18021.3
17926.6
19071
19070.8
19070.4
19070.2
19069.1
19071.4
)
;
    }
    breakwater_left_surface
    {
        type            fixedFluxPressure;
        gradient        uniform 0;
        value           nonuniform List<scalar> 
24
(
28201.1
28201.1
28201.1
28201.1
28201.1
28201
31638.9
31639.2
31639.1
31639.1
31639.2
31638.9
31837.5
31837.6
31837.7
31837.6
31837.5
31837.8
31339.9
31339.4
31339.2
31339.7
31340.8
31337.5
)
;
    }
    breakwater_right_surface
    {
        type            fixedFluxPressure;
        gradient        uniform 0;
        value           nonuniform List<scalar> 
24
(
0.852824
0.852717
0.852647
0.852597
0.852571
0.852549
0.753488
0.753527
0.753657
0.753888
0.754154
0.754437
1.39317
1.39311
1.39311
1.39314
1.39335
1.39325
0.837739
0.837981
0.837893
0.837791
0.837407
0.837183
)
;
    }
    water_front_surface
    {
        type            fixedFluxPressure;
        gradient        uniform 0;
        value           nonuniform List<scalar> 
186
(
14108.4
13514.4
12877
12911.8
13448.5
14083.3
14661.5
15744.4
17666.3
20708.8
25081
28201.1
8476.7
4708.04
4247.57
5054.81
6600.32
8030.75
8558.64
8300.23
7784.56
11788.7
24425.8
31638.9
1.2378
6.42623
4.73235
-1.71285
-13.5093
-24.9155
-31.4973
51.1758
219.624
551.541
11445
31837.5
6.02398
9.09499
8.22541
6.02254
0.326775
-8.79716
-19.5252
-22.0822
-2.45974
27.2135
248.361
31339.9
0.165549
0.174342
0.192373
0.220593
0.260437
0.314195
0.384701
0.468602
0.562373
0.662156
0.753442
0.852824
0.156923
0.165434
0.182861
0.21
0.24748
0.293645
0.342006
0.399379
0.47316
0.560436
0.648294
0.753488
0.140397
0.148215
0.164293
0.189747
0.226982
0.282433
0.36705
0.475551
0.604674
0.787086
0.864028
1.39317
0.116918
0.123549
0.13712
0.158126
0.186624
0.218922
0.250919
0.297075
0.376103
0.511042
0.673604
0.837739
0.500647
-1.93466
-4.83947
1.08352
-1.76482
-5.36052
-0.996271
-2.07617
-5.78656
-3.45605
-3.6452
-7.13558
-6.45874
-5.22694
-7.73543
-8.37741
-7.06182
-8.14657
-7.89026
-7.41549
-7.50589
-2.33788
-4.5204
-5.38455
12.4905
3.22339
-7.85757
1.23091
13.2135
-1.02976
-20.9239
-4.3927
-17.4914
22157.9
790.251
-63.2461
3.69252
-7.67358
-1.49731
8.46501
-12.7841
-9.16625
42.771
1271.81
4013.28
881.15
14769.7
7558.83
17968
21774.5
475.628
19071
6082.38
-106.46
0.0879215
0.0546904
0.018847
0.0929569
0.0577326
0.0202844
0.103385
0.0637302
0.0237084
0.120279
0.071969
0.030348
0.147942
0.0797391
0.0418394
0.194811
0.0834965
0.0623068
0.269673
0.0833283
0.0884623
0.374405
0.0881388
0.102533
0.499061
0.103239
0.107402
0.94782
0.115106
-0.0826025
0.78445
-0.194018
-0.16051
3.56469
-1.05244
-2.12585
)
;
    }
    water_back_surface
    {
        type            fixedFluxPressure;
        gradient        uniform 0;
        value           nonuniform List<scalar> 
186
(
14108.4
13514.3
12877
12911.7
13448.4
14083.3
14661.5
15744.3
17666.3
20708.8
25081
28201
8476.62
4707.98
4247.52
5054.76
6600.29
8030.74
8558.6
8300.2
7784.55
11788.8
24425.8
31638.9
1.23777
6.42617
4.7326
-1.71286
-13.5095
-24.9151
-31.4969
51.1751
219.628
551.573
11444.1
31837.8
6.02384
9.09501
8.22549
6.02245
0.326281
-8.79798
-19.5269
-22.0838
-2.46186
27.2068
248.342
31337.5
0.165548
0.174345
0.192383
0.220623
0.260511
0.314335
0.38492
0.46878
0.562147
0.66113
0.752371
0.852549
0.156926
0.165443
0.182884
0.210053
0.24759
0.293859
0.34229
0.399346
0.472442
0.559407
0.647457
0.754437
0.140401
0.148223
0.164311
0.18978
0.227021
0.282407
0.366804
0.474893
0.603578
0.785451
0.864371
1.39325
0.116921
0.123555
0.137131
0.158138
0.186615
0.218844
0.250667
0.296514
0.375424
0.510669
0.674095
0.837183
0.500446
-1.93478
-4.83939
1.08331
-1.76492
-5.3604
-0.996354
-2.07622
-5.78649
-3.45595
-3.64523
-7.13559
-6.45871
-5.22697
-7.73548
-8.37729
-7.06185
-8.14661
-7.89019
-7.41514
-7.50611
-2.33824
-4.52005
-5.38479
12.486
3.22128
-7.85756
1.21934
13.2152
-1.02692
-20.9541
-4.36745
-17.496
22158.9
791.68
-63.2713
3.69048
-7.66482
-1.53877
8.45903
-12.776
-9.14055
42.455
1266.15
3996.02
880.362
14737.4
7545.05
17926.6
21734.6
479.039
19071.4
6162.38
-106.507
0.0879233
0.0546913
0.0188472
0.0929598
0.0577337
0.0202844
0.103389
0.0637309
0.0237082
0.120277
0.0719662
0.0303465
0.14792
0.0797235
0.0418359
0.194729
0.0834554
0.0622984
0.26951
0.083263
0.0884429
0.374283
0.0880782
0.102504
0.499175
0.103198
0.107267
0.948255
0.114792
-0.0829435
0.783583
-0.195635
-0.16465
3.55831
-1.05607
-2.12403
)
;
    }
    water_left_surface
    {
        type            fixedFluxPressure;
        gradient        uniform 0;
        value           nonuniform List<scalar> 
42
(
14108.4
14108.4
14108.4
14108.4
14108.4
14108.4
8476.7
8476.72
8476.68
8476.66
8476.66
8476.62
1.2378
1.23806
1.23795
1.23804
1.23819
1.23777
6.02398
6.02411
6.02408
6.02398
6.0239
6.02384
0.500647
0.500636
0.500571
0.500507
0.500471
0.500446
-1.93466
-1.93472
-1.93475
-1.93477
-1.93478
-1.93478
-4.83947
-4.83955
-4.83952
-4.8395
-4.8395
-4.83939
)
;
    }
    water_right_surface
    {
        type            fixedFluxPressure;
        gradient        uniform 0;
        value           nonuniform List<scalar> 
42
(
0.165549
0.165547
0.165546
0.165547
0.165547
0.165548
0.156923
0.156922
0.156922
0.156923
0.156924
0.156926
0.140397
0.140397
0.140398
0.140399
0.1404
0.140401
0.116918
0.116918
0.116919
0.116919
0.11692
0.116921
0.0879215
0.0879217
0.0879219
0.0879223
0.0879228
0.0879233
0.0546904
0.0546906
0.0546907
0.0546909
0.0546911
0.0546913
0.018847
0.0188471
0.0188471
0.0188472
0.0188472
0.0188472
)
;
    }
    water_top_surface
    {
        type            totalPressure;
        rho             rho;
        psi             none;
        gamma           1;
        p0              uniform 0;
        value           nonuniform List<scalar> 
180
(
-6.19339
-6.19382
-6.1937
-6.19364
-6.19369
-6.1932
-6.73744
-6.7379
-6.73775
-6.73769
-6.73774
-6.73721
-6.32469
-6.32514
-6.32505
-6.32501
-6.32506
-6.32462
-7.59344
-7.59404
-7.59398
-7.59398
-7.59408
-7.5936
-7.28484
-7.28537
-7.28536
-7.2854
-7.28552
-7.285
-7.97531
-7.97571
-7.97572
-7.9758
-7.97596
-7.97546
-7.93901
-7.93941
-7.93937
-7.93952
-7.93979
-7.93946
-7.31459
-7.31502
-7.31501
-7.31517
-7.31557
-7.3145
-9.20916
-9.20959
-9.20924
-9.20892
-9.20951
-9.20689
0
0
0
0
0
0
0
0
0
0
0
0
0
0
0
0
0
0
0
0
0
0
0
0
0
0
0
0
0
0
0
0
0
0
0
0
0
0
0
0
0
0
0
0
0
0
0
0
0
0
0
0
0
0
-0.000328661
-0.000328697
-0.000328696
-0.000328697
-0.000328699
-0.000328662
-0.000373125
-0.000373162
-0.000373161
-0.000373164
-0.00037317
-0.000373132
-0.00047315
-0.00047319
-0.000473192
-0.000473204
-0.000473223
-0.00047319
-0.000659233
-0.000659287
-0.000659309
-0.000659354
-0.000659415
-0.000659409
-0.000989149
-0.00098928
-0.000989383
-0.000989531
-0.000989708
-0.000989793
-0.00160648
-0.00160694
-0.0016073
-0.0016077
-0.00160812
-0.00160836
-0.00280841
-0.00280979
-0.00281061
-0.00281134
-0.00281193
-0.00281201
-0.00553339
-0.0055363
-0.0055372
-0.00553715
-0.0055367
-0.00553438
-0.0120208
-0.0120235
-0.0120221
-0.0120166
-0.0120108
-0.0120031
-0.0356735
-0.0356719
-0.0356647
-0.0356435
-0.0356678
-0.0355709
-0.158815
-0.158881
-0.158843
-0.158899
-0.159662
-0.157945
-0.953764
-0.954075
-0.954719
-0.953464
-0.95605
-0.951954
)
;
    }
}


// ************************************************************************* //
