/*--------------------------------*- C++ -*----------------------------------*\
| =========                 |                                                 |
| \\      /  F ield         | OpenFOAM: The Open Source CFD Toolbox           |
|  \\    /   O peration     | Version:  v1612+                                |
|   \\  /    A nd           | Web:      www.OpenFOAM.com                      |
|    \\/     M anipulation  |                                                 |
\*---------------------------------------------------------------------------*/
FoamFile
{
    version     2.0;
    format      ascii;
    class       volVectorField;
    location    "4.85";
    object      U;
}
// * * * * * * * * * * * * * * * * * * * * * * * * * * * * * * * * * * * * * //

dimensions      [0 1 -1 0 0 0 0];

internalField   nonuniform List<vector> 
320
(
(-2.83306e-06 -8.44654e-06 1.30818e-05)
(-2.43735e-06 -5.10384e-06 -9.10905e-06)
(-1.0935e-05 -2.48147e-06 -9.49098e-06)
(3.61632e-07 1.09989e-05 -6.97165e-06)
(0.000104897 1.3292e-05 -0.00013237)
(2.43289e-05 4.74598e-05 -0.000112563)
(0.00017624 -0.000129503 -9.96462e-05)
(-0.000387747 9.48277e-05 -6.07976e-05)
(-0.000143419 0.000213102 -6.58662e-05)
(-0.000212812 0.000213148 -3.71153e-05)
(-0.000270572 6.91347e-06 -0.000120095)
(-0.000162478 0.000162884 5.0177e-05)
(-0.000322924 0.000371189 -0.000123302)
(-0.000259142 -0.000231112 -0.000148854)
(-0.000396265 5.06431e-05 0.000199901)
(-0.000195685 0.000163939 -1.97676e-05)
(4.14757e-06 4.76542e-06 2.88065e-05)
(7.50788e-06 1.20361e-05 2.29074e-05)
(1.98825e-05 3.46786e-06 6.00927e-06)
(-5.74439e-06 4.82939e-06 -6.91831e-06)
(6.32782e-06 -9.75422e-06 -7.84535e-06)
(1.53823e-06 1.99668e-06 2.0717e-05)
(-1.45711e-05 -4.39903e-06 1.27848e-05)
(6.68673e-06 -1.41142e-05 -8.18529e-06)
(-7.37235e-06 9.76158e-06 3.45517e-05)
(-3.24016e-06 -1.86279e-05 2.58515e-05)
(-9.92088e-06 -1.6917e-06 -1.39026e-05)
(-2.56173e-06 1.56302e-06 5.35739e-06)
(3.41053e-07 2.15454e-06 1.95769e-05)
(-6.19427e-06 -2.23238e-06 1.85885e-05)
(-9.61723e-06 -1.62605e-07 3.16754e-06)
(4.70808e-07 -1.89046e-06 -5.7052e-06)
(-6.99517e-06 4.19793e-06 -4.03194e-06)
(-4.87702e-06 -2.22973e-06 1.3556e-05)
(4.24154e-06 -5.0119e-07 9.95048e-06)
(-4.44556e-06 9.41592e-06 -4.18061e-06)
(4.1581e-06 -6.03095e-06 2.30103e-05)
(2.24996e-06 1.26109e-05 1.90257e-05)
(9.92739e-06 6.16995e-06 -7.44295e-06)
(7.57704e-06 5.99025e-06 4.12398e-06)
(-1.11386e-06 -4.86698e-06 3.2617e-06)
(-9.6015e-07 -3.58135e-06 -3.88148e-06)
(-6.17112e-06 -8.90923e-07 -1.71831e-06)
(1.53158e-08 6.00876e-06 -3.46245e-06)
(1.45194e-06 1.11926e-06 5.13334e-06)
(-3.09334e-06 -1.46122e-06 1.17615e-06)
(-5.815e-06 1.99652e-07 2.98265e-07)
(6.12629e-07 -1.75836e-06 6.91376e-07)
(-3.871e-06 2.64331e-06 -8.43676e-07)
(-2.89599e-06 -1.29599e-06 3.84999e-06)
(2.57405e-06 -6.49869e-07 2.93161e-06)
(-2.58676e-06 5.40874e-06 4.15449e-07)
(2.53485e-06 -3.98508e-06 6.07714e-06)
(1.6902e-06 7.48154e-06 4.07227e-06)
(5.68374e-06 4.0417e-06 -1.78925e-06)
(5.23248e-06 3.8156e-06 5.60843e-07)
(-0.000382184 -5.92168e-05 2.15e-05)
(-4.19204e-05 9.60132e-05 -0.000118781)
(2.22743e-05 -0.000106192 -6.21345e-05)
(-6.6305e-05 -4.22416e-05 3.03594e-05)
(-9.88478e-05 0.000211429 0.000193361)
(0.000181474 -0.000274681 0.00025042)
(-0.000293508 -5.2844e-05 4.64239e-05)
(-0.000122228 -6.20518e-05 0.000215309)
(-0.000120981 -0.000183599 -8.85308e-05)
(-0.000120352 0.000153909 1.81485e-05)
(-0.000334887 0.000161513 6.99079e-05)
(-7.98483e-05 0.000105961 0.000257745)
(-4.21834e-05 9.32271e-05 1.55827e-05)
(-0.000180953 0.000213763 0.00025896)
(0.000206536 -6.89411e-05 0.000101166)
(-0.000169272 8.47838e-05 0.000182671)
(3.72913e-05 0.000291442 0.000198114)
(9.14044e-05 0.000312294 -7.12089e-05)
(9.16733e-05 2.77372e-05 -3.11287e-05)
(0.000125111 5.98e-05 9.87147e-05)
(-1.04719e-05 -6.95205e-06 -2.45958e-05)
(-4.72802e-07 6.06253e-06 8.49169e-06)
(6.33239e-06 -1.24637e-05 1.27252e-05)
(6.62243e-06 -7.13383e-06 1.37203e-06)
(-3.78736e-06 1.85438e-05 -2.39171e-05)
(1.34782e-05 -3.31539e-07 -3.63516e-05)
(-9.73304e-06 8.91202e-07 -1.91996e-05)
(-1.46805e-05 -1.46603e-05 -5.33028e-05)
(1.38506e-06 -2.90256e-05 -4.6279e-06)
(-1.06115e-06 -1.52022e-05 1.83953e-05)
(-1.82982e-05 9.75465e-06 -1.3565e-05)
(1.07338e-05 -1.896e-06 -3.10875e-05)
(6.12436e-06 -5.1727e-06 3.09696e-05)
(-8.43771e-06 -1.12597e-06 -1.83019e-05)
(4.99469e-06 -1.82885e-05 -5.56476e-06)
(-1.96331e-05 -8.91741e-06 -1.26623e-05)
(6.26918e-06 7.30534e-06 -2.51904e-05)
(1.06968e-05 1.83958e-05 -2.09104e-05)
(7.49035e-06 4.21471e-06 -4.07373e-06)
(1.68416e-05 6.80265e-07 -1.65866e-05)
(5.95627e-06 1.12021e-05 -1.67201e-05)
(5.38929e-06 3.12393e-06 2.60879e-06)
(-1.20152e-07 8.47223e-06 1.05027e-05)
(-1.65066e-06 1.78e-06 5.13867e-07)
(4.33227e-06 -9.73015e-06 -1.47301e-05)
(-3.23905e-06 -1.10041e-07 -1.60366e-05)
(4.10913e-06 -2.48099e-06 -1.0668e-05)
(6.51656e-06 5.65263e-06 -2.83343e-05)
(-1.67136e-06 1.19366e-05 -3.75229e-06)
(-3.88064e-06 3.7136e-06 1.25528e-05)
(5.44251e-06 -6.06783e-06 -1.14146e-05)
(-1.1284e-05 4.90525e-07 -1.87592e-05)
(-5.40339e-06 4.13105e-06 2.41427e-05)
(6.76686e-06 -7.3815e-07 -1.07738e-05)
(-2.59478e-06 6.27591e-06 -4.43816e-06)
(1.10068e-05 4.89908e-06 -5.18844e-06)
(-1.13746e-06 3.28751e-06 -1.48631e-05)
(-3.24866e-06 -3.12013e-06 -1.49288e-05)
(5.23759e-07 -1.81711e-06 -5.93265e-06)
(-1.14061e-05 -2.37883e-06 -1.48701e-05)
(3.99884e-06 6.37412e-06 -5.40477e-06)
(4.16297e-06 2.81905e-06 1.55961e-06)
(-4.05501e-08 5.8749e-06 -1.20021e-06)
(-1.20281e-06 2.46837e-06 1.23834e-06)
(3.28298e-06 -5.2623e-06 -3.78064e-06)
(-2.02423e-06 3.54209e-07 -6.56367e-06)
(2.66585e-06 -1.63728e-06 -4.14541e-06)
(4.70012e-06 2.50015e-06 -8.81437e-06)
(-1.40797e-06 6.75853e-06 -4.8375e-07)
(-2.64142e-06 2.04849e-06 2.89302e-07)
(3.5374e-06 -3.60757e-06 -2.87773e-06)
(-6.68951e-06 1.11644e-08 -4.77048e-06)
(-2.83579e-06 2.44753e-06 5.23845e-06)
(4.11815e-06 -1.24234e-06 -1.49377e-06)
(-1.5467e-06 3.23213e-06 -3.06273e-07)
(6.89025e-06 2.9808e-06 -2.14388e-06)
(-1.1197e-07 2.25799e-06 -3.17694e-06)
(-1.68672e-06 -1.32477e-06 -3.69076e-06)
(8.72467e-07 -5.65685e-07 -4.5464e-07)
(-6.28028e-06 -1.28883e-06 -2.37119e-06)
(-9.03113e-07 -1.75209e-06 8.87533e-07)
(2.7451e-07 -5.23435e-07 -9.50147e-07)
(-3.3667e-06 2.88865e-07 -9.28951e-07)
(-7.37106e-07 3.71756e-06 -7.22796e-07)
(-1.74031e-07 6.79347e-07 2.26505e-06)
(-1.67439e-06 7.7783e-07 2.33492e-06)
(-1.97693e-06 5.32669e-07 6.72779e-07)
(4.93179e-07 -8.14803e-07 -2.89547e-07)
(-1.98347e-06 6.59759e-07 -3.0586e-07)
(-1.62273e-06 -7.50883e-07 1.44937e-06)
(6.454e-07 4.01322e-07 1.08623e-06)
(-1.56285e-06 2.0632e-06 -3.42206e-07)
(1.60583e-06 -7.11972e-07 2.19909e-06)
(8.41261e-07 4.37729e-06 2.08417e-06)
(3.02628e-06 2.66924e-06 -6.77341e-07)
(2.43337e-06 2.95936e-06 6.3041e-07)
(2.28593e-06 3.71852e-06 -1.88236e-06)
(1.27842e-06 1.03314e-06 2.3706e-07)
(4.21181e-07 2.57886e-06 1.09525e-06)
(9.77944e-07 2.58764e-07 -6.92334e-08)
(1.13334e-06 -2.367e-06 -1.04992e-06)
(-1.00399e-06 2.93065e-07 -1.5447e-06)
(4.5816e-07 -5.29962e-07 -9.88163e-07)
(7.39936e-07 1.60164e-06 -2.82369e-06)
(-1.08607e-06 2.6068e-06 -2.99373e-07)
(-1.60902e-06 4.45945e-07 1.18286e-06)
(2.2202e-07 -2.05165e-06 -1.143e-06)
(-3.55119e-06 3.18415e-07 -2.02878e-06)
(-2.2534e-06 1.06676e-06 2.1706e-06)
(1.14663e-06 3.31992e-07 -1.36717e-06)
(-1.02439e-06 2.18639e-06 -7.31274e-07)
(2.62588e-06 1.75784e-06 -1.30675e-06)
(-5.11903e-07 1.70932e-06 -1.86293e-06)
(-5.85223e-07 -1.59981e-07 -1.86572e-06)
(-5.49786e-07 -6.10062e-08 -8.81671e-07)
(-3.24439e-06 -6.50419e-08 -1.57974e-06)
(0.000226256 0.000137653 6.40412e-06)
(-0.000231535 7.76012e-06 6.98581e-08)
(0.000153569 -1.262e-05 -0.000165684)
(0.000164034 -0.000188005 0.000169861)
(-0.000139779 -0.000153728 0.000139126)
(-0.00014752 -0.000114316 9.24616e-05)
(-0.000519132 -0.000104753 -0.000242916)
(-0.000511581 0.000284925 -0.000130046)
(-0.000446098 -0.000324013 8.17427e-05)
(-0.000559218 -0.000206151 -0.000437853)
(-0.000599398 0.000385945 -0.000325431)
(-0.000115104 0.000215443 -6.60551e-05)
(-0.000200895 0.000267512 -4.04999e-06)
(-2.01463e-06 -6.83323e-05 2.18476e-05)
(-1.46981e-05 -0.000267622 -8.79301e-05)
(-0.000164251 -0.000173408 -9.23265e-05)
(-0.000202373 -0.000436231 -9.57061e-05)
(-0.000269715 -5.13053e-05 -1.21666e-05)
(-0.00016156 -0.000209897 8.90929e-05)
(1.371e-05 -6.99036e-05 -5.06029e-05)
(-4.43542e-05 -1.6509e-05 -1.58909e-05)
(8.4147e-06 3.12812e-05 3.72389e-06)
(5.53375e-05 0.000202349 3.84887e-05)
(0.00012544 2.92721e-05 -7.72506e-05)
(-0.00020739 0.000105343 7.2101e-05)
(-8.25794e-05 0.000195765 -3.78798e-05)
(-3.82485e-05 7.67818e-05 -4.3451e-05)
(-6.52992e-05 0.000110504 -8.93676e-05)
(8.31692e-06 6.87559e-06 8.71467e-06)
(-7.9445e-06 7.18772e-07 -3.41954e-05)
(9.65897e-06 4.34879e-06 1.2461e-05)
(2.07044e-05 -9.414e-06 -2.68044e-05)
(-1.11252e-05 -1.00234e-05 -2.09211e-05)
(-1.84356e-05 8.33286e-06 1.13453e-05)
(-1.89554e-05 4.62608e-06 3.23067e-05)
(-2.26613e-05 2.47783e-05 2.27123e-05)
(-1.27204e-05 -2.47851e-06 -1.81243e-05)
(-2.4809e-05 -2.33278e-05 2.98212e-05)
(-3.69348e-05 1.36156e-06 5.33032e-05)
(-8.78843e-06 1.5614e-05 1.8231e-05)
(7.70046e-06 6.91331e-06 -2.95672e-05)
(1.33268e-05 -6.64507e-06 -2.39324e-05)
(-1.45887e-06 -1.22691e-05 2.30876e-05)
(-1.17697e-05 -6.24728e-06 -1.96654e-06)
(3.55935e-07 -1.87987e-05 1.31718e-05)
(5.91681e-06 4.13054e-06 9.86525e-06)
(5.74281e-06 -1.859e-05 1.31837e-05)
(4.7055e-06 -1.00504e-05 2.08339e-06)
(7.53898e-06 -1.83011e-05 2.98142e-05)
(-7.11212e-07 -2.54661e-05 -9.30021e-06)
(3.63616e-07 1.10357e-05 -2.62908e-05)
(1.92416e-05 1.16998e-05 2.87775e-05)
(4.75938e-06 -4.70247e-07 7.67096e-06)
(3.77377e-07 7.71089e-06 -1.04733e-05)
(8.2542e-06 -6.12474e-06 2.10571e-05)
(-6.42738e-06 -7.80646e-06 1.595e-05)
(-1.40393e-05 -5.19935e-06 4.99028e-06)
(2.07493e-06 2.57067e-06 -2.41696e-05)
(3.06997e-06 -1.3184e-06 1.19653e-06)
(-4.851e-06 4.89043e-06 -1.48393e-05)
(8.58458e-06 3.4123e-06 -1.33139e-05)
(7.96964e-06 -5.345e-06 1.07605e-05)
(7.2465e-06 -2.24957e-07 1.95599e-05)
(1.23666e-05 -9.42744e-06 1.55217e-05)
(7.54942e-06 -3.85746e-07 -9.56604e-06)
(1.20908e-05 7.86501e-06 1.38171e-05)
(1.78946e-05 -1.58213e-06 3.28714e-05)
(4.85778e-06 -1.26279e-05 9.50332e-06)
(-6.66843e-06 -1.03362e-05 -2.13906e-05)
(-9.19068e-06 1.66174e-06 -2.03423e-05)
(-5.939e-06 4.18279e-06 9.2688e-06)
(-1.65395e-06 3.71985e-06 -1.86067e-06)
(-5.95708e-06 1.12789e-05 8.83484e-06)
(-3.21692e-06 -1.60715e-06 8.83295e-06)
(2.01321e-06 9.09235e-06 6.44299e-06)
(-1.13466e-06 3.14654e-06 4.47162e-07)
(-5.31324e-06 7.63243e-06 1.52607e-05)
(-8.27587e-07 1.14036e-05 -5.33905e-06)
(-1.86616e-07 -4.57307e-06 -1.65022e-05)
(-1.02997e-05 -1.64373e-06 1.7327e-05)
(-5.1181e-06 7.83104e-06 5.48612e-06)
(6.50846e-07 -2.16875e-06 -1.17662e-05)
(-5.46946e-06 -3.36227e-06 1.27549e-05)
(-3.32677e-07 -6.26344e-08 1.204e-05)
(-7.38523e-06 -3.14407e-06 1.51191e-06)
(1.12463e-06 1.08803e-06 -7.53655e-06)
(1.95108e-06 -2.6988e-07 2.51979e-06)
(-2.74273e-06 3.29992e-06 -4.97423e-06)
(5.32219e-06 2.43229e-06 -1.2307e-06)
(6.06956e-06 -3.22504e-06 7.42062e-07)
(4.4541e-06 -3.54393e-07 4.7946e-06)
(7.32475e-06 -5.62539e-06 4.51006e-06)
(4.09098e-06 -4.17494e-07 -2.05366e-06)
(6.55306e-06 4.96572e-06 4.03972e-06)
(1.06938e-05 -1.43059e-06 4.72168e-06)
(2.62238e-06 -8.63729e-06 3.1532e-06)
(-4.70199e-06 -6.45877e-06 -5.05762e-06)
(-5.88476e-06 6.35926e-07 -3.979e-06)
(-4.25916e-06 1.81877e-06 2.50778e-06)
(-8.58644e-07 2.25364e-06 -3.20742e-07)
(-3.48101e-06 6.21477e-06 3.02061e-06)
(-1.33324e-06 -9.5477e-07 3.2579e-06)
(1.75023e-06 4.71222e-06 4.86517e-06)
(-5.45794e-07 1.4131e-06 1.77116e-06)
(-2.63244e-06 3.71129e-06 5.9349e-06)
(-3.34247e-07 6.1937e-06 1.72005e-07)
(3.29095e-07 -2.55043e-06 -2.38013e-06)
(-5.86537e-06 -1.09531e-06 4.544e-06)
(-3.02417e-06 5.02609e-06 2.80981e-07)
(4.85421e-07 -7.78014e-07 -8.70211e-07)
(-3.23655e-06 -1.88369e-06 2.45917e-06)
(-1.09459e-07 -1.69868e-08 2.437e-06)
(-4.25234e-06 -1.30618e-06 2.22353e-07)
(1.33519e-06 7.83663e-07 -2.33449e-06)
(9.65632e-07 -3.55446e-07 2.18337e-07)
(-9.0002e-07 1.09645e-06 -1.07879e-06)
(2.96891e-06 9.65762e-07 -1.54011e-06)
(1.86777e-06 -8.94523e-07 1.29525e-06)
(3.10118e-06 2.31324e-07 2.58595e-06)
(4.22702e-06 -2.61299e-06 2.0878e-06)
(2.85518e-06 -1.42511e-07 -4.1834e-07)
(3.79145e-06 9.29102e-07 1.71082e-06)
(4.31423e-06 -8.84478e-07 3.51691e-06)
(1.30533e-06 -3.09982e-06 1.02138e-06)
(-1.39239e-06 -3.25167e-06 -2.13896e-06)
(-2.39227e-06 7.36382e-07 -2.15216e-06)
(-2.28609e-06 1.73629e-06 1.20304e-06)
(-1.49521e-06 1.41345e-06 -1.828e-07)
(-2.47301e-06 3.4535e-06 7.36374e-07)
(-1.57642e-06 3.35281e-07 8.86528e-07)
(4.86198e-07 2.77652e-06 5.74564e-07)
(-5.88446e-08 9.95698e-07 -3.38707e-07)
(-1.24983e-06 1.81097e-06 1.065e-06)
(-4.34563e-07 3.01671e-06 -8.16333e-07)
(-4.19506e-07 -1.99494e-07 -2.05838e-06)
(-2.39189e-06 1.16619e-06 1.53775e-06)
(-9.62631e-07 2.63136e-06 9.43843e-08)
(3.99451e-07 3.00191e-07 -1.00157e-06)
(-6.01446e-07 1.59502e-08 1.05109e-06)
(4.80438e-07 -2.24304e-07 9.09219e-07)
(-0.000158665 0.000248162 -0.000134074)
(-0.000121124 0.000266982 0.000163582)
(0.000321243 0.000363547 -3.09937e-05)
(-0.000130557 -0.000237666 0.000245013)
(1.00001e-05 1.77159e-05 2.11236e-05)
(5.03542e-06 1.44482e-05 -2.34973e-05)
(2.02892e-05 9.85273e-06 -1.75132e-05)
(-5.37745e-06 -2.19404e-05 -1.95479e-05)
)
;

boundaryField
{
    top_fluid_surface
    {
        type            pressureInletOutletVelocity;
        value           nonuniform List<vector> 
64
(
(0 0 -0.00013237)
(0 0 -0.000112563)
(0 0 -9.96462e-05)
(0 0 -6.07976e-05)
(0 0 -6.58662e-05)
(0 0 -3.71153e-05)
(0 0 -0.000120095)
(-0.000162478 0.000162884 5.0177e-05)
(0 0 -0.000123302)
(0 0 -0.000148854)
(-0.000396265 5.06431e-05 0.000199901)
(0 0 -1.97676e-05)
(-0.000382184 -5.92168e-05 2.15e-05)
(0 0 -0.000118781)
(0 0 -6.21345e-05)
(-6.6305e-05 -4.22416e-05 3.03594e-05)
(-9.88478e-05 0.000211429 0.000193361)
(0.000181474 -0.000274681 0.00025042)
(-0.000293508 -5.2844e-05 4.64239e-05)
(-0.000122228 -6.20518e-05 0.000215309)
(0 0 -8.85308e-05)
(-0.000120352 0.000153909 1.81485e-05)
(-0.000334887 0.000161513 6.99079e-05)
(-7.98483e-05 0.000105961 0.000257745)
(-4.21834e-05 9.32271e-05 1.55827e-05)
(-0.000180953 0.000213763 0.00025896)
(0.000206536 -6.89411e-05 0.000101166)
(-0.000169272 8.47838e-05 0.000182671)
(3.72913e-05 0.000291442 0.000198114)
(0 0 -7.12089e-05)
(0 0 -3.11287e-05)
(0.000125111 5.98e-05 9.87147e-05)
(0.000226256 0.000137653 6.40412e-06)
(-0.000231535 7.76012e-06 6.98581e-08)
(0 0 -0.000165684)
(0.000164034 -0.000188005 0.000169861)
(-0.000139779 -0.000153728 0.000139126)
(-0.00014752 -0.000114316 9.24616e-05)
(0 0 -0.000242916)
(0 0 -0.000130046)
(-0.000446098 -0.000324013 8.17427e-05)
(0 0 -0.000437853)
(0 0 -0.000325431)
(0 0 -6.60551e-05)
(0 0 -4.04999e-06)
(-2.01463e-06 -6.83323e-05 2.18476e-05)
(0 0 -8.79301e-05)
(0 0 -9.23265e-05)
(0 0 -9.57061e-05)
(0 0 -1.21666e-05)
(-0.00016156 -0.000209897 8.90929e-05)
(0 0 -5.06029e-05)
(-4.43542e-05 -1.6509e-05 -1.58909e-05)
(0 0 3.72389e-06)
(5.53375e-05 0.000202349 3.84887e-05)
(0 0 -7.72506e-05)
(-0.00020739 0.000105343 7.2101e-05)
(0 0 -3.78798e-05)
(0 0 -4.3451e-05)
(0 0 -8.93676e-05)
(0 0 -0.000134074)
(-0.000121124 0.000266982 0.000163582)
(0 0 -3.09937e-05)
(-0.000130557 -0.000237666 0.000245013)
)
;
    }
    bottom_fluid_surface
    {
        type            noSlip;
    }
    lateral_surface_1
    {
        type            noSlip;
    }
    lateral_surface_2
    {
        type            noSlip;
    }
    lateral_surface_3
    {
        type            noSlip;
    }
    lateral_surface_4
    {
        type            noSlip;
    }
}


// ************************************************************************* //
