/*--------------------------------*- C++ -*----------------------------------*\
| =========                 |                                                 |
| \\      /  F ield         | OpenFOAM: The Open Source CFD Toolbox           |
|  \\    /   O peration     | Version:  v1612+                                |
|   \\  /    A nd           | Web:      www.OpenFOAM.com                      |
|    \\/     M anipulation  |                                                 |
\*---------------------------------------------------------------------------*/
FoamFile
{
    version     2.0;
    format      ascii;
    class       volScalarField;
    location    "2.8";
    object      alpha.water;
}
// * * * * * * * * * * * * * * * * * * * * * * * * * * * * * * * * * * * * * //

dimensions      [0 0 0 0 0 0 0];

internalField   nonuniform List<scalar> 
1116
(
0.929934
0.929932
0.929931
0.929931
0.92993
0.929931
0.93195
0.931946
0.931947
0.931946
0.931945
0.931947
0.938195
0.93819
0.938192
0.938191
0.938189
0.938192
0.95062
0.950615
0.950616
0.950616
0.950614
0.950617
0.961212
0.961208
0.961207
0.961206
0.961206
0.961208
0.96619
0.966186
0.966185
0.966183
0.966183
0.966185
0.968066
0.968062
0.96806
0.968059
0.968058
0.96806
0.972854
0.972853
0.972852
0.972852
0.972852
0.972853
0.973116
0.973116
0.973116
0.973116
0.973116
0.973116
0.973117
0.973117
0.973117
0.973117
0.973117
0.973117
0.973117
0.973117
0.973117
0.973117
0.973117
0.973117
0.965618
0.965618
0.965618
0.965619
0.96562
0.965615
0.48595
0.485949
0.485948
0.485947
0.485947
0.485945
0.27375
0.273747
0.273747
0.273746
0.273744
0.273746
0.251759
0.251757
0.251757
0.251755
0.251752
0.251756
0.298387
0.298385
0.298386
0.298384
0.298381
0.298385
0.382379
0.382378
0.38238
0.382379
0.382375
0.382378
0.444169
0.44417
0.444173
0.444172
0.444169
0.444169
0.456632
0.456632
0.456634
0.456633
0.456631
0.45663
0.435196
0.435196
0.435197
0.435197
0.435196
0.435195
0.369755
0.369749
0.369751
0.369751
0.36975
0.369754
0.481157
0.481139
0.481144
0.481145
0.481141
0.481153
0.859948
0.859927
0.859932
0.859932
0.859925
0.859942
0.965515
0.965515
0.965515
0.965516
0.965517
0.965512
3.65063e-08
3.65051e-08
3.65047e-08
3.65065e-08
3.65102e-08
3.65134e-08
1.9012e-08
1.90099e-08
1.90093e-08
1.90087e-08
1.90089e-08
1.90118e-08
1.33182e-08
1.33171e-08
1.3317e-08
1.33158e-08
1.33145e-08
1.33155e-08
6.18949e-09
6.18919e-09
6.18911e-09
6.18887e-09
6.18842e-09
6.18725e-09
8.38366e-10
8.38313e-10
8.38303e-10
8.38272e-10
8.38209e-10
8.38055e-10
1.11186e-10
1.11179e-10
1.11177e-10
1.11173e-10
1.11165e-10
1.11145e-10
8.90013e-13
8.9004e-13
8.89671e-13
8.89556e-13
8.89667e-13
8.88374e-13
-5.62502e-13
-5.6216e-13
-5.62355e-13
-5.61821e-13
-5.59834e-13
-5.6568e-13
-5.51621e-06
-5.53558e-06
-5.53267e-06
-5.52959e-06
-5.5351e-06
-5.52468e-06
0.000439935
0.000439962
0.000439961
0.00043996
0.000439981
0.000439941
0.320371
0.320313
0.320324
0.320329
0.32032
0.320343
0.884527
0.884522
0.884527
0.884522
0.884522
0.884534
4.31408e-07
4.31438e-07
4.31519e-07
4.31609e-07
4.31648e-07
4.31606e-07
4.50633e-06
4.50619e-06
4.50628e-06
4.5063e-06
4.50615e-06
4.50642e-06
2.51263e-08
2.50949e-08
2.50744e-08
2.51186e-08
2.5208e-08
2.52211e-08
2.02513e-07
2.02474e-07
2.02474e-07
2.02418e-07
2.02354e-07
2.02525e-07
2.09958e-07
2.09939e-07
2.09937e-07
2.09932e-07
2.09916e-07
2.09876e-07
8.90019e-13
8.90046e-13
8.89677e-13
8.89561e-13
8.89673e-13
8.88379e-13
2.58171e-13
2.58099e-13
2.58129e-13
2.58166e-13
2.58174e-13
2.58087e-13
-2.18134e-14
-2.18843e-14
-2.18746e-14
-2.1865e-14
-2.18867e-14
-2.18371e-14
-6.5093e-06
-6.50655e-06
-6.50688e-06
-6.50771e-06
-6.50817e-06
-6.50737e-06
4.92994e-05
4.93088e-05
4.93013e-05
4.93076e-05
4.93535e-05
4.92453e-05
0.000580972
0.000580953
0.000580958
0.000580968
0.000580986
0.000580951
0.850858
0.850841
0.850834
0.850849
0.850886
0.850779
1.01968e-60
1.02161e-60
1.02147e-60
1.0215e-60
1.02186e-60
1.0198e-60
2.51776e-56
2.52102e-56
2.52032e-56
2.52039e-56
2.52154e-56
2.51727e-56
3.3243e-52
3.32409e-52
3.32187e-52
3.32174e-52
3.32379e-52
3.31964e-52
2.92869e-48
2.92471e-48
2.92208e-48
2.92247e-48
2.92588e-48
2.92548e-48
6.33237e-44
6.32578e-44
6.3192e-44
6.35104e-44
6.47057e-44
6.2698e-44
7.084e-39
7.13955e-39
7.16441e-39
7.23562e-39
7.43329e-39
7.12982e-39
5.82483e-35
5.95885e-35
6.01769e-35
6.09653e-35
6.26665e-35
5.99799e-35
8.5725e-32
8.92477e-32
9.04969e-32
9.15593e-32
9.35316e-32
8.85022e-32
1.66091e-29
1.75823e-29
1.7731e-29
1.76668e-29
1.76146e-29
1.60912e-29
6.98232e-32
7.33563e-32
7.3947e-32
7.38313e-32
7.38673e-32
6.82116e-32
4.00304e-30
4.01091e-30
4.01172e-30
4.01391e-30
4.01901e-30
4.01954e-30
1.92554e-27
1.93027e-27
1.93049e-27
1.93064e-27
1.93134e-27
1.92889e-27
9.96263e-58
9.98165e-58
9.98032e-58
9.98045e-58
9.98381e-58
9.96356e-58
2.44444e-53
2.44846e-53
2.44795e-53
2.44796e-53
2.44889e-53
2.44439e-53
3.10759e-49
3.11075e-49
3.10951e-49
3.10935e-49
3.11073e-49
3.10581e-49
2.55593e-45
2.55716e-45
2.55591e-45
2.55598e-45
2.55779e-45
2.55527e-45
1.83679e-40
1.83865e-40
1.83634e-40
1.84629e-40
1.8867e-40
1.80704e-40
1.9524e-35
1.96434e-35
1.9673e-35
1.98293e-35
2.0322e-35
1.94221e-35
1.4193e-31
1.43898e-31
1.44569e-31
1.45929e-31
1.49522e-31
1.42666e-31
2.03166e-28
2.0765e-28
2.08893e-28
2.10544e-28
2.14761e-28
2.03386e-28
4.44067e-26
4.57002e-26
4.57491e-26
4.56299e-26
4.58131e-26
4.24314e-26
2.51024e-28
2.57346e-28
2.57708e-28
2.57555e-28
2.59379e-28
2.41832e-28
5.9244e-27
5.93379e-27
5.93404e-27
5.93616e-27
5.94236e-27
5.94198e-27
1.82527e-24
1.82905e-24
1.82901e-24
1.8289e-24
1.82927e-24
1.82672e-24
3.75824e-55
3.76552e-55
3.76509e-55
3.76519e-55
3.76648e-55
3.75883e-55
9.08159e-51
9.09817e-51
9.0969e-51
9.09713e-51
9.10041e-51
9.08306e-51
1.09755e-46
1.09926e-46
1.09902e-46
1.09901e-46
1.09943e-46
1.09748e-46
8.34167e-43
8.35286e-43
8.35081e-43
8.35107e-43
8.35516e-43
8.34278e-43
2.89106e-37
2.89578e-37
2.89169e-37
2.90731e-37
2.97231e-37
2.83506e-37
2.28038e-32
2.29042e-32
2.29099e-32
2.30662e-32
2.36052e-32
2.25169e-32
1.22131e-28
1.23119e-28
1.23334e-28
1.24267e-28
1.27129e-28
1.21158e-28
1.45894e-25
1.47481e-25
1.47734e-25
1.48688e-25
1.51689e-25
1.43996e-25
3.96239e-23
3.99744e-23
3.99087e-23
3.99495e-23
4.05005e-23
3.8157e-23
6.71074e-22
6.56084e-22
6.18487e-22
5.7737e-22
4.93184e-22
4.52131e-22
1.13631e-23
1.13296e-23
1.11374e-23
1.09247e-23
1.06132e-23
1.01834e-23
8.31807e-22
8.33254e-22
8.33138e-22
8.32978e-22
8.32982e-22
8.31675e-22
6.59423e-53
6.60705e-53
6.60637e-53
6.6066e-53
6.60887e-53
6.59538e-53
1.55162e-48
1.55459e-48
1.55442e-48
1.55448e-48
1.55502e-48
1.55198e-48
1.75144e-44
1.7546e-44
1.75437e-44
1.75439e-44
1.75497e-44
1.75165e-44
1.20181e-40
1.20386e-40
1.20368e-40
1.2037e-40
1.20411e-40
1.20196e-40
2.82826e-34
2.83286e-34
2.82828e-34
2.84305e-34
2.90554e-34
2.76778e-34
1.54153e-29
1.54572e-29
1.54438e-29
1.55361e-29
1.58823e-29
1.51348e-29
6.62559e-26
6.65056e-26
6.64717e-26
6.68856e-26
6.83533e-26
6.51239e-26
6.82651e-23
6.85498e-23
6.84911e-23
6.88892e-23
7.03146e-23
6.69277e-23
1.80164e-20
1.80437e-20
1.80288e-20
1.80761e-20
1.84331e-20
1.75276e-20
2.61587e-18
2.60757e-18
2.57573e-18
2.57716e-18
2.21159e-18
2.51103e-18
5.61392e-20
5.60859e-20
3.36499e-20
5.55545e-20
3.79331e-20
5.41152e-20
1.5328e-21
1.53495e-21
1.37791e-21
1.52848e-21
1.25215e-21
1.50815e-21
7.50548e-07
7.50549e-07
7.50731e-07
7.50939e-07
7.50973e-07
7.50878e-07
1.76688e-07
1.76654e-07
1.76713e-07
1.76784e-07
1.76808e-07
1.76818e-07
-4.59235e-15
-5.03005e-15
-5.16313e-15
-5.04833e-15
-5.01853e-15
-5.13856e-15
7.97938e-06
7.97941e-06
7.97943e-06
7.97946e-06
7.9795e-06
7.9795e-06
3.55431e-06
3.55335e-06
3.55393e-06
3.55378e-06
3.55251e-06
3.55456e-06
-2.6028e-14
-2.85072e-14
-2.92632e-14
-2.86122e-14
-2.84432e-14
-2.91262e-14
1.03542e-07
1.03523e-07
1.03489e-07
1.03604e-07
1.03736e-07
1.03635e-07
7.37885e-08
7.37816e-08
7.3768e-08
7.38078e-08
7.38559e-08
7.38264e-08
-1.7223e-13
-1.8864e-13
-1.93638e-13
-1.8933e-13
-1.88215e-13
-1.92719e-13
3.71532e-07
3.7153e-07
3.71528e-07
3.71471e-07
3.71335e-07
3.71521e-07
2.47721e-10
1.01362e-10
1.4004e-10
7.02016e-18
6.79749e-18
3.71817e-10
-1.32233e-13
-1.44823e-13
-1.48655e-13
-1.4534e-13
-1.44483e-13
-1.47937e-13
3.71532e-07
3.71532e-07
3.7153e-07
3.71528e-07
3.71526e-07
3.71523e-07
1.59713e-07
1.59661e-07
1.59658e-07
1.59637e-07
1.59607e-07
1.59627e-07
-2.90503e-15
-3.18542e-15
-3.27446e-15
-3.20019e-15
-3.17911e-15
-3.20587e-15
1.47056e-08
1.47027e-08
1.46984e-08
1.46968e-08
1.46948e-08
1.46812e-08
4.00445e-10
4.01008e-10
4.01082e-10
4.01004e-10
4.00536e-10
4.00945e-10
-1.73738e-19
-1.71479e-19
-1.72995e-19
-1.74145e-19
-1.73401e-19
-1.79068e-19
-7.45923e-15
-7.46612e-15
-7.45354e-15
-7.44924e-15
-7.45271e-15
-7.41432e-15
-1.28358e-15
-1.27821e-15
-1.28242e-15
-1.28558e-15
-1.28309e-15
-1.2987e-15
-1.27875e-17
-1.26316e-17
-1.27364e-17
-1.28158e-17
-1.27661e-17
-1.31546e-17
-1.03018e-14
-1.03145e-14
-1.03019e-14
-1.02979e-14
-1.03079e-14
-1.02538e-14
-1.18357e-13
-1.17809e-13
-1.18145e-13
-1.18406e-13
-1.1806e-13
-1.19751e-13
-5.86216e-15
-5.82874e-15
-5.85217e-15
-5.86898e-15
-5.85367e-15
-5.94428e-15
-6.04232e-08
-6.02619e-08
-6.04079e-08
-6.03294e-08
-5.95877e-08
-6.13207e-08
-1.96867e-12
-1.95886e-12
-1.96427e-12
-1.96804e-12
-1.9612e-12
-1.99154e-12
-2.13628e-12
-2.12573e-12
-2.13162e-12
-2.13562e-12
-2.12862e-12
-2.16014e-12
2.67236e-06
2.67219e-06
2.67231e-06
2.67266e-06
2.67362e-06
2.6715e-06
-9.83322e-08
-9.81773e-08
-9.82688e-08
-9.83883e-08
-9.82144e-08
-9.85347e-08
-3.54341e-09
-3.54763e-09
-3.53783e-09
-3.56628e-09
-3.65543e-09
-3.44204e-09
5.26685e-05
5.26715e-05
5.26695e-05
5.2669e-05
5.26806e-05
5.26561e-05
4.14462e-06
4.14426e-06
4.14503e-06
4.14314e-06
4.13744e-06
4.15131e-06
1.71595e-07
1.71594e-07
1.7161e-07
1.71609e-07
1.71657e-07
1.71519e-07
0.485189
0.48517
0.485176
0.48515
0.485041
0.485267
0.0132674
0.0132278
0.0132546
0.0132719
0.0131819
0.0133762
9.6195e-06
9.62052e-06
9.61979e-06
9.62094e-06
9.62619e-06
9.61477e-06
-5.12362e-15
-4.71443e-15
-6.41363e-15
-5.26498e-15
-6.70548e-15
-1.73783e-14
6.8989e-14
7.091e-14
6.96069e-14
1.81004e-13
2.18877e-13
5.48033e-14
8.96031e-18
8.93397e-18
8.94474e-18
8.98569e-18
9.04694e-18
8.90083e-18
1.83165e-10
1.8663e-10
1.94203e-10
1.91148e-10
2.03481e-10
1.80462e-10
4.83884e-11
4.88119e-11
4.92706e-11
5.31945e-11
5.42736e-11
4.62713e-11
6.43642e-14
6.666e-14
6.57927e-14
7.60177e-14
8.83486e-14
5.17573e-14
9.62958e-06
9.7584e-06
9.69103e-06
9.87918e-06
9.99381e-06
9.31982e-06
0.0163055
0.0163134
0.0163053
0.0163297
0.0163653
0.0162275
0.0524342
0.0524771
0.0524409
0.0525265
0.0527117
0.0522185
0.0149752
0.014962
0.0149685
0.0150125
0.0150414
0.0149689
0.262403
0.262375
0.26232
0.26254
0.263024
0.261827
0.122788
0.123048
0.122888
0.122922
0.123153
0.122493
0.383657
0.383567
0.383507
0.383933
0.384791
0.382777
0.382975
0.382883
0.382826
0.383242
0.384064
0.382106
0.0165301
0.0165149
0.0165206
0.0165048
0.0164765
0.0165699
0.481377
0.481366
0.481364
0.48135
0.481341
0.481459
0.133239
0.133393
0.133396
0.132831
0.131895
0.134428
0.00141282
0.00141187
0.00141281
0.00141275
0.00140861
0.00141849
4.63096e-51
4.63992e-51
4.63948e-51
4.63964e-51
4.64123e-51
4.63175e-51
7.97463e-53
7.99096e-53
7.99085e-53
7.99116e-53
7.9934e-53
7.97646e-53
3.18839e-56
3.19527e-56
3.19519e-56
3.19532e-56
3.19628e-56
3.18923e-56
1.04649e-46
1.04851e-46
1.04841e-46
1.04845e-46
1.04881e-46
1.04674e-46
3.64206e-48
3.64934e-48
3.64933e-48
3.64946e-48
3.6504e-48
3.64309e-48
1.67441e-51
1.67792e-51
1.67788e-51
1.67794e-51
1.67839e-51
1.67486e-51
1.0789e-42
1.08092e-42
1.08081e-42
1.08082e-42
1.08116e-42
1.07906e-42
7.83138e-44
7.84626e-44
7.84619e-44
7.8463e-44
7.848e-44
7.83296e-44
4.50221e-47
4.51125e-47
4.51114e-47
4.51122e-47
4.51229e-47
4.50313e-47
6.49114e-39
6.50281e-39
6.502e-39
6.50192e-39
6.50371e-39
6.49137e-39
1.00144e-39
1.00324e-39
1.00322e-39
1.00322e-39
1.0034e-39
1.00158e-39
7.93142e-43
7.9465e-43
7.94632e-43
7.94638e-43
7.94803e-43
7.93277e-43
1.79287e-31
1.79561e-31
1.79242e-31
1.80159e-31
1.84054e-31
1.75283e-31
8.67841e-29
8.69137e-29
8.67556e-29
8.72041e-29
8.9074e-29
8.48427e-29
3.13019e-26
3.13485e-26
3.12912e-26
3.14561e-26
3.21264e-26
3.06078e-26
5.66737e-27
5.67822e-27
5.66994e-27
5.70137e-27
5.8249e-27
5.54911e-27
1.45692e-24
1.45938e-24
1.45694e-24
1.46492e-24
1.49623e-24
1.42557e-24
2.22148e-22
2.22509e-22
2.22118e-22
2.2335e-22
2.28079e-22
2.17372e-22
1.57811e-23
1.58146e-23
1.57913e-23
1.5881e-23
1.62204e-23
1.54554e-23
2.46021e-21
2.46438e-21
2.45998e-21
2.47376e-21
2.52588e-21
2.4074e-21
1.73089e-19
1.73371e-19
1.73045e-19
1.74034e-19
1.77658e-19
1.69395e-19
1.08614e-20
1.0884e-20
1.0865e-20
1.09264e-20
1.11522e-20
1.0629e-20
9.41114e-19
9.42677e-19
9.40799e-19
9.46201e-19
9.651e-19
9.20856e-19
2.39585e-17
2.39974e-17
2.39478e-17
2.40893e-17
2.45785e-17
2.34526e-17
2.0087e-18
2.00143e-18
2.00778e-18
2.00598e-18
2.05534e-18
1.96178e-18
7.23174e-17
7.05111e-17
7.22704e-17
7.04409e-17
7.37729e-17
7.06379e-17
1.72984e-17
1.72916e-17
1.72986e-17
1.72857e-17
1.72168e-17
1.72995e-17
6.1617e-16
6.16833e-16
6.04563e-16
6.16753e-16
4.04896e-16
6.07704e-16
1.4952e-14
1.49997e-14
1.49825e-14
1.50446e-14
1.65976e-17
1.44216e-14
1.6245e-17
1.52179e-17
1.62453e-17
1.51181e-17
1.59039e-17
1.61432e-17
1.36365e-13
1.3588e-13
1.36251e-13
1.35104e-13
2.28304e-13
1.42255e-13
5.27216e-18
5.29994e-18
2.87295e-18
4.73895e-19
4.38209e-19
4.73965e-19
5.27128e-18
5.36196e-18
5.23449e-18
5.50967e-18
4.38207e-19
3.97633e-18
-2.05949e-16
-2.05325e-16
-2.06583e-16
-1.50224e-16
8.45918e-18
-2.16353e-16
3.35182e-09
3.3783e-09
3.40705e-09
3.42058e-09
3.42058e-09
3.21182e-09
2.43017e-168
3.79795e-164
1.47452e-158
4.27177e-154
2.01364e-139
3.49421e-167
)
;

boundaryField
{
    seabed_topleft_surface
    {
        type            zeroGradient;
    }
    seabed_topright_surface
    {
        type            zeroGradient;
    }
    breakwater_top_surface
    {
        type            zeroGradient;
    }
    breakwater_left_surface
    {
        type            zeroGradient;
    }
    breakwater_right_surface
    {
        type            zeroGradient;
    }
    water_front_surface
    {
        type            zeroGradient;
    }
    water_back_surface
    {
        type            zeroGradient;
    }
    water_left_surface
    {
        type            zeroGradient;
    }
    water_right_surface
    {
        type            zeroGradient;
    }
    water_top_surface
    {
        type            inletOutlet;
        inletValue      uniform 0;
        value           nonuniform List<scalar> 
180
(
0
0
0
0
0
0
0
0
0
0
0
0
0
0
0
0
0
0
0
0
0
0
0
0
0
0
0
0
0
0
0
0
0
0
0
0
0
0
0
0
0
0
0
0
0
0
0
0
0
0
0
0
0
0
0
0
0
0
0
0
1.71595e-07
1.71594e-07
1.7161e-07
1.71609e-07
1.71657e-07
1.71519e-07
9.6195e-06
9.62052e-06
9.61979e-06
9.62094e-06
9.62619e-06
9.61477e-06
8.96031e-18
8.93397e-18
8.94474e-18
8.98569e-18
9.04694e-18
8.90083e-18
6.43642e-14
6.666e-14
6.57927e-14
7.60177e-14
8.83486e-14
5.17573e-14
0.0524342
0.0524771
0.0524409
0.0525265
0.0527117
0.0522185
0.122788
0.123048
0.122888
0.122922
0.123153
0.122493
0.0165301
0.0165149
0.0165206
0.0165048
0.0164765
0.0165699
0.00141282
0.00141187
0.00141281
0.00141275
0.00140861
0.00141849
0
0
0
0
0
0
0
0
0
0
0
0
0
0
0
0
0
0
0
0
0
0
0
0
0
0
0
0
0
0
0
0
0
0
0
0
0
0
0
0
0
0
0
0
0
0
0
0
0
0
0
0
0
0
0
0
0
0
0
0
0
0
0
0
0
0
0
0
0
0
0
0
)
;
    }
}


// ************************************************************************* //
