/*--------------------------------*- C++ -*----------------------------------*\
| =========                 |                                                 |
| \\      /  F ield         | OpenFOAM: The Open Source CFD Toolbox           |
|  \\    /   O peration     | Version:  v1612+                                |
|   \\  /    A nd           | Web:      www.OpenFOAM.com                      |
|    \\/     M anipulation  |                                                 |
\*---------------------------------------------------------------------------*/
FoamFile
{
    version     2.0;
    format      ascii;
    class       volScalarField;
    location    "2.8";
    object      p;
}
// * * * * * * * * * * * * * * * * * * * * * * * * * * * * * * * * * * * * * //

dimensions      [1 -1 -2 0 0 0 0];

internalField   nonuniform List<scalar> 
1116
(
10349.8
10349.8
10349.8
10349.8
10349.8
10349.7
9739.46
9739.48
9739.47
9739.46
9739.46
9739.44
9024.21
9024.23
9024.22
9024.21
9024.21
9024.19
8911.09
8911.11
8911.1
8911.09
8911.09
8911.07
9277.65
9277.67
9277.66
9277.66
9277.66
9277.64
9726.07
9726.09
9726.08
9726.08
9726.08
9726.06
10138.2
10138.2
10138.2
10138.2
10138.2
10138.2
11079.2
11079.2
11079.2
11079.2
11079.2
11079.2
12881.8
12881.8
12881.8
12881.8
12881.8
12881.8
15904.6
15904.6
15904.6
15904.6
15904.6
15904.6
20313.7
20313.7
20313.7
20313.7
20313.7
20313.7
23722.7
23722.7
23722.7
23722.7
23722.7
23722.7
2368.23
2368.22
2368.22
2368.22
2368.21
2368.2
1360.85
1360.84
1360.84
1360.83
1360.82
1360.83
1262.3
1262.3
1262.3
1262.29
1262.28
1262.29
1494.95
1494.95
1494.95
1494.94
1494.93
1494.94
1893.32
1893.32
1893.33
1893.32
1893.31
1893.31
2190.83
2190.84
2190.86
2190.85
2190.84
2190.83
2233.68
2233.68
2233.69
2233.68
2233.67
2233.66
2135.05
2135.05
2135.05
2135.04
2135.04
2135.03
2021.22
2021.2
2021.21
2021.21
2021.22
2021.24
4000.82
4000.81
4000.81
4000.82
4000.83
4000.87
11173.4
11173.4
11173.4
11173.4
11173.4
11173.4
17755.9
17756.1
17756.1
17756.1
17756.1
17755.9
-24.5083
-24.508
-24.5081
-24.5081
-24.508
-24.5085
-18.7192
-18.7189
-18.7191
-18.7192
-18.719
-18.7194
-21.1274
-21.1271
-21.1272
-21.1272
-21.1269
-21.1274
-29.7054
-29.7049
-29.7053
-29.7053
-29.7052
-29.7058
-42.7303
-42.7297
-42.7299
-42.73
-42.73
-42.7308
-52.5411
-52.5405
-52.5405
-52.5405
-52.5404
-52.541
-53.643
-53.6431
-53.6431
-53.6435
-53.6434
-53.6426
38.7052
38.7041
38.7046
38.7043
38.7033
38.7056
212.836
212.834
212.835
212.836
212.836
212.841
545.032
545.036
545.035
545.033
545.033
545.052
1937.63
1937.57
1937.59
1937.59
1937.54
1937.71
9756.6
9756.85
9756.74
9756.79
9756.78
9756.58
-28.6049
-28.6047
-28.6048
-28.605
-28.6051
-28.6052
-24.9803
-24.9801
-24.9802
-24.9803
-24.9804
-24.9804
-25.6678
-25.6677
-25.6679
-25.668
-25.6679
-25.6679
-28.5481
-28.5481
-28.5483
-28.5485
-28.5484
-28.5486
-35.0376
-35.0376
-35.0378
-35.038
-35.038
-35.0385
-43.5856
-43.5856
-43.586
-43.5861
-43.5861
-43.5868
-51.9926
-51.9924
-51.9928
-51.9934
-51.9938
-51.9945
-51.4796
-51.4796
-51.4797
-51.4797
-51.4803
-51.4809
-29.5402
-29.5414
-29.5425
-29.5433
-29.5447
-29.5401
-0.985321
-0.985969
-0.984646
-0.984743
-0.988483
-0.985404
194.697
194.698
194.699
194.701
194.682
194.702
1434.06
1434.11
1434.03
1434.07
1434.13
1433.79
-4.85155
-4.85155
-4.85155
-4.85155
-4.85155
-4.85155
-4.84753
-4.84753
-4.84753
-4.84752
-4.84752
-4.84752
-4.83923
-4.83923
-4.83923
-4.83923
-4.83922
-4.83922
-4.82608
-4.82608
-4.82607
-4.82607
-4.82606
-4.82605
-4.80716
-4.80716
-4.80715
-4.80713
-4.80711
-4.8071
-4.78087
-4.78085
-4.78082
-4.78079
-4.78076
-4.78074
-4.74397
-4.74393
-4.7439
-4.74386
-4.74383
-4.74381
-4.6984
-4.69832
-4.69828
-4.69827
-4.69827
-4.69828
-4.64899
-4.64889
-4.64893
-4.64909
-4.64925
-4.64938
-4.59867
-4.59822
-4.59839
-4.59919
-4.59961
-4.59988
-4.54971
-4.54981
-4.55002
-4.55033
-4.55061
-4.55085
-4.49441
-4.49451
-4.49457
-4.49461
-4.49462
-4.49461
-14.6652
-14.6652
-14.6652
-14.6652
-14.6652
-14.6652
-14.6614
-14.6614
-14.6614
-14.6614
-14.6614
-14.6614
-14.6537
-14.6537
-14.6537
-14.6537
-14.6537
-14.6537
-14.6417
-14.6416
-14.6416
-14.6416
-14.6416
-14.6416
-14.625
-14.625
-14.6249
-14.6249
-14.6249
-14.6249
-14.6052
-14.6052
-14.6052
-14.6051
-14.6051
-14.6051
-14.591
-14.5909
-14.5909
-14.5908
-14.5907
-14.5907
-14.5815
-14.5814
-14.5814
-14.5814
-14.5814
-14.5815
-14.5628
-14.5629
-14.5629
-14.563
-14.5631
-14.5633
-14.5363
-14.5368
-14.537
-14.5367
-14.5368
-14.5369
-14.5074
-14.5076
-14.5078
-14.508
-14.5081
-14.5081
-14.4546
-14.4546
-14.4545
-14.4543
-14.454
-14.4537
-24.4823
-24.4823
-24.4823
-24.4823
-24.4823
-24.4823
-24.479
-24.479
-24.479
-24.479
-24.479
-24.479
-24.4723
-24.4723
-24.4723
-24.4723
-24.4723
-24.4723
-24.4616
-24.4616
-24.4616
-24.4616
-24.4616
-24.4616
-24.4456
-24.4456
-24.4456
-24.4456
-24.4456
-24.4456
-24.42
-24.42
-24.42
-24.42
-24.42
-24.42
-24.3724
-24.3724
-24.3724
-24.3725
-24.3725
-24.3726
-24.3058
-24.3058
-24.3059
-24.3061
-24.3063
-24.3064
-24.2314
-24.2316
-24.2319
-24.2322
-24.2324
-24.2326
-24.1333
-24.1336
-24.134
-24.1344
-24.1347
-24.135
-24.0991
-24.0992
-24.0992
-24.0992
-24.0992
-24.0991
-23.7405
-23.7404
-23.7402
-23.7399
-23.7396
-23.7395
-34.3023
-34.3023
-34.3023
-34.3023
-34.3023
-34.3023
-34.2997
-34.2997
-34.2997
-34.2997
-34.2997
-34.2997
-34.2945
-34.2945
-34.2945
-34.2945
-34.2945
-34.2945
-34.2867
-34.2867
-34.2867
-34.2867
-34.2867
-34.2867
-34.2771
-34.2771
-34.2771
-34.2771
-34.2771
-34.2771
-34.2701
-34.2701
-34.2701
-34.2702
-34.2702
-34.2702
-34.276
-34.276
-34.276
-34.2761
-34.2762
-34.2762
-34.2857
-34.2858
-34.2859
-34.286
-34.2862
-34.2862
-34.2739
-34.274
-34.2742
-34.2743
-34.2745
-34.2745
-34.2165
-34.2167
-34.2167
-34.2168
-34.2168
-34.2167
-34.1367
-34.1366
-34.1365
-34.1363
-34.1362
-34.136
-33.9379
-33.9376
-33.9374
-33.9371
-33.937
-33.9369
-43.739
-43.739
-43.7391
-43.7393
-43.7394
-43.7394
-56.2029
-56.203
-56.2031
-56.2031
-56.2031
-56.2031
-68.9813
-68.9814
-68.9813
-68.9813
-68.9813
-68.9812
-43.4821
-43.4821
-43.4823
-43.4824
-43.4824
-43.4824
-56.1998
-56.1999
-56.1999
-56.2
-56.2
-56.2
-69.5422
-69.5422
-69.5422
-69.5422
-69.5421
-69.542
-45.5732
-45.5732
-45.5733
-45.5734
-45.5734
-45.5734
-56.4026
-56.4027
-56.4027
-56.4027
-56.4028
-56.4027
-69.9216
-69.9217
-69.9217
-69.9217
-69.9216
-69.9215
-48.1057
-48.1056
-48.1056
-48.1056
-48.1056
-48.1057
-58.0545
-58.0545
-58.0545
-58.0545
-58.0546
-58.0546
-71.3533
-71.3534
-71.3534
-71.3534
-71.3534
-71.3533
-51.0133
-51.0133
-51.0133
-51.0133
-51.0133
-51.0134
-59.4798
-59.4798
-59.4798
-59.4799
-59.4799
-59.48
-71.8184
-71.8186
-71.8186
-71.8186
-71.8186
-71.8185
-52.1379
-52.1381
-52.1382
-52.1381
-52.138
-52.1378
-60.7975
-60.7976
-60.7976
-60.7976
-60.7976
-60.7975
-72.079
-72.0791
-72.0791
-72.0791
-72.0791
-72.079
-49.912
-49.9121
-49.9123
-49.9122
-49.912
-49.9119
-60.3721
-60.3722
-60.3722
-60.3722
-60.372
-60.3719
-71.2659
-71.2659
-71.2659
-71.2659
-71.2661
-71.2661
-41.2046
-41.2042
-41.2047
-41.2046
-41.2054
-41.2045
-57.1591
-57.1589
-57.159
-57.1589
-57.159
-57.1586
-69.1723
-69.1724
-69.1724
-69.1725
-69.1727
-69.1724
-26.4071
-26.407
-26.4078
-26.4082
-26.4102
-26.4101
-50.7745
-50.7742
-50.7745
-50.7744
-50.7747
-50.7754
-72.6385
-72.6385
-72.6384
-72.6378
-72.6381
-72.6378
-44.6221
-44.6265
-44.6272
-44.6262
-44.6285
-44.6267
-43.9618
-43.962
-43.9628
-43.9618
-43.9691
-43.9493
-67.1795
-67.177
-67.178
-67.1763
-67.1809
-67.1754
-74.1638
-74.153
-74.1601
-74.1604
-74.137
-74.2437
-61.8317
-61.8326
-61.8302
-61.8297
-61.8398
-61.8046
-83.8372
-83.8334
-83.8374
-83.8343
-83.8298
-83.8583
-204.16
-203.943
-204.138
-204.114
-202.934
-205.82
-167.78
-167.866
-167.809
-167.788
-167.974
-167.543
-131.089
-131.075
-131.086
-131.095
-131.088
-131.15
-44.3916
-44.3904
-44.3903
-44.3889
-44.3939
-44.3856
-59.9764
-59.9814
-59.9813
-59.987
-59.9974
-59.9788
-66.4611
-66.4772
-66.4707
-66.5087
-66.5544
-66.5492
-39.5351
-39.5343
-39.5349
-39.5338
-39.5281
-39.5397
-64.7493
-64.7473
-64.7459
-64.7484
-64.7382
-64.7184
-74.3707
-74.3543
-74.3523
-74.3095
-74.2476
-74.225
-31.8667
-31.8622
-31.8663
-31.8572
-31.8426
-31.895
-87.1464
-87.2843
-87.2269
-87.2282
-87.1072
-87.1476
-167.156
-167.322
-167.226
-167.305
-167.854
-166.433
-36.1881
-36.182
-36.183
-36.1719
-36.1576
-36.1952
-974.908
-975.194
-974.815
-974.805
-975.964
-972.714
-1247.52
-1248.77
-1248.12
-1248.27
-1250.1
-1245.69
-264.136
-264.259
-264.375
-264.037
-263.146
-265.763
-509.596
-509.185
-509.508
-508.752
-508.163
-511.142
-539.867
-539.928
-539.932
-539.819
-539.666
-540.315
-3572.96
-3572.49
-3573.19
-3574.09
-3576.09
-3573.27
-285.557
-285.521
-285.628
-286.188
-287.659
-284.147
-275.782
-275.79
-275.8
-275.712
-275.606
-276.053
-44.1088
-44.1088
-44.1088
-44.1088
-44.1088
-44.1088
-53.9326
-53.9326
-53.9326
-53.9326
-53.9326
-53.9326
-63.7573
-63.7573
-63.7573
-63.7573
-63.7573
-63.7573
-44.1069
-44.1069
-44.1069
-44.1069
-44.1069
-44.1069
-53.9315
-53.9315
-53.9315
-53.9315
-53.9315
-53.9315
-63.7566
-63.7566
-63.7566
-63.7566
-63.7566
-63.7566
-44.1032
-44.1032
-44.1032
-44.1032
-44.1032
-44.1032
-53.9297
-53.9297
-53.9297
-53.9297
-53.9297
-53.9297
-63.7547
-63.7547
-63.7547
-63.7547
-63.7547
-63.7547
-44.0972
-44.0972
-44.0972
-44.0972
-44.0972
-44.0972
-53.928
-53.928
-53.928
-53.928
-53.928
-53.928
-63.7507
-63.7507
-63.7507
-63.7507
-63.7507
-63.7507
-44.0865
-44.0865
-44.0865
-44.0865
-44.0865
-44.0865
-53.9297
-53.9297
-53.9297
-53.9297
-53.9297
-53.9297
-63.7424
-63.7424
-63.7424
-63.7424
-63.7424
-63.7424
-44.0643
-44.0643
-44.0643
-44.0643
-44.0643
-44.0643
-53.9405
-53.9405
-53.9405
-53.9406
-53.9406
-53.9406
-63.7259
-63.7259
-63.7259
-63.7259
-63.7259
-63.7259
-44.023
-44.0231
-44.0231
-44.0232
-44.0232
-44.0232
-53.9648
-53.9648
-53.9648
-53.9648
-53.9648
-53.9648
-63.7026
-63.7026
-63.7026
-63.7026
-63.7026
-63.7026
-43.9702
-43.9703
-43.9703
-43.9703
-43.9703
-43.9703
-53.9966
-53.9966
-53.9966
-53.9966
-53.9967
-53.9966
-63.6883
-63.6883
-63.6883
-63.6883
-63.6883
-63.6883
-43.9284
-43.9284
-43.9284
-43.9284
-43.9284
-43.9284
-54.0264
-54.0264
-54.0265
-54.0264
-54.0265
-54.0264
-63.6867
-63.6867
-63.6867
-63.6868
-63.6868
-63.6868
-43.7239
-43.7238
-43.7238
-43.7238
-43.7237
-43.7237
-54.0668
-54.0668
-54.0669
-54.0669
-54.067
-54.0671
-63.8921
-63.8921
-63.8923
-63.8923
-63.8925
-63.8922
-44.103
-44.1029
-44.103
-44.1029
-44.1032
-44.1031
-54.355
-54.3552
-54.3556
-54.3562
-54.3566
-54.3569
-64.1269
-64.127
-64.1274
-64.1283
-64.1279
-64.1299
-42.159
-42.159
-42.159
-42.1604
-42.1588
-42.1624
-55.0081
-55.009
-55.0102
-55.0123
-55.0143
-55.0139
-65.4976
-65.5009
-65.5028
-65.5088
-65.5219
-65.5097
)
;

boundaryField
{
    seabed_topleft_surface
    {
        type            calculated;
        value           nonuniform List<scalar> 
72
(
14927.1
14927.1
14927.1
14927.1
14927.1
14927.1
14326.7
14326.7
14326.7
14326.7
14326.7
14326.7
13642.2
13642.2
13642.2
13642.2
13642.1
13642.1
13590.1
13590.1
13590.1
13590.1
13590.1
13590.1
14008.8
14008.8
14008.8
14008.8
14008.8
14008.8
14481.7
14481.7
14481.7
14481.7
14481.7
14481.6
14903.1
14903.1
14903
14903
14903
14903
15867.6
15867.6
15867.6
15867.6
15867.6
15867.6
17671.5
17671.5
17671.5
17671.5
17671.5
17671.5
20694.2
20694.3
20694.2
20694.3
20694.3
20694.3
25103.4
25103.4
25103.4
25103.4
25103.3
25103.4
28475.5
28475.5
28475.5
28475.5
28475.5
28475.5
)
;
    }
    seabed_topright_surface
    {
        type            calculated;
        value           nonuniform List<scalar> 
72
(
0.0703024
0.0703027
0.070303
0.0703038
0.0703045
0.070305
0.0743291
0.0743293
0.07433
0.0743311
0.0743324
0.0743334
0.0826262
0.0826264
0.0826279
0.0826305
0.0826335
0.0826363
0.0957782
0.0957792
0.0957834
0.0957901
0.0957974
0.0958044
0.114692
0.114697
0.114709
0.114725
0.114741
0.114756
0.14099
0.141009
0.141034
0.141064
0.141092
0.141115
0.177884
0.177923
0.17796
0.177996
0.178027
0.178048
0.22346
0.223537
0.223576
0.22359
0.223585
0.223575
0.272866
0.272968
0.272925
0.27277
0.27261
0.27248
0.323189
0.32364
0.323462
0.322668
0.322242
0.321971
0.372146
0.372046
0.371838
0.37153
0.371242
0.371004
0.427444
0.427346
0.427286
0.427246
0.427235
0.427244
)
;
    }
    breakwater_top_surface
    {
        type            calculated;
        value           nonuniform List<scalar> 
36
(
-39.4866
-39.4854
-39.4853
-39.4839
-39.4889
-39.4806
-34.6301
-34.6293
-34.6299
-34.6288
-34.6231
-34.6347
-26.9145
-26.9094
-26.9138
-26.9038
-26.8886
-26.9443
42.0968
42.0384
42.0691
42.2958
42.4516
42.0588
1620.73
1620.16
1619.75
1622.18
1627.27
1614.78
-1209.27
-1208.85
-1209.55
-1210.53
-1212.57
-1209.17
)
;
    }
    breakwater_left_surface
    {
        type            calculated;
        value           nonuniform List<scalar> 
24
(
23739
23739
23739
23739
23739
23738.9
17771.8
17772
17772
17772
17772
17771.8
9770.92
9771.17
9771.06
9771.11
9771.1
9770.9
1447.57
1447.61
1447.54
1447.58
1447.64
1447.29
)
;
    }
    breakwater_right_surface
    {
        type            calculated;
        value           nonuniform List<scalar> 
24
(
-4.47756
-4.47765
-4.47771
-4.47775
-4.47776
-4.47776
-14.4381
-14.4381
-14.438
-14.4378
-14.4375
-14.4372
-23.7243
-23.7242
-23.724
-23.7237
-23.7234
-23.7233
-33.922
-33.9217
-33.9216
-33.9212
-33.9211
-33.921
)
;
    }
    water_front_surface
    {
        type            calculated;
        value           nonuniform List<scalar> 
186
(
10349.8
9739.46
9024.21
8911.09
9277.65
9726.07
10138.2
11079.2
12881.8
15904.6
20313.7
23722.7
2368.23
1360.85
1262.3
1494.95
1893.32
2190.83
2233.68
2135.05
2021.22
4000.82
11173.4
17755.9
-24.5083
-18.7192
-21.1274
-29.7054
-42.7303
-52.5411
-53.643
38.7052
212.836
545.032
1937.63
9756.6
-28.6049
-24.9803
-25.6678
-28.5481
-35.0376
-43.5856
-51.9926
-51.4796
-29.5402
-0.985321
194.697
1434.06
-4.85155
-4.84753
-4.83923
-4.82608
-4.80716
-4.78087
-4.74397
-4.6984
-4.64899
-4.59867
-4.54971
-4.49441
-14.6652
-14.6614
-14.6537
-14.6417
-14.625
-14.6052
-14.591
-14.5815
-14.5628
-14.5363
-14.5074
-14.4546
-24.4823
-24.479
-24.4723
-24.4616
-24.4456
-24.42
-24.3724
-24.3058
-24.2314
-24.1333
-24.0991
-23.7405
-34.3023
-34.2997
-34.2945
-34.2867
-34.2771
-34.2701
-34.276
-34.2857
-34.2739
-34.2165
-34.1367
-33.9379
-43.739
-56.2029
-68.9813
-43.4821
-56.1998
-69.5422
-45.5732
-56.4026
-69.9216
-48.1057
-58.0545
-71.3533
-51.0133
-59.4798
-71.8184
-52.1379
-60.7975
-72.079
-49.912
-60.3721
-71.2659
-41.2046
-57.1591
-69.1723
-26.4071
-50.7745
-72.6385
-44.6221
-43.9618
-67.1795
-74.1638
-61.8317
-83.8372
-204.16
-167.78
-131.089
-44.3916
-59.9764
-66.4611
-39.5351
-64.7493
-74.3707
-31.8667
-87.1464
-167.156
-36.1881
-974.908
-1247.52
-264.136
-509.596
-539.867
-3572.96
-285.557
-275.782
-44.1088
-53.9326
-63.7573
-44.1069
-53.9315
-63.7566
-44.1032
-53.9297
-63.7547
-44.0972
-53.928
-63.7507
-44.0865
-53.9297
-63.7424
-44.0643
-53.9405
-63.7259
-44.023
-53.9648
-63.7026
-43.9702
-53.9966
-63.6883
-43.9284
-54.0264
-63.6867
-43.7239
-54.0668
-63.8921
-44.103
-54.355
-64.1269
-42.159
-55.0081
-65.4976
)
;
    }
    water_back_surface
    {
        type            calculated;
        value           nonuniform List<scalar> 
186
(
10349.7
9739.44
9024.19
8911.07
9277.64
9726.06
10138.2
11079.2
12881.8
15904.6
20313.7
23722.7
2368.2
1360.83
1262.29
1494.94
1893.31
2190.83
2233.66
2135.03
2021.24
4000.87
11173.4
17755.9
-24.5085
-18.7194
-21.1274
-29.7058
-42.7308
-52.541
-53.6426
38.7056
212.841
545.052
1937.71
9756.58
-28.6052
-24.9804
-25.6679
-28.5486
-35.0385
-43.5868
-51.9945
-51.4809
-29.5401
-0.985404
194.702
1433.79
-4.85155
-4.84752
-4.83922
-4.82605
-4.8071
-4.78074
-4.74381
-4.69828
-4.64938
-4.59988
-4.55085
-4.49461
-14.6652
-14.6614
-14.6537
-14.6416
-14.6249
-14.6051
-14.5907
-14.5815
-14.5633
-14.5369
-14.5081
-14.4537
-24.4823
-24.479
-24.4723
-24.4616
-24.4456
-24.42
-24.3726
-24.3064
-24.2326
-24.135
-24.0991
-23.7395
-34.3023
-34.2997
-34.2945
-34.2867
-34.2771
-34.2702
-34.2762
-34.2862
-34.2745
-34.2167
-34.136
-33.9369
-43.7394
-56.2031
-68.9812
-43.4824
-56.2
-69.542
-45.5734
-56.4027
-69.9215
-48.1057
-58.0546
-71.3533
-51.0134
-59.48
-71.8185
-52.1378
-60.7975
-72.079
-49.9119
-60.3719
-71.2661
-41.2045
-57.1586
-69.1724
-26.4101
-50.7754
-72.6378
-44.6267
-43.9493
-67.1754
-74.2437
-61.8046
-83.8583
-205.82
-167.543
-131.15
-44.3856
-59.9788
-66.5492
-39.5397
-64.7184
-74.225
-31.895
-87.1476
-166.433
-36.1952
-972.714
-1245.69
-265.763
-511.142
-540.315
-3573.27
-284.147
-276.053
-44.1088
-53.9326
-63.7573
-44.1069
-53.9315
-63.7566
-44.1032
-53.9297
-63.7547
-44.0972
-53.928
-63.7507
-44.0865
-53.9297
-63.7424
-44.0643
-53.9406
-63.7259
-44.0232
-53.9648
-63.7026
-43.9703
-53.9966
-63.6883
-43.9284
-54.0264
-63.6868
-43.7237
-54.0671
-63.8922
-44.1031
-54.3569
-64.1299
-42.1624
-55.0139
-65.5097
)
;
    }
    water_left_surface
    {
        type            calculated;
        value           nonuniform List<scalar> 
42
(
10365.4
10365.4
10365.4
10365.4
10365.4
10365.4
2376.26
2376.26
2376.25
2376.25
2376.25
2376.24
-24.4921
-24.4918
-24.4919
-24.4919
-24.4918
-24.4923
-28.589
-28.5889
-28.5889
-28.5891
-28.5892
-28.5893
-43.739
-43.739
-43.7391
-43.7393
-43.7394
-43.7394
-56.2029
-56.203
-56.2031
-56.2031
-56.2031
-56.2031
-68.9813
-68.9814
-68.9813
-68.9813
-68.9813
-68.9812
)
;
    }
    water_right_surface
    {
        type            calculated;
        value           nonuniform List<scalar> 
42
(
-4.8347
-4.8347
-4.8347
-4.8347
-4.8347
-4.8347
-14.6487
-14.6487
-14.6487
-14.6487
-14.6487
-14.6487
-24.4661
-24.4661
-24.4661
-24.4661
-24.4661
-24.4661
-34.2864
-34.2864
-34.2864
-34.2864
-34.2864
-34.2864
-44.1088
-44.1088
-44.1088
-44.1088
-44.1088
-44.1088
-53.9326
-53.9326
-53.9326
-53.9326
-53.9326
-53.9326
-63.7573
-63.7573
-63.7573
-63.7573
-63.7573
-63.7573
)
;
    }
    water_top_surface
    {
        type            calculated;
        value           nonuniform List<scalar> 
180
(
-75.3476
-75.348
-75.3478
-75.3477
-75.3478
-75.3472
-75.9517
-75.9522
-75.952
-75.9519
-75.9519
-75.9514
-75.4304
-75.4309
-75.4308
-75.4307
-75.4308
-75.4303
-76.7627
-76.7634
-76.7633
-76.7633
-76.7634
-76.7629
-76.1885
-76.1891
-76.1891
-76.1891
-76.1892
-76.1887
-76.8232
-76.8236
-76.8236
-76.8237
-76.8238
-76.8233
-76.7288
-76.7292
-76.7292
-76.7293
-76.7296
-76.7293
-76.3909
-76.3913
-76.3913
-76.3914
-76.3918
-76.3907
-78.9682
-78.9688
-78.9682
-78.9678
-78.9682
-78.9657
-68.6747
-68.6747
-68.6747
-68.6746
-68.6744
-68.6749
-68.6818
-68.6818
-68.6818
-68.6818
-68.6818
-68.6818
-69.3299
-69.33
-69.3299
-69.33
-69.3304
-69.3296
-68.67
-68.67
-68.67
-68.67
-68.67
-68.67
-68.67
-68.67
-68.67
-68.67
-68.67
-68.67
-3665.72
-3668.67
-3666.19
-3672.06
-3684.77
-3650.93
-8492.06
-8509.93
-8498.96
-8501.29
-8517.1
-8471.82
-1202.66
-1201.61
-1202
-1200.92
-1198.98
-1205.39
-165.591
-165.526
-165.591
-165.586
-165.302
-165.981
-68.6704
-68.6704
-68.6704
-68.6704
-68.6704
-68.6704
-68.6704
-68.6704
-68.6704
-68.6704
-68.6704
-68.6704
-68.6705
-68.6705
-68.6705
-68.6705
-68.6705
-68.6705
-68.6707
-68.6707
-68.6707
-68.6707
-68.6707
-68.6707
-68.6711
-68.6711
-68.6711
-68.6711
-68.6711
-68.6711
-68.6718
-68.6718
-68.6718
-68.6718
-68.6718
-68.6718
-68.673
-68.673
-68.673
-68.673
-68.673
-68.673
-68.6758
-68.6758
-68.6758
-68.6758
-68.6758
-68.6758
-68.6825
-68.6825
-68.6825
-68.6825
-68.6825
-68.6824
-68.7051
-68.7051
-68.7051
-68.7051
-68.7051
-68.705
-68.822
-68.8221
-68.8221
-68.8221
-68.8229
-68.8212
-69.554
-69.5541
-69.5549
-69.5535
-69.5553
-69.5531
)
;
    }
}


// ************************************************************************* //
