/*--------------------------------*- C++ -*----------------------------------*\
| =========                 |                                                 |
| \\      /  F ield         | OpenFOAM: The Open Source CFD Toolbox           |
|  \\    /   O peration     | Version:  v1612+                                |
|   \\  /    A nd           | Web:      www.OpenFOAM.com                      |
|    \\/     M anipulation  |                                                 |
\*---------------------------------------------------------------------------*/
FoamFile
{
    version     2.0;
    format      ascii;
    class       volScalarField;
    location    "2.8";
    object      p_rgh;
}
// * * * * * * * * * * * * * * * * * * * * * * * * * * * * * * * * * * * * * //

dimensions      [1 -1 -2 0 0 0 0];

internalField   nonuniform List<scalar> 
1116
(
14927.1
14927.1
14927.1
14927.1
14927.1
14927.1
14326.7
14326.7
14326.7
14326.7
14326.7
14326.7
13642.2
13642.2
13642.2
13642.2
13642.1
13642.1
13590.1
13590.1
13590.1
13590.1
13590.1
13590.1
14008.8
14008.8
14008.8
14008.8
14008.8
14008.8
14481.7
14481.7
14481.7
14481.7
14481.7
14481.6
14903.1
14903.1
14903
14903
14903
14903
15867.6
15867.6
15867.6
15867.6
15867.6
15867.6
17671.5
17671.5
17671.5
17671.5
17671.5
17671.5
20694.2
20694.3
20694.2
20694.3
20694.3
20694.3
25103.4
25103.4
25103.4
25103.4
25103.3
25103.4
28475.5
28475.5
28475.5
28475.5
28475.5
28475.5
9534.58
9534.56
9534.53
9534.53
9534.52
9534.48
5404.3
5404.25
5404.25
5404.23
5404.18
5404.23
4982.11
4982.08
4982.08
4982.04
4981.99
4982.06
5900.98
5900.95
5900.96
5900.92
5900.87
5900.94
7535.43
7535.42
7535.47
7535.44
7535.37
7535.42
8742.31
8742.33
8742.38
8742.37
8742.32
8742.3
8968.56
8968.56
8968.6
8968.58
8968.54
8968.52
8554.47
8554.46
8554.49
8554.47
8554.46
8554.44
7477.56
7477.45
7477.48
7477.48
7477.48
7477.56
11096.6
11096.4
11096.4
11096.4
11096.4
11096.6
23843.8
23843.4
23843.5
23843.5
23843.4
23843.8
31979.9
31980.1
31980.1
31980.1
31980.1
31979.9
0.0337752
0.0341146
0.033947
0.0339863
0.034098
0.0336102
5.82247
5.8228
5.82259
5.82247
5.82261
5.82225
3.41412
3.41446
3.41427
3.41436
3.41459
3.41415
-5.16409
-5.16352
-5.16392
-5.16397
-5.16384
-5.1645
-18.1891
-18.1885
-18.1887
-18.1888
-18.1888
-18.1896
-27.9999
-27.9994
-27.9993
-27.9993
-27.9992
-27.9998
-29.1018
-29.1019
-29.1019
-29.1023
-29.1022
-29.1014
63.2464
63.2453
63.2458
63.2455
63.2445
63.2468
237.242
237.24
237.241
237.242
237.242
237.246
580.359
580.363
580.363
580.361
580.361
580.379
9816.61
9815.11
9815.41
9815.53
9815.25
9815.97
31466.8
31466.9
31466.9
31466.9
31466.8
31466.9
5.76078
5.76094
5.76087
5.76071
5.76058
5.76046
9.52525
9.52542
9.52536
9.52521
9.52514
9.52508
8.68398
8.68404
8.68387
8.68378
8.68382
8.68384
5.80968
5.80974
5.80948
5.80936
5.80943
5.80923
-0.679508
-0.679495
-0.679751
-0.679904
-0.679879
-0.68038
-9.23472
-9.23475
-9.2351
-9.23524
-9.23523
-9.23592
-17.6418
-17.6415
-17.642
-17.6425
-17.6429
-17.6436
-17.1287
-17.1287
-17.1288
-17.1289
-17.1294
-17.13
4.58732
4.58623
4.58511
4.58423
4.58283
4.58745
35.0573
35.057
35.0581
35.0582
35.056
35.0554
248.985
248.985
248.986
248.989
248.97
248.989
30666.9
30666.3
30666.1
30666.6
30667.9
30663.9
0.0703024
0.0703027
0.070303
0.0703038
0.0703045
0.070305
0.0743291
0.0743293
0.07433
0.0743311
0.0743324
0.0743334
0.0826262
0.0826264
0.0826279
0.0826305
0.0826335
0.0826363
0.0957782
0.0957792
0.0957834
0.0957901
0.0957974
0.0958044
0.114692
0.114697
0.114709
0.114725
0.114741
0.114756
0.14099
0.141009
0.141034
0.141064
0.141092
0.141115
0.177884
0.177923
0.17796
0.177996
0.178027
0.178048
0.22346
0.223537
0.223576
0.22359
0.223585
0.223575
0.272866
0.272968
0.272925
0.27277
0.27261
0.27248
0.323189
0.32364
0.323462
0.322668
0.322242
0.321971
0.372146
0.372046
0.371838
0.37153
0.371242
0.371004
0.427444
0.427346
0.427286
0.427246
0.427235
0.427244
0.0663167
0.0663171
0.0663178
0.0663187
0.0663196
0.0663202
0.0700755
0.0700767
0.0700782
0.07008
0.0700818
0.0700831
0.0777837
0.0777869
0.0777906
0.0777951
0.0777992
0.0778022
0.0898624
0.0898705
0.0898798
0.0898902
0.0898994
0.0899063
0.106529
0.106549
0.10657
0.106592
0.10661
0.106623
0.126268
0.126314
0.126357
0.126398
0.126431
0.126451
0.140478
0.140578
0.140659
0.140726
0.140772
0.140795
0.149983
0.150074
0.150109
0.150117
0.150096
0.150055
0.168674
0.168661
0.168597
0.168515
0.168391
0.168249
0.195246
0.194674
0.194516
0.194808
0.19476
0.194612
0.224123
0.223869
0.223668
0.223539
0.223431
0.223375
0.276916
0.276912
0.277015
0.277238
0.277497
0.277773
0.0588715
0.0588718
0.0588723
0.0588731
0.0588739
0.0588745
0.0621569
0.0621581
0.0621594
0.062161
0.0621623
0.0621632
0.0688916
0.0688949
0.0688979
0.0689011
0.0689037
0.0689052
0.0795963
0.0796036
0.07961
0.0796161
0.0796205
0.0796226
0.0955586
0.0955722
0.0955819
0.0955897
0.0955941
0.0955946
0.121199
0.121213
0.121214
0.12121
0.121201
0.121189
0.168817
0.168801
0.16876
0.168705
0.168647
0.168599
0.235433
0.235363
0.235245
0.235091
0.234937
0.23482
0.309744
0.309556
0.309314
0.309034
0.308769
0.308593
0.407879
0.407576
0.407216
0.406834
0.406453
0.406218
0.442069
0.441986
0.441946
0.441951
0.442001
0.442127
0.800707
0.800814
0.801021
0.80128
0.801628
0.801667
0.0485578
0.0485581
0.0485585
0.0485592
0.0485599
0.0485604
0.0511502
0.0511516
0.0511527
0.0511538
0.0511548
0.0511552
0.0563675
0.0563708
0.0563728
0.0563745
0.0563755
0.0563755
0.0641473
0.0641527
0.0641554
0.0641567
0.0641565
0.0641547
0.0737925
0.073799
0.0737987
0.0737947
0.0737884
0.0737809
0.0807535
0.0807525
0.0807403
0.0807189
0.0806948
0.0806733
0.074904
0.0748809
0.0748374
0.0747776
0.0747164
0.0746668
0.0651652
0.0650808
0.0649671
0.0648371
0.0647149
0.0646287
0.0769861
0.0768375
0.0766806
0.0765364
0.0764196
0.0763701
0.134345
0.134222
0.134125
0.134096
0.134103
0.134209
0.214153
0.214281
0.214403
0.214601
0.21472
0.21492
0.413001
0.413322
0.413442
0.413787
0.413862
0.413985
0.439077
0.439064
0.438966
0.438848
0.438768
0.438716
-2.23842
-2.23848
-2.23853
-2.23857
-2.2386
-2.23861
-5.21631
-5.21639
-5.21635
-5.21632
-5.2163
-5.21619
1.01482
1.01475
1.01463
1.01454
1.01449
1.01446
-2.05324
-2.05334
-2.05336
-2.0534
-2.0535
-2.05339
-5.77715
-5.77723
-5.77719
-5.77715
-5.77713
-5.77699
-1.42363
-1.42367
-1.42375
-1.42379
-1.4238
-1.42381
-2.44367
-2.44372
-2.44374
-2.44376
-2.4438
-2.44376
-6.1566
-6.15669
-6.15668
-6.15666
-6.15665
-6.15653
-3.94427
-3.94423
-3.94425
-3.94424
-3.94424
-3.94427
-4.09947
-4.09947
-4.09947
-4.0995
-4.09957
-4.09953
-7.58825
-7.5884
-7.58841
-7.58841
-7.58843
-7.58827
-6.85188
-6.85191
-6.85195
-6.85192
-6.85192
-6.85199
-5.5162
-5.51622
-5.51623
-5.51625
-5.51634
-5.51635
-8.05341
-8.05356
-8.05359
-8.05359
-8.05362
-8.05346
-7.99221
-7.99244
-7.99256
-7.99241
-7.99231
-7.99213
-6.84244
-6.84254
-6.84257
-6.84257
-6.84256
-6.84246
-8.31397
-8.31407
-8.31406
-8.31407
-8.3141
-8.31401
-5.76705
-5.76709
-5.76727
-5.76719
-5.76696
-5.76694
-6.41709
-6.41718
-6.41719
-6.41716
-6.417
-6.41685
-7.50087
-7.50089
-7.5009
-7.50095
-7.50105
-7.50107
2.94036
2.9408
2.94026
2.94036
2.93962
2.94049
-3.20407
-3.20393
-3.20396
-3.20387
-3.20397
-3.20357
-5.40731
-5.4074
-5.40743
-5.40748
-5.40772
-5.40742
17.7353
17.7353
17.7345
17.7341
17.7322
17.7322
3.18052
3.18077
3.18046
3.1806
3.18029
3.17962
-8.87353
-8.87347
-8.87336
-8.87275
-8.87305
-8.87277
-0.359248
-0.363694
-0.364336
-0.363326
-0.365617
-0.363918
9.98791
9.98773
9.98695
9.98789
9.98058
10.0003
-3.41471
-3.41218
-3.41325
-3.41151
-3.41617
-3.41064
-27.696
-27.6851
-27.6924
-27.6927
-27.6687
-27.7765
-7.65329
-7.65425
-7.65174
-7.65143
-7.66183
-7.62584
-20.0613
-20.0575
-20.0615
-20.0584
-20.0538
-20.0824
21237.3
21236.6
21236.7
21235.6
21231.9
21239
601.302
599.082
600.585
601.533
596.499
607.405
-66.7115
-66.6969
-66.7087
-66.7166
-66.7098
-66.773
-0.246577
-0.245423
-0.245297
-0.243876
-0.248895
-0.240564
-6.02139
-6.02645
-6.02629
-6.03198
-6.0424
-6.02384
-2.69612
-2.71218
-2.70571
-2.7437
-2.7894
-2.7842
4.60987
4.61074
4.61007
4.61121
4.61687
4.60528
-10.7943
-10.7923
-10.7909
-10.7934
-10.7832
-10.7634
-10.6057
-10.5893
-10.5873
-10.5445
-10.4826
-10.46
12.703
12.7131
12.7061
12.7235
12.7431
12.661
845.693
845.98
845.602
846.916
848.956
841.487
3236.73
3239.3
3237.09
3242.46
3253.71
3223.71
668.376
667.802
668.086
670.038
671.325
668.09
13222.8
13221
13218.5
13230.4
13255.3
13194
6637.97
6653.31
6643.77
6645.79
6658.64
6621
16699.6
16695.5
16692.8
16711.9
16750.6
16659.2
20187.1
20182.6
20179.2
20202.4
20247.2
20138.7
576.884
575.854
576.215
575.322
573.672
578.975
17700.3
17700.3
17699.5
17698
17695.6
17703.6
6950.15
6958.44
6958.51
6927.48
6875.55
7015.6
-122.018
-122.087
-122.037
-121.953
-122.111
-121.928
0.0362207
0.0362208
0.0362211
0.0362216
0.0362223
0.0362227
0.0224177
0.0224179
0.0224181
0.0224186
0.0224191
0.0224194
0.00768595
0.00768606
0.00768621
0.00768638
0.00768656
0.0076867
0.0380705
0.0380712
0.0380718
0.0380724
0.0380729
0.0380732
0.0234607
0.0234611
0.0234614
0.0234618
0.0234621
0.0234622
0.0083883
0.00838842
0.00838851
0.00838858
0.00838866
0.0083887
0.0418314
0.0418327
0.0418333
0.0418337
0.0418337
0.0418333
0.0253176
0.0253179
0.025318
0.0253179
0.0253178
0.0253176
0.0102566
0.0102566
0.0102566
0.0102564
0.0102564
0.0102563
0.0477911
0.047792
0.0477919
0.0477909
0.0477892
0.0477871
0.0269628
0.0269626
0.026962
0.026961
0.02696
0.0269591
0.0143254
0.0143253
0.014325
0.0143246
0.0143242
0.0143239
0.0584748
0.0584726
0.0584687
0.0584632
0.0584574
0.0584524
0.0252839
0.025282
0.0252789
0.025275
0.0252709
0.0252678
0.0225886
0.0225881
0.0225873
0.0225863
0.0225853
0.0225845
0.080725
0.0807105
0.0806946
0.080677
0.0806613
0.0806506
0.0144691
0.0144615
0.0144522
0.014442
0.0144324
0.0144267
0.0391025
0.0391011
0.0390995
0.0390973
0.0390956
0.0390945
0.121961
0.12192
0.121881
0.121844
0.121817
0.121803
-0.00977391
-0.0097885
-0.00980568
-0.00982059
-0.00983637
-0.00984115
0.0624394
0.0624357
0.0624325
0.062428
0.0624247
0.0624233
0.1748
0.174743
0.174701
0.17467
0.174654
0.174659
-0.0415809
-0.0415965
-0.0416267
-0.0416252
-0.0416533
-0.0416405
0.0766781
0.0766705
0.0766643
0.0766595
0.0766504
0.0766578
0.216604
0.216563
0.216552
0.216566
0.216593
0.216647
-0.0714168
-0.0714121
-0.0714666
-0.0714279
-0.0714742
-0.0714388
0.0782788
0.0782684
0.0782505
0.0782363
0.0782317
0.0781992
0.421111
0.421154
0.421208
0.421248
0.421338
0.421282
-0.111783
-0.111759
-0.111915
-0.111887
-0.11199
-0.112084
-0.127052
-0.127115
-0.127299
-0.127315
-0.127512
-0.127214
0.0420316
0.0421294
0.0420257
0.0420973
0.0417847
0.0418714
-0.400017
-0.400183
-0.400612
-0.401222
-0.401649
-0.40185
-0.361921
-0.361982
-0.362383
-0.363282
-0.362862
-0.364935
1.98604
1.98603
1.98599
1.9846
1.98623
1.98263
-1.05289
-1.05382
-1.05497
-1.05713
-1.05913
-1.05875
-1.73265
-1.73587
-1.73784
-1.74379
-1.75689
-1.74474
)
;

boundaryField
{
    seabed_topleft_surface
    {
        type            fixedFluxPressure;
        gradient        uniform 0;
        value           nonuniform List<scalar> 
72
(
14927.1
14927.1
14927.1
14927.1
14927.1
14927.1
14326.7
14326.7
14326.7
14326.7
14326.7
14326.7
13642.2
13642.2
13642.2
13642.2
13642.1
13642.1
13590.1
13590.1
13590.1
13590.1
13590.1
13590.1
14008.8
14008.8
14008.8
14008.8
14008.8
14008.8
14481.7
14481.7
14481.7
14481.7
14481.7
14481.6
14903.1
14903.1
14903
14903
14903
14903
15867.6
15867.6
15867.6
15867.6
15867.6
15867.6
17671.5
17671.5
17671.5
17671.5
17671.5
17671.5
20694.2
20694.3
20694.2
20694.3
20694.3
20694.3
25103.4
25103.4
25103.4
25103.4
25103.3
25103.4
28475.5
28475.5
28475.5
28475.5
28475.5
28475.5
)
;
    }
    seabed_topright_surface
    {
        type            fixedFluxPressure;
        gradient        uniform 0;
        value           nonuniform List<scalar> 
72
(
0.0703024
0.0703027
0.070303
0.0703038
0.0703045
0.070305
0.0743291
0.0743293
0.07433
0.0743311
0.0743324
0.0743334
0.0826262
0.0826264
0.0826279
0.0826305
0.0826335
0.0826363
0.0957782
0.0957792
0.0957834
0.0957901
0.0957974
0.0958044
0.114692
0.114697
0.114709
0.114725
0.114741
0.114756
0.14099
0.141009
0.141034
0.141064
0.141092
0.141115
0.177884
0.177923
0.17796
0.177996
0.178027
0.178048
0.22346
0.223537
0.223576
0.22359
0.223585
0.223575
0.272866
0.272968
0.272925
0.27277
0.27261
0.27248
0.323189
0.32364
0.323462
0.322668
0.322242
0.321971
0.372146
0.372046
0.371838
0.37153
0.371242
0.371004
0.427444
0.427346
0.427286
0.427246
0.427235
0.427244
)
;
    }
    breakwater_top_surface
    {
        type            fixedFluxPressure;
        gradient        uniform 0;
        value           nonuniform List<scalar> 
36
(
-0.246577
-0.245423
-0.245297
-0.243876
-0.248895
-0.240564
4.60987
4.61074
4.61007
4.61121
4.61687
4.60528
12.703
12.7131
12.7061
12.7235
12.7431
12.661
668.376
667.802
668.086
670.038
671.325
668.09
16699.6
16695.5
16692.8
16711.9
16750.6
16659.2
17700.3
17700.3
17699.5
17698
17695.6
17703.6
)
;
    }
    breakwater_left_surface
    {
        type            fixedFluxPressure;
        gradient        uniform 0;
        value           nonuniform List<scalar> 
24
(
28475.5
28475.5
28475.5
28475.5
28475.5
28475.5
31979.9
31980.1
31980.1
31980.1
31980.1
31979.9
31466.8
31466.9
31466.9
31466.9
31466.8
31466.9
30666.9
30666.3
30666.1
30666.6
30667.9
30663.9
)
;
    }
    breakwater_right_surface
    {
        type            fixedFluxPressure;
        gradient        uniform 0;
        value           nonuniform List<scalar> 
24
(
0.427444
0.427346
0.427286
0.427246
0.427235
0.427244
0.276916
0.276912
0.277015
0.277238
0.277497
0.277773
0.800707
0.800814
0.801021
0.80128
0.801628
0.801667
0.413001
0.413322
0.413442
0.413787
0.413862
0.413985
)
;
    }
    water_front_surface
    {
        type            fixedFluxPressure;
        gradient        uniform 0;
        value           nonuniform List<scalar> 
186
(
14927.1
14326.7
13642.2
13590.1
14008.8
14481.7
14903.1
15867.6
17671.5
20694.2
25103.4
28475.5
9534.58
5404.3
4982.11
5900.98
7535.43
8742.31
8968.56
8554.47
7477.56
11096.6
23843.8
31979.9
0.0337752
5.82247
3.41412
-5.16409
-18.1891
-27.9999
-29.1018
63.2464
237.242
580.359
9816.61
31466.8
5.76078
9.52525
8.68398
5.80968
-0.679508
-9.23472
-17.6418
-17.1287
4.58732
35.0573
248.985
30666.9
0.0703024
0.0743291
0.0826262
0.0957782
0.114692
0.14099
0.177884
0.22346
0.272866
0.323189
0.372146
0.427444
0.0663167
0.0700755
0.0777837
0.0898624
0.106529
0.126268
0.140478
0.149983
0.168674
0.195246
0.224123
0.276916
0.0588715
0.0621569
0.0688916
0.0795963
0.0955586
0.121199
0.168817
0.235433
0.309744
0.407879
0.442069
0.800707
0.0485578
0.0511502
0.0563675
0.0641473
0.0737925
0.0807535
0.074904
0.0651652
0.0769861
0.134345
0.214153
0.413001
0.439077
-2.23842
-5.21631
1.01482
-2.05324
-5.77715
-1.42363
-2.44367
-6.1566
-3.94427
-4.09947
-7.58825
-6.85188
-5.5162
-8.05341
-7.99221
-6.84244
-8.31397
-5.76705
-6.41709
-7.50087
2.94036
-3.20407
-5.40731
17.7353
3.18052
-8.87353
-0.359248
9.98791
-3.41471
-27.696
-7.65329
-20.0613
21237.3
601.302
-66.7115
-0.246577
-6.02139
-2.69612
4.60987
-10.7943
-10.6057
12.703
845.693
3236.73
668.376
13222.8
6637.97
16699.6
20187.1
576.884
17700.3
6950.15
-122.018
0.0362207
0.0224177
0.00768595
0.0380705
0.0234607
0.0083883
0.0418314
0.0253176
0.0102566
0.0477911
0.0269628
0.0143254
0.0584748
0.0252839
0.0225886
0.080725
0.0144691
0.0391025
0.121961
-0.00977391
0.0624394
0.1748
-0.0415809
0.0766781
0.216604
-0.0714168
0.0782788
0.421111
-0.111783
-0.127052
0.0420316
-0.400017
-0.361921
1.98604
-1.05289
-1.73265
)
;
    }
    water_back_surface
    {
        type            fixedFluxPressure;
        gradient        uniform 0;
        value           nonuniform List<scalar> 
186
(
14927.1
14326.7
13642.1
13590.1
14008.8
14481.6
14903
15867.6
17671.5
20694.3
25103.4
28475.5
9534.48
5404.23
4982.06
5900.94
7535.42
8742.3
8968.52
8554.44
7477.56
11096.6
23843.8
31979.9
0.0336102
5.82225
3.41415
-5.1645
-18.1896
-27.9998
-29.1014
63.2468
237.246
580.379
9815.97
31466.9
5.76046
9.52508
8.68384
5.80923
-0.68038
-9.23592
-17.6436
-17.13
4.58745
35.0554
248.989
30663.9
0.070305
0.0743334
0.0826363
0.0958044
0.114756
0.141115
0.178048
0.223575
0.27248
0.321971
0.371004
0.427244
0.0663202
0.0700831
0.0778022
0.0899063
0.106623
0.126451
0.140795
0.150055
0.168249
0.194612
0.223375
0.277773
0.0588745
0.0621632
0.0689052
0.0796226
0.0955946
0.121189
0.168599
0.23482
0.308593
0.406218
0.442127
0.801667
0.0485604
0.0511552
0.0563755
0.0641547
0.0737809
0.0806733
0.0746668
0.0646287
0.0763701
0.134209
0.21492
0.413985
0.438716
-2.23861
-5.21619
1.01446
-2.05339
-5.77699
-1.42381
-2.44376
-6.15653
-3.94427
-4.09953
-7.58827
-6.85199
-5.51635
-8.05346
-7.99213
-6.84246
-8.31401
-5.76694
-6.41685
-7.50107
2.94049
-3.20357
-5.40742
17.7322
3.17962
-8.87277
-0.363918
10.0003
-3.41064
-27.7765
-7.62584
-20.0824
21239
607.405
-66.773
-0.240564
-6.02384
-2.7842
4.60528
-10.7634
-10.46
12.661
841.487
3223.71
668.09
13194
6621
16659.2
20138.7
578.975
17703.6
7015.6
-121.928
0.0362227
0.0224194
0.0076867
0.0380732
0.0234622
0.0083887
0.0418333
0.0253176
0.0102563
0.0477871
0.0269591
0.0143239
0.0584524
0.0252678
0.0225845
0.0806506
0.0144267
0.0390945
0.121803
-0.00984115
0.0624233
0.174659
-0.0416405
0.0766578
0.216647
-0.0714388
0.0781992
0.421282
-0.112084
-0.127214
0.0418714
-0.40185
-0.364935
1.98263
-1.05875
-1.74474
)
;
    }
    water_left_surface
    {
        type            fixedFluxPressure;
        gradient        uniform 0;
        value           nonuniform List<scalar> 
42
(
14927.1
14927.1
14927.1
14927.1
14927.1
14927.1
9534.58
9534.56
9534.53
9534.53
9534.52
9534.48
0.0337752
0.0341146
0.033947
0.0339863
0.034098
0.0336102
5.76078
5.76094
5.76087
5.76071
5.76058
5.76046
0.439077
0.439064
0.438966
0.438848
0.438768
0.438716
-2.23842
-2.23848
-2.23853
-2.23857
-2.2386
-2.23861
-5.21631
-5.21639
-5.21635
-5.21632
-5.2163
-5.21619
)
;
    }
    water_right_surface
    {
        type            fixedFluxPressure;
        gradient        uniform 0;
        value           nonuniform List<scalar> 
42
(
0.0703024
0.0703027
0.070303
0.0703038
0.0703045
0.070305
0.0663167
0.0663171
0.0663178
0.0663187
0.0663196
0.0663202
0.0588715
0.0588718
0.0588723
0.0588731
0.0588739
0.0588745
0.0485578
0.0485581
0.0485585
0.0485592
0.0485599
0.0485604
0.0362207
0.0362208
0.0362211
0.0362216
0.0362223
0.0362227
0.0224177
0.0224179
0.0224181
0.0224186
0.0224191
0.0224194
0.00768595
0.00768606
0.00768621
0.00768638
0.00768656
0.0076867
)
;
    }
    water_top_surface
    {
        type            totalPressure;
        rho             rho;
        psi             none;
        gamma           1;
        p0              uniform 0;
        value           nonuniform List<scalar> 
180
(
-6.67755
-6.67797
-6.67783
-6.67774
-6.67777
-6.67724
-7.28173
-7.28217
-7.282
-7.28191
-7.28194
-7.28138
-6.76042
-6.76087
-6.76077
-6.76072
-6.76076
-6.76031
-8.09273
-8.09337
-8.09331
-8.09332
-8.09341
-8.09289
-7.51852
-7.51908
-7.51908
-7.51911
-7.51921
-7.51866
-8.15316
-8.15357
-8.1536
-8.15368
-8.15385
-8.15334
-8.05882
-8.05922
-8.05918
-8.05935
-8.05961
-8.05931
-7.72091
-7.72131
-7.72126
-7.72142
-7.72177
-7.72065
-10.2982
-10.2988
-10.2982
-10.2978
-10.2982
-10.2957
-0.00469593
-0.00469594
-0.00465963
-0.00463435
-0.00444425
-0.004912
0
0
0
0
0
0
0
0
0
0
0
0
0
0
0
0
0
0
0
0
0
0
0
0
0
0
0
0
0
0
0
0
0
0
0
0
0
0
0
0
0
0
0
0
0
0
0
0
-0.000362538
-0.000362573
-0.000362571
-0.000362573
-0.000362575
-0.00036254
-0.000411381
-0.000411416
-0.000411415
-0.000411419
-0.000411425
-0.00041139
-0.000521444
-0.000521481
-0.000521484
-0.000521496
-0.000521516
-0.000521486
-0.000725841
-0.000725888
-0.00072591
-0.000725955
-0.000726016
-0.000726014
-0.00108538
-0.00108549
-0.00108559
-0.00108574
-0.00108591
-0.00108601
-0.00175062
-0.00175104
-0.00175138
-0.00175177
-0.00175219
-0.00175245
-0.00302266
-0.00302395
-0.00302474
-0.00302547
-0.00302607
-0.00302622
-0.00583797
-0.0058408
-0.0058417
-0.00584175
-0.00584137
-0.00583935
-0.0124663
-0.0124693
-0.012468
-0.012463
-0.0124573
-0.0124498
-0.0351053
-0.0351045
-0.035097
-0.0350764
-0.0350981
-0.0350073
-0.152036
-0.152095
-0.152059
-0.152103
-0.152863
-0.151157
-0.883982
-0.884139
-0.884912
-0.883524
-0.885266
-0.883137
)
;
    }
}


// ************************************************************************* //
