/*--------------------------------*- C++ -*----------------------------------*\
| =========                 |                                                 |
| \\      /  F ield         | OpenFOAM: The Open Source CFD Toolbox           |
|  \\    /   O peration     | Version:  v1612+                                |
|   \\  /    A nd           | Web:      www.OpenFOAM.com                      |
|    \\/     M anipulation  |                                                 |
\*---------------------------------------------------------------------------*/
FoamFile
{
    version     2.0;
    format      ascii;
    class       surfaceScalarField;
    location    "2.8";
    object      phi;
}
// * * * * * * * * * * * * * * * * * * * * * * * * * * * * * * * * * * * * * //

dimensions      [0 3 -1 0 0 0 0];

internalField   nonuniform List<scalar> 
2916
(
-6.52745e-06
0.50423
-0.504223
-1.266e-06
0.504228
-0.504233
-3.52502e-06
0.504228
-0.504226
-7.4001e-06
0.504233
-0.504229
-1.74359e-06
0.504233
-0.504239
0.504223
-0.504225
-4.29111e-06
1.00099
-0.496761
-2.38435e-06
1.001
-0.496773
-7.29519e-06
1.001
-0.496767
-6.63518e-06
1.001
-0.496771
4.28935e-06
1.001
-0.496782
1.00099
-0.496766
-5.78215e-06
1.34648
-0.345478
-1.97355e-06
1.34649
-0.345494
-5.01549e-06
1.34649
-0.345488
-4.59075e-06
1.34649
-0.345489
5.90435e-06
1.34649
-0.345499
1.34648
-0.345483
-7.2751e-06
1.59888
-0.25239
-2.3096e-06
1.59889
-0.252407
-4.25351e-06
1.59889
-0.2524
-4.51518e-06
1.59889
-0.252401
4.68951e-06
1.59889
-0.252409
1.59888
-0.252393
-8.56789e-06
1.81308
-0.214198
-4.14603e-06
1.8131
-0.214214
-5.73567e-06
1.8131
-0.214208
-5.70028e-06
1.8131
-0.214208
3.38362e-06
1.8131
-0.214216
1.81308
-0.2142
-9.31014e-06
1.99683
-0.183738
-6.11033e-06
1.99685
-0.183752
-7.42139e-06
1.99685
-0.183747
-6.50756e-06
1.99685
-0.183748
2.76929e-06
1.99685
-0.183755
1.99683
-0.183739
-1.12462e-05
2.13165
-0.134813
-7.90284e-06
2.13167
-0.134825
-8.75965e-06
2.13167
-0.13482
-7.34236e-06
2.13167
-0.134822
1.93244e-06
2.13166
-0.134829
2.13164
-0.134814
-9.35078e-06
2.18759
-0.0559249
-7.00404e-06
2.18761
-0.0559383
-7.00867e-06
2.18761
-0.0559342
-5.36575e-06
2.1876
-0.0559356
-1.00709e-07
2.1876
-0.0559428
2.18757
-0.0559294
-6.25479e-06
1.95041
0.237183
-3.74696e-06
1.95045
0.237155
-4.84993e-06
1.95044
0.237164
-4.93541e-06
1.95044
0.237163
-2.84775e-06
1.95045
0.237152
1.9504
0.23717
-5.0107e-06
1.23771
0.712705
2.06829e-06
1.23776
0.71268
5.64675e-07
1.23776
0.712686
-1.94409e-06
1.23776
0.712687
-2.22981e-06
1.23777
0.712678
1.2377
0.712692
3.87547e-06
0.356596
0.881113
1.79309e-06
0.35664
0.881125
3.63003e-06
0.35664
0.881117
3.05093e-06
0.356639
0.881117
-4.49719e-06
0.356661
0.881118
0.356592
0.881107
-3.19659e-05
0.356628
-2.39718e-05
0.356632
-1.38892e-05
0.35663
-2.86055e-06
0.356628
2.51778e-05
0.356633
0.356617
9.67769e-06
0.535422
-1.03965
-4.30798e-06
0.535417
-1.03964
-1.45661e-05
0.535426
-1.03964
1.13565e-06
0.535421
-1.03966
1.13803e-05
0.535415
-1.03966
0.535439
-1.03965
2.41272e-05
1.14713
-1.10849
-7.06605e-06
1.14714
-1.10847
-1.29556e-05
1.14714
-1.10847
1.9151e-07
1.14714
-1.1085
-1.282e-05
1.14715
-1.1085
1.14713
-1.10847
2.49234e-05
1.63545
-0.833827
-3.73686e-06
1.63549
-0.83381
-4.3331e-06
1.63547
-0.833818
-5.5099e-07
1.63547
-0.833825
-2.62373e-05
1.63549
-0.83382
1.63545
-0.833826
2.48994e-05
1.97429
-0.591251
8.82462e-07
1.97434
-0.591237
2.23762e-06
1.97431
-0.591246
3.33861e-06
1.97432
-0.591246
-2.4674e-05
1.97435
-0.591235
1.97429
-0.591257
2.16905e-05
2.27891
-0.518837
4.65537e-06
2.27898
-0.518832
1.08769e-05
2.27894
-0.518844
1.20249e-05
2.27894
-0.518839
-1.49559e-05
2.27898
-0.518822
2.27892
-0.518844
1.81336e-05
2.55155
-0.456399
9.57303e-06
2.55164
-0.456404
1.87158e-05
2.5516
-0.456413
1.87588e-05
2.5516
-0.456407
-1.55459e-06
2.55164
-0.456394
2.55158
-0.4564
2.2467e-05
2.80953
-0.392816
1.77905e-05
2.80965
-0.39283
2.71752e-05
2.80961
-0.392836
2.55911e-05
2.80961
-0.39283
7.02458e-06
2.80965
-0.39282
2.80959
-0.392818
2.76152e-05
3.1087
-0.355121
2.86386e-05
3.10885
-0.35514
3.63772e-05
3.1088
-0.355137
3.13722e-05
3.10881
-0.355126
1.08176e-05
3.10884
-0.355112
3.10878
-0.35511
3.1506e-05
3.02816
0.317694
2.7797e-05
3.02832
0.317689
3.1598e-05
3.02827
0.317691
2.60667e-05
3.02828
0.317702
2.78679e-06
3.0283
0.317713
3.02824
0.317714
2.85246e-05
2.1841
1.55673
2.42346e-05
2.18428
1.55672
1.91153e-05
2.18423
1.55673
8.73139e-06
2.18423
1.55674
-1.63766e-05
2.18426
1.55674
2.18417
1.55675
3.94344e-05
1.03697
2.02821
1.63041e-05
1.03714
2.02829
1.32996e-05
1.0371
2.02825
6.90696e-06
1.0371
2.02826
-2.57396e-05
1.03713
2.02828
1.03701
2.02823
-7.50237e-05
1.39367
-2.37424e-05
1.39372
-3.92469e-06
1.39371
1.10305e-05
1.39371
5.89681e-05
1.39372
1.39369
-5.61013e-05
0.948176
-1.98777
-3.86945e-05
0.948166
-1.98782
-6.89744e-06
0.948182
-1.98786
7.36565e-05
0.94814
-1.98789
0.000139112
0.94812
-1.98785
0.94826
-1.98777
-8.61177e-05
2.25014
-2.41036
-5.13719e-05
2.25009
-2.41042
5.73672e-06
2.25008
-2.41042
4.37587e-05
2.25005
-2.41044
5.85429e-05
2.25004
-2.41044
2.25015
-2.41031
-7.50321e-05
3.74327
-2.32689
-2.66898e-05
3.74319
-2.32696
2.23719e-05
3.74318
-2.32697
5.29035e-05
3.74317
-2.32698
7.61669e-05
3.74317
-2.32697
3.74327
-2.32687
-6.51309e-05
5.5951
-2.44301
1.05925e-05
5.595
-2.44312
5.66167e-05
5.59502
-2.44313
8.5075e-05
5.59502
-2.44312
0.000128167
5.59502
-2.44313
5.59514
-2.44299
-5.93305e-05
7.5856
-2.50928
3.70177e-05
7.5855
-2.50942
8.98659e-05
7.58554
-2.50942
0.00011927
7.58556
-2.50941
0.000174588
7.58554
-2.5094
7.58571
-2.50924
-6.65271e-05
9.62503
-2.49576
3.06538e-05
9.62491
-2.49592
9.17701e-05
9.625
-2.49593
0.000120785
9.62502
-2.4959
0.000192038
9.62497
-2.4959
9.62519
-2.49569
-7.29279e-06
11.0181
-1.78589
5.55094e-05
11.018
-1.78601
0.000109859
11.0181
-1.78601
0.000120686
11.0182
-1.78597
0.000112716
11.0181
-1.78595
11.0183
-1.78581
9.43266e-05
9.8409
0.821997
7.50611e-05
9.84099
0.821923
8.39071e-05
9.84097
0.822
4.39279e-05
9.84096
0.822118
-7.03346e-05
9.84092
0.8222
9.84101
0.822111
9.21409e-05
5.70245
4.45606
6.39117e-05
5.70264
4.45607
5.50692e-05
5.70257
4.4561
1.68025e-05
5.70255
4.45614
-0.000106836
5.70256
4.4562
5.70253
4.45609
-3.90835e-06
2.38106
4.87812
-1.90118e-06
2.38129
4.87807
1.50115e-06
2.38121
4.87808
-1.02159e-05
2.3812
4.87811
-9.35229e-05
2.38126
4.87812
2.38109
4.8781
0.000104238
0.745788
3.66338
4.37967e-05
0.745947
3.66369
3.06072e-05
0.745898
3.66358
3.40385e-06
0.745891
3.6636
-9.38446e-05
0.745913
3.66373
0.74583
3.6634
-6.72456e-05
2.13953
-9.20037e-06
2.13961
5.73857e-07
2.1396
1.9581e-05
2.13958
6.63998e-05
2.13958
2.13959
-8.78004e-05
-0.140156
-1.84753
-2.48566e-05
-0.140201
-1.84768
1.85368e-05
-0.140208
-1.84769
4.20123e-05
-0.140221
-1.84768
8.22742e-05
-0.140216
-1.84767
-0.140149
-1.84754
-7.18586e-05
-0.53478
-2.01567
-1.92591e-05
-0.534874
-2.0158
2.22303e-05
-0.534895
-2.01578
2.00031e-05
-0.534895
-2.01577
2.8065e-05
-0.534873
-2.01579
-0.534813
-2.01562
-2.22227e-06
-1.08048
-1.78119
4.24151e-05
-1.08054
-1.78134
4.27116e-05
-1.08054
-1.78133
2.82198e-05
-1.08053
-1.78133
4.38619e-05
-1.0805
-1.78136
-1.08048
-1.78117
-9.29257e-06
-1.33634
-2.18714
4.41072e-05
-1.33634
-2.18737
3.86329e-05
-1.3363
-2.18736
3.41201e-05
-1.33629
-2.18736
8.58206e-05
-1.33627
-2.18741
-1.33625
-2.18713
-0.000102707
-1.58529
-2.26022
-6.0039e-05
-1.58533
-2.26047
-5.86126e-05
-1.58527
-2.26046
-2.84642e-05
-1.58526
-2.26046
9.81267e-05
-1.58529
-2.26051
-1.58517
-2.26021
-0.00016929
-1.54009
-2.54079
-0.00011793
-1.54026
-2.54103
-0.000119134
-1.54015
-2.54104
-0.0001011
-1.54013
-2.54105
3.55983e-05
-1.54021
-2.54111
-1.54
-2.54083
-0.000167649
-0.753509
-2.57231
-8.40311e-05
-0.753853
-2.57251
-5.02206e-05
-0.753663
-2.57253
-5.2762e-05
-0.753553
-2.57255
-1.80989e-05
-0.7536
-2.5726
-0.753422
-2.57241
2.63377e-05
1.88158
-1.81312
-2.55404e-05
1.88141
-1.8133
-4.58967e-05
1.88159
-1.81323
-7.22894e-05
1.88171
-1.81312
-0.000213152
1.88183
-1.81309
1.88155
-1.81308
2.79929e-05
3.94336
2.39426
-8.99764e-05
3.94352
2.39408
-9.61321e-05
3.94347
2.39423
-0.000114786
3.94348
2.39439
-0.000567836
3.94369
2.3948
3.94324
2.39383
0.000152527
2.66103
6.16029
0.000107163
2.66126
6.16037
8.59529e-05
2.66118
6.16039
3.07893e-05
2.66119
6.16045
-0.000251146
2.66157
6.16053
2.66077
6.16032
8.90607e-05
0.659135
5.66518
5.77131e-05
0.659332
5.66565
4.87578e-05
0.659308
5.66546
4.15804e-05
0.659256
5.66554
-0.00025053
0.659388
5.6662
0.65916
5.66476
-4.88102e-06
2.79867
1.31443e-05
2.79893
7.04764e-05
2.79885
1.90006e-05
2.79889
-0.000137618
2.79913
2.79861
-1.81897e-06
0.00270485
-0.00270304
-2.39454e-06
0.00270455
-0.00270302
-2.64505e-06
0.00270405
-0.00270299
-2.38666e-06
0.00270348
-0.00270297
-1.52595e-06
0.00270285
-0.00270295
0.00270206
-0.00270282
-1.78109e-06
0.00548484
-0.0027776
-3.15633e-06
0.00548355
-0.0027762
-4.09829e-06
0.00548206
-0.00277583
-4.07678e-06
0.00548048
-0.00277582
-2.76985e-06
0.0054788
-0.00277606
0.00547664
-0.00277649
-2.30844e-06
0.00840111
-0.00291337
-5.62203e-06
0.00839711
-0.00290885
-8.04219e-06
0.00839329
-0.00290761
-8.45189e-06
0.00838963
-0.00290758
-6.05649e-06
0.00838585
-0.00290832
0.00838112
-0.00290973
-5.45014e-06
0.0115359
-0.00312873
-1.2485e-05
0.0115262
-0.00312085
-1.71616e-05
0.0115181
-0.00311907
-1.78047e-05
0.0115109
-0.00311964
-1.28983e-05
0.0115038
-0.00312193
0.0114949
-0.00312602
-1.48887e-05
0.0149898
-0.00343843
-2.74264e-05
0.0149698
-0.00343048
-3.40525e-05
0.0149558
-0.00343048
-3.3522e-05
0.0149447
-0.00343372
-2.37802e-05
0.0149343
-0.00343967
0.0149205
-0.00344897
-3.50698e-05
0.0187337
-0.00370853
-5.17098e-05
0.0187016
-0.00371525
-5.58822e-05
0.0186833
-0.00372342
-5.02767e-05
0.0186716
-0.00373257
-3.37648e-05
0.0186615
-0.00374365
0.0186446
-0.00375808
-5.76178e-05
0.0224463
-0.003655
-6.96288e-05
0.0224046
-0.00369201
-6.2933e-05
0.0223896
-0.00371382
-4.77895e-05
0.0223862
-0.00373044
-2.77536e-05
0.0223855
-0.00374477
0.0223745
-0.00375841
-6.0028e-05
0.0257873
-0.0032815
-4.76817e-05
0.0257451
-0.00335437
-1.80241e-05
0.0257452
-0.00338652
7.27695e-06
0.0257629
-0.0034032
1.61119e-05
0.0257853
-0.00340983
0.0257964
-0.00340688
-1.03073e-05
0.028143
-0.00234604
4.86662e-05
0.028115
-0.0024305
0.000111174
0.0281347
-0.0024534
0.00014279
0.0281808
-0.00245081
0.000116483
0.0282395
-0.00242923
0.0282984
-0.00238653
7.20147e-05
0.0274035
0.000666752
0.000194709
0.0274095
0.00058168
0.000294115
0.0274378
0.000596303
0.000330785
0.0274768
0.000666122
0.000256488
0.0275269
0.000785785
0.0275995
0.000954623
0.000169462
0.0191005
0.00813292
0.000258184
0.0191059
0.00821433
0.00029684
0.0191165
0.00828221
0.000289471
0.0191318
0.0083517
0.000210048
0.0191653
0.00844042
0.0192402
0.0085691
6.26187e-05
0.0190376
4.91314e-05
0.0191191
2.17848e-05
0.0191437
-1.34235e-06
0.0191549
-1.28461e-05
0.0191767
0.0192276
-1.98148e-06
0.00281695
-0.00551735
-2.52093e-06
0.00281598
-0.00551729
-2.57668e-06
0.00281515
-0.00551707
-2.11458e-06
0.00281443
-0.00551687
-1.16998e-06
0.0028138
-0.0055167
0.00281309
-0.00551638
-3.17068e-06
0.00575851
-0.00571495
-4.23603e-06
0.00575571
-0.00571338
-4.40255e-06
0.0057535
-0.00571268
-3.70952e-06
0.0057516
-0.00571239
-2.14471e-06
0.00574994
-0.00571248
0.00574803
-0.00571285
-6.2509e-06
0.00892571
-0.00607324
-8.58838e-06
0.00891898
-0.00606829
-8.96017e-06
0.00891413
-0.00606653
-7.75426e-06
0.0089102
-0.00606609
-4.8166e-06
0.00890673
-0.00606678
0.0089027
-0.00606853
-1.22355e-05
0.0124219
-0.00661164
-1.66567e-05
0.0124074
-0.00660362
-1.70917e-05
0.012398
-0.00660142
-1.4733e-05
0.012391
-0.0066017
-9.37057e-06
0.0123849
-0.00660438
0.0123776
-0.00660973
-2.26519e-05
0.0163441
-0.00733732
-2.88915e-05
0.016316
-0.00733223
-2.78694e-05
0.0163
-0.00733291
-2.29169e-05
0.0162894
-0.0073365
-1.42529e-05
0.0162807
-0.00734353
0.0162696
-0.00735503
-3.56019e-05
0.0211109
-0.00843961
-3.99829e-05
0.0210597
-0.00845496
-3.36479e-05
0.0210363
-0.00846629
-2.39764e-05
0.0210247
-0.00847774
-1.32793e-05
0.0210177
-0.00849151
0.0210072
-0.00850948
-4.50327e-05
0.0274141
-0.0099138
-3.58009e-05
0.0273362
-0.00997909
-1.46373e-05
0.0273126
-0.0100125
2.74381e-06
0.0273112
-0.0100354
8.75322e-06
0.0273192
-0.0100535
0.0273246
-0.0100681
-2.2708e-05
0.0339622
-0.00980809
2.20625e-05
0.0338734
-0.0099384
7.15836e-05
0.0338639
-0.00998908
9.70512e-05
0.0338893
-0.0100086
8.00598e-05
0.033931
-0.0100063
0.0339765
-0.00997984
5.69408e-05
0.037573
-0.00601509
0.00015342
0.0375058
-0.00616119
0.00022457
0.0375209
-0.00618325
0.000244653
0.0375698
-0.00615298
0.000184736
0.0376394
-0.00607933
0.0377286
-0.00595459
0.000165445
0.0338966
0.00417662
0.000231806
0.033869
0.00415107
0.000236613
0.0339173
0.00419415
0.000196928
0.0340066
0.00426799
0.000118546
0.0341332
0.00436941
0.034297
0.00450453
0.000117595
0.0232505
0.0186608
0.000114555
0.0232892
0.0187968
6.86712e-05
0.0233586
0.0188866
1.92455e-05
0.0234448
0.0189629
-1.4367e-05
0.0235561
0.0190511
0.0236944
0.0191578
-0.00010125
0.0423892
-0.000211776
0.0425189
-0.000291028
0.0425816
-0.000301801
0.0426107
-0.00023521
0.0426662
0.0426873
-1.36532e-06
0.00280911
-0.0083246
-1.7163e-06
0.00280846
-0.00832472
-1.64466e-06
0.00280797
-0.00832451
-1.19696e-06
0.00280758
-0.0083243
-5.17785e-07
0.00280737
-0.00832415
0.00280721
-0.00832374
-2.4347e-06
0.00580053
-0.00870324
-2.96483e-06
0.00579867
-0.00870215
-2.70777e-06
0.0057974
-0.00870155
-1.89305e-06
0.00579648
-0.0087013
-7.74272e-07
0.00579599
-0.00870143
0.00579565
-0.00870167
-4.91194e-06
0.00914143
-0.00940847
-5.74605e-06
0.00913699
-0.00940479
-5.00927e-06
0.00913441
-0.0094034
-3.41089e-06
0.00913278
-0.00940315
-1.43704e-06
0.00913205
-0.009404
0.00913179
-0.00940571
-8.91567e-06
0.013001
-0.0104616
-9.72622e-06
0.0129913
-0.0104563
-7.78698e-06
0.0129867
-0.010455
-4.75e-06
0.0129845
-0.0104558
-1.71693e-06
0.0129841
-0.0104588
0.0129848
-0.0104642
-1.36099e-05
0.0174625
-0.0117847
-1.24497e-05
0.0174433
-0.0117851
-7.41107e-06
0.017437
-0.011788
-2.18237e-06
0.0174359
-0.0117928
1.01868e-06
0.0174384
-0.0118007
0.0174429
-0.0118123
-1.24922e-05
0.0219796
-0.0129443
-3.71197e-06
0.0219474
-0.0129684
8.38284e-06
0.0219424
-0.0129843
1.61635e-05
0.0219483
-0.0129985
1.50743e-05
0.021961
-0.0130136
0.0219778
-0.01303
1.46292e-05
0.0254793
-0.0134288
4.26246e-05
0.0254344
-0.0134956
6.43082e-05
0.0254371
-0.0135303
7.00787e-05
0.0254596
-0.0135539
5.21778e-05
0.0254941
-0.0135701
0.0255382
-0.0135774
8.47311e-05
0.0282323
-0.012647
0.000141199
0.0281876
-0.0127498
0.000167656
0.0282088
-0.0127888
0.000159318
0.0282598
-0.012802
0.00010787
0.0283307
-0.012793
0.0284216
-0.0127561
0.00017214
0.0313095
-0.00926571
0.000237
0.0313043
-0.00934398
0.00024212
0.0313646
-0.00934535
0.000201252
0.0314591
-0.00931247
0.000118318
0.0315796
-0.00924621
0.0317251
-0.00913987
0.000181218
0.0365865
-0.00128238
0.000221502
0.036668
-0.00125327
0.000195877
0.036765
-0.00118071
0.000136305
0.0368739
-0.00108721
6.28996e-05
0.0369903
-0.00096766
0.0371094
-0.000816317
2.70081e-05
0.0185791
0.0366412
-4.03379e-05
0.0186827
0.03685
-0.000120932
0.0187698
0.036963
-0.000167371
0.0188505
0.0370334
-0.000149213
0.0189184
0.0371056
0.0189696
0.0371492
-0.000208441
0.0611772
-0.000343844
0.0613382
-0.000401713
0.0614105
-0.000368857
0.0614293
-0.000184152
0.0614012
0.0614732
-8.34274e-07
0.00264438
-0.0109679
-9.17331e-07
0.00264375
-0.0109682
-7.06088e-07
0.00264348
-0.010968
-3.44049e-07
0.00264341
-0.0109679
8.91408e-10
0.00264351
-0.0109678
0.00264363
-0.0109673
-1.65057e-06
0.00553617
-0.0115931
-1.49181e-06
0.0055345
-0.0115927
-8.11766e-07
0.00553391
-0.0115924
-4.84814e-08
0.00553388
-0.0115922
4.18002e-07
0.00553428
-0.0115923
0.0055347
-0.0115922
-3.03676e-06
0.00895661
-0.0128255
-2.14685e-06
0.00895317
-0.0128239
-4.21258e-07
0.0089524
-0.0128232
1.10803e-06
0.00895282
-0.0128233
1.6052e-06
0.00895409
-0.012824
0.00895546
-0.0128248
-3.28928e-06
0.0132642
-0.0147654
-6.19187e-07
0.0132581
-0.0147636
3.04895e-06
0.0132576
-0.0147636
5.48444e-06
0.0132596
-0.0147647
5.16092e-06
0.0132631
-0.0147672
0.0132668
-0.0147704
1.47796e-06
0.0190651
-0.0175869
8.67609e-06
0.0190555
-0.0175899
1.50653e-05
0.0190567
-0.0175936
1.76701e-05
0.0190627
-0.0175987
1.38781e-05
0.0190712
-0.0176053
0.0190805
-0.0176125
1.83078e-05
0.0277759
-0.0216737
3.45996e-05
0.0277633
-0.0216934
4.42799e-05
0.0277691
-0.0217071
4.46108e-05
0.0277831
-0.0217201
3.17722e-05
0.0278022
-0.0217328
0.0278248
-0.0217435
5.07194e-05
0.0409609
-0.0266653
8.00662e-05
0.0409545
-0.0267176
9.17368e-05
0.0409722
-0.0267464
8.56678e-05
0.0410016
-0.0267678
5.75605e-05
0.0410407
-0.0267819
0.0410892
-0.026785
9.29215e-05
0.0582139
-0.0299943
0.00012896
0.0582403
-0.0300731
0.00013282
0.0582826
-0.0301043
0.000114562
0.0583338
-0.030117
7.12279e-05
0.0583986
-0.0301083
0.0584778
-0.0300736
0.000103964
0.0757576
-0.0269142
0.0001097
0.0758531
-0.0269631
7.77213e-05
0.0759226
-0.0269536
4.14349e-05
0.0759795
-0.0269219
5.23823e-06
0.0760454
-0.0268566
0.0761088
-0.026765
1.24412e-05
0.0855632
-0.0111005
-6.16208e-05
0.0857221
-0.0110475
-0.00014843
0.085793
-0.0109636
-0.00018233
0.0858194
-0.0108925
-0.000172599
0.0858472
-0.0107783
0.0858144
-0.0106938
-0.000249956
0.0669791
0.0554759
-0.000380381
0.0671042
0.0556
-0.000448193
0.0671349
0.0556905
-0.00037721
0.0670927
0.0556904
-0.00030025
0.0670901
0.0557871
0.0669665
0.0556978
-0.000222646
0.12838
-0.000242235
0.128463
-0.000226031
0.12853
-0.000126454
0.128423
-0.000239795
0.128605
0.1282
6.11704e-06
-1.91286
0.0653273
2.01459e-05
-1.91301
0.0653195
7.10925e-06
-1.91299
0.0653189
-9.11562e-06
-1.91298
0.065316
-6.57768e-07
-1.913
0.0653175
-1.91286
0.0653173
2.77361e-05
-1.95599
0.0431021
1.14656e-05
-1.9561
0.043104
-4.60865e-06
-1.95608
0.0431023
-1.84417e-05
-1.95608
0.0431035
-3.00674e-05
-1.95609
0.0431043
-1.95598
0.0430904
2.17115e-05
0.0238602
5.6423e-06
0.0238584
-3.02537e-06
0.0238585
-9.48749e-06
0.023859
-2.32627e-05
0.023859
0.0238587
9.02133e-06
-2.02817
0.0778226
-2.37139e-06
-2.0283
0.0778245
-1.11341e-05
-2.02827
0.0778215
-1.41433e-05
-2.02826
0.0778123
-1.62156e-05
-2.02828
0.0778128
-2.02813
0.0778113
1.60967e-05
-2.061
0.0759102
-1.01576e-06
-2.0611
0.0759241
-1.27985e-05
-2.06108
0.075922
-1.90793e-05
-2.06108
0.0759223
-3.11724e-05
-2.06109
0.0759249
-2.06097
0.0759043
2.06252e-05
0.0314073
5.91022e-06
0.031406
-2.78035e-06
0.0314069
-1.13052e-05
0.0314079
-2.74388e-05
0.0314089
0.0314087
3.12731e-05
-1.88005
0.176653
8.5443e-06
-1.88019
0.176689
-1.01132e-05
-1.88016
0.176676
-2.75244e-05
-1.88016
0.176665
-4.40649e-05
-1.88019
0.176664
-1.88002
0.176619
2.38484e-05
-1.9637
0.159532
1.2472e-05
-1.96379
0.159543
5.86393e-06
-1.96378
0.159543
-5.52309e-06
-1.96378
0.159546
-3.34931e-05
-1.96379
0.159551
-1.96368
0.159537
1.88278e-05
0.065694
6.33953e-06
0.0656937
-9.43191e-07
0.0656951
-8.53513e-06
0.0656962
-2.3769e-05
0.0656973
0.0656976
2.26507e-05
-2.29038
0.279869
-9.9855e-06
-2.29057
0.27992
-3.43499e-05
-2.29055
0.279895
-5.26832e-05
-2.29056
0.279879
-6.80665e-05
-2.29061
0.279875
-2.29038
0.279803
4.44597e-05
-2.22031
0.0894158
3.15351e-05
-2.22043
0.0894198
1.75652e-05
-2.22041
0.0894242
-4.34915e-06
-2.22042
0.0894294
-4.8081e-05
-2.22044
0.0894321
-2.22033
0.0894345
2.59749e-05
0.0305179
1.06077e-05
0.0305166
4.09113e-06
0.0305162
-3.84502e-06
0.0305158
-2.49537e-05
0.0305155
0.0305168
1.61089e-05
-2.25005
0.269685
-1.48773e-05
-2.25025
0.269732
-3.72104e-05
-2.25024
0.2697
-5.07907e-05
-2.25025
0.269681
-6.31157e-05
-2.2503
0.269683
-2.25008
0.269607
4.92654e-05
-2.1471
-0.0135882
3.23861e-05
-2.14722
-0.0135934
1.41193e-05
-2.14721
-0.0135872
-8.12318e-06
-2.14722
-0.0135813
-4.66669e-05
-2.14725
-0.0135857
-2.14713
-0.0135651
2.47963e-05
-0.00760581
1.01589e-05
-0.00760707
4.64231e-06
-0.00760971
-3.4682e-06
-0.00761166
-2.72432e-05
-0.0076131
-0.0076145
3.78413e-05
-2.35692
0.085778
2.14262e-05
-2.3571
0.0858131
5.80982e-06
-2.35709
0.0857665
-1.44518e-05
-2.35709
0.0857452
-6.97642e-05
-2.35714
0.0857712
-2.35695
0.0856587
4.34279e-05
-2.24024
-0.130304
2.43029e-05
-2.24036
-0.13031
1.12624e-05
-2.24035
-0.130307
-2.18578e-06
-2.24036
-0.1303
-2.57392e-05
-2.24038
-0.130319
-2.24026
-0.130283
1.66053e-05
-0.0566313
-1.05923e-06
-0.0566331
-7.08359e-06
-0.0566355
-1.08178e-05
-0.0566393
-2.61227e-05
-0.0566412
-0.0566458
-6.02923e-05
-2.14042
-0.346048
-3.60924e-05
-2.14055
-0.346162
-3.29588e-05
-2.14057
-0.346197
1.18505e-05
-2.14059
-0.346263
9.30918e-05
-2.14062
-0.346293
-2.14046
-0.346202
2.54375e-06
-2.11763
-0.153092
-6.30144e-06
-2.11772
-0.153133
-5.7617e-06
-2.11771
-0.153163
8.23659e-06
-2.11771
-0.153183
4.17686e-05
-2.11771
-0.153254
-2.11761
-0.153089
1.11435e-05
-0.000480595
-3.28277e-06
-0.00046899
-1.42943e-05
-0.000474518
-2.26435e-05
-0.000483918
-3.77071e-05
-0.00047893
-0.000513265
-5.70168e-05
-2.31205
0.152934
-2.38754e-05
-2.31221
0.152721
-4.36825e-05
-2.31221
0.152807
-3.96043e-05
-2.31219
0.152804
-0.00013608
-2.31226
0.152972
-2.31199
0.152572
-2.48694e-05
-2.02814
-0.436973
-4.39051e-05
-2.02824
-0.437089
-7.70376e-05
-2.02823
-0.437115
-4.36317e-05
-2.02824
-0.437176
9.16208e-06
-2.02829
-0.437277
-2.02806
-0.437013
4.97135e-06
0.092724
-3.53853e-05
0.0927289
-5.79368e-05
0.0927026
-5.63551e-05
0.092671
-9.47033e-05
0.0927102
0.0926406
8.20164e-05
-0.537208
3.08431
0.000148187
-0.537539
3.08428
0.000118084
-0.537305
3.08437
6.49933e-07
-0.537092
3.08441
-0.000478248
-0.536668
3.08492
-0.537791
3.08371
8.97406e-05
-2.15227
1.178
-9.65874e-06
-2.15246
1.17793
-7.20011e-05
-2.15231
1.17796
1.8581e-05
-2.15224
1.17789
0.000110882
-2.15218
1.17815
-2.15232
1.17763
-6.86898e-06
0.419299
-7.70368e-05
0.419234
-0.000139242
0.419297
-6.1801e-05
0.419182
-8.34893e-05
0.419485
0.418943
0.000202299
5.12299
4.12141
0.000174636
5.12302
4.12165
0.00031565
5.12305
4.12157
0.000398208
5.12317
4.12161
-0.000307641
5.12373
4.12242
5.12246
4.12127
0.000230464
2.24863
4.05212
9.17839e-05
2.24864
4.05245
0.000109853
2.24876
4.05223
1.7964e-05
2.24888
4.05227
-0.00175232
2.24994
4.05371
2.24749
4.05084
0.00022296
2.77029
-8.30756e-05
2.77073
-0.000169295
2.77052
-0.000279532
2.77044
-0.00187019
2.77226
2.76846
0.00021002
6.67681
3.10957
0.000294489
6.67753
3.10969
0.000238678
6.67718
3.1099
0.000137208
6.67741
3.10984
0.000978674
6.67922
3.10856
6.67495
3.11205
0.000386527
6.08754
4.64101
0.000435481
6.08792
4.64201
0.000682324
6.08776
4.6414
0.00037116
6.08826
4.64173
-0.00209054
6.09039
4.645
6.08597
4.63774
0.000138493
4.84102
2.23617e-05
4.84193
4.87535e-05
4.84142
-0.000224329
4.84149
-0.000685821
4.84423
4.83856
7.95202e-05
3.55516
2.353
5.33891e-05
3.55536
2.35328
-0.000196885
3.55571
2.3533
7.92398e-05
3.55512
2.35333
0.0011614
3.55251
2.35409
3.55918
2.35264
0.000387293
4.56725
3.62852
-8.19842e-06
4.56848
3.62928
-0.000325821
4.56824
3.62918
0.000180518
4.56712
3.62923
1.64045e-05
4.56688
3.63079
4.56921
3.62773
-5.48083e-05
5.6076
0.000278987
5.60841
0.000167665
5.60802
0.000138967
5.608
0.00116958
5.61103
5.60481
7.39162e-05
0.248267
-0.0364077
-0.211934
-8.00088e-05
0.248485
-0.0365528
-0.211779
0.000149892
0.248478
-0.0369055
-0.211803
-6.53343e-05
0.248572
-0.0367199
-0.211637
-0.00227633
0.250176
-0.0372936
-0.210671
0.246855
-0.0362881
-0.212843
0.00100478
0.0374092
1.1865
-0.976649
0.000379813
0.0383699
1.18793
-0.977189
0.0021868
0.037007
1.18694
-0.97728
0.00010458
0.0402763
1.18722
-0.976839
-0.00823039
0.0475203
1.19084
-0.979853
0.029656
1.18316
-0.974193
-0.000169591
0.16499
-0.285933
-0.00019552
0.16435
-0.286291
0.000382902
0.164766
-0.286201
0.000310838
0.163618
-0.286536
-0.000707204
0.161321
-0.289051
0.169229
-0.28403
-0.000416235
0.300584
-0.336575
-0.000282031
0.300045
-0.336733
-0.00117779
0.301031
-0.337045
3.40348e-05
0.299195
-0.33713
0.00407443
0.295992
-0.337327
0.304094
-0.336308
0.00109842
1.34325
0.142738
0.000185029
1.345
0.14389
0.000600014
1.34435
0.143213
3.81615e-06
1.34403
0.142979
-0.00259808
1.34667
0.142763
1.34173
0.142929
0.00113921
-1.54604
0.000690055
-1.54837
0.001261
-1.54676
-0.00012527
-1.54879
-0.00476555
-1.55771
-1.53779
-0.000639987
-0.199785
-0.136151
-0.000632163
-0.200581
-0.136153
-0.00106677
-0.200277
-0.136332
-0.000113444
-0.201625
-0.136459
0.00120167
-0.202367
-0.136276
-0.198348
-0.136759
0.000394786
1.62133
-1.67877
0.000133043
1.62227
-1.6787
-6.65334e-05
1.6217
-1.67857
-0.000345806
1.6217
-1.68007
-4.40459e-05
1.62358
-1.68349
1.61987
-1.67534
0.00112935
-3.9863
0.000502359
-3.98851
0.00101544
-3.98736
-7.21984e-06
-3.98839
-0.00359672
-3.99508
-3.98107
0.000132917
-0.0674311
-0.0688555
0.000120958
-0.0675834
-0.0685597
-3.21581e-05
-0.0675832
-0.0685971
6.7912e-05
-0.0673186
-0.0692406
0.000470312
-0.0667291
-0.0699493
-0.0681614
-0.0681282
0.000557957
1.43425
-3.18101
0.00019234
1.43581
-3.18173
0.000422328
1.43498
-3.18136
-4.3742e-05
1.43494
-3.18186
-0.00180883
1.43653
-3.18498
1.43295
-3.17826
0.00113059
-5.21134
0.000135474
-5.21294
0.000455153
-5.21231
3.94697e-05
-5.21258
-0.0030496
-5.21682
-5.20769
0.000151755
0.96012
-1.02913
0.000114069
0.960478
-1.029
0.000233183
0.960295
-1.02901
9.54712e-05
0.960375
-1.02948
-0.000399728
0.961563
-1.03102
0.959201
-1.02773
0.000324441
1.19672
-3.41793
0.000154964
1.19786
-3.41894
0.000362247
1.19729
-3.41857
4.28949e-06
1.19709
-3.41822
-0.00112635
1.19791
-3.4202
1.1964
-3.41658
0.000295926
-5.5235
-3.24442e-05
-5.52407
-9.89487e-05
-5.52383
0.000182972
-5.52446
0.000359644
-5.52819
-5.51973
3.56223e-05
1.32384
0.000134819
1.32418
0.000314264
1.32411
0.000253889
1.32391
-0.000744256
1.32407
1.32416
0.000155062
1.53428
9.78818e-05
1.53459
0.000473202
1.53435
0.000134023
1.53526
-0.00174533
1.53654
1.53357
0.000159273
6.92345e-05
-0.000223115
-1.77137e-05
0.00173422
-1.25033e-07
-0.0129216
0.00195389
-1.59458e-07
-0.0129222
0.00195391
-8.82601e-08
-0.0129222
0.00195397
3.75327e-08
-0.0129221
0.00195406
1.08457e-07
-0.0129221
0.0019542
-0.0129215
0.00195424
2.75735e-08
-0.0141717
0.00124994
-1.58429e-08
-0.0141724
0.00125
-8.77152e-09
-0.0141724
0.00125004
1.5738e-08
-0.0141724
0.00125009
1.36249e-08
-0.0141724
0.00125016
-0.0141717
0.00125013
-4.98329e-09
0.000372877
-2.13698e-08
0.000372899
-1.73989e-08
0.000372913
-1.724e-08
0.000372929
-2.2782e-08
0.000372948
0.000372938
-3.30233e-07
-0.0137515
0.00411267
-1.02822e-07
-0.0137521
0.00411287
2.84818e-07
-0.013752
0.00411312
5.69995e-07
-0.013752
0.00411348
5.74913e-07
-0.0137521
0.00411388
-0.0137515
0.00411402
2.80555e-08
-0.0151668
0.00266498
1.005e-07
-0.0151676
0.00266516
2.0376e-07
-0.0151676
0.00266529
2.46889e-07
-0.0151676
0.00266545
1.78939e-07
-0.0151677
0.00266562
-0.0151669
0.0026656
1.26285e-08
0.000696088
2.8745e-08
0.000696143
5.1338e-08
0.000696181
4.83173e-08
0.000696228
1.63107e-08
0.000696273
0.000696261
-2.55918e-07
-0.0154285
0.00671601
6.78553e-07
-0.0154289
0.00671685
1.7024e-06
-0.0154289
0.00671768
2.23912e-06
-0.0154291
0.00671867
1.85883e-06
-0.0154294
0.00671963
-0.015429
0.00672003
2.75555e-07
-0.0172948
0.00453092
6.2003e-07
-0.0172957
0.00453135
8.90528e-07
-0.0172958
0.00453169
9.21682e-07
-0.0172959
0.00453208
6.19569e-07
-0.0172961
0.00453243
-0.0172954
0.00453244
9.80482e-08
0.000828399
1.85683e-07
0.000828497
2.45068e-07
0.000828587
2.27034e-07
0.000828694
1.24684e-07
0.000828787
0.000828806
1.51748e-06
-0.0180201
0.00996919
4.02887e-06
-0.0180208
0.0099714
5.93226e-06
-0.0180213
0.00997334
6.45704e-06
-0.0180221
0.00997535
4.83e-06
-0.0180232
0.00997702
-0.0180234
0.00997759
1.11529e-06
-0.0209391
0.00744871
2.03419e-06
-0.0209404
0.00744961
2.55877e-06
-0.0209408
0.00745032
2.4567e-06
-0.0209413
0.00745106
1.5871e-06
-0.0209418
0.00745167
-0.0209412
0.00745169
3.01649e-07
0.000415566
5.45317e-07
0.000415718
6.78558e-07
0.000415876
6.19342e-07
0.000416066
3.76252e-07
0.000416197
0.000416261
7.87248e-06
-0.0214674
0.0138416
1.28561e-05
-0.0214699
0.0138459
1.51776e-05
-0.0214719
0.0138489
1.44117e-05
-0.0214744
0.0138514
9.73813e-06
-0.0214772
0.0138531
-0.0214786
0.0138529
3.28896e-06
-0.0267312
0.012709
5.25463e-06
-0.0267333
0.0127106
6.04288e-06
-0.0267345
0.0127117
5.48335e-06
-0.0267359
0.0127126
3.38784e-06
-0.0267372
0.0127133
-0.0267368
0.0127129
7.64796e-07
-0.00129974
1.28403e-06
-0.00129964
1.53314e-06
-0.00129957
1.33735e-06
-0.00129938
8.27991e-07
-0.00129941
-0.00129927
2.0418e-05
-0.0259213
0.0180683
2.75887e-05
-0.0259296
0.0180739
2.80243e-05
-0.0259354
0.0180759
2.33718e-05
-0.0259413
0.0180763
1.38963e-05
-0.0259465
0.0180752
-0.0259491
0.0180717
7.9582e-06
-0.0357462
0.0225254
1.10741e-05
-0.0357501
0.0225274
1.13221e-05
-0.0357527
0.0225281
9.44137e-06
-0.0357553
0.0225278
5.05112e-06
-0.0357576
0.0225279
-0.0357572
0.0225257
1.49265e-06
-0.00545549
2.19445e-06
-0.00545562
2.48828e-06
-0.00545609
1.86219e-06
-0.00545592
1.12995e-06
-0.00545664
-0.00545622
3.63459e-05
-0.0317067
0.0230725
4.08871e-05
-0.0317245
0.0230751
3.3822e-05
-0.0317351
0.0230705
2.17073e-05
-0.0317436
0.0230632
8.65345e-06
-0.0317492
0.0230546
-0.031749
0.0230443
1.30266e-05
-0.0493635
0.0401686
1.60376e-05
-0.04937
0.0401693
1.34006e-05
-0.0493737
0.0401687
9.9417e-06
-0.0493767
0.0401638
2.92186e-06
-0.0493789
0.0401642
-0.049377
0.0401567
1.64215e-06
-0.0135565
1.80927e-06
-0.0135573
1.91012e-06
-0.0135593
8.61869e-07
-0.013559
5.8354e-07
-0.0135613
-0.0135604
3.60463e-05
-0.0392184
0.0322597
2.57869e-05
-0.0392415
0.032253
3.97954e-06
-0.0392504
0.0322378
-1.57151e-05
-0.0392546
0.0322201
-2.2438e-05
-0.0392515
0.0322044
-0.0392395
0.0321879
1.12993e-05
-0.0697954
0.0707339
1.09748e-05
-0.0698029
0.070731
2.30317e-06
-0.0698054
0.0707324
-1.33484e-06
-0.0698047
0.0707177
-1.05278e-05
-0.0698043
0.0707264
-0.0697972
0.0707038
-3.75147e-07
-0.026084
-2.39066e-06
-0.0260863
-2.86117e-06
-0.0260915
-3.84981e-06
-0.0260906
-3.41398e-06
-0.0260943
-0.0260948
-4.54288e-06
-0.0477114
0.0530611
-4.04117e-05
-0.0477231
0.0530493
-7.59123e-05
-0.0477155
0.0530355
-9.13809e-05
-0.0477038
0.0530179
-7.76773e-05
-0.0476808
0.0530152
-0.047652
0.0529973
-2.80395e-06
-0.100798
0.123824
-1.00738e-05
-0.100801
0.123817
-2.98249e-05
-0.100799
0.123836