/*--------------------------------*- C++ -*----------------------------------*\
| =========                 |                                                 |
| \\      /  F ield         | OpenFOAM: The Open Source CFD Toolbox           |
|  \\    /   O peration     | Version:  v1612+                                |
|   \\  /    A nd           | Web:      www.OpenFOAM.com                      |
|    \\/     M anipulation  |                                                 |
\*---------------------------------------------------------------------------*/
FoamFile
{
    version     2.0;
    format      ascii;
    class       volScalarField;
    location    "9.25";
    object      p_rgh;
}
// * * * * * * * * * * * * * * * * * * * * * * * * * * * * * * * * * * * * * //

dimensions      [1 -1 -2 0 0 0 0];

internalField   nonuniform List<scalar> 
1116
(
9754.68
9767.19
9778.36
9757.88
9753.52
9786.56
10553.1
10568.6
10573.4
10551.2
10535.5
10572.7
12508.2
12527.7
12532
12511.1
12485.9
12536.1
13928.1
13934.9
13937
13928.6
13922.2
13939.9
14969.6
14970.2
14971.3
14971
14970.3
14974.7
15647.3
15643.8
15643.2
15644.7
15643.5
15640.4
16138.5
16136
16135.3
16131.9
16128.7
16131.9
16415.5
16415.1
16412.7
16405.6
16396.8
16411.7
16373
16353.3
16361.2
16355.9
16364.6
16362
17268.1
17276.8
17271.4
17267.8
17268
17269.5
16790.1
16828.3
16816.8
16809.3
16821.3
16823.1
16883.3
16853.9
16868.4
16877
16849.5
16863.1
4159.7
4169.39
4177.61
4197.92
4211.43
4198.85
4920.43
4983.68
4987.99
4916.43
4884.82
4993.79
6699.53
6787.67
6816.33
6700.81
6646.32
6804.66
9159.79
9219.24
9238.3
9166.51
9113.4
9235.78
11209.3
11207.9
11203.1
11230.5
11223.8
11237.2
12894.9
12879.2
12864.2
12898.8
12895.1
12892.1
13677.2
13668.1
13656.9
13655.1
13663.9
13635.7
14827.2
14784.7
14781.2
14780.8
14775.6
14729.6
16372.4
16353.7
16358.2
16339.8
16340.3
16368.8
16751.3
16847
16802.2
16785.2
16820.8
16789.6
13394.3
13749.2
13630
13550.8
13695.4
13580.9
15781.2
15553
15657.4
15733.2
15514.6
15664
7.14935
7.15069
7.09201
7.10851
7.31584
6.98718
6.80141
6.97925
7.14582
6.77364
6.923
7.02131
3.3463
3.53839
3.59423
3.46279
3.34819
3.78465
-0.0808303
-0.15563
-0.156904
-0.295145
-0.383487
-0.325865
-10.9986
-11.055
-11.0123
-11.0302
-10.9722
-10.8278
-48.4652
-48.3198
-48.2463
-48.5554
-48.6994
-47.2561
-115.521
-115.098
-115.084
-115.834
-116.759
-113.378
2.90938
3.19688
2.73982
1.21755
-1.50453
4.4122
361.897
361.973
362.632
364.802
364.185
364.217
2243.82
2232.59
2227.11
2248.37
2222.44
2240.03
5260.08
5415.84
5493.34
5236.64
5047.26
5682.73
18291.7
18201.7
18136.7
18208.2
18109.7
18073.2
18.0321
16.5154
16.1989
17.2575
17.7328
15.9263
14.5845
14.5485
14.4669
14.4448
14.612
14.2234
14.0311
14.0657
13.8954
13.9663
14.0003
13.5728
7.32088
7.23581
7.0953
7.06884
7.04977
6.73513
-7.24924
-7.26112
-7.23714
-6.99363
-6.74123
-7.21401
-38.8746
-38.7675
-38.8019
-38.9067
-38.9903
-38.7477
-133.436
-132.835
-132.698
-133.239
-132.859
-132.631
-185.426
-183.977
-184.222
-186.02
-186.038
-184.975
-111.39
-112.526
-112.908
-111.872
-111.776
-113.315
43.8362
41.9452
42.1855
44.51
46.0883
41.5589
220.155
216.685
216.965
216.566
220.041
213.701
17882
17052.3
17349.3
17706.1
17376.8
17247.9
1533.19
1530.62
1514.34
1470.46
1460.54
1472.21
1533.29
1523.46
1472.85
1452.68
1431.04
1445.13
1546.56
1529.45
1482.64
1475.47
1451.21
1479.05
1574.39
1523.21
1523.25
1535.51
1460.86
1537.55
1621.05
1567.41
1463.7
1535.3
1523.86
1651.09
1661.81
1635.19
1445.62
1730.02
1778.34
1847.5
1709.59
1660.69
1759.18
1600.59
1834.91
1915.75
1351.17
1514.45
1362.67
1032.19
1153.86
1413.17
910.038
1026.75
975.449
819.353
848.151
1040.23
640.43
673.328
758.82
678.535
682.22
813.908
541.005
482.568
545.231
617.834
615.599
657.072
467.904
422.655
477.574
553.782
577.93
559.485
1017.18
1054.39
927.321
743.092
770.298
772.59
958.495
1013.85
909.062
833.203
686.348
498.282
1015.46
1142.76
1022.35
993.597
876.733
665.778
1367.03
1185.13
1183.09
1099.51
904.407
1035.35
1829.3
1228.58
1049.18
1550.02
968.328
1450.71
1904.08
1652.3
1089.99
1716.21
1604.04
1824.38
1909.84
1746.8
1284.64
1581.29
1879.32
2017.65
1426.7
1758.84
1239.55
673.59
1338.91
1834.27
688.143
1224.36
1005.35
650.303
610.061
716.488
532.464
508.555
518.753
520.622
458.507
463.577
438.878
401.538
342.955
350.942
349.946
365.14
385.405
348.279
314.729
330.231
339.881
342.271
1.62182
0.658503
-0.976755
-2.88144
0.176015
2.16248
3.59606
3.34273
1.91296
0.79004
3.63837
4.11447
120.471
8.41622
8.58576
6.17439
6.78805
6.81427
99.8954
78.7352
96.8821
10.0504
9.75686
9.73554
72.5462
224.011
174.819
14.8058
13.4069
15.9275
49.4347
429.776
672.47
441.203
23.6999
29.2364
62.7068
665.887
1689.04
1735.61
670.94
1218.13
351.619
1617.67
1101.49
671.451
1401.8
2162.07
773.56
1622.19
643.163
372.323
598.189
1571.51
782.752
656.114
286.525
298.891
285.3
348.817
305.39
258.736
246.076
330.806
326.924
275.351
277.687
270.218
280.704
376.849
417.392
341.892
1.56583
1.67311
1.02087
0.704273
1.57092
2.69435
2.26367
2.81718
2.02562
1.03756
2.25088
3.49519
0.580411
1.06503
1.56661
2.27269
2.58442
5.76994
-2.0965
-3.86649
-0.737504
1.21226
1.2553
3.87074
-5.71015
-11.2598
-1.72409
-0.560537
-2.64331
-1.98172
-9.23269
-19.1871
-3.5121
-4.19803
-6.54412
-7.13786
-5.56063
-20.9047
-0.62383
25.678
-8.97237
-9.5195
4.38799
-1.78032
615.384
647.857
340.307
261.137
127.666
222.314
443.017
288.289
333.943
971.383
475.267
308.793
87.187
109.871
142.422
476.614
314.796
187.61
111.456
163.343
205.315
150.278
342.831
288.752
287.616
396.158
406.985
405.29
6.36445
5.49182
5.35087
5.96152
6.1315
3.50536
7.87558
4.86562
4.04747
8.08477
7.55709
3.94114
1.81648
-3.04332
-5.19968
0.914808
1.26139
0.89202
-0.775666
-1.09921
-1.13587
-0.998891
-0.906292
-0.975849
-4.85155
-4.9628
-4.97908
-4.87662
-4.84624
-4.70612
-12.3895
-12.0317
-11.9384
-12.3358
-12.7619
-12.6148
-3.58532
-3.57031
-3.59062
-3.59397
-3.59412
-3.60041
-5.26322
-5.28497
-5.2864
-5.27809
-5.28124
-5.30886
-9.7143
-9.75279
-9.75451
-9.72707
-9.75558
-9.77252
-11.0802
-11.0569
-11.0851
-11.0645
-11.0848
-11.0526
-11.559
-11.5681
-11.5765
-11.5798
-11.6135
-11.6124
-14.1799
-14.1736
-14.1726
-14.2048
-14.2712
-14.2492
-22.9863
-22.9071
-22.9133
-22.6797
-22.5957
-22.5996
-19.8628
-19.8701
-19.8831
-19.8385
-19.8476
-19.8567
-16.6458
-16.6648
-16.6631
-16.6474
-16.6461
-16.6348
-46.0532
-46.0351
-46.1237
-46.2626
-46.312
-46.2747
-33.4147
-33.444
-33.5132
-33.5146
-33.557
-33.557
-21.244
-21.243
-21.2315
-21.2329
-21.2387
-21.207
-96.5211
-96.7114
-96.7679
-96.6499
-96.6993
-97.0346
-54.7384
-55.0828
-55.4161
-54.9748
-55.1578
-55.3216
-23.6351
-24.0553
-24.0075
-23.9047
-23.8531
-24.1117
-122.169
-122.942
-123.262
-122.983
-123.79
-124.319
-57.1696
-57.8229
-58.8094
-57.1775
-58.1793
-58.5598
-14.8857
-15.1163
-14.9788
-14.9439
-15.1678
-15.4409
-101.38
-100.965
-102.66
-102.949
-103.398
-101.955
-17.6953
-16.8374
-18.7743
-17.706
-17.8712
-16.5403
-0.0543275
-0.933382
-0.69621
0.172674
-0.719152
-1.15233
1.94115
-3.48145
-3.02963
-2.86286
-4.64717
-4.17091
18.9383
14.6801
16.1084
17.5166
15.725
14.7701
8.41444
7.99297
7.84924
8.11188
8.01451
8.59776
80.4563
71.996
74.9547
76.9364
77.3727
73.6605
41.5658
37.4866
38.6533
40.1996
42.3082
37.7485
14.1818
15.4424
15.4142
15.3248
16.3002
15.8684
6494.89
5199.56
5715.26
6416.3
6214.14
5525.29
-4.11621
-4.09577
-4.10254
-5.22559
-4.11126
-3.81532
-10.9638
-2.90864
-2.25836
-3.5282
-1.10751
-0.272485
968.465
966.336
944.163
921.339
899.914
864.626
4.13327
3.1731
2.0542
0.951615
0.995413
1.98973
-0.776031
-1.65498
-2.11296
-2.07939
-2.27103
-1.75438
974.87
982.904
976.623
948.723
894.246
940.583
7.14218
6.67431
6.09284
5.35157
5.71036
6.06167
0.454479
0.352274
0.141784
0.312031
0.803846
0.848493
1037.35
1035.51
1028.99
1029.48
1031.91
1032.89
8.1477
7.83146
7.52989
7.48464
7.82241
8.30982
2.16323
2.19165
2.28792
2.61455
2.88516
3.02364
1074.42
1076.18
1075.72
1070.3
1069.71
1073.17
43.2639
47.4275
46.1103
46.9746
48.1419
43.6003
2.69321
2.80897
2.92136
3.10756
3.27726
3.29969
1191.44
1216.55
1213.05
1186.26
1183.05
1217.47
339.323
323.755
320.969
373.981
384.631
301.978
2.22355
2.58462
2.68549
2.88585
3.08158
2.99786
3564.93
3196.34
3254.23
3680.71
3717.75
3148.25
643.154
574.422
580.341
681.03
686.878
565.641
1.3489
4.02804
4.21654
3.15061
4.31946
4.60578
1.3434
1.56151
3.22396
3.25533
2.68809
2.22468
0.211058
0.292386
1.07234
0.49241
0.413536
0.39879
-0.793625
-0.894094
-0.568168
-0.800474
-0.952127
-0.947477
1.14707
1.31731
1.63032
1.47791
1.69635
1.68905
-0.232611
-0.260729
-0.276974
-0.283036
-0.227864
-0.0752644
-1.5557
-1.66433
-1.5321
-1.58636
-1.70388
-1.6568
-0.470899
0.562513
1.51006
1.43967
1.4203
1.07209
-0.73933
-0.639174
-0.501003
-0.49829
-0.467725
-0.511301
-1.87028
-2.06544
-1.90769
-2.01617
-2.08717
-1.99606
-1.13641
-0.405499
0.568655
1.46085
0.905953
1.17686
-0.526482
-0.56769
-0.663159
-0.701093
-0.952659
-0.825907
-2.27625
-2.66732
-2.67228
-2.72696
-2.73326
-2.41537
-0.628003
-1.67416
-1.07918
0.156113
-1.1418
0.00496734
0.990791
0.424599
-0.493179
-0.894232
-1.19323
-0.0598242
-2.88478
-3.53377
-3.76197
-3.67806
-3.48082
-2.7875
1.30046
-3.19065
-3.81364
-3.60705
-4.78465
-3.54596
3.49996
2.52218
0.324607
-1.18951
-2.17607
-1.3612
-3.80778
-4.77171
-5.21288
-5.08081
-4.82455
-4.12016
0.50052
-7.55196
-8.26509
-12.0667
-12.3962
-12.3094
7.09872
3.93184
-3.05808
-5.96399
-7.2023
-6.81204
-5.41159
-6.77548
-8.63413
-7.73247
-6.88298
-6.01331
17.9618
11.9455
325.686
422.327
236.879
47.0139
4.88255
7.9738
74.641
31.0986
35.031
-18.8047
-10.8651
-13.7396
-11.9015
-16.1496
-14.2573
-12.6194
328.118
233.665
220.893
296.768
274.758
504.858
222.127
137.225
100.739
189.207
176.467
23.4994
-15.7387
-11.0916
9.12231
0.310386
-7.76222
-19.9049
521.039
159.247
19.5579
34.1747
78.5545
347.629
376.817
76.4031
-1.99658
26.6464
54.789
55.0643
3.75726
1.95496
-14.2309
-4.58771
-0.213307
-16.5607
205.022
68.4271
40.7214
45.8319
61.4252
59.9731
145.477
21.1254
7.64452
8.90388
6.95052
12.7073
15.0895
3.11129
-9.43298
-10.1346
-8.00405
-9.08789
400.547
321.773
276.167
308.256
434.344
290.044
85.1566
94.3745
123.895
121.43
88.4296
22.8127
-2.61726
-4.48432
-6.21327
-6.13227
-5.64432
-4.16014
)
;

boundaryField
{
    seabed_topleft_surface
    {
        type            fixedFluxPressure;
        gradient        uniform 0;
        value           nonuniform List<scalar> 
72
(
9754.68
9767.19
9778.36
9757.88
9753.52
9786.56
10553.1
10568.6
10573.4
10551.2
10535.5
10572.7
12508.2
12527.7
12532
12511.1
12485.9
12536.1
13928.1
13934.9
13937
13928.6
13922.2
13939.9
14969.6
14970.2
14971.3
14971
14970.3
14974.7
15647.3
15643.8
15643.2
15644.7
15643.5
15640.4
16138.5
16136
16135.3
16131.9
16128.7
16131.9
16415.5
16415.1
16412.7
16405.6
16396.8
16411.7
16373
16353.3
16361.2
16355.9
16364.6
16362
17268.1
17276.8
17271.4
17267.8
17268
17269.5
16790.1
16828.3
16816.8
16809.3
16821.3
16823.1
16883.3
16853.9
16868.4
16877
16849.5
16863.1
)
;
    }
    seabed_topright_surface
    {
        type            fixedFluxPressure;
        gradient        uniform 0;
        value           nonuniform List<scalar> 
72
(
1533.19
1530.62
1514.34
1470.46
1460.54
1472.21
1533.29
1523.46
1472.85
1452.68
1431.04
1445.13
1546.56
1529.45
1482.64
1475.47
1451.21
1479.05
1574.39
1523.21
1523.25
1535.51
1460.86
1537.55
1621.05
1567.41
1463.7
1535.3
1523.86
1651.09
1661.81
1635.19
1445.62
1730.02
1778.34
1847.5
1709.59
1660.69
1759.18
1600.59
1834.91
1915.75
1351.17
1514.45
1362.67
1032.19
1153.86
1413.17
910.038
1026.75
975.449
819.353
848.151
1040.23
640.43
673.328
758.82
678.535
682.22
813.908
541.005
482.568
545.231
617.834
615.599
657.072
467.904
422.655
477.574
553.782
577.93
559.485
)
;
    }
    breakwater_top_surface
    {
        type            fixedFluxPressure;
        gradient        uniform 0;
        value           nonuniform List<scalar> 
36
(
968.465
966.336
944.163
921.339
899.914
864.626
974.87
982.904
976.623
948.723
894.246
940.583
1037.35
1035.51
1028.99
1029.48
1031.91
1032.89
1074.42
1076.18
1075.72
1070.3
1069.71
1073.17
1191.44
1216.55
1213.05
1186.26
1183.05
1217.47
3564.93
3196.34
3254.23
3680.71
3717.75
3148.25
)
;
    }
    breakwater_left_surface
    {
        type            fixedFluxPressure;
        gradient        uniform 0;
        value           nonuniform List<scalar> 
24
(
16883.3
16853.9
16868.4
16877
16849.5
16863.1
15781.2
15553
15657.4
15733.2
15514.6
15664
18291.7
18201.7
18136.7
18208.2
18109.7
18073.2
17882
17052.3
17349.3
17706.1
17376.8
17247.9
)
;
    }
    breakwater_right_surface
    {
        type            fixedFluxPressure;
        gradient        uniform 0;
        value           nonuniform List<scalar> 
24
(
467.904
422.655
477.574
553.782
577.93
559.485
385.405
348.279
314.729
330.231
339.881
342.271
277.687
270.218
280.704
376.849
417.392
341.892
342.831
288.752
287.616
396.158
406.985
405.29
)
;
    }
    water_front_surface
    {
        type            fixedFluxPressure;
        gradient        uniform 0;
        value           nonuniform List<scalar> 
186
(
9754.68
10553.1
12508.2
13928.1
14969.6
15647.3
16138.5
16415.5
16373
17268.1
16790.1
16883.3
4159.7
4920.43
6699.53
9159.79
11209.3
12894.9
13677.2
14827.2
16372.4
16751.3
13394.3
15781.2
7.14935
6.80141
3.3463
-0.0808303
-10.9986
-48.4652
-115.521
2.90938
361.897
2243.82
5260.08
18291.7
18.0321
14.5845
14.0311
7.32088
-7.24924
-38.8746
-133.436
-185.426
-111.39
43.8362
220.155
17882
1533.19
1533.29
1546.56
1574.39
1621.05
1661.81
1709.59
1351.17
910.038
640.43
541.005
467.904
1017.18
958.495
1015.46
1367.03
1829.3
1904.08
1909.84
1426.7
688.143
532.464
438.878
385.405
1.62182
3.59606
120.471
99.8954
72.5462
49.4347
62.7068
351.619
773.56
782.752
305.39
277.687
1.56583
2.26367
0.580411
-2.0965
-5.71015
-9.23269
-5.56063
4.38799
127.666
475.267
314.796
342.831
6.36445
7.87558
1.81648
-0.775666
-4.85155
-12.3895
-3.58532
-5.26322
-9.7143
-11.0802
-11.559
-14.1799
-22.9863
-19.8628
-16.6458
-46.0532
-33.4147
-21.244
-96.5211
-54.7384
-23.6351
-122.169
-57.1696
-14.8857
-101.38
-17.6953
-0.0543275
1.94115
18.9383
8.41444
80.4563
41.5658
14.1818
6494.89
-4.11621
-10.9638
968.465
4.13327
-0.776031
974.87
7.14218
0.454479
1037.35
8.1477
2.16323
1074.42
43.2639
2.69321
1191.44
339.323
2.22355
3564.93
643.154
1.3489
1.3434
0.211058
-0.793625
1.14707
-0.232611
-1.5557
-0.470899
-0.73933
-1.87028
-1.13641
-0.526482
-2.27625
-0.628003
0.990791
-2.88478
1.30046
3.49996
-3.80778
0.50052
7.09872
-5.41159
17.9618
4.88255
-10.8651
328.118
222.127
-15.7387
521.039
376.817
3.75726
205.022
145.477
15.0895
400.547
85.1566
-2.61726
)
;
    }
    water_back_surface
    {
        type            fixedFluxPressure;
        gradient        uniform 0;
        value           nonuniform List<scalar> 
186
(
9786.56
10572.7
12536.1
13939.9
14974.7
15640.4
16131.9
16411.7
16362
17269.5
16823.1
16863.1
4198.85
4993.79
6804.66
9235.78
11237.2
12892.1
13635.7
14729.6
16368.8
16789.6
13580.9
15664
6.98718
7.02131
3.78465
-0.325865
-10.8278
-47.2561
-113.378
4.4122
364.217
2240.03
5682.73
18073.2
15.9263
14.2234
13.5728
6.73513
-7.21401
-38.7477
-132.631
-184.975
-113.315
41.5589
213.701
17247.9
1472.21
1445.13
1479.05
1537.55
1651.09
1847.5
1915.75
1413.17
1040.23
813.908
657.072
559.485
772.59
498.282
665.778
1035.35
1450.71
1824.38
2017.65
1834.27
716.488
463.577
365.14
342.271
2.16248
4.11447
6.81427
9.73554
15.9275
29.2364
1218.13
2162.07
1571.51
348.817
275.351
341.892
2.69435
3.49519
5.76994
3.87074
-1.98172
-7.13786
-9.5195
261.137
971.383
476.614
150.278
405.29
3.50536
3.94114
0.89202
-0.975849
-4.70612
-12.6148
-3.60041
-5.30886
-9.77252
-11.0526
-11.6124
-14.2492
-22.5996
-19.8567
-16.6348
-46.2747
-33.557
-21.207
-97.0346
-55.3216
-24.1117
-124.319
-58.5598
-15.4409
-101.955
-16.5403
-1.15233
-4.17091
14.7701
8.59776
73.6605
37.7485
15.8684
5525.29
-3.81532
-0.272485
864.626
1.98973
-1.75438
940.583
6.06167
0.848493
1032.89
8.30982
3.02364
1073.17
43.6003
3.29969
1217.47
301.978
2.99786
3148.25
565.641
4.60578
2.22468
0.39879
-0.947477
1.68905
-0.0752644
-1.6568
1.07209
-0.511301
-1.99606
1.17686
-0.825907
-2.41537
0.00496734
-0.0598242
-2.7875
-3.54596
-1.3612
-4.12016
-12.3094
-6.81204
-6.01331
47.0139
-18.8047
-12.6194
504.858
23.4994
-19.9049
347.629
55.0643
-16.5607
59.9731
12.7073
-9.08789
290.044
22.8127
-4.16014
)
;
    }
    water_left_surface
    {
        type            fixedFluxPressure;
        gradient        uniform 0;
        value           nonuniform List<scalar> 
42
(
9754.68
9767.19
9778.36
9757.88
9753.52
9786.56
4159.7
4169.39
4177.61
4197.92
4211.43
4198.85
7.14935
7.15069
7.09201
7.10851
7.31584
6.98718
18.0321
16.5154
16.1989
17.2575
17.7328
15.9263
6.36445
5.49182
5.35087
5.96152
6.1315
3.50536
7.87558
4.86562
4.04747
8.08477
7.55709
3.94114
1.81648
-3.04332
-5.19968
0.914808
1.26139
0.89202
)
;
    }
    water_right_surface
    {
        type            fixedFluxPressure;
        gradient        uniform 0;
        value           nonuniform List<scalar> 
42
(
1533.19
1530.62
1514.34
1470.46
1460.54
1472.21
1017.18
1054.39
927.321
743.092
770.298
772.59
1.62182
0.658503
-0.976755
-2.88144
0.176015
2.16248
1.56583
1.67311
1.02087
0.704273
1.57092
2.69435
1.3434
1.56151
3.22396
3.25533
2.68809
2.22468
0.211058
0.292386
1.07234
0.49241
0.413536
0.39879
-0.793625
-0.894094
-0.568168
-0.800474
-0.952127
-0.947477
)
;
    }
    water_top_surface
    {
        type            totalPressure;
        rho             rho;
        psi             none;
        gamma           1;
        p0              uniform 0;
        value           nonuniform List<scalar> 
180
(
0
-1.89519
-2.64215
-0.303173
0
0
-13.9404
-13.5756
-13.3963
-13.8364
-14.2032
-13.9306
-10.6824
-10.7139
-10.7371
-10.7373
-10.7692
-10.8254
-13.931
-13.96
-13.9653
-13.9396
-14.0227
-13.9161
-15.3664
-15.4117
-15.4061
-15.3869
-15.4108
-15.3778
-17.3074
-17.2233
-17.1848
-17.248
-17.2551
-17.0581
-16.0511
-16.6101
-16.6516
-16.4772
-16.3185
-16.2247
-2.30251
-7.98737
-6.39999
-3.99709
-3.59523
-7.86034
0
-0.131796
0
0
0
-0.34012
0
0
0
0
0
0
0
0
0
0
0
0
0
0
0
0
0
0
0
0
0
0
0
0
0
0
0
0
0
0
0
0
0
0
0
0
0
0
0
0
0
0
0
0
0
0
0
0
0
0
0
0
0
0
-1.30115
-1.51627
-0.67702
-1.45321
-1.87978
-1.6397
-2.44171
-2.63543
-2.76147
-2.84287
-2.82261
-2.58668
-2.2689
-2.60424
-2.81082
-3.05311
-3.0411
-2.87061
-2.12378
-2.63323
-3.2779
-3.73439
-3.63619
-3.13073
-1.99657
-3.01006
-4.05418
-4.67811
-4.32605
-3.21411
-2.65703
-4.95695
-6.2629
-6.6059
-5.71903
-3.74295
-4.42963
-9.35426
-13.3415
-9.59071
-6.39612
-3.27912
-6.74406
-13.3939
-2.08467
-11.2242
-5.21319
-1.87601
-1.11837
-0.00250351
0
0
0
-0.06811
0
0
0
0
0
0
0
0
0
0
0
0
0
0
0
0
0
0
)
;
    }
}


// ************************************************************************* //
