/*--------------------------------*- C++ -*----------------------------------*\
| =========                 |                                                 |
| \\      /  F ield         | OpenFOAM: The Open Source CFD Toolbox           |
|  \\    /   O peration     | Version:  v1612+                                |
|   \\  /    A nd           | Web:      www.OpenFOAM.com                      |
|    \\/     M anipulation  |                                                 |
\*---------------------------------------------------------------------------*/
FoamFile
{
    version     2.0;
    format      ascii;
    class       volScalarField;
    location    "2.25";
    object      alpha.water;
}
// * * * * * * * * * * * * * * * * * * * * * * * * * * * * * * * * * * * * * //

dimensions      [0 0 0 0 0 0 0];

internalField   nonuniform List<scalar> 
1116
(
0.998594
0.998594
0.998594
0.998594
0.998594
0.998594
0.998594
0.998594
0.998594
0.998594
0.998594
0.998594
0.997777
0.997777
0.997777
0.997777
0.997777
0.997777
0.996889
0.996889
0.996889
0.996889
0.996889
0.996889
0.996277
0.996276
0.996276
0.996276
0.996276
0.996277
0.995612
0.995612
0.995612
0.995612
0.995612
0.995612
0.992267
0.992267
0.992266
0.992266
0.992266
0.992266
0.972052
0.972051
0.97205
0.97205
0.972049
0.972049
0.924232
0.924214
0.924223
0.924222
0.924219
0.924223
0.924795
0.924787
0.924787
0.924787
0.924785
0.924787
0.923827
0.923814
0.923819
0.923818
0.923816
0.923818
0.915098
0.915101
0.9151
0.915101
0.915104
0.915094
0.998594
0.998594
0.998594
0.998594
0.998594
0.998594
0.887937
0.887933
0.887934
0.887935
0.887936
0.887937
0.849583
0.849579
0.84958
0.849581
0.84958
0.849584
0.801108
0.801103
0.801104
0.801104
0.801103
0.801107
0.753747
0.753743
0.753744
0.753742
0.753741
0.753744
0.658123
0.65812
0.65812
0.658117
0.658115
0.658116
0.509275
0.509271
0.50927
0.509266
0.509263
0.509262
0.33637
0.336367
0.336364
0.33636
0.336357
0.336354
0.142888
0.142886
0.142886
0.142883
0.142881
0.14288
0.156952
0.156946
0.156948
0.156946
0.156944
0.156943
0.35933
0.359303
0.35931
0.359305
0.359289
0.359311
0.814293
0.814284
0.814287
0.814284
0.814273
0.81429
0.605443
0.605439
0.605441
0.605443
0.605445
0.605451
0.171664
0.171659
0.171661
0.171663
0.171663
0.171664
0.0842825
0.0842801
0.0842803
0.0842807
0.0842808
0.0842829
0.0434521
0.0434486
0.0434486
0.0434485
0.0434488
0.0434499
3.50159e-09
3.49857e-09
3.49883e-09
3.50166e-09
3.50398e-09
3.49941e-09
1.81937e-11
1.81876e-11
1.82013e-11
1.8217e-11
1.82255e-11
1.8201e-11
4.10347e-11
4.10248e-11
4.10519e-11
4.10801e-11
4.10933e-11
4.10459e-11
1.35248e-10
1.35178e-10
1.3524e-10
1.35258e-10
1.35298e-10
1.35183e-10
-3.29196e-09
-3.29209e-09
-3.29239e-09
-3.29208e-09
-3.29225e-09
-3.29135e-09
-4.49099e-06
-4.49051e-06
-4.49053e-06
-4.49054e-06
-4.49005e-06
-4.49109e-06
0.000900341
0.000900282
0.000900323
0.000900298
0.000900206
0.000900323
0.670037
0.670015
0.670024
0.670017
0.669985
0.670066
3.01572e-07
3.01519e-07
3.01528e-07
3.01444e-07
3.01398e-07
3.01614e-07
2.95332e-08
2.94826e-08
2.95025e-08
2.94427e-08
2.94015e-08
2.95966e-08
1.56787e-08
1.56794e-08
1.56783e-08
1.56876e-08
1.56932e-08
1.56658e-08
4.48129e-09
4.4794e-09
4.47937e-09
4.48107e-09
4.48151e-09
4.47552e-09
1.40971e-11
1.40935e-11
1.41072e-11
1.41211e-11
1.4131e-11
1.41216e-11
3.63482e-13
3.63375e-13
3.63624e-13
3.63533e-13
3.65148e-13
3.6288e-13
3.55407e-11
3.55327e-11
3.55579e-11
3.55884e-11
3.55999e-11
3.55583e-11
4.17304e-11
4.17205e-11
4.17477e-11
4.17759e-11
4.17891e-11
4.17418e-11
-3.78773e-10
-3.78802e-10
-3.78819e-10
-3.78718e-10
-3.78473e-10
-3.78784e-10
-3.4668e-09
-3.36359e-09
-3.41827e-09
-3.40253e-09
-3.27675e-09
-3.3233e-09
8.08206e-05
8.08282e-05
8.08309e-05
8.08259e-05
8.08044e-05
8.08402e-05
0.562982
0.562947
0.562965
0.562975
0.562977
0.562955
2.77087e-62
2.77611e-62
2.77591e-62
2.77624e-62
2.77753e-62
2.77267e-62
5.8187e-58
5.82947e-58
5.82903e-58
5.82979e-58
5.83255e-58
5.82283e-58
6.67176e-54
6.68215e-54
6.68113e-54
6.68157e-54
6.6844e-54
6.67327e-54
5.27032e-50
5.27553e-50
5.27374e-50
5.27355e-50
5.27555e-50
5.26731e-50
2.93623e-46
2.9366e-46
2.93479e-46
2.93438e-46
2.93558e-46
2.93185e-46
1.06554e-42
1.06492e-42
1.06414e-42
1.06408e-42
1.06481e-42
1.06413e-42
2.12793e-39
2.12722e-39
2.12658e-39
2.12759e-39
2.13051e-39
2.13142e-39
1.70846e-36
1.71129e-36
1.71307e-36
1.71579e-36
1.71994e-36
1.72275e-36
3.9062e-34
3.93239e-34
3.94605e-34
3.95794e-34
3.97079e-34
3.97912e-34
4.96062e-33
4.96297e-33
4.96245e-33
4.96537e-33
4.97274e-33
4.97437e-33
4.11448e-30
4.12252e-30
4.12339e-30
4.12573e-30
4.13109e-30
4.1318e-30
1.96631e-27
1.97112e-27
1.97135e-27
1.97152e-27
1.97226e-27
1.96983e-27
6.12914e-59
6.14069e-59
6.14016e-59
6.14065e-59
6.14322e-59
6.13183e-59
1.32888e-54
1.33135e-54
1.33124e-54
1.33135e-54
1.33191e-54
1.32954e-54
1.52984e-50
1.53244e-50
1.53224e-50
1.53228e-50
1.53285e-50
1.53013e-50
1.17374e-46
1.17537e-46
1.17508e-46
1.17503e-46
1.1754e-46
1.17341e-46
6.12499e-43
6.13079e-43
6.12842e-43
6.12769e-43
6.12961e-43
6.12032e-43
1.98641e-39
1.98762e-39
1.98675e-39
1.98661e-39
1.98753e-39
1.9853e-39
3.48421e-36
3.48707e-36
3.48656e-36
3.48751e-36
3.49063e-36
3.48905e-36
2.70393e-33
2.71e-33
2.71197e-33
2.71453e-33
2.7185e-33
2.71893e-33
7.79674e-31
7.83983e-31
7.85581e-31
7.86743e-31
7.87919e-31
7.87706e-31
7.86538e-30
7.85678e-30
7.85313e-30
7.85739e-30
7.87019e-30
7.87695e-30
6.11861e-27
6.12823e-27
6.12878e-27
6.13145e-27
6.13852e-27
6.13916e-27
1.90016e-24
1.90414e-24
1.90417e-24
1.90416e-24
1.90467e-24
1.90221e-24
5.42629e-56
5.43662e-56
5.43615e-56
5.43647e-56
5.43855e-56
5.42808e-56
1.21684e-51
1.21914e-51
1.21904e-51
1.21911e-51
1.21957e-51
1.21731e-51
1.38878e-47
1.39125e-47
1.39109e-47
1.39113e-47
1.3916e-47
1.38904e-47
1.01356e-43
1.01518e-43
1.015e-43
1.01497e-43
1.01527e-43
1.01346e-43
4.92472e-40
4.9315e-40
4.93028e-40
4.92991e-40
4.93127e-40
4.92303e-40
1.52574e-36
1.52764e-36
1.52724e-36
1.52716e-36
1.52767e-36
1.52542e-36
2.74932e-33
2.75306e-33
2.75271e-33
2.75294e-33
2.75426e-33
2.75095e-33
2.41448e-30
2.41892e-30
2.41933e-30
2.42004e-30
2.42157e-30
2.419e-30
9.79237e-28
9.81798e-28
9.82233e-28
9.82547e-28
9.83139e-28
9.81516e-28
6.8836e-26
6.92558e-26
6.92896e-26
6.9216e-26
6.91782e-26
6.8698e-26
5.97764e-24
5.98668e-24
5.98655e-24
5.98751e-24
5.99173e-24
5.98892e-24
8.96006e-22
8.97652e-22
8.97592e-22
8.9748e-22
8.97558e-22
8.96214e-22
2.37823e-53
2.38281e-53
2.3826e-53
2.3827e-53
2.38355e-53
2.37879e-53
5.46312e-49
5.47358e-49
5.47311e-49
5.47336e-49
5.47527e-49
5.46474e-49
6.06048e-45
6.07162e-45
6.07098e-45
6.07108e-45
6.073e-45
6.06149e-45
4.11229e-41
4.1194e-41
4.11882e-41
4.11874e-41
4.11989e-41
4.11228e-41
1.79517e-37
1.79806e-37
1.79775e-37
1.79766e-37
1.79811e-37
1.7949e-37
4.86275e-34
4.87017e-34
4.86927e-34
4.86902e-34
4.87022e-34
4.86194e-34
7.49807e-31
7.50918e-31
7.50805e-31
7.50794e-31
7.51006e-31
7.49819e-31
5.96057e-28
5.96978e-28
5.96941e-28
5.96972e-28
5.97204e-28
5.96232e-28
2.64748e-25
2.65219e-25
2.6523e-25
2.65246e-25
2.65622e-25
2.6458e-25
6.83311e-23
6.85232e-23
6.8504e-23
6.84501e-23
6.8804e-23
6.77357e-23
1.96651e-21
1.96936e-21
1.96918e-21
1.96915e-21
1.96983e-21
1.96787e-21
1.64784e-19
1.65036e-19
1.65017e-19
1.64989e-19
1.64971e-19
1.64769e-19
7.95725e-07
7.95731e-07
7.95747e-07
7.95779e-07
7.95802e-07
7.95792e-07
1.72041e-06
1.72023e-06
1.72073e-06
1.72123e-06
1.72133e-06
1.72123e-06
-3.51893e-14
-3.85453e-14
-3.95647e-14
-3.86848e-14
-3.84571e-14
-3.93738e-14
7.59048e-06
7.58427e-06
7.5843e-06
7.57843e-06
7.577e-06
7.59545e-06
5.01458e-05
5.01476e-05
5.01491e-05
5.015e-05
5.01503e-05
5.01504e-05
-1.82606e-13
-2.00012e-13
-2.05311e-13
-2.00744e-13
-1.99559e-13
-2.0433e-13
2.45415e-07
2.42392e-07
2.43696e-07
2.39581e-07
2.36643e-07
2.49818e-07
4.35211e-08
4.32367e-08
4.30025e-08
4.31494e-08
4.35168e-08
4.37006e-08
-1.09098e-12
-1.19499e-12
-1.22662e-12
-1.19933e-12
-1.19227e-12
-1.22073e-12
8.26925e-07
8.27375e-07
8.27227e-07
8.28097e-07
8.28725e-07
8.26294e-07
1.15349e-06
1.15335e-06
1.15331e-06
1.15327e-06
1.15324e-06
1.15334e-06
-1.10523e-12
-1.21055e-12
-1.24256e-12
-1.21489e-12
-1.20773e-12
-1.23649e-12
6.88087e-07
6.87699e-07
6.87713e-07
6.88045e-07
6.88157e-07
6.87249e-07
1.17008e-06
1.17003e-06
1.16994e-06
1.16988e-06
1.16987e-06
1.16983e-06
-2.79262e-16
-3.31858e-16
-3.75151e-16
-3.57649e-16
-3.40457e-16
3.16882e-29
3.70351e-15
3.70611e-15
3.70692e-15
3.70677e-15
3.70789e-15
3.70046e-15
6.39476e-17
6.41744e-17
6.4157e-17
6.43479e-17
6.44266e-17
6.40396e-17
5.3951e-17
5.41392e-17
5.41265e-17
5.42824e-17
5.4332e-17
5.40489e-17
3.6365e-13
3.63543e-13
3.63792e-13
3.63701e-13
3.65317e-13
3.63048e-13
3.69345e-15
3.69554e-15
3.69634e-15
3.69605e-15
3.69724e-15
3.69026e-15
-1.02746e-17
-1.03671e-17
-1.03617e-17
-1.04409e-17
-1.03235e-17
-1.02346e-17
3.38346e-11
3.38141e-11
3.38371e-11
3.3828e-11
3.38499e-11
3.37739e-11
-6.17784e-12
-6.17435e-12
-6.17623e-12
-6.17007e-12
-6.16658e-12
-6.17103e-12
6.46465e-13
6.50518e-13
6.4984e-13
6.54034e-13
6.57663e-13
6.44886e-13
2.87093e-09
2.86924e-09
2.87081e-09
2.87016e-09
2.87155e-09
2.86647e-09
2.34064e-10
2.34085e-10
2.34082e-10
2.34084e-10
2.34548e-10
2.33195e-10
3.15202e-10
3.16365e-10
3.16041e-10
3.17279e-10
3.18446e-10
3.14856e-10
4.92397e-08
4.91497e-08
4.92038e-08
4.91885e-08
4.9242e-08
4.90944e-08
1.26054e-08
1.26092e-08
1.26096e-08
1.26079e-08
1.26075e-08
1.25943e-08
1.1726e-09
1.16993e-09
1.16768e-09
1.16709e-09
1.1715e-09
1.17017e-09
5.61339e-06
5.61667e-06
5.61717e-06
5.61648e-06
5.60904e-06
5.62372e-06
1.26787e-07
1.26947e-07
1.27006e-07
1.26974e-07
1.26583e-07
1.27435e-07
1.54704e-08
1.54765e-08
1.54767e-08
1.54745e-08
1.5486e-08
1.54433e-08
0.128657
0.128641
0.128651
0.128666
0.128693
0.128608
5.55837e-06
5.56165e-06
5.56221e-06
5.56153e-06
5.55377e-06
5.56769e-06
-6.72771e-16
-2.38056e-15
-3.07167e-15
-1.32717e-15
-2.8671e-16
-1.03569e-15
4.32961e-12
4.33922e-12
4.32959e-12
4.34486e-12
4.49268e-12
4.17624e-12
1.39827e-09
1.40069e-09
1.39817e-09
1.40242e-09
1.44187e-09
1.35697e-09
-2.259e-17
-2.26955e-17
-2.33252e-17
-2.95329e-17
-2.47461e-17
-2.05671e-17
5.3676e-12
5.3759e-12
5.36747e-12
5.38188e-12
5.5189e-12
5.22375e-12
7.9902e-11
8.0494e-11
7.91986e-11
8.00232e-11
7.91255e-11
6.35153e-11
7.87112e-09
7.85228e-09
7.86629e-09
7.85583e-09
7.66991e-09
8.04663e-09
1.58784e-07
1.58631e-07
1.58552e-07
1.58778e-07
1.5787e-07
1.58498e-07
1.41782e-08
1.4144e-08
1.41718e-08
1.41457e-08
1.37553e-08
1.45302e-08
4.16139e-06
4.16469e-06
4.16012e-06
4.16852e-06
4.22564e-06
4.0979e-06
8.41758e-08
8.40944e-08
8.40292e-08
8.38193e-08
8.36191e-08
8.35606e-08
0.000140668
0.000140656
0.000140452
0.000140732
0.000142181
0.000138181
0.0022216
0.00222189
0.00222123
0.00222259
0.00223142
0.00221073
0.00313094
0.00313233
0.00312935
0.00313288
0.00315081
0.003107
0.0165199
0.0165202
0.0165173
0.0165244
0.0165517
0.0164786
0.00612792
0.00612897
0.00612797
0.00613058
0.00614598
0.00611122
0.0869271
0.0869238
0.0869182
0.0869394
0.0870312
0.0867998
0.0267615
0.026762
0.0267614
0.0267684
0.0267855
0.0267419
4.53648e-05
4.55017e-05
4.54967e-05
4.5508e-05
4.51183e-05
4.59648e-05
4.67952e-51
4.68858e-51
4.68812e-51
4.68829e-51
4.6899e-51
4.68032e-51
8.06764e-53
8.08417e-53
8.08406e-53
8.08437e-53
8.08663e-53
8.06949e-53
3.22661e-56
3.23358e-56
3.23349e-56
3.23363e-56
3.2346e-56
3.22747e-56
1.05959e-46
1.06164e-46
1.06154e-46
1.06158e-46
1.06194e-46
1.05985e-46
3.69102e-48
3.6984e-48
3.69839e-48
3.69853e-48
3.69948e-48
3.69207e-48
1.69631e-51
1.69986e-51
1.69983e-51
1.69988e-51
1.70035e-51
1.69676e-51
1.0952e-42
1.09725e-42
1.09714e-42
1.09715e-42
1.09749e-42
1.09537e-42
7.95833e-44
7.97347e-44
7.97339e-44
7.9735e-44
7.97524e-44
7.95995e-44
4.56963e-47
4.5788e-47
4.57869e-47
4.57877e-47
4.57986e-47
4.57056e-47
6.60812e-39
6.62e-39
6.61918e-39
6.61911e-39
6.62094e-39
6.60837e-39
1.02187e-39
1.02371e-39
1.0237e-39
1.02369e-39
1.02388e-39
1.02202e-39
8.07211e-43
8.08746e-43
8.08728e-43
8.08734e-43
8.08902e-43
8.07349e-43
2.49051e-35
2.49479e-35
2.49443e-35
2.49434e-35
2.49495e-35
2.49033e-35
8.28618e-36
8.30031e-36
8.30013e-36
8.3e-36
8.30118e-36
8.28692e-36
1.03222e-38
1.03409e-38
1.03407e-38
1.03406e-38
1.03424e-38
1.03235e-38
5.81676e-32
5.82628e-32
5.82535e-32
5.82502e-32
5.82625e-32
5.81576e-32
4.62889e-32
4.63642e-32
4.63608e-32
4.6359e-32
4.64351e-32
4.62079e-32
1.00064e-29
1.00195e-29
1.00136e-29
1.00135e-29
1.02122e-29
9.77866e-30
7.99666e-29
8.00902e-29
8.00761e-29
8.00698e-29
8.00888e-29
7.99395e-29
5.83141e-28
5.8389e-28
5.8371e-28
5.83785e-28
5.92682e-28
5.73462e-28
6.84264e-25
6.85064e-25
6.84801e-25
6.85012e-25
6.98712e-25
6.69342e-25
6.67515e-26
6.68477e-26
6.68347e-26
6.68296e-26
6.69401e-26
6.6621e-26
6.24608e-24
6.25332e-24
6.25123e-24
6.25333e-24
6.37249e-24
6.11817e-24
5.38854e-21
5.39451e-21
5.39266e-21
5.39558e-21
5.50313e-21
5.2729e-21
6.05878e-23
6.06665e-23
6.06478e-23
6.0649e-23
6.12443e-23
5.99388e-23
2.18952e-20
2.19192e-20
2.19109e-20
2.19225e-20
2.23493e-20
2.14372e-20
1.09911e-17
1.10028e-17
1.09987e-17
1.10079e-17
1.1224e-17
1.07592e-17
7.47741e-20
7.48599e-20
7.4817e-20
7.48256e-20
7.59819e-20
7.34649e-20
2.59208e-17
2.5948e-17
2.59354e-17
2.59571e-17
2.6454e-17
2.53835e-17
1.42216e-17
1.42192e-17
1.42202e-17
1.42176e-17
1.41739e-17
1.42697e-17
7.09259e-17
7.09946e-17
7.09451e-17
7.09699e-17
7.22081e-17
6.94911e-17
1.53088e-14
1.53235e-14
1.53155e-14
1.533e-14
1.56064e-14
1.49993e-14
1.35535e-14
1.35678e-14
1.35624e-14
1.35762e-14
1.38396e-14
1.32613e-14
2.51446e-14
2.51685e-14
2.5151e-14
2.51835e-14
2.56603e-14
2.46067e-14
6.19848e-12
6.2065e-12
6.20014e-12
6.21134e-12
6.35155e-12
6.04845e-12
2.31327e-12
2.31571e-12
2.31421e-12
2.31761e-12
2.36097e-12
2.26641e-12
)
;

boundaryField
{
    seabed_topleft_surface
    {
        type            zeroGradient;
    }
    seabed_topright_surface
    {
        type            zeroGradient;
    }
    breakwater_top_surface
    {
        type            zeroGradient;
    }
    breakwater_left_surface
    {
        type            zeroGradient;
    }
    breakwater_right_surface
    {
        type            zeroGradient;
    }
    water_front_surface
    {
        type            zeroGradient;
    }
    water_back_surface
    {
        type            zeroGradient;
    }
    water_left_surface
    {
        type            zeroGradient;
    }
    water_right_surface
    {
        type            zeroGradient;
    }
    water_top_surface
    {
        type            inletOutlet;
        inletValue      uniform 0;
        value           nonuniform List<scalar> 
180
(
0
0
0
0
0
0
0
0
0
0
0
0
0
0
0
0
0
0
0
0
0
0
0
0
0
0
0
0
0
0
0
0
0
0
0
0
0
0
0
0
0
0
0
0
0
0
0
0
0
0
0
0
0
0
1.1726e-09
1.16993e-09
1.16768e-09
1.16709e-09
1.1715e-09
1.17017e-09
1.54704e-08
1.54765e-08
1.54767e-08
1.54745e-08
1.5486e-08
1.54433e-08
0
0
0
0
0
0
0
0
0
0
0
0
7.87112e-09
7.85228e-09
7.86629e-09
7.85583e-09
7.66991e-09
8.04663e-09
4.16139e-06
4.16469e-06
4.16012e-06
4.16852e-06
4.22564e-06
4.0979e-06
0.0022216
0.00222189
0.00222123
0.00222259
0.00223142
0.00221073
0.00612792
0.00612897
0.00612797
0.00613058
0.00614598
0.00611122
4.53648e-05
4.55017e-05
4.54967e-05
4.5508e-05
4.51183e-05
4.59648e-05
0
0
0
0
0
0
0
0
0
0
0
0
0
0
0
0
0
0
0
0
0
0
0
0
0
0
0
0
0
0
0
0
0
0
0
0
0
0
0
0
0
0
0
0
0
0
0
0
0
0
0
0
0
0
0
0
0
0
0
0
1.35535e-14
1.35678e-14
1.35624e-14
1.35762e-14
1.38396e-14
1.32613e-14
2.31327e-12
2.31571e-12
2.31421e-12
2.31761e-12
2.36097e-12
2.26641e-12
)
;
    }
}


// ************************************************************************* //
