/*--------------------------------*- C++ -*----------------------------------*\
| =========                 |                                                 |
| \\      /  F ield         | OpenFOAM: The Open Source CFD Toolbox           |
|  \\    /   O peration     | Version:  v1612+                                |
|   \\  /    A nd           | Web:      www.OpenFOAM.com                      |
|    \\/     M anipulation  |                                                 |
\*---------------------------------------------------------------------------*/
FoamFile
{
    version     2.0;
    format      ascii;
    class       volVectorField;
    location    "2.25";
    object      U;
}
// * * * * * * * * * * * * * * * * * * * * * * * * * * * * * * * * * * * * * //

dimensions      [0 1 -1 0 0 0 0];

internalField   nonuniform List<vector> 
1116
(
(0.668973 -5.58095e-06 -0.525169)
(0.668977 -4.73516e-06 -0.525182)
(0.668975 -5.8618e-07 -0.52518)
(0.668977 -2.10254e-06 -0.525179)
(0.668979 -1.81042e-06 -0.525181)
(0.668972 5.37068e-07 -0.525176)
(1.97643 -8.52901e-06 -0.602243)
(1.97644 -5.39193e-06 -0.602262)
(1.97644 -2.13501e-06 -0.602257)
(1.97643 -3.69503e-06 -0.602257)
(1.97644 -3.97694e-07 -0.602261)
(1.97643 4.74513e-06 -0.602247)
(3.10563 -7.33548e-06 -0.453608)
(3.10564 -2.13507e-06 -0.453623)
(3.10564 -3.86681e-06 -0.453617)
(3.10564 -4.74843e-06 -0.453618)
(3.10564 -2.83754e-06 -0.453623)
(3.10563 5.71889e-06 -0.453608)
(3.89617 -7.58998e-06 -0.322407)
(3.89619 -2.50158e-06 -0.322415)
(3.89619 -8.0797e-06 -0.322411)
(3.89619 -7.35019e-06 -0.322414)
(3.89619 -5.93782e-06 -0.32242)
(3.89616 5.66364e-06 -0.322405)
(4.46291 -9.43206e-06 -0.194377)
(4.46294 -5.60499e-06 -0.194383)
(4.46294 -1.17371e-05 -0.194378)
(4.46293 -9.10315e-06 -0.194383)
(4.46293 -7.94796e-06 -0.194391)
(4.4629 4.50543e-06 -0.194376)
(4.91707 -1.25145e-05 -0.0959122)
(4.91709 -9.69034e-06 -0.0959196)
(4.91709 -1.33148e-05 -0.0959148)
(4.91709 -1.01302e-05 -0.0959206)
(4.91709 -8.6752e-06 -0.095931)
(4.91705 3.23609e-06 -0.0959167)
(5.31743 -1.00918e-05 -0.0360604)
(5.31745 -6.37713e-06 -0.0360709)
(5.31745 -8.43542e-06 -0.0360665)
(5.31745 -6.53696e-06 -0.0360726)
(5.31746 -3.65957e-06 -0.0360845)
(5.3174 5.50416e-06 -0.0360741)
(5.71597 -3.99108e-06 -0.0235631)
(5.71601 2.51595e-06 -0.0235818)
(5.716 2.4557e-06 -0.0235759)
(5.71601 1.16113e-06 -0.0235811)
(5.71602 5.67009e-06 -0.0235927)
(5.71597 1.03336e-05 -0.0235812)
(6.12789 -5.73762e-06 0.117629)
(6.12795 4.02907e-06 0.117611)
(6.12794 1.04164e-05 0.11761)
(6.12794 4.11659e-06 0.117605)
(6.12795 1.2291e-05 0.117594)
(6.12789 1.43501e-05 0.117601)
(5.70166 -6.24057e-06 0.388778)
(5.70175 3.41018e-06 0.388749)
(5.70174 9.76796e-06 0.388745)
(5.70174 5.07418e-06 0.38874)
(5.70175 9.06767e-06 0.388729)
(5.70167 9.02568e-06 0.388723)
(3.6672 3.03399e-06 0.779402)
(3.66731 4.192e-06 0.779384)
(3.66729 -1.11012e-06 0.779372)
(3.66729 7.26305e-06 0.779369)
(3.66733 -3.72472e-06 0.779351)
(3.66721 -7.10354e-06 0.779353)
(1.36608 -4.26691e-05 0.729149)
(1.36621 -4.21713e-05 0.729117)
(1.36617 -1.2164e-05 0.729126)
(1.36617 -2.51305e-05 0.729122)
(1.36623 1.48616e-07 0.729121)
(1.36608 1.7634e-05 0.72911)
(0.556089 -8.34217e-06 -2.08346)
(0.556074 -3.76058e-06 -2.08349)
(0.556078 -4.10032e-06 -2.08348)
(0.55609 -1.76544e-06 -2.08348)
(0.556089 -1.68625e-05 -2.08349)
(0.556058 -6.33509e-06 -2.08348)
(2.26026 5.61529e-06 -2.12515)
(2.26027 -1.38784e-06 -2.1252)
(2.26027 -6.95446e-06 -2.12518)
(2.26027 -6.35099e-06 -2.12518)
(2.26027 -8.5575e-06 -2.12519)
(2.26027 -8.47013e-06 -2.12516)
(3.40035 1.15974e-05 -1.41859)
(3.40039 6.55068e-07 -1.41862)
(3.40038 -1.07389e-05 -1.4186)
(3.40038 -1.12248e-05 -1.41861)
(3.40039 -1.51792e-05 -1.41863)
(3.40035 -1.73094e-05 -1.41859)
(4.13466 1.21014e-05 -1.05646)
(4.13472 1.0547e-06 -1.05648)
(4.13471 -9.79574e-06 -1.05647)
(4.1347 -9.97117e-06 -1.05648)
(4.13472 -1.36675e-05 -1.0565)
(4.13466 -1.8804e-05 -1.05646)
(4.72506 1.89026e-05 -0.902444)
(4.72513 8.57907e-06 -0.902473)
(4.72511 -2.15888e-06 -0.902466)
(4.72511 -2.85903e-06 -0.90248)
(4.72513 -6.73801e-06 -0.902504)
(4.72506 -1.83085e-05 -0.902471)
(5.23331 2.47128e-05 -0.876854)
(5.23341 1.42284e-05 -0.876894)
(5.23339 7.10919e-06 -0.876888)
(5.23339 4.56839e-06 -0.876901)
(5.23341 4.07442e-06 -0.876923)
(5.23334 -1.46736e-05 -0.876895)
(5.91769 3.31159e-05 -0.92984)
(5.91785 1.65077e-05 -0.92989)
(5.91782 1.09388e-05 -0.929883)
(5.91782 6.31349e-06 -0.929891)
(5.91785 1.17272e-05 -0.92991)
(5.91778 -1.44576e-05 -0.929885)
(7.127 4.58769e-05 -0.982041)
(7.12725 1.11172e-05 -0.982098)
(7.1272 -6.3074e-06 -0.982079)
(7.1272 -1.3172e-05 -0.982086)
(7.12725 3.8386e-07 -0.982104)
(7.12711 -2.7169e-05 -0.982059)
(7.85475 6.86783e-05 -0.075497)
(7.85508 3.00355e-05 -0.0755447)
(7.85497 -4.68961e-06 -0.0755184)
(7.85496 -2.65607e-05 -0.0755098)
(7.85501 -4.52589e-06 -0.0755228)
(7.85487 -2.69388e-05 -0.0754414)
(8.70515 5.13781e-05 1.55859)
(8.70545 2.80607e-05 1.55854)
(8.70533 3.86275e-06 1.55859)
(8.70533 -2.00817e-05 1.5586)
(8.70537 -7.94257e-06 1.55859)
(8.70523 -2.39833e-05 1.55865)
(6.35982 1.74939e-05 3.24773)
(6.36009 9.15687e-06 3.24774)
(6.35999 1.69818e-05 3.24776)
(6.35998 -1.89387e-05 3.24776)
(6.35996 1.46441e-05 3.24776)
(6.35992 2.78606e-05 3.24777)
(3.20315 -4.59403e-05 3.43585)
(3.20342 -3.83872e-05 3.43583)
(3.20335 1.37621e-05 3.43583)
(3.20336 -1.92771e-05 3.43583)
(3.20333 5.12265e-05 3.43588)
(3.20335 7.21657e-05 3.43573)
(-0.827309 1.15905e-05 -3.38896)
(-0.827364 -1.23094e-05 -3.38899)
(-0.827319 1.22699e-06 -3.38899)
(-0.827335 -1.12657e-06 -3.38897)
(-0.827357 -2.04391e-05 -3.38898)
(-0.827264 -3.47642e-05 -3.389)
(2.18448 3.50707e-05 -3.93509)
(2.18451 -1.81567e-05 -3.93514)
(2.18449 1.11919e-06 -3.93514)
(2.18451 -3.23229e-06 -3.93512)
(2.18451 -1.95406e-07 -3.93514)
(2.18444 -4.4107e-05 -3.93515)
(3.80548 3.39012e-05 -2.32283)
(3.8055 -1.1954e-05 -2.32281)
(3.80548 2.01644e-05 -2.32282)
(3.80548 6.93037e-06 -2.32283)
(3.80552 3.32343e-05 -2.32284)
(3.80551 -2.94188e-05 -2.32286)
(4.61558 8.62454e-05 -1.86368)
(4.61558 4.35087e-05 -1.86366)
(4.61556 7.67152e-05 -1.86368)
(4.61558 2.85821e-05 -1.8637)
(4.61563 4.87561e-05 -1.8637)
(4.61567 -4.51908e-05 -1.86375)
(5.84384 0.000132308 -1.62694)
(5.844 0.000123437 -1.62689)
(5.84402 0.000204059 -1.62691)
(5.84408 0.000105471 -1.62694)
(5.84416 0.000129473 -1.62691)
(5.84423 -2.58804e-05 -1.627)
(9.85341 0.000128536 -2.31257)
(9.85378 0.000153105 -2.31256)
(9.85393 0.000267919 -2.31255)
(9.85402 0.000145331 -2.31255)
(9.85403 0.000201435 -2.31252)
(9.8541 2.41609e-05 -2.31257)
(14.2299 9.41346e-05 -2.78667)
(14.2303 7.52707e-05 -2.78665)
(14.2304 0.000158615 -2.78663)
(14.2304 6.93338e-05 -2.7866)
(14.2303 8.50313e-05 -2.78656)
(14.2305 -6.38717e-05 -2.78647)
(17.2768 8.11258e-05 -2.43402)
(17.2774 -9.77077e-05 -2.43386)
(17.2775 -0.000185146 -2.43379)
(17.2772 -0.00025901 -2.43378)
(17.2772 -0.000393135 -2.43381)
(17.2765 -0.000407902 -2.4337)
(17.197 8.71668e-06 -0.205449)
(17.1972 -0.000365838 -0.205246)
(17.197 -0.000631799 -0.205197)
(17.1964 -0.00072721 -0.205276)
(17.197 -0.000788288 -0.205376)
(17.1942 -0.000614552 -0.205429)
(9.65783 4.90388e-05 3.43122)
(9.65838 -2.32313e-05 3.43128)
(9.65816 -0.000107219 3.43135)
(9.65796 -0.000260621 3.43128)
(9.65832 -0.000143149 3.43109)
(9.65696 -8.74991e-05 3.431)
(4.93836 1.82344e-05 6.73749)
(4.93883 -8.37571e-06 6.73752)
(4.93861 2.02129e-05 6.73757)
(4.93854 -8.93734e-05 6.73754)
(4.93881 7.24561e-05 6.73745)
(4.93812 0.000123403 6.73751)
(5.27152 -6.18187e-05 6.36125)
(5.27198 -2.89417e-05 6.36135)
(5.27192 4.89104e-05 6.36134)
(5.27195 4.75782e-05 6.36129)
(5.27193 6.93246e-05 6.36111)
(5.27197 2.4848e-05 6.36161)
(-2.45832 7.76443e-05 -3.81445)
(-2.45834 -8.9121e-05 -3.81444)
(-2.45822 6.1078e-05 -3.81455)
(-2.45841 -4.08081e-05 -3.81446)
(-2.45848 0.000127971 -3.81438)
(-2.45783 -6.12622e-05 -3.81464)
(2.60227 3.42011e-05 -5.84002)
(2.60231 -0.000121921 -5.84)
(2.60222 -5.51241e-06 -5.84006)
(2.6023 -3.6029e-05 -5.84003)
(2.60232 -9.64257e-06 -5.84003)
(2.60191 -0.000124831 -5.84011)
(2.07355 -3.05692e-05 -3.5299)
(2.07328 -3.07402e-05 -3.52982)
(2.07325 0.00010976 -3.52988)
(2.07328 8.57097e-05 -3.52989)
(2.07338 0.000182694 -3.52985)
(2.07357 7.88249e-05 -3.53001)
(2.10728 7.41411e-05 -2.95317)
(2.10687 0.000119422 -2.953)
(2.10695 0.000220036 -2.95306)
(2.10703 0.00014003 -2.95308)
(2.10709 0.000145724 -2.95303)
(2.10738 3.78327e-05 -2.95319)
(1.84198 0.000108162 -2.76872)
(1.84221 0.000209385 -2.7687)
(1.84242 0.000343452 -2.76868)
(1.84262 0.000203205 -2.76867)
(1.84275 0.000213402 -2.76857)
(1.84283 6.00859e-05 -2.76861)
(-1.66972 -0.000129728 -6.25839)
(-1.66977 -0.000152725 -6.25847)
(-1.66924 -0.000111614 -6.2582)
(-1.66902 -0.000100851 -6.25801)
(-1.66904 2.51398e-05 -6.25793)
(-1.66873 9.11173e-05 -6.25761)
(-3.72842 -0.000201855 -5.99521)
(-3.72875 -0.000338466 -5.99539)
(-3.72846 -0.000414253 -5.99527)
(-3.72842 -0.000410797 -5.99504)
(-3.72859 -0.000355156 -5.99496)
(-3.72799 -0.000142235 -5.99442)
(-3.2711 -8.70136e-05 -2.51926)
(-3.27135 -0.000255754 -2.51934)
(-3.27106 -0.000391483 -2.51935)
(-3.27113 -0.000382756 -2.51926)
(-3.2713 -0.000666542 -2.51933)
(-3.2712 -0.000492314 -2.51925)
(1.72471 0.000171368 4.99403)
(1.72514 -9.53958e-05 4.99421)
(1.72549 -0.000186179 4.9943)
(1.72481 5.94925e-05 4.99395)
(1.72483 -0.000269359 4.99344)
(1.72093 -0.000401601 4.99222)
(5.80637 0.000357285 12.1008)
(5.80781 0.000197487 12.1011)
(5.80671 5.51777e-05 12.1012)
(5.80663 0.000272311 12.1007)
(5.80655 -9.13355e-05 12.1002)
(5.80642 -0.000344695 12.0989)
(2.82707 0.000437474 12.4146)
(2.82782 0.000409194 12.4148)
(2.82728 0.00019679 12.4149)
(2.82714 8.10107e-05 12.4147)
(2.82727 0.000402504 12.4141)
(2.82687 0.0003418 12.4146)
(7.74069 -3.47232e-05 9.32223)
(7.7414 5.64537e-05 9.32242)
(7.74136 7.67076e-05 9.32233)
(7.7414 0.00010774 9.32229)
(7.74236 -3.47341e-05 9.32291)
(7.74032 -0.000165753 9.32189)
(-0.00113525 4.15188e-07 -0.00115177)
(-0.00113514 2.64522e-07 -0.0011518)
(-0.00113509 -1.48879e-07 -0.00115183)
(-0.00113501 -1.52509e-07 -0.00115186)
(-0.00113495 -2.44313e-07 -0.00115189)
(-0.00113484 -9.00683e-08 -0.00115195)
(-0.00344877 3.0028e-07 -0.00119502)
(-0.00344853 1.09336e-07 -0.00119493)
(-0.00344842 -3.01063e-07 -0.00119493)
(-0.00344821 -3.53837e-07 -0.00119498)
(-0.00344803 -5.01856e-07 -0.00119504)
(-0.00344777 -2.56571e-07 -0.00119514)
(-0.00588516 3.29121e-07 -0.0012722)
(-0.00588479 1.47495e-07 -0.00127164)
(-0.00588448 -4.61154e-07 -0.00127151)
(-0.00588405 -6.59697e-07 -0.00127154)
(-0.00588361 -8.04527e-07 -0.00127161)
(-0.00588307 -4.22448e-07 -0.00127175)
(-0.00851836 4.42687e-07 -0.00137356)
(-0.00851747 9.70624e-08 -0.00137194)
(-0.00851655 -1.03422e-06 -0.0013715)
(-0.00851548 -1.52794e-06 -0.00137144)
(-0.00851429 -1.7026e-06 -0.00137159)
(-0.00851301 -8.60533e-07 -0.00137195)
(-0.0114407 4.64475e-07 -0.00148442)
(-0.0114382 -5.65651e-07 -0.00148103)
(-0.0114357 -2.80543e-06 -0.00148006)
(-0.0114331 -3.81409e-06 -0.00147993)
(-0.0114303 -3.89862e-06 -0.00148033)
(-0.0114274 -1.85542e-06 -0.00148134)
(-0.0148098 -5.3613e-07 -0.00167183)
(-0.0148034 -3.64506e-06 -0.00166658)
(-0.0147975 -7.46087e-06 -0.00166536)
(-0.014792 -8.97353e-06 -0.00166558)
(-0.0147863 -8.47219e-06 -0.00166686)
(-0.01478 -3.84359e-06 -0.00166943)
(-0.018742 -3.80215e-06 -0.00228497)
(-0.0187277 -1.14343e-05 -0.00228052)
(-0.0187164 -1.67438e-05 -0.00228066)
(-0.0187069 -1.80452e-05 -0.00228244)
(-0.0186975 -1.58992e-05 -0.00228566)
(-0.0186864 -6.95659e-06 -0.00229101)
(-0.0230279 -9.75507e-06 -0.00376413)
(-0.0230012 -2.37161e-05 -0.00376667)
(-0.0229842 -2.85215e-05 -0.00377096)
(-0.0229719 -2.76383e-05 -0.00377584)
(-0.0229605 -2.26255e-05 -0.00378178)
(-0.0229451 -9.5421e-06 -0.00379008)
(-0.0273199 -1.53518e-05 -0.00629711)
(-0.0272795 -3.23872e-05 -0.00631261)
(-0.0272605 -3.21518e-05 -0.0063224)
(-0.0272505 -2.6828e-05 -0.00632973)
(-0.0272421 -1.92628e-05 -0.00633625)
(-0.0272271 -7.54958e-06 -0.00634377)
(-0.0281664 -1.17473e-05 -0.00905552)
(-0.0281124 -2.07375e-05 -0.00908356)
(-0.0280945 -1.36192e-05 -0.00909544)
(-0.0280897 -5.28342e-06 -0.00910062)
(-0.0280878 1.28665e-06 -0.00910164)
(-0.0280793 1.89891e-06 -0.00910081)
(-0.0278492 -2.19421e-06 -0.00972249)
(-0.0277913 2.02062e-06 -0.00974609)
(-0.0277753 1.26489e-05 -0.00974907)
(-0.0277728 1.95319e-05 -0.00974378)
(-0.0277746 2.18027e-05 -0.00973338)
(-0.0277746 1.06728e-05 -0.0097185)
(-0.0151437 1.0604e-05 -0.00163104)
(-0.0151159 1.96308e-05 -0.00163993)
(-0.0151075 1.60451e-05 -0.00164214)
(-0.0151044 1.19946e-05 -0.00164392)
(-0.0151032 8.58318e-06 -0.00164504)
(-0.0151033 3.50255e-06 -0.00164283)
(-0.0011212 3.31311e-07 -0.00337518)
(-0.00112103 1.40016e-07 -0.0033752)
(-0.00112095 -2.57136e-07 -0.00337519)
(-0.00112085 -2.52674e-07 -0.00337524)
(-0.00112077 -3.62638e-07 -0.00337526)
(-0.00112068 -1.77497e-07 -0.00337534)
(-0.0034164 1.37181e-07 -0.00351525)
(-0.00341594 -1.33048e-07 -0.00351502)
(-0.00341567 -4.93705e-07 -0.00351496)
(-0.00341536 -5.22841e-07 -0.00351502)
(-0.00341513 -6.10713e-07 -0.00351509)
(-0.00341488 -3.1164e-07 -0.00351525)
(-0.0058667 -1.00423e-07 -0.00377689)
(-0.00586585 -5.94891e-07 -0.0037757)
(-0.0058652 -1.02987e-06 -0.00377534)
(-0.00586456 -1.05066e-06 -0.00377529)
(-0.005864 -1.00184e-06 -0.00377539)
(-0.00586348 -4.87425e-07 -0.00377563)
(-0.00856631 -5.39157e-07 -0.00415244)
(-0.00856452 -1.59542e-06 -0.00414915)
(-0.00856305 -2.226e-06 -0.00414809)
(-0.00856165 -2.24566e-06 -0.00414779)
(-0.00856033 -1.96948e-06 -0.00414802)
(-0.00855907 -8.95575e-07 -0.00414875)
(-0.0115333 -1.55073e-06 -0.00461446)
(-0.0115294 -3.84486e-06 -0.00460774)
(-0.0115261 -4.81498e-06 -0.00460559)
(-0.0115231 -4.7981e-06 -0.00460508)
(-0.0115202 -4.01765e-06 -0.00460584)
(-0.0115172 -1.74305e-06 -0.00460807)
(-0.014535 -3.62275e-06 -0.00507087)
(-0.0145259 -8.41619e-06 -0.00506139)
(-0.014519 -9.79897e-06 -0.00505902)
(-0.0145131 -9.4275e-06 -0.00505935)
(-0.0145074 -7.58048e-06 -0.00506207)
(-0.0145012 -3.15796e-06 -0.00506793)
(-0.017217 -7.29302e-06 -0.00511769)
(-0.0171962 -1.57112e-05 -0.00511259)
(-0.017183 -1.64318e-05 -0.00511416)
(-0.0171733 -1.46101e-05 -0.00511844)
(-0.0171644 -1.09936e-05 -0.0051258)
(-0.0171536 -4.38684e-06 -0.00513789)
(-0.0194045 -1.11727e-05 -0.00363976)
(-0.0193607 -2.1532e-05 -0.00365407)
(-0.0193389 -1.84146e-05 -0.00366633)
(-0.0193262 -1.336e-05 -0.0036779)
(-0.0193164 -8.14638e-06 -0.0036909)
(-0.0193035 -2.81929e-06 -0.00370823)
(-0.0215041 -1.12494e-05 0.000470221)
(-0.0214248 -1.60285e-05 0.000425598)
(-0.0213949 -3.72728e-06 0.00040246)
(-0.0213842 6.18379e-06 0.000387611)
(-0.0213812 1.09576e-05 0.000376681)
(-0.0213768 5.86311e-06 0.000366009)
(-0.0234926 -4.76037e-06 0.0110831)
(-0.0233828 6.04646e-06 0.0110235)
(-0.0233535 3.03933e-05 0.0110043)
(-0.0233551 4.34607e-05 0.0110024)
(-0.023372 4.4232e-05 0.0110113)
(-0.0233948 2.03491e-05 0.0110276)
(-0.0302565 1.55056e-05 0.0233104)
(-0.0301465 4.33942e-05 0.0232769)
(-0.0301257 6.16708e-05 0.02328)
(-0.0301391 6.7994e-05 0.0232987)
(-0.0301736 6.10764e-05 0.023329)
(-0.0302289 2.69781e-05 0.0233734)
(-0.0281151 2.26756e-05 0.0549575)
(-0.0280622 3.46733e-05 0.0549425)
(-0.0280499 1.42788e-05 0.0549334)
(-0.0280527 -2.88405e-06 0.0549263)
(-0.0280674 -1.38824e-05 0.0549251)
(-0.0280981 -8.67937e-06 0.054936)
(-0.00105704 3.41094e-07 -0.00548898)
(-0.0010569 1.95359e-07 -0.00548899)
(-0.00105684 -2.2814e-07 -0.00548895)
(-0.00105677 -2.4342e-07 -0.00548897)
(-0.00105671 -3.40955e-07 -0.00548897)
(-0.00105667 -1.81651e-07 -0.00548899)
(-0.00323174 1.29477e-07 -0.00574248)
(-0.00323138 -1.01851e-07 -0.00574223)
(-0.00323118 -4.66703e-07 -0.00574212)
(-0.00323096 -5.08345e-07 -0.00574213)
(-0.00323082 -5.70462e-07 -0.00574217)
(-0.00323074 -2.97483e-07 -0.0057423)
(-0.00558797 -1.32785e-07 -0.00622789)
(-0.00558738 -6.04599e-07 -0.00622672)
(-0.00558693 -9.83484e-07 -0.00622629)
(-0.00558649 -9.74033e-07 -0.00622613)
(-0.00558619 -8.64342e-07 -0.00622617)
(-0.00558607 -4.0135e-07 -0.0062264)
(-0.00824929 -6.19457e-07 -0.0069408)
(-0.00824816 -1.60752e-06 -0.00693766)
(-0.0082472 -2.01487e-06 -0.00693647)
(-0.00824633 -1.89542e-06 -0.006936)
(-0.00824564 -1.47911e-06 -0.00693613)
(-0.00824525 -6.08311e-07 -0.00693693)
(-0.0114119 -1.59958e-06 -0.0078224)
(-0.0114093 -3.55149e-06 -0.00781624)
(-0.0114073 -3.88167e-06 -0.00781403)
(-0.0114055 -3.47458e-06 -0.00781335)
(-0.011404 -2.53031e-06 -0.00781412)
(-0.011403 -9.81878e-07 -0.00781672)
(-0.0156038 -3.34791e-06 -0.00877846)
(-0.015597 -6.90517e-06 -0.00877145)
(-0.0155925 -6.72974e-06 -0.00876963)
(-0.0155892 -5.52448e-06 -0.00877012)
(-0.0155866 -3.64898e-06 -0.00877324)
(-0.0155846 -1.29692e-06 -0.0087801)
(-0.0218242 -5.87848e-06 -0.00973847)
(-0.0218062 -1.09159e-05 -0.0097407)
(-0.0217974 -8.58145e-06 -0.00974447)
(-0.0217927 -5.47276e-06 -0.00974977)
(-0.0217903 -2.24995e-06 -0.00975806)
(-0.0217891 -3.324e-07 -0.00977142)
(-0.030343 -7.84114e-06 -0.0107999)
(-0.0303028 -1.09083e-05 -0.0108291)
(-0.0302899 -1.6996e-06 -0.0108455)
(-0.0302879 5.64293e-06 -0.0108584)
(-0.0302924 9.30258e-06 -0.0108711)
(-0.0303005 4.98154e-06 -0.0108863)
(-0.0423835 -4.17401e-06 -0.0121179)
(-0.0423162 5.20981e-06 -0.012181)
(-0.0423054 2.67515e-05 -0.0122063)
(-0.0423178 3.83582e-05 -0.0122176)
(-0.0423443 3.90327e-05 -0.0122208)
(-0.0423815 1.80075e-05 -0.0122176)
(-0.050209 1.21997e-05 -0.0112267)
(-0.0501272 4.22854e-05 -0.011292)
(-0.0501318 6.99961e-05 -0.0113004)
(-0.0501727 8.09976e-05 -0.0112856)
(-0.0502381 7.28511e-05 -0.0112543)
(-0.0503269 3.16508e-05 -0.0112062)
(-0.0618784 2.60413e-05 -0.0119088)
(-0.0618159 5.83012e-05 -0.0119145)
(-0.0618421 6.56948e-05 -0.0118908)
(-0.0619095 6.19956e-05 -0.0118515)
(-0.0620093 4.65644e-05 -0.0117988)
(-0.062144 1.80189e-05 -0.0117255)
(-0.0442305 7.92667e-07 0.0189912)
(-0.0442057 -1.98942e-05 0.0189956)
(-0.0442196 -5.47307e-05 0.0189961)
(-0.0442542 -7.45235e-05 0.0190007)
(-0.0443083 -7.72294e-05 0.0190167)
(-0.0443823 -3.75564e-05 0.0190481)
(-0.000937089 2.63572e-07 -0.00740277)
(-0.000936952 1.53732e-07 -0.00740281)
(-0.000936894 -2.11e-07 -0.00740278)
(-0.000936835 -2.52219e-07 -0.0074028)
(-0.000936799 -3.14822e-07 -0.0074028)
(-0.000936761 -1.65825e-07 -0.00740284)
(-0.00288064 6.63299e-08 -0.00779743)
(-0.00288025 -1.45226e-07 -0.00779727)
(-0.00288005 -4.4614e-07 -0.00779718)
(-0.0028799 -4.83786e-07 -0.00779717)
(-0.00287984 -5.37023e-07 -0.00779719)
(-0.00287983 -2.88463e-07 -0.00779728)
(-0.00504699 -2.48679e-07 -0.00857431)
(-0.00504623 -6.89094e-07 -0.00857348)
(-0.00504584 -8.71718e-07 -0.00857312)
(-0.0050456 -7.87796e-07 -0.00857295)
(-0.00504554 -6.63833e-07 -0.00857294)
(-0.00504565 -3.08587e-07 -0.00857312)
(-0.00763181 -7.78256e-07 -0.00975203)
(-0.0076304 -1.5734e-06 -0.00974979)
(-0.00762973 -1.47837e-06 -0.00974883)
(-0.00762939 -1.14121e-06 -0.0097484)
(-0.00762932 -6.85269e-07 -0.00974844)
(-0.00762947 -2.29998e-07 -0.00974908)
(-0.0108164 -1.34472e-06 -0.0113062)
(-0.0108137 -2.46724e-06 -0.011302)
(-0.0108126 -1.88715e-06 -0.0113004)
(-0.0108123 -1.09704e-06 -0.0112999)
(-0.0108123 -3.13034e-07 -0.0113006)
(-0.0108125 1.43268e-08 -0.0113027)
(-0.014534 -1.70647e-06 -0.0131588)
(-0.0145285 -2.47178e-06 -0.0131552)
(-0.0145271 -7.04246e-07 -0.0131545)
(-0.0145271 8.12123e-07 -0.0131555)
(-0.0145278 1.81021e-06 -0.0131585)
(-0.0145285 1.05553e-06 -0.0131642)
(-0.0182799 -4.1755e-07 -0.0152487)
(-0.0182681 1.79231e-06 -0.0152551)
(-0.0182664 6.04824e-06 -0.0152604)
(-0.0182683 8.47852e-06 -0.0152665)
(-0.0182719 8.71363e-06 -0.0152745)
(-0.0182758 4.0888e-06 -0.0152853)
(-0.021709 4.82634e-06 -0.0163324)
(-0.0216857 1.52123e-05 -0.0163633)
(-0.0216851 2.3558e-05 -0.0163808)
(-0.021693 2.66846e-05 -0.0163948)
(-0.0217058 2.39404e-05 -0.0164072)
(-0.0217221 1.04653e-05 -0.0164176)
(-0.0260424 1.44158e-05 -0.0154152)
(-0.0260083 3.76854e-05 -0.0154728)
(-0.0260159 4.96523e-05 -0.0154973)
(-0.0260403 5.13569e-05 -0.0155092)
(-0.0260763 4.27278e-05 -0.0155114)
(-0.0261242 1.78644e-05 -0.0155012)
(-0.0299181 2.08034e-05 -0.00104189)
(-0.0298932 4.87288e-05 -0.00109193)
(-0.0299261 5.63383e-05 -0.00109528)
(-0.0299837 5.20044e-05 -0.00107827)
(-0.0300588 3.75921e-05 -0.00104461)
(-0.030153 1.39888e-05 -0.000991303)
(-0.0506445 7.5931e-06 0.0247013)
(-0.0506644 8.98329e-06 0.0247218)
(-0.0507366 -4.59002e-06 0.0247601)
(-0.0508351 -1.92168e-05 0.0248141)
(-0.0509433 -3.13164e-05 0.0248762)
(-0.0510524 -1.7841e-05 0.0249463)
(-0.060772 -3.55519e-05 0.171155)
(-0.0607865 -9.30806e-05 0.171142)
(-0.0608328 -0.000128898 0.171167)
(-0.0608904 -0.000136704 0.171193)
(-0.0609573 -0.000118432 0.171258)
(-0.0610041 -5.25868e-05 0.171273)
(-0.821342 2.34636e-05 -3.5723)
(-0.821332 -7.17009e-05 -3.57229)
(-0.821257 3.26938e-05 -3.5724)
(-0.82138 -5.97695e-05 -3.57232)
(-0.821423 0.000154516 -3.57221)
(-0.821001 4.13984e-05 -3.57246)
(-0.0735702 -1.18003e-05 -3.71565)
(-0.0735892 3.38598e-05 -3.71579)
(-0.0735912 5.65021e-05 -3.71582)
(-0.0736368 4.19279e-05 -3.71577)
(-0.073656 9.71347e-05 -3.71574)
(-0.0735907 7.89257e-05 -3.71572)
(0.0941371 4.66027e-07 -3.59818)
(0.0941231 -1.03267e-05 -3.59826)
(0.0941246 -2.88566e-05 -3.59826)
(0.0941468 -3.51152e-05 -3.59822)
(0.0941553 -3.94017e-05 -3.59824)
(0.0941148 -1.81719e-05 -3.5982)
(0.816153 -5.73639e-05 -5.01235)
(0.816033 -7.45792e-06 -5.01246)
(0.81599 4.1533e-05 -5.01242)
(0.816045 6.16576e-05 -5.01238)
(0.816102 2.15392e-05 -5.01242)
(0.816126 2.10911e-05 -5.01223)
(-0.339113 -2.57323e-05 -4.59079)
(-0.339145 -5.31682e-05 -4.59091)
(-0.339168 -4.97779e-05 -4.59085)
(-0.339197 -1.83548e-05 -4.59083)
(-0.33921 -6.0319e-06 -4.59089)
(-0.339145 -2.69147e-06 -4.59071)
(-0.264743 1.71898e-05 -3.90271)
(-0.26475 1.70056e-05 -3.9028)
(-0.264748 2.46319e-06 -3.90275)
(-0.26474 4.28115e-06 -3.90273)
(-0.264733 -5.82084e-06 -3.90274)
(-0.264749 -1.28808e-05 -3.90261)
(-3.15833 -3.15298e-05 -2.52144)
(-3.1588 -1.09393e-05 -2.52149)
(-3.15883 -2.8811e-05 -2.52149)
(-3.15882 -2.4256e-05 -2.52148)
(-3.15877 -1.27758e-06 -2.52152)
(-3.15844 6.22445e-05 -2.52147)
(-1.1749 -5.22521e-07 -2.00801)
(-1.175 -1.00702e-05 -2.00807)
(-1.17502 -2.77583e-05 -2.00803)
(-1.17506 -1.36847e-05 -2.00802)
(-1.17507 -2.82457e-05 -2.00806)
(-1.17495 -1.17677e-05 -2.00792)
(-0.329888 8.97514e-06 -2.35769)
(-0.329872 8.97037e-06 -2.35774)
(-0.329889 1.08259e-05 -2.3577)
(-0.329891 1.02952e-05 -2.35769)
(-0.32989 5.44934e-06 -2.35769)
(-0.329929 -4.91937e-06 -2.3576)
(-2.11488 1.361e-05 -1.71291)
(-2.11506 -9.4259e-06 -1.71313)
(-2.1151 -5.23134e-05 -1.71302)
(-2.11515 -4.67847e-05 -1.71296)
(-2.1152 -2.53439e-05 -1.71297)
(-2.1151 2.27632e-05 -1.71277)
(-0.550117 6.20239e-06 -3.40906)
(-0.550123 -2.37212e-05 -3.40926)
(-0.550181 -5.55532e-05 -3.40926)
(-0.550216 -5.49901e-05 -3.40929)
(-0.550246 -6.63694e-05 -3.40934)
(-0.550293 -4.37657e-05 -3.40907)
(0.0139261 1.66544e-05 -3.14778)
(0.0139438 2.54037e-05 -3.14789)
(0.0139426 1.47584e-05 -3.14788)
(0.0139441 9.04335e-06 -3.14788)
(0.0139446 -1.24266e-05 -3.1479)
(0.0139288 -1.65982e-05 -3.14778)
(-1.30227 -6.74572e-05 -0.664943)
(-1.30244 -8.86965e-05 -0.665215)
(-1.3025 -4.66492e-05 -0.665069)
(-1.30255 -3.48811e-05 -0.664926)
(-1.30256 2.14519e-05 -0.664867)
(-1.30245 4.19679e-05 -0.664566)
(-0.412812 3.57227e-06 -3.1282)
(-0.41282 -2.40885e-05 -3.12841)
(-0.41284 -7.64633e-05 -3.12842)
(-0.412865 -7.79394e-05 -3.12844)
(-0.412887 -7.54084e-05 -3.12848)
(-0.412891 -3.24036e-05 -3.12824)
(-0.0399972 7.63266e-06 -2.55562)
(-0.0399932 5.68442e-06 -2.55575)
(-0.0399987 -2.27017e-06 -2.55576)
(-0.040002 -8.60035e-06 -2.55577)
(-0.0400048 -1.87328e-05 -2.55581)
(-0.0400139 -1.51415e-05 -2.5557)
(-0.624798 -9.23525e-05 -1.81024)
(-0.625066 -0.000150717 -1.81056)
(-0.625173 -0.000105178 -1.81054)
(-0.625235 -9.91444e-05 -1.81049)
(-0.625238 -2.91701e-05 -1.81047)
(-0.625107 6.10362e-06 -1.81013)
(0.116037 1.1789e-05 -3.58435)
(0.116043 -2.8469e-06 -3.58449)
(0.116041 -4.04148e-05 -3.58448)
(0.116039 -4.95256e-05 -3.58447)
(0.116033 -5.90896e-05 -3.5845)
(0.116056 -2.74033e-05 -3.5843)
(-0.132166 1.27554e-06 -2.77825)
(-0.13217 -7.7072e-06 -2.77839)
(-0.132173 -1.55071e-05 -2.7784)
(-0.132174 -1.74387e-05 -2.77842)
(-0.132173 -2.09753e-05 -2.77844)
(-0.132174 -1.46448e-05 -2.77834)
(-1.47167 -9.32687e-05 -3.612)
(-1.4721 -0.000137156 -3.61232)
(-1.47207 -9.14462e-05 -3.61222)
(-1.47202 -0.000144868 -3.61213)
(-1.472 -7.91846e-05 -3.61207)
(-1.4716 -1.82327e-07 -3.61158)
(-0.489168 -3.50118e-05 -2.9933)
(-0.489171 -6.56246e-05 -2.99334)
(-0.489199 -6.32499e-05 -2.99333)
(-0.489193 -6.29575e-05 -2.99332)
(-0.489198 -2.71056e-05 -2.99333)
(-0.489119 7.48311e-06 -2.99324)
(-0.329469 -6.04368e-06 -2.67171)
(-0.329471 -1.60742e-05 -2.67183)
(-0.329469 -1.87422e-05 -2.67183)
(-0.329468 -1.46383e-05 -2.67182)
(-0.329473 -9.95359e-06 -2.6718)
(-0.329459 -4.9284e-06 -2.67169)
(-3.14461 2.66459e-05 -5.03541)
(-3.14554 1.98005e-05 -5.03584)
(-3.14538 -1.90732e-05 -5.03558)
(-3.14535 -4.37917e-05 -5.03552)
(-3.14543 -8.06017e-05 -5.0352)
(-3.14464 -3.96954e-05 -5.03545)
(-1.416 -1.11376e-05 -2.22389)
(-1.41622 -6.28417e-05 -2.22392)
(-1.41632 -6.68698e-05 -2.22397)
(-1.41632 -7.24904e-05 -2.22397)
(-1.41641 2.54373e-05 -2.22383)
(-1.41602 7.89308e-05 -2.22408)
(-0.397767 -1.78033e-05 -2.09988)
(-0.397792 -2.86726e-05 -2.09993)
(-0.397808 -2.28865e-05 -2.09991)
(-0.397833 -3.44165e-05 -2.09991)
(-0.397869 2.42017e-05 -2.09989)
(-0.397804 4.82655e-05 -2.09984)
(-3.86051 0.00041323 -2.69647)
(-3.86123 0.000452711 -2.6967)
(-3.86086 0.000254804 -2.69601)
(-3.86088 0.000458301 -2.69623)
(-3.86099 9.59918e-05 -2.69514)
(-3.86082 -0.000144726 -2.69963)
(-3.35487 0.000161342 -1.03981)
(-3.35533 0.000131162 -1.03964)
(-3.35537 0.000169588 -1.03969)
(-3.35539 0.000126642 -1.03954)
(-3.35543 0.000352004 -1.03826)
(-3.35499 0.000426405 -1.04094)
(-0.682859 -9.73125e-05 -1.33364)
(-0.683014 -0.000146416 -1.33358)
(-0.68305 -0.000127149 -1.33354)
(-0.683091 -0.000175582 -1.33352)
(-0.683118 7.79212e-05 -1.33363)
(-0.682977 0.000174767 -1.33367)
(3.15768 0.000593742 8.82362)
(3.15976 0.000584858 8.82528)
(3.15858 0.000343125 8.82512)
(3.15873 0.000848782 8.82451)
(3.15823 0.000419669 8.82559)
(3.15943 -0.000155075 8.81879)
(-1.10263 0.000236306 3.56174)
(-1.10183 0.000427195 3.56381)
(-1.10194 0.000701247 3.56395)
(-1.10183 0.000624382 3.56418)
(-1.1014 0.000958144 3.56538)
(-1.10246 0.000863004 3.56133)
(-0.38421 -0.000147686 1.54855)
(-0.384786 -0.000157987 1.54903)
(-0.384785 1.59575e-05 1.54925)
(-0.385141 -2.47313e-05 1.54919)
(-0.384879 0.000259845 1.54962)
(-0.385474 0.00031751 1.54868)
(1.25381 0.00125785 11.2521)
(1.257 0.00177049 11.2553)
(1.25552 0.00142381 11.2547)
(1.25588 0.000458581 11.2542)
(1.25676 0.00178127 11.2518)
(1.25521 0.0019335 11.2564)
(3.03816 0.00011406 5.06615)
(3.03888 0.000758968 5.07137)
(3.03829 0.00130987 5.07238)
(3.03882 0.00065809 5.07204)
(3.03899 0.00149357 5.05927)
(3.03843 0.00140449 5.08684)
(2.54249 -0.00055365 0.946262)
(2.54246 -0.000584694 0.947702)
(2.54271 -0.000375081 0.948399)
(2.54281 0.000155799 0.948882)
(2.54349 -0.00056174 0.945631)
(2.54175 -0.00105362 0.953067)
(8.45718 0.000150122 10.4125)
(8.45847 0.000368374 10.4134)
(8.45813 0.000331683 10.4131)
(8.45825 4.84151e-05 10.4131)
(8.45978 0.000367699 10.4137)
(8.45663 0.000400083 10.4126)
(5.45046 0.000286411 3.43999)
(5.45224 0.000799728 3.4446)
(5.45159 0.00101242 3.44377)
(5.45142 -0.000429247 3.44374)
(5.45077 0.00218701 3.43926)
(5.45318 0.00306572 3.44975)
(4.40149 -0.000349306 -3.00797)
(4.40225 -0.000187691 -3.00636)
(4.40283 -0.000173984 -3.00597)
(4.40256 2.48632e-05 -3.00578)
(4.39593 -0.0004539 -3.01722)
(4.41013 -0.000822763 -2.99239)
(-0.929875 -3.45867e-05 0.0214299)
(-0.929823 -2.74461e-05 0.0214609)
(-0.929958 -8.42264e-05 0.0215007)
(-0.929744 -5.0874e-05 0.021416)
(-0.930027 -4.35989e-05 0.0217748)
(-0.929711 -7.8991e-05 0.0210246)
(-0.576559 9.30282e-05 -0.985072)
(-0.576778 0.000178557 -0.985083)
(-0.576901 -0.000108441 -0.985181)
(-0.576654 0.000406921 -0.984991)
(-0.578742 -0.000677107 -0.985474)
(-0.574628 -0.0012813 -0.984582)
(1.16827 -1.4779e-05 -0.20576)
(1.16836 -0.000325208 -0.205862)
(1.16863 0.000194909 -0.205838)
(1.16832 -0.00115833 -0.205823)
(1.16963 0.00147704 -0.205772)
(1.16696 0.00313823 -0.205794)
(-0.753796 -7.6683e-05 -0.278816)
(-0.753664 8.268e-05 -0.278625)
(-0.753741 -0.000176811 -0.278607)
(-0.753464 0.000108786 -0.278698)
(-0.753566 -0.00018619 -0.277408)
(-0.753507 -0.000647501 -0.280146)
(-0.633252 0.000363206 -1.70773)
(-0.633614 0.000563047 -1.70786)
(-0.633787 -0.000206375 -1.70797)
(-0.633152 0.00249108 -1.70777)
(-0.637179 -0.0029059 -1.70967)
(-0.629904 -0.00579656 -1.70578)
(1.24165 2.7932e-05 1.6727)
(1.24206 -0.000284415 1.67476)
(1.24145 9.50592e-05 1.67303)
(1.24287 -0.002528 1.67513)
(1.24907 0.00306597 1.70074)
(1.23492 0.00606573 1.64524)
(-2.23148 -0.000154048 -0.57494)
(-2.23136 -3.14359e-05 -0.575102)
(-2.23168 -0.00034321 -0.574693)
(-2.23129 -0.00022996 -0.575223)
(-2.23196 -4.98325e-05 -0.575854)
(-2.23141 -0.000285696 -0.573814)
(0.173533 0.00046044 -2.04279)
(0.172729 0.00109073 -2.04396)
(0.172688 -0.000685858 -2.04374)
(0.173499 0.00345001 -2.04353)
(0.171426 -0.00332469 -2.04857)
(0.171619 -0.00808845 -2.0402)
(3.79785 0.000365047 9.90739)
(3.79978 0.00105453 9.9114)
(3.79711 -0.000539924 9.90794)
(3.8016 0.0033859 9.91185)
(3.83197 -0.00340902 9.95694)
(3.76476 -0.0078932 9.85992)
(-3.12964 -0.000454128 -1.26424)
(-3.13 0.000231997 -1.26417)
(-3.13025 -0.000355735 -1.26406)
(-3.12859 -0.00087667 -1.26413)
(-3.13309 0.00113117 -1.26308)
(-3.12585 0.000933261 -1.26447)
(5.79396 -0.000247803 5.15969)
(5.79391 0.000244273 5.15971)
(5.79255 -0.00022261 5.15868)
(5.79552 -2.17108e-05 5.16)
(5.80175 0.000323951 5.17059)
(5.77995 -0.000323149 5.14337)
(10.2104 7.76531e-05 15.4822)
(10.2122 0.000917429 15.4843)
(10.2111 -0.000248525 15.4829)
(10.2124 0.0044255 15.4845)
(10.2364 -0.0049052 15.506)
(10.1844 -0.01036 15.462)
(-0.450309 -7.79153e-05 3.38368)