/*--------------------------------*- C++ -*----------------------------------*\
| =========                 |                                                 |
| \\      /  F ield         | OpenFOAM: The Open Source CFD Toolbox           |
|  \\    /   O peration     | Version:  v1612+                                |
|   \\  /    A nd           | Web:      www.OpenFOAM.com                      |
|    \\/     M anipulation  |                                                 |
\*---------------------------------------------------------------------------*/
FoamFile
{
    version     2.0;
    format      ascii;
    class       volScalarField;
    location    "5";
    object      alpha.water;
}
// * * * * * * * * * * * * * * * * * * * * * * * * * * * * * * * * * * * * * //

dimensions      [0 0 0 0 0 0 0];

internalField   nonuniform List<scalar> 
1116
(
0.367064
0.36706
0.367059
0.36706
0.36706
0.367065
0.375536
0.375531
0.37553
0.375531
0.375532
0.375536
0.415595
0.415592
0.415591
0.415592
0.415593
0.415597
0.508816
0.508814
0.508815
0.508815
0.508816
0.50882
0.734066
0.734062
0.734064
0.734064
0.734064
0.73407
0.970874
0.970872
0.970872
0.970873
0.970872
0.970875
0.974675
0.974675
0.974675
0.974675
0.974675
0.974675
0.974665
0.974666
0.974666
0.974665
0.974665
0.974665
0.974653
0.974653
0.974653
0.974653
0.974653
0.974653
0.974562
0.974562
0.974562
0.974562
0.974562
0.974562
0.974011
0.974013
0.974012
0.974012
0.974012
0.974011
0.972925
0.972927
0.972926
0.972926
0.972927
0.972925
6.82346e-08
6.82333e-08
6.8232e-08
6.82304e-08
6.82289e-08
6.82289e-08
6.82346e-08
6.82381e-08
6.82334e-08
6.82319e-08
6.8231e-08
6.82288e-08
0.00474328
0.00474223
0.00474252
0.00474295
0.00474259
0.00474219
0.0412389
0.0412429
0.0412409
0.0412405
0.0412408
0.0412375
0.236585
0.236647
0.236614
0.236603
0.236622
0.236592
0.756576
0.756649
0.756608
0.756599
0.756621
0.756589
0.974673
0.974673
0.974673
0.974673
0.974673
0.974673
0.974656
0.974656
0.974656
0.974656
0.974656
0.974656
0.953439
0.953509
0.953481
0.953475
0.953497
0.953458
0.875757
0.875878
0.875831
0.87581
0.875838
0.875798
0.837873
0.837912
0.837893
0.837874
0.837871
0.837893
0.861226
0.861098
0.861157
0.86114
0.861077
0.861235
5.52621e-08
5.52406e-08
5.52425e-08
5.52447e-08
5.52367e-08
5.52624e-08
9.67404e-08
9.68057e-08
9.67835e-08
9.67782e-08
9.6785e-08
9.67533e-08
6.24391e-06
6.25214e-06
6.24785e-06
6.2476e-06
6.24932e-06
6.24419e-06
0.00017449
0.000174671
0.000174572
0.000174562
0.000174605
0.000174486
0.0171337
0.0171512
0.0171417
0.017138
0.0171423
0.0171315
0.316151
0.316312
0.316231
0.316221
0.316275
0.316163
0.57993
0.580226
0.580087
0.580079
0.580185
0.57999
0.588796
0.589096
0.588957
0.588957
0.589067
0.588864
0.354529
0.354712
0.354633
0.354634
0.35469
0.354572
0.158852
0.158869
0.158861
0.15886
0.158858
0.158862
0.135079
0.135018
0.135034
0.135036
0.135024
0.135046
0.141176
0.141071
0.14112
0.141106
0.141036
0.141194
1.51395e-08
1.51112e-08
1.51193e-08
1.51149e-08
1.50989e-08
1.51455e-08
4.6326e-08
4.62612e-08
4.62768e-08
4.62971e-08
4.6262e-08
4.6325e-08
1.64168e-06
1.63957e-06
1.64005e-06
1.64134e-06
1.64031e-06
1.64118e-06
0.0005478
0.000543408
0.000545384
0.000545834
0.000543982
0.000546525
0.0213496
0.0213313
0.0213346
0.0213493
0.021344
0.0213445
0.0290421
0.0290745
0.0290507
0.0290704
0.0290881
0.0290513
0.0139779
0.0139992
0.0139816
0.0139971
0.0140118
0.013984
2.77531e-06
2.77548e-06
2.7757e-06
2.77552e-06
2.77582e-06
2.77588e-06
1.43916e-06
1.44037e-06
1.44022e-06
1.43946e-06
1.43924e-06
1.44093e-06
3.80079e-07
3.79966e-07
3.79981e-07
3.80133e-07
3.801e-07
3.79757e-07
1.655e-07
1.65479e-07
1.65442e-07
1.65565e-07
1.65556e-07
1.65295e-07
3.86038e-07
3.85982e-07
3.85978e-07
3.86106e-07
3.8608e-07
3.85749e-07
1.19936e-05
1.43256e-05
1.08774e-05
1.48147e-05
1.0942e-05
6.833e-06
2.19465e-05
2.68709e-05
1.93851e-05
2.66422e-05
3.82849e-05
1.2455e-05
0.000675551
0.00109056
0.000275814
0.00110977
0.00514314
0.000217887
0.0310165
0.0328553
0.0264611
0.0325112
0.0460596
0.0190941
0.0530515
0.0534273
0.0544822
0.055087
0.0552738
0.0507641
0.0534881
0.0528936
0.0541576
0.0550927
0.0552736
0.0587134
0.0549129
0.0555893
0.0567531
0.0570308
0.0574888
0.0609866
0.0666453
0.0671022
0.067471
0.0677424
0.0682028
0.0679417
0.0671022
0.0674709
0.0677424
0.0682028
0.0686014
0.0682715
0.0596044
0.0604007
0.0574822
0.0651886
0.0686014
0.0567419
0.0315398
0.0324475
0.0338764
0.0298366
0.0388498
0.042027
0.0013738
0.00135183
0.00203465
0.00123763
0.00120312
0.0031565
1.36848e-06
1.73724e-06
1.22096e-06
1.87317e-06
3.54509e-06
7.06782e-07
0.000304826
0.000348771
0.000274781
0.000365683
0.000622714
0.000197342
0.00176645
0.00184048
0.0016968
0.00184055
0.00204995
0.00142995
0.00120535
0.0011057
0.00123669
0.00113863
0.000760804
0.00141523
2.09847e-07
2.06279e-07
2.04175e-07
1.98189e-07
1.92034e-07
2.04216e-07
1.75129e-07
1.7215e-07
1.68688e-07
1.6567e-07
1.65671e-07
1.67208e-07
3.06454e-07
3.11675e-07
3.19817e-07
2.66382e-07
1.27491e-07
3.10819e-07
0.00837195
0.00803068
0.00777636
0.00628332
0.0042036
0.00679628
0.0572103
0.0584884
0.0600136
0.0524147
0.0423821
0.0638276
0.0755195
0.0772172
0.0787163
0.0772172
0.0668403
0.0867066
0.0688384
0.0712011
0.0790527
0.0558627
0.00924444
0.0874529
0.00135183
0.00130399
0.00123763
0.00115977
0.00110043
0.00115977
3.20783e-07
4.19825e-07
2.74132e-07
5.15948e-07
2.20045e-06
2.24254e-07
0.000131818
0.000150866
0.000120623
0.000159471
0.000225945
8.0148e-05
0.000499984
0.000489396
0.00050024
0.00049723
0.000393722
0.000519917
5.69743e-05
5.29758e-05
6.46839e-05
4.35285e-05
1.36012e-05
8.28113e-05
1.75146e-07
1.72164e-07
1.68792e-07
1.6569e-07
1.6569e-07
1.67222e-07
1.53703e-07
1.50268e-07
1.46292e-07
1.45772e-07
1.53611e-07
1.43481e-07
9.89914e-10
1.00097e-09
1.02367e-09
6.68352e-10
6.73524e-10
1.37716e-09
-3.06946e-08
-2.74654e-08
-2.50218e-08
-2.74092e-08
-1.84154e-08
-1.96253e-08
2.64798e-06
3.00072e-06
3.06574e-06
4.47186e-06
4.83983e-06
4.69727e-06
0.0420184
0.0433277
0.0477754
0.0324984
0.00501299
0.0495119
0.102696
0.105296
0.107335
0.105296
0.0986719
0.0984274
0.0760585
0.0829949
0.108005
0.0449841
0.00110043
0.0990121
1.34759e-08
1.83833e-08
1.10729e-08
2.10131e-08
6.79907e-08
5.94384e-09
4.54535e-06
3.72199e-06
5.25484e-06
4.53996e-06
2.99915e-07
5.42724e-06
1.5061e-06
1.47721e-06
1.51594e-06
1.48819e-06
1.31012e-06
1.53984e-06
9.10497e-07
9.9001e-07
7.72793e-07
1.09849e-06
1.73961e-06
4.82318e-07
2.48803e-06
2.4107e-06
2.54236e-06
2.31002e-06
1.95837e-06
2.77832e-06
2.5265e-07
2.48654e-07
2.56189e-07
2.64461e-07
2.60743e-07
3.25122e-07
-5.66831e-11
-4.30151e-11
-3.32657e-11
-4.52198e-11
-4.36399e-11
-2.19378e-11
2.66473e-11
2.67306e-11
2.76891e-11
3.30525e-11
4.2067e-11
3.00043e-11
-2.36424e-12
-4.77894e-11
-1.33474e-10
-3.13388e-10
-8.9338e-10
-6.35267e-11
2.67852e-06
3.02757e-06
3.08721e-06
4.48049e-06
1.53823e-05
4.71317e-06
0.0797048
0.0813408
0.0851998
0.0812339
0.0666518
0.0934684
0.166722
0.16695
0.1671
0.1671
0.16663
0.166338
1.27121e-08
1.26875e-08
1.26948e-08
1.26903e-08
1.26755e-08
1.27172e-08
6.7378e-10
6.69888e-10
6.71224e-10
6.70641e-10
6.6817e-10
6.74368e-10
1.38968e-10
1.38937e-10
1.38871e-10
1.38831e-10
1.38831e-10
1.38831e-10
2.62982e-08
2.58752e-08
2.60486e-08
2.5898e-08
2.57196e-08
2.62712e-08
2.16027e-10
2.15336e-10
2.15512e-10
2.15363e-10
2.15044e-10
2.15944e-10
1.39051e-10
1.38968e-10
1.38937e-10
1.38871e-10
1.38831e-10
1.38933e-10
1.09152e-07
1.06552e-07
1.07609e-07
1.0811e-07
1.07194e-07
1.08443e-07
4.71132e-09
4.67049e-09
4.68555e-09
4.68547e-09
4.66906e-09
4.70473e-09
2.16191e-10
2.15499e-10
2.15676e-10
2.15526e-10
2.15207e-10
2.16108e-10
0.000115698
0.000114872
0.000115132
0.000115502
0.0001152
0.000115593
1.29534e-06
1.28248e-06
1.28373e-06
1.29719e-06
1.29371e-06
1.29755e-06
4.69235e-09
4.68331e-09
4.68494e-09
4.69037e-09
4.68627e-09
4.69157e-09
0.00188803
0.00188622
0.00188673
0.00188801
0.00188729
0.00188787
1.62312e-06
1.6243e-06
1.62335e-06
1.62425e-06
1.6245e-06
1.62425e-06
3.98733e-07
3.96431e-07
3.96996e-07
3.9843e-07
3.97566e-07
3.98547e-07
2.52442e-06
2.52442e-06
2.52442e-06
2.52444e-06
2.52445e-06
2.5245e-06
6.95187e-06
6.9695e-06
6.95966e-06
6.96759e-06
6.9728e-06
6.95056e-06
3.19665e-06
3.19684e-06
3.19655e-06
3.19722e-06
3.19802e-06
3.19789e-06
2.52442e-06
2.52442e-06
2.52444e-06
2.52445e-06
2.5245e-06
2.52465e-06
1.10563e-05
1.10563e-05
1.10564e-05
1.10564e-05
1.10563e-05
1.10559e-05
5.41946e-06
5.42041e-06
5.4191e-06
5.42197e-06
5.42281e-06
5.41951e-06
2.08115e-06
2.08063e-06
2.08067e-06
2.08162e-06
2.08217e-06
2.08081e-06
3.22349e-06
3.23303e-06
3.22865e-06
3.22635e-06
3.22655e-06
3.2167e-06
1.98471e-06
1.99848e-06
1.99155e-06
1.99186e-06
1.99538e-06
1.98376e-06
2.20051e-07
2.21286e-07
2.21127e-07
2.20693e-07
2.1903e-07
2.19255e-07
5.65954e-08
5.65958e-08
5.66397e-08
5.66433e-08
5.66433e-08
5.66034e-08
1.36899e-07
1.3901e-07
1.38097e-07
1.37917e-07
1.38217e-07
1.36817e-07
1.87708e-07
1.87391e-07
1.87377e-07
1.86063e-07
1.84067e-07
1.93623e-07
2.7543e-07
2.76144e-07
2.75755e-07
2.73104e-07
2.66999e-07
2.83922e-07
5.90026e-18
5.91976e-18
5.91135e-18
5.95187e-18
5.9578e-18
5.85045e-18
-1.51791e-06
-1.51892e-06
-1.51854e-06
-1.51573e-06
-1.51541e-06
-1.52205e-06
7.63203e-05
7.63705e-05
7.63648e-05
7.61781e-05
7.58816e-05
7.67227e-05
2.4865e-07
2.47667e-07
2.4765e-07
2.50437e-07
2.55112e-07
2.42252e-07
0.0489359
0.0489407
0.0489545
0.0489228
0.0489035
0.0489879
2.50722e-20
2.51399e-20
2.50722e-20
2.50722e-20
2.51399e-20
2.52077e-20
7.33303e-07
7.29377e-07
7.31129e-07
7.29585e-07
7.26824e-07
7.37332e-07
0.244415
0.244423
0.244441
0.244446
0.24445
0.244468
5.41803e-25
1.32984e-21
2.0159e-21
2.30742e-18
7.13306e-15
2.84525e-20
-2.4133e-25
3.0366e-33
1.52133e-29
6.52235e-26
1.41749e-14
-2.01772e-25
0.244699
0.244714
0.244723
0.244723
0.244723
0.244723
1.56833e-23
2.26303e-06
1.49936e-06
1.51994e-25
3.71178e-08
0.000136788
-1.25927e-24
-5.41906e-25
-2.47862e-24
-9.3466e-25
-6.63598e-25
-9.52966e-25
0.23907
0.239032
0.239093
0.238852
0.23869
0.239359
-3.89504e-14
-3.14966e-14
-5.85621e-14
-5.67796e-15
-3.69461e-13
-6.41966e-15
-1.41382e-24
-1.33623e-24
-1.41493e-24
-1.23223e-24
-2.37629e-24
-8.10754e-25
0.196583
0.196497
0.196584
0.196276
0.196058
0.196925
-8.33543e-18
-1.29634e-17
-5.68091e-16
-2.03829e-15
-4.96752e-24
-3.83393e-24
-2.37637e-24
-2.91113e-24
-3.18765e-24
-3.11187e-24
-3.04044e-24
-2.34488e-24
0.193965
0.193916
0.194017
0.193663
0.193412
0.194383
-1.34091e-16
-1.98612e-16
-8.85761e-15
-3.34498e-14
-3.72783e-24
-2.97052e-24
-8.42394e-25
-1.12149e-24
-1.14552e-24
-1.864e-24
-2.41909e-24
-1.92413e-24
0.165605
0.165588
0.165667
0.165425
0.165278
0.165902
-3.5612e-17
-4.97954e-17
-2.162e-15
-8.20811e-15
-1.1474e-18
-3.61286e-18
-2.6166e-25
-3.68558e-25
-3.57214e-25
-7.61369e-25
-1.07966e-24
-8.60166e-25
5.90355e-10
7.34362e-10
5.31697e-10
7.59396e-10
1.53474e-09
2.85048e-10
1.46575e-10
1.48431e-10
1.38047e-10
1.40797e-10
1.41042e-10
7.68333e-11
1.42527e-10
1.38192e-10
1.38192e-10
1.07513e-10
7.68335e-11
7.68335e-11
7.97654e-09
1.02777e-08
7.11682e-09
1.08569e-08
2.32538e-08
3.79862e-09
5.8186e-10
7.25715e-10
5.22253e-10
7.51054e-10
1.52596e-09
2.81459e-10
1.46862e-10
1.4874e-10
1.38192e-10
1.4113e-10
1.4191e-10
7.68335e-11
8.12326e-08
7.97931e-08
8.18082e-08
8.05708e-08
7.1395e-08
8.27144e-08
3.7329e-09
3.67373e-09
3.75677e-09
3.71543e-09
3.33142e-09
3.78849e-09
2.77144e-10
2.7501e-10
2.77687e-10
2.7857e-10
2.77334e-10
2.83812e-10
1.30485e-07
1.39742e-07
1.19903e-07
1.52365e-07
1.8692e-07
8.41285e-08
2.03189e-09
2.07577e-09
1.98177e-09
2.18697e-09
1.99396e-09
1.65059e-09
8.1242e-12
8.12647e-12
8.00456e-12
8.27966e-12
8.26096e-12
7.892e-12
1.48804e-07
1.4478e-07
1.60249e-07
1.46497e-07
1.42284e-07
1.58197e-07
8.16105e-12
8.16208e-12
8.04006e-12
8.3151e-12
8.28939e-12
7.93168e-12
4.24976e-12
4.2628e-12
4.16643e-12
4.31308e-12
4.34561e-12
4.15876e-12
6.29885e-08
6.18075e-08
6.37375e-08
5.89681e-08
5.34764e-08
5.92594e-08
4.24975e-12
4.26279e-12
4.16643e-12
4.31308e-12
4.34562e-12
4.15875e-12
4.17e-12
4.18313e-12
4.08755e-12
4.23207e-12
4.29922e-12
4.08215e-12
1.35656e-09
1.32903e-09
1.32287e-09
1.73789e-09
2.37598e-09
1.73986e-09
4.22075e-12
4.19875e-12
4.15034e-12
4.21282e-12
4.21622e-12
4.13799e-12
4.21776e-12
4.23847e-12
4.14748e-12
4.26585e-12
4.28417e-12
4.13429e-12
8.95623e-18
2.26127e-15
7.11799e-18
6.18247e-15
6.38176e-14
8.87821e-18
6.45996e-12
6.47544e-12
6.4894e-12
6.52109e-12
6.52109e-12
6.48402e-12
1.51265e-12
1.53528e-12
1.49151e-12
1.56288e-12
1.59896e-12
1.50664e-12
-7.10554e-11
-2.42673e-11
-3.1806e-11
-3.46492e-11
-5.46728e-15
-3.01081e-11
2.5655e-12
2.53373e-12
2.51446e-12
2.55566e-12
2.40977e-12
2.30203e-12
1.57452e-21
1.56582e-21
1.49189e-21
3.2798e-17
1.0948e-21
1.13423e-21
-4.03285e-08
-4.55825e-08
-4.67482e-08
-7.72707e-08
-9.10909e-08
-8.67743e-08
1.64425e-11
-1.15523e-12
-3.03225e-12
1.26287e-10
5.61812e-10
2.4195e-11
3.34436e-08
3.29137e-08
3.08062e-08
3.35473e-08
3.3489e-08
3.35221e-08
-5.66932e-09
-3.76453e-08
-8.32035e-08
-1.13633e-07
-1.85907e-07
-1.67827e-09
1.18633e-10
1.0928e-10
1.18274e-10
3.43331e-10
5.56568e-10
7.92448e-10
3.99582e-12
2.17589e-09
7.96659e-09
1.12503e-09
3.15136e-08
2.04537e-08
0.128786
0.128426
0.128046
0.13581
0.141618
0.131535
2.65012e-11
9.41165e-11
1.81805e-10
8.4229e-12
7.12232e-10
7.02956e-10
2.03426e-07
1.56828e-07
1.27511e-07
5.25656e-07
1.19177e-06
1.03795e-07
)
;

boundaryField
{
    seabed_topleft_surface
    {
        type            zeroGradient;
    }
    seabed_topright_surface
    {
        type            zeroGradient;
    }
    breakwater_top_surface
    {
        type            zeroGradient;
    }
    breakwater_left_surface
    {
        type            zeroGradient;
    }
    breakwater_right_surface
    {
        type            zeroGradient;
    }
    water_front_surface
    {
        type            zeroGradient;
    }
    water_back_surface
    {
        type            zeroGradient;
    }
    water_left_surface
    {
        type            zeroGradient;
    }
    water_right_surface
    {
        type            zeroGradient;
    }
    water_top_surface
    {
        type            inletOutlet;
        inletValue      uniform 0;
        value           nonuniform List<scalar> 
180
(
1.38968e-10
1.38937e-10
1.38871e-10
1.38831e-10
1.38831e-10
1.38831e-10
1.39051e-10
1.38968e-10
1.38937e-10
1.38871e-10
1.38831e-10
1.38933e-10
2.16191e-10
2.15499e-10
2.15676e-10
2.15526e-10
2.15207e-10
2.16108e-10
4.69235e-09
4.68331e-09
4.68494e-09
4.69037e-09
4.68627e-09
4.69157e-09
3.98733e-07
3.96431e-07
3.96996e-07
3.9843e-07
3.97566e-07
3.98547e-07
3.19665e-06
3.19684e-06
3.19655e-06
3.19722e-06
3.19802e-06
3.19789e-06
5.41946e-06
5.42041e-06
5.4191e-06
5.42197e-06
5.42281e-06
5.41951e-06
0
0
0
0
0
0
0
0
0
0
0
0
0
0
0
0
0
0
0
0
0
0
0
0
0
0
0
0
0
0
0
0
0
0
0
0
0
0
0
0
0
0
0
0
0
0
0
0
0
0
0
0
0
0
0
0
0
0
0
0
0
0
0
0
0
0
1.42527e-10
1.38192e-10
1.38192e-10
1.07513e-10
7.68335e-11
7.68335e-11
1.46862e-10
1.4874e-10
1.38192e-10
1.4113e-10
1.4191e-10
7.68335e-11
2.77144e-10
2.7501e-10
2.77687e-10
2.7857e-10
2.77334e-10
2.83812e-10
8.1242e-12
8.12647e-12
8.00456e-12
8.27966e-12
8.26096e-12
7.892e-12
4.24976e-12
4.2628e-12
4.16643e-12
4.31308e-12
4.34561e-12
4.15876e-12
0
0
0
0
0
0
0
0
0
0
0
0
0
0
0
0
0
0
0
0
0
0
0
0
0
0
0
0
0
0
0
0
0
0
0
0
0
0
0
0
0
0
)
;
    }
}


// ************************************************************************* //
