/*--------------------------------*- C++ -*----------------------------------*\
| =========                 |                                                 |
| \\      /  F ield         | OpenFOAM: The Open Source CFD Toolbox           |
|  \\    /   O peration     | Version:  v1612+                                |
|   \\  /    A nd           | Web:      www.OpenFOAM.com                      |
|    \\/     M anipulation  |                                                 |
\*---------------------------------------------------------------------------*/
FoamFile
{
    version     2.0;
    format      ascii;
    class       volScalarField;
    location    "2.6";
    object      p;
}
// * * * * * * * * * * * * * * * * * * * * * * * * * * * * * * * * * * * * * //

dimensions      [1 -1 -2 0 0 0 0];

internalField   nonuniform List<scalar> 
1116
(
14081.4
14081.4
14081.4
14081.4
14081.4
14081.4
13526.7
13526.7
13526.7
13526.7
13526.7
13526.7
12454.2
12454.3
12454.2
12454.2
12454.2
12454.2
11583.5
11583.5
11583.5
11583.5
11583.5
11583.5
11212.3
11212.3
11212.3
11212.3
11212.3
11212.3
11002.9
11002.9
11002.9
11002.9
11002.9
11002.9
10873.5
10873.5
10873.5
10873.5
10873.5
10873.5
11182.2
11182.2
11182.2
11182.2
11182.1
11182.2
12315.8
12315.8
12315.8
12315.8
12315.8
12315.8
15248.7
15248.7
15248.7
15248.7
15248.7
15248.8
19862.9
19862.8
19862.9
19862.9
19863
19863
24632.9
24632.9
24633
24633
24633.1
24633
4267.07
4267.04
4267.04
4267.07
4267.06
4267.02
2412.6
2412.58
2412.57
2412.58
2412.57
2412.57
2306.16
2306.16
2306.16
2306.15
2306.15
2306.15
2534.62
2534.62
2534.62
2534.61
2534.6
2534.61
2766.16
2766.18
2766.18
2766.17
2766.16
2766.15
2754.34
2754.35
2754.35
2754.34
2754.33
2754.32
2598.92
2598.92
2598.93
2598.91
2598.91
2598.89
2197.45
2197.45
2197.45
2197.45
2197.44
2197.44
1491.31
1491.29
1491.3
1491.3
1491.3
1491.34
2803.14
2803.06
2803.1
2803.11
2803.1
2803.19
9348.71
9348.67
9348.73
9348.75
9348.78
9348.81
19050.5
19050.7
19050.7
19050.7
19050.8
19050.7
53.7627
53.7584
53.7543
53.7594
53.7614
53.7538
-42.3999
-42.3996
-42.3996
-42.3999
-42.3995
-42.3983
-59.0962
-59.0957
-59.0955
-59.0952
-59.0949
-59.095
-61.7327
-61.7313
-61.7315
-61.7315
-61.7315
-61.7321
-61.9644
-61.963
-61.9625
-61.9622
-61.962
-61.9626
-52.044
-52.0428
-52.0427
-52.0428
-52.0426
-52.0439
-26.7148
-26.714
-26.7147
-26.7152
-26.715
-26.7157
69.5444
69.5425
69.5421
69.5427
69.5433
69.5465
198.128
198.125
198.126
198.127
198.125
198.127
494.248
494.251
494.259
494.263
494.264
494.271
1303.73
1303.71
1303.74
1303.76
1303.79
1303.85
9259.35
9259.4
9259.42
9259.51
9259.46
9259.7
-35.7882
-35.7882
-35.7881
-35.7878
-35.7873
-35.787
-36.9357
-36.9353
-36.9349
-36.9346
-36.9345
-36.9347
-39.8756
-39.8753
-39.8751
-39.875
-39.875
-39.8751
-42.3218
-42.3211
-42.321
-42.3212
-42.3214
-42.3217
-45.6
-45.5996
-45.5998
-45.6002
-45.6006
-45.6011
-46.5346
-46.5344
-46.5348
-46.5354
-46.5358
-46.537
-42.2156
-42.2154
-42.2156
-42.2159
-42.2162
-42.2173
-50.4726
-50.4736
-50.4743
-50.4747
-50.4756
-50.4754
-42.0841
-42.084
-42.0842
-42.0842
-42.0869
-42.0853
-12.6354
-12.6324
-12.6322
-12.632
-12.6317
-12.632
112.271
112.252
112.255
112.257
112.255
112.279
1111.08
1110.77
1110.92
1110.91
1110.5
1111.4
-5.05657
-5.05657
-5.05657
-5.05656
-5.05656
-5.05655
-5.06223
-5.06223
-5.06222
-5.06222
-5.06221
-5.06221
-5.07356
-5.07356
-5.07355
-5.07354
-5.07352
-5.07351
-5.0906
-5.09059
-5.09056
-5.09053
-5.0905
-5.09047
-5.11362
-5.11358
-5.11353
-5.11347
-5.11341
-5.11336
-5.14346
-5.14338
-5.1433
-5.14321
-5.14314
-5.1431
-5.18137
-5.18126
-5.18119
-5.18114
-5.18112
-5.18112
-5.22737
-5.22732
-5.22738
-5.22748
-5.22761
-5.22773
-5.27469
-5.27499
-5.27534
-5.2756
-5.27574
-5.27581
-5.32076
-5.32105
-5.32133
-5.32134
-5.32067
-5.31981
-5.38529
-5.38565
-5.386
-5.38627
-5.3864
-5.38649
-5.44891
-5.44891
-5.44889
-5.44886
-5.44882
-5.44876
-14.8607
-14.8607
-14.8607
-14.8607
-14.8607
-14.8607
-14.867
-14.867
-14.8669
-14.8669
-14.8669
-14.8669
-14.8796
-14.8796
-14.8796
-14.8796
-14.8796
-14.8796
-14.8991
-14.899
-14.899
-14.899
-14.899
-14.8989
-14.926
-14.9259
-14.9259
-14.9259
-14.9258
-14.9258
-14.9616
-14.9616
-14.9616
-14.9615
-14.9615
-14.9616
-15.0089
-15.0089
-15.009
-15.0091
-15.0092
-15.0093
-15.0756
-15.0757
-15.076
-15.0763
-15.0766
-15.0768
-15.1982
-15.1982
-15.1984
-15.1988
-15.1994
-15.1999
-15.3463
-15.3464
-15.3465
-15.3469
-15.3478
-15.3487
-15.4121
-15.4119
-15.4116
-15.4111
-15.4106
-15.4102
-15.3547
-15.3542
-15.3537
-15.3532
-15.3529
-15.3527
-24.6589
-24.6589
-24.6589
-24.6589
-24.6589
-24.6589
-24.6655
-24.6655
-24.6655
-24.6654
-24.6654
-24.6654
-24.679
-24.679
-24.679
-24.679
-24.679
-24.679
-24.7003
-24.7003
-24.7003
-24.7002
-24.7002
-24.7002
-24.7305
-24.7305
-24.7305
-24.7305
-24.7305
-24.7305
-24.7706
-24.7706
-24.7706
-24.7707
-24.7707
-24.7708
-24.8171
-24.8172
-24.8174
-24.8176
-24.8177
-24.8179
-24.8461
-24.8464
-24.8467
-24.8469
-24.8471
-24.8472
-24.7927
-24.793
-24.7932
-24.7932
-24.7931
-24.7929
-24.7297
-24.7297
-24.7295
-24.729
-24.7285
-24.728
-24.6938
-24.6934
-24.6925
-24.6917
-24.691
-24.6904
-24.4346
-24.4343
-24.4342
-24.4342
-24.4343
-24.4347
-34.451
-34.451
-34.451
-34.451
-34.451
-34.451
-34.4574
-34.4574
-34.4574
-34.4574
-34.4574
-34.4574
-34.471
-34.4709
-34.4709
-34.4709
-34.4709
-34.471
-34.4928
-34.4928
-34.4928
-34.4928
-34.4929
-34.4929
-34.5252
-34.5252
-34.5252
-34.5253
-34.5253
-34.5253
-34.572
-34.572
-34.5721
-34.5722
-34.5723
-34.5724
-34.6458
-34.6459
-34.6461
-34.6462
-34.6463
-34.6464
-34.7984
-34.7985
-34.7986
-34.7986
-34.7986
-34.7986
-35.0818
-35.0818
-35.0816
-35.0814
-35.0811
-35.0808
-35.4334
-35.4332
-35.4327
-35.4321
-35.4315
-35.431
-35.8147
-35.8144
-35.8141
-35.8138
-35.8138
-35.8137
-36.2522
-36.2525
-36.2534
-36.2542
-36.2559
-36.2557
-48.1388
-48.1384
-48.1381
-48.138
-48.1378
-48.1377
-60.3335
-60.3332
-60.333
-60.3329
-60.3328
-60.3328
-71.3875
-71.3877
-71.3878
-71.3879
-71.3879
-71.3878
-50.1634
-50.163
-50.1625
-50.1622
-50.162
-50.162
-61.3655
-61.3653
-61.3652
-61.365
-61.3649
-61.3649
-72.3774
-72.3776
-72.3777
-72.3777
-72.3778
-72.3776
-56.4116
-56.4113
-56.4111
-56.4109
-56.4109
-56.4109
-63.5955
-63.5954
-63.5954
-63.5954
-63.5955
-63.5956
-72.5569
-72.557
-72.557
-72.557
-72.557
-72.5569
-57.6252
-57.625
-57.6251
-57.6252
-57.6253
-57.6255
-64.5217
-64.5219
-64.522
-64.5221
-64.5222
-64.5222
-74.4763
-74.4764
-74.4764
-74.4764
-74.4764
-74.4762
-57.9037
-57.9039
-57.9042
-57.9044
-57.9046
-57.9047
-63.6361
-63.6363
-63.6365
-63.6365
-63.6366
-63.6365
-74.0016
-74.0016
-74.0016
-74.0015
-74.0015
-74.0014
-57.2491
-57.2492
-57.2492
-57.2492
-57.2494
-57.2494
-64.4529
-64.4531
-64.4531
-64.4531
-64.4531
-64.453
-74.4737
-74.4737
-74.4737
-74.4736
-74.4736
-74.4735
-52.7989
-52.7986
-52.7985
-52.7987
-52.7993
-52.7999
-63.9111
-63.9108
-63.9105
-63.9105
-63.9104
-63.9114
-73.4573
-73.4574
-73.4574
-73.4572
-73.457
-73.4568
-48.7779
-48.7776
-48.7777
-48.7775
-48.7787
-48.777
-64.2576
-64.2575
-64.2576
-64.258
-64.2585
-64.2577
-74.3542
-74.3545
-74.3543
-74.3539
-74.3535
-74.3528
-55.916
-55.9135
-55.9149
-55.9143
-55.9152
-55.9141
-79.9297
-79.9289
-79.9286
-79.9288
-79.9296
-79.9284
-80.262
-80.2628
-80.2615
-80.2604
-80.2595
-80.2577
-92.1477
-92.1506
-92.1496
-92.1487
-92.1521
-92.1466
-83.2539
-83.256
-83.2531
-83.2494
-83.2513
-83.2388
-77.9969
-77.9972
-77.9939
-77.9919
-77.9917
-77.9851
-138.275
-138.31
-138.296
-138.283
-138.294
-138.269
-89.3836
-89.3964
-89.3877
-89.388
-89.3899
-89.3695
-88.2451
-88.2462
-88.2397
-88.241
-88.2348
-88.242
-399.13
-399.491
-399.265
-399.106
-399.366
-398.775
-163.902
-164.11
-163.965
-164.018
-164.344
-163.411
-130.499
-130.514
-130.5
-130.499
-130.476
-130.517
-47.2956
-47.2963
-47.2962
-47.2928
-47.3051
-47.2848
-60.7808
-60.7837
-60.7855
-60.786
-60.8164
-60.7653
-70.7161
-70.7102
-70.7106
-70.6921
-70.6978
-70.6921
-44.2041
-44.2048
-44.2058
-44.2096
-44.2048
-44.2088
-61.2304
-61.2337
-61.2359
-61.2365
-61.2548
-61.2439
-72.4577
-72.4643
-72.472
-72.478
-72.5148
-72.456
-41.3032
-41.3079
-41.3073
-41.3051
-41.3473
-41.2569
-64.9642
-64.9637
-64.972
-64.9728
-64.9398
-65.044
-169.688
-169.737
-169.762
-169.814
-170.064
-169.594
-44.5065
-44.5091
-44.4692
-44.4092
-44.4328
-44.6566
-150.043
-150.079
-150.14
-150.344
-150.214
-150.644
-809.06
-809.326
-809.45
-809.846
-810.626
-808.984
-251.544
-251.739
-252.056
-251.613
-250.444
-255.046
201.132
200.441
200.786
201.252
202.038
200.893
-381.415
-381.405
-381.342
-381.357
-381.648
-380.796
-4816.33
-4816.84
-4816.8
-4816.81
-4823.76
-4809.98
86.4479
85.6423
85.7374
84.7768
85.3151
84.7903
-220.293
-220.34
-220.28
-220.252
-220.288
-220.034
-44.2216
-44.2216
-44.2216
-44.2216
-44.2216
-44.2216
-54.0033
-54.0033
-54.0033
-54.0033
-54.0033
-54.0033
-63.782
-63.782
-63.782
-63.782
-63.782
-63.782
-44.227
-44.227
-44.227
-44.227
-44.227
-44.227
-54.0069
-54.0069
-54.0069
-54.0069
-54.0069
-54.0069
-63.7831
-63.7831
-63.7831
-63.7831
-63.7831
-63.7831
-44.2385
-44.2385
-44.2385
-44.2385
-44.2385
-44.2386
-54.0146
-54.0146
-54.0146
-54.0146
-54.0146
-54.0146
-63.7851
-63.7851
-63.7851
-63.7851
-63.7851
-63.7851
-44.2575
-44.2575
-44.2575
-44.2575
-44.2575
-44.2575
-54.0283
-54.0283
-54.0283
-54.0283
-54.0283
-54.0284
-63.7876
-63.7876
-63.7876
-63.7876
-63.7876
-63.7876
-44.2855
-44.2855
-44.2855
-44.2855
-44.2856
-44.2856
-54.052
-54.052
-54.052
-54.052
-54.052
-54.052
-63.7885
-63.7885
-63.7885
-63.7885
-63.7886
-63.7886
-44.3206
-44.3207
-44.3207
-44.3208
-44.3208
-44.3208
-54.0963
-54.0963
-54.0963
-54.0963
-54.0963
-54.0963
-63.7844
-63.7844
-63.7844
-63.7844
-63.7844
-63.7844
-44.3483
-44.3483
-44.3483
-44.3483
-44.3483
-44.3483
-54.1865
-54.1865
-54.1865
-54.1865
-54.1865
-54.1865
-63.7661
-63.7661
-63.7661
-63.7661
-63.7661
-63.7661
-44.3358
-44.3358
-44.3358
-44.3357
-44.3356
-44.3355
-54.3609
-54.3609
-54.3609
-54.3609
-54.3609
-54.3608
-63.731
-63.731
-63.731
-63.731
-63.7309
-63.7309
-44.266
-44.2659
-44.2657
-44.2655
-44.2653
-44.2652
-54.6696
-54.6696
-54.6696
-54.6695
-54.6696
-54.6695
-63.7176
-63.7176
-63.7175
-63.7175
-63.7174
-63.7173
-44.2377
-44.2375
-44.2373
-44.2372
-44.2371
-44.2372
-55.1136
-55.1136
-55.1137
-55.1134
-55.1139
-55.1135
-63.9069
-63.9068
-63.9066
-63.9064
-63.9064
-63.9057
-44.8172
-44.8173
-44.8175
-44.8178
-44.8182
-44.8178
-55.6822
-55.682
-55.6829
-55.6819
-55.6837
-55.6822
-63.8288
-63.8286
-63.8283
-63.8279
-63.828
-63.8278
-42.8143
-42.8142
-42.8141
-42.8146
-42.815
-42.8155
-56.9324
-56.9323
-56.9353
-56.9324
-56.9411
-56.9307
-67.5734
-67.5736
-67.5747
-67.5729
-67.5818
-67.5657
)
;

boundaryField
{
    seabed_topleft_surface
    {
        type            calculated;
        value           nonuniform List<scalar> 
72
(
18816.4
18816.4
18816.4
18816.4
18816.4
18816.4
18269.8
18269.8
18269.8
18269.8
18269.8
18269.8
17210.5
17210.5
17210.5
17210.5
17210.5
17210.4
16349.6
16349.6
16349.6
16349.6
16349.6
16349.6
15984.8
15984.8
15984.7
15984.7
15984.7
15984.7
15780.8
15780.8
15780.8
15780.8
15780.8
15780.7
15656.9
15656.9
15656.9
15656.9
15656.9
15656.8
15971.8
15971.8
15971.7
15971.7
15971.7
15971.7
17105.5
17105.5
17105.5
17105.5
17105.5
17105.5
20038.4
20038.3
20038.4
20038.4
20038.4
20038.4
24652.5
24652.5
24652.6
24652.6
24652.6
24652.7
29347.9
29348
29348
29348.1
29348.2
29348.1
)
;
    }
    seabed_topright_surface
    {
        type            calculated;
        value           nonuniform List<scalar> 
72
(
-0.134713
-0.134713
-0.13471
-0.134706
-0.134702
-0.134699
-0.140375
-0.140373
-0.140368
-0.140362
-0.140355
-0.140349
-0.151705
-0.151703
-0.151693
-0.15168
-0.151665
-0.151653
-0.168744
-0.168733
-0.168709
-0.168678
-0.168645
-0.168619
-0.191761
-0.191727
-0.191673
-0.191611
-0.191552
-0.191508
-0.221605
-0.221528
-0.221441
-0.221357
-0.221287
-0.221241
-0.259512
-0.259405
-0.259331
-0.259284
-0.259267
-0.259269
-0.305514
-0.305469
-0.305524
-0.305624
-0.305757
-0.305869
-0.352837
-0.35313
-0.35348
-0.353744
-0.353881
-0.35395
-0.398906
-0.399191
-0.399471
-0.399484
-0.398819
-0.397955
-0.463439
-0.463793
-0.46414
-0.464411
-0.464549
-0.464633
-0.527054
-0.527057
-0.52703
-0.527004
-0.526962
-0.5269
)
;
    }
    breakwater_top_surface
    {
        type            calculated;
        value           nonuniform List<scalar> 
36
(
-42.3906
-42.3913
-42.3912
-42.3878
-42.4001
-42.3798
-39.2991
-39.2998
-39.3008
-39.3046
-39.2998
-39.3038
-36.3975
-36.4023
-36.4016
-36.3994
-36.4416
-36.3512
-32.1186
-32.1188
-32.07
-31.971
-31.9794
-32.244
790.286
789.895
789.116
791.169
796.22
781.628
-2723.46
-2724.07
-2723.93
-2724.13
-2731.08
-2715.53
)
;
    }
    breakwater_left_surface
    {
        type            calculated;
        value           nonuniform List<scalar> 
24
(
24649
24649.1
24649.1
24649.2
24649.2
24649.2
19066.2
19066.5
19066.5
19066.5
19066.6
19066.5
9272.52
9272.58
9272.59
9272.69
9272.64
9272.87
1123.23
1122.93
1123.07
1123.06
1122.66
1123.56
)
;
    }
    breakwater_right_surface
    {
        type            calculated;
        value           nonuniform List<scalar> 
24
(
-5.43205
-5.43206
-5.43203
-5.432
-5.43196
-5.4319
-15.3382
-15.3377
-15.3372
-15.3367
-15.3364
-15.3362
-24.4184
-24.4181
-24.418
-24.418
-24.4181
-24.4185
-36.2364
-36.2367
-36.2376
-36.2383
-36.24
-36.2398
)
;
    }
    water_front_surface
    {
        type            calculated;
        value           nonuniform List<scalar> 
186
(
14081.4
13526.7
12454.2
11583.5
11212.3
11002.9
10873.5
11182.2
12315.8
15248.7
19862.9
24632.9
4267.07
2412.6
2306.16
2534.62
2766.16
2754.34
2598.92
2197.45
1491.31
2803.14
9348.71
19050.5
53.7627
-42.3999
-59.0962
-61.7327
-61.9644
-52.044
-26.7148
69.5444
198.128
494.248
1303.73
9259.35
-35.7882
-36.9357
-39.8756
-42.3218
-45.6
-46.5346
-42.2156
-50.4726
-42.0841
-12.6354
112.271
1111.08
-5.05657
-5.06223
-5.07356
-5.0906
-5.11362
-5.14346
-5.18137
-5.22737
-5.27469
-5.32076
-5.38529
-5.44891
-14.8607
-14.867
-14.8796
-14.8991
-14.926
-14.9616
-15.0089
-15.0756
-15.1982
-15.3463
-15.4121
-15.3547
-24.6589
-24.6655
-24.679
-24.7003
-24.7305
-24.7706
-24.8171
-24.8461
-24.7927
-24.7297
-24.6938
-24.4346
-34.451
-34.4574
-34.471
-34.4928
-34.5252
-34.572
-34.6458
-34.7984
-35.0818
-35.4334
-35.8147
-36.2522
-48.1388
-60.3335
-71.3875
-50.1634
-61.3655
-72.3774
-56.4116
-63.5955
-72.5569
-57.6252
-64.5217
-74.4763
-57.9037
-63.6361
-74.0016
-57.2491
-64.4529
-74.4737
-52.7989
-63.9111
-73.4573
-48.7779
-64.2576
-74.3542
-55.916
-79.9297
-80.262
-92.1477
-83.2539
-77.9969
-138.275
-89.3836
-88.2451
-399.13
-163.902
-130.499
-47.2956
-60.7808
-70.7161
-44.2041
-61.2304
-72.4577
-41.3032
-64.9642
-169.688
-44.5065
-150.043
-809.06
-251.544
201.132
-381.415
-4816.33
86.4479
-220.293
-44.2216
-54.0033
-63.782
-44.227
-54.0069
-63.7831
-44.2385
-54.0146
-63.7851
-44.2575
-54.0283
-63.7876
-44.2855
-54.052
-63.7885
-44.3206
-54.0963
-63.7844
-44.3483
-54.1865
-63.7661
-44.3358
-54.3609
-63.731
-44.266
-54.6696
-63.7176
-44.2377
-55.1136
-63.9069
-44.8172
-55.6822
-63.8288
-42.8143
-56.9324
-67.5734
)
;
    }
    water_back_surface
    {
        type            calculated;
        value           nonuniform List<scalar> 
186
(
14081.4
13526.7
12454.2
11583.5
11212.3
11002.9
10873.5
11182.2
12315.8
15248.8
19863
24633
4267.02
2412.57
2306.15
2534.61
2766.15
2754.32
2598.89
2197.44
1491.34
2803.19
9348.81
19050.7
53.7538
-42.3983
-59.095
-61.7321
-61.9626
-52.0439
-26.7157
69.5465
198.127
494.271
1303.85
9259.7
-35.787
-36.9347
-39.8751
-42.3217
-45.6011
-46.537
-42.2173
-50.4754
-42.0853
-12.632
112.279
1111.4
-5.05655
-5.06221
-5.07351
-5.09047
-5.11336
-5.1431
-5.18112
-5.22773
-5.27581
-5.31981
-5.38649
-5.44876
-14.8607
-14.8669
-14.8796
-14.8989
-14.9258
-14.9616
-15.0093
-15.0768
-15.1999
-15.3487
-15.4102
-15.3527
-24.6589
-24.6654
-24.679
-24.7002
-24.7305
-24.7708
-24.8179
-24.8472
-24.7929
-24.728
-24.6904
-24.4347
-34.451
-34.4574
-34.471
-34.4929
-34.5253
-34.5724
-34.6464
-34.7986
-35.0808
-35.431
-35.8137
-36.2557
-48.1377
-60.3328
-71.3878
-50.162
-61.3649
-72.3776
-56.4109
-63.5956
-72.5569
-57.6255
-64.5222
-74.4762
-57.9047
-63.6365
-74.0014
-57.2494
-64.453
-74.4735
-52.7999
-63.9114
-73.4568
-48.777
-64.2577
-74.3528
-55.9141
-79.9284
-80.2577
-92.1466
-83.2388
-77.9851
-138.269
-89.3695
-88.242
-398.775
-163.411
-130.517
-47.2848
-60.7653
-70.6921
-44.2088
-61.2439
-72.456
-41.2569
-65.044
-169.594
-44.6566
-150.644
-808.984
-255.046
200.893
-380.796
-4809.98
84.7903
-220.034
-44.2216
-54.0033
-63.782
-44.227
-54.0069
-63.7831
-44.2386
-54.0146
-63.7851
-44.2575
-54.0284
-63.7876
-44.2856
-54.052
-63.7886
-44.3208
-54.0963
-63.7844
-44.3483
-54.1865
-63.7661
-44.3355
-54.3608
-63.7309
-44.2652
-54.6695
-63.7173
-44.2372
-55.1135
-63.9057
-44.8178
-55.6822
-63.8278
-42.8155
-56.9307
-67.5657
)
;
    }
    water_left_surface
    {
        type            calculated;
        value           nonuniform List<scalar> 
42
(
14097.6
14097.6
14097.6
14097.6
14097.6
14097.6
4279.56
4279.53
4279.53
4279.57
4279.56
4279.51
54.0156
54.0113
54.0072
54.0123
54.0143
54.0067
-35.7723
-35.7724
-35.7722
-35.7719
-35.7714
-35.7711
-48.1388
-48.1384
-48.1381
-48.138
-48.1378
-48.1377
-60.3335
-60.3332
-60.333
-60.3329
-60.3328
-60.3328
-71.3875
-71.3877
-71.3878
-71.3879
-71.3879
-71.3878
)
;
    }
    water_right_surface
    {
        type            calculated;
        value           nonuniform List<scalar> 
42
(
-5.03971
-5.03971
-5.03971
-5.03971
-5.0397
-5.0397
-14.8442
-14.8442
-14.8442
-14.8442
-14.8442
-14.8442
-24.6427
-24.6427
-24.6427
-24.6427
-24.6427
-24.6427
-34.4351
-34.4351
-34.4351
-34.4351
-34.4351
-34.4351
-44.2216
-44.2216
-44.2216
-44.2216
-44.2216
-44.2216
-54.0033
-54.0033
-54.0033
-54.0033
-54.0033
-54.0033
-63.782
-63.782
-63.782
-63.782
-63.782
-63.782
)
;
    }
    water_top_surface
    {
        type            calculated;
        value           nonuniform List<scalar> 
180
(
-76.829
-76.8298
-76.8299
-76.83
-76.8301
-76.8297
-77.7803
-77.7811
-77.7813
-77.7814
-77.7816
-77.781
-76.3624
-76.363
-76.363
-76.363
-76.3631
-76.3625
-78.1307
-78.1313
-78.1312
-78.1311
-78.1311
-78.1305
-76.3665
-76.3668
-76.3666
-76.3665
-76.3666
-76.3661
-77.0749
-77.0753
-77.0753
-77.0753
-77.0754
-77.0748
-77.07
-77.0708
-77.0707
-77.0705
-77.0702
-77.0694
-78.1363
-78.1369
-78.1367
-78.1365
-78.1363
-78.1352
-78.8101
-78.8108
-78.8098
-78.8094
-78.8081
-78.8105
-68.6697
-68.6697
-68.6697
-68.6697
-68.6697
-68.6697
-68.6798
-68.6799
-68.6799
-68.6798
-68.6799
-68.6798
-69.146
-69.1461
-69.1461
-69.146
-69.146
-69.1461
-68.67
-68.67
-68.67
-68.67
-68.67
-68.67
-69.1073
-69.1092
-69.1076
-69.1139
-69.1218
-69.1015
-1307.5
-1308.25
-1308.62
-1311.21
-1309.96
-1311.94
-3845.53
-3849.54
-3848.59
-3853.62
-3853.14
-3851.37
-370.743
-371.538
-370.683
-370.897
-373.192
-367.228
-68.6855
-68.6817
-68.6835
-68.6823
-68.6826
-68.6841
-68.6703
-68.6703
-68.6703
-68.6703
-68.6703
-68.6703
-68.6703
-68.6703
-68.6703
-68.6703
-68.6703
-68.6703
-68.6704
-68.6704
-68.6704
-68.6704
-68.6704
-68.6704
-68.6706
-68.6706
-68.6706
-68.6706
-68.6706
-68.6706
-68.6709
-68.6709
-68.6709
-68.6709
-68.6709
-68.6709
-68.6714
-68.6714
-68.6714
-68.6714
-68.6714
-68.6714
-68.6723
-68.6723
-68.6723
-68.6723
-68.6723
-68.6723
-68.6742
-68.6742
-68.6742
-68.6742
-68.6742
-68.6742
-68.6784
-68.6784
-68.6784
-68.6784
-68.6784
-68.6784
-68.6905
-68.6905
-68.6904
-68.6904
-68.6905
-68.6904
-68.7642
-68.7642
-68.7642
-68.7643
-68.7649
-68.7638
-69.2908
-69.2908
-69.2916
-69.2903
-69.2895
-69.2924
)
;
    }
}


// ************************************************************************* //
