/*--------------------------------*- C++ -*----------------------------------*\
| =========                 |                                                 |
| \\      /  F ield         | OpenFOAM: The Open Source CFD Toolbox           |
|  \\    /   O peration     | Version:  v1612+                                |
|   \\  /    A nd           | Web:      www.OpenFOAM.com                      |
|    \\/     M anipulation  |                                                 |
\*---------------------------------------------------------------------------*/
FoamFile
{
    version     2.0;
    format      ascii;
    class       volScalarField;
    location    "2.6";
    object      p_rgh;
}
// * * * * * * * * * * * * * * * * * * * * * * * * * * * * * * * * * * * * * //

dimensions      [1 -1 -2 0 0 0 0];

internalField   nonuniform List<scalar> 
1116
(
18816.4
18816.4
18816.4
18816.4
18816.4
18816.4
18269.8
18269.8
18269.8
18269.8
18269.8
18269.8
17210.5
17210.5
17210.5
17210.5
17210.5
17210.4
16349.6
16349.6
16349.6
16349.6
16349.6
16349.6
15984.8
15984.8
15984.7
15984.7
15984.7
15984.7
15780.8
15780.8
15780.8
15780.8
15780.8
15780.7
15656.9
15656.9
15656.9
15656.9
15656.9
15656.8
15971.8
15971.8
15971.7
15971.7
15971.7
15971.7
17105.5
17105.5
17105.5
17105.5
17105.5
17105.5
20038.4
20038.3
20038.4
20038.4
20038.4
20038.4
24652.5
24652.5
24652.6
24652.6
24652.6
24652.7
29347.9
29348
29348
29348.1
29348.2
29348.1
15411.4
15411.4
15411.4
15411.4
15411.4
15411.3
9462.57
9462.48
9462.46
9462.5
9462.47
9462.46
9145.91
9145.89
9145.87
9145.85
9145.82
9145.86
10092
10092
10092
10091.9
10091.9
10091.9
11086.4
11086.5
11086.5
11086.5
11086.4
11086.4
11063.1
11063.2
11063.2
11063.1
11063.1
11063.1
10433.8
10433.8
10433.9
10433.8
10433.8
10433.8
8788.37
8788.36
8788.37
8788.34
8788.33
8788.34
5705.49
5705.38
5705.42
5705.4
5705.37
5705.49
7788.38
7788.09
7788.2
7788.19
7788.12
7788.34
19969.2
19968.7
19968.9
19968.9
19968.8
19969.1
33137.9
33138.1
33138.1
33138.2
33138.2
33138
437.193
437.156
437.126
437.165
437.176
437.114
-17.85
-17.8498
-17.8498
-17.8501
-17.8497
-17.8485
-34.5535
-34.553
-34.5528
-34.5525
-34.5522
-34.5523
-37.1905
-37.189
-37.1892
-37.1893
-37.1892
-37.1898
-37.4231
-37.4217
-37.4212
-37.4209
-37.4207
-37.4212
-27.5028
-27.5016
-27.5015
-27.5016
-27.5014
-27.5027
-2.17357
-2.17278
-2.17346
-2.17405
-2.1738
-2.17452
94.0856
94.0837
94.0833
94.0839
94.0845
94.0877
222.487
222.484
222.486
222.486
222.484
222.487
525.09
525.094
525.101
525.106
525.108
525.115
4398.55
4397.83
4398.05
4398.08
4398.01
4398.31
29234
29234.1
29234.1
29234.1
29234.3
29233.8
-1.43371
-1.43377
-1.43364
-1.4333
-1.43281
-1.43251
-2.58252
-2.58215
-2.58171
-2.58144
-2.58137
-2.58155
-5.52267
-5.52238
-5.52213
-5.52198
-5.52198
-5.52208
-7.96866
-7.96791
-7.9679
-7.96804
-7.96822
-7.96856
-11.2446
-11.2443
-11.2445
-11.2449
-11.2453
-11.2458
-12.1838
-12.1836
-12.184
-12.1845
-12.185
-12.1862
-7.86477
-7.86456
-7.86475
-7.86502
-7.86532
-7.86646
-16.1217
-16.1227
-16.1235
-16.1238
-16.1248
-16.1245
-7.79022
-7.7901
-7.79026
-7.79026
-7.79301
-7.79142
22.3216
22.3246
22.3247
22.3251
22.3254
22.3251
159.728
159.709
159.713
159.715
159.713
159.737
27412.9
27411.6
27411.7
27411.9
27411.9
27411.4
-0.134713
-0.134713
-0.13471
-0.134706
-0.134702
-0.134699
-0.140375
-0.140373
-0.140368
-0.140362
-0.140355
-0.140349
-0.151705
-0.151703
-0.151693
-0.15168
-0.151665
-0.151653
-0.168744
-0.168733
-0.168709
-0.168678
-0.168645
-0.168619
-0.191761
-0.191727
-0.191673
-0.191611
-0.191552
-0.191508
-0.221605
-0.221528
-0.221441
-0.221357
-0.221287
-0.221241
-0.259512
-0.259405
-0.259331
-0.259284
-0.259267
-0.259269
-0.305514
-0.305469
-0.305524
-0.305624
-0.305757
-0.305869
-0.352837
-0.35313
-0.35348
-0.353744
-0.353881
-0.35395
-0.398906
-0.399191
-0.399471
-0.399484
-0.398819
-0.397955
-0.463439
-0.463793
-0.46414
-0.464411
-0.464549
-0.464633
-0.527054
-0.527057
-0.52703
-0.527004
-0.526962
-0.5269
-0.12922
-0.129218
-0.129214
-0.129209
-0.129205
-0.129202
-0.135445
-0.135439
-0.135432
-0.135425
-0.135418
-0.135413
-0.1481
-0.148089
-0.148076
-0.148061
-0.148048
-0.148038
-0.167542
-0.167521
-0.167495
-0.167468
-0.167445
-0.167428
-0.194448
-0.194412
-0.194374
-0.19434
-0.194313
-0.194295
-0.230096
-0.230057
-0.230035
-0.230029
-0.230034
-0.230041
-0.277413
-0.277421
-0.277491
-0.277595
-0.277712
-0.277805
-0.344117
-0.344231
-0.344461
-0.34475
-0.345053
-0.345295
-0.466662
-0.46667
-0.466896
-0.467309
-0.467843
-0.468339
-0.614755
-0.614858
-0.615034
-0.61541
-0.616248
-0.617202
-0.680591
-0.680409
-0.680035
-0.679596
-0.679084
-0.678689
-0.623192
-0.622688
-0.622166
-0.621726
-0.621427
-0.621216
-0.11773
-0.117727
-0.117724
-0.11772
-0.117717
-0.117716
-0.124276
-0.124271
-0.124266
-0.124261
-0.124257
-0.124255
-0.137796
-0.137787
-0.137778
-0.137771
-0.137765
-0.137762
-0.15909
-0.159075
-0.159062
-0.159053
-0.159048
-0.159047
-0.189341
-0.189321
-0.189314
-0.189318
-0.189329
-0.189342
-0.229384
-0.229383
-0.229422
-0.22948
-0.229545
-0.229599
-0.27595
-0.276038
-0.276192
-0.276369
-0.276539
-0.276665
-0.304915
-0.305186
-0.305484
-0.305749
-0.305947
-0.306059
-0.251522
-0.251853
-0.252018
-0.252029
-0.251911
-0.25174
-0.188468
-0.188544
-0.188274
-0.187789
-0.187287
-0.186854
-0.152619
-0.152188
-0.151361
-0.15056
-0.149793
-0.149248
0.106595
0.106864
0.107021
0.107023
0.106864
0.106527
-0.100127
-0.100123
-0.100121
-0.100119
-0.100118
-0.100119
-0.106567
-0.106563
-0.10656
-0.106559
-0.106558
-0.10656
-0.120079
-0.120074
-0.120072
-0.120073
-0.120075
-0.120079
-0.141961
-0.141958
-0.141964
-0.141975
-0.141988
-0.142
-0.174307
-0.174321
-0.174352
-0.174392
-0.174433
-0.174466
-0.221096
-0.221153
-0.221238
-0.221333
-0.22142
-0.221482
-0.294938
-0.295056
-0.295197
-0.295335
-0.29545
-0.295522
-0.447529
-0.447614
-0.447686
-0.447735
-0.447756
-0.447755
-0.730889
-0.730897
-0.730768
-0.730533
-0.730254
-0.729957
-1.08254
-1.08233
-1.08184
-1.08122
-1.08063
-1.08011
-1.46382
-1.46353
-1.46323
-1.46294
-1.46291
-1.46286
-1.90136
-1.90165
-1.90256
-1.90329
-1.90501
-1.90478
-3.95131
-3.95093
-3.95066
-3.95052
-3.95036
-3.95026
-6.34297
-6.34274
-6.34253
-6.3424
-6.34231
-6.34226
-7.62251
-7.62273
-7.62283
-7.62288
-7.62292
-7.62284
-5.48447
-5.48401
-5.48356
-5.48323
-5.48304
-5.48305
-6.92951
-6.92943
-6.92923
-6.92909
-6.92908
-6.92891
-8.61243
-8.61261
-8.61269
-8.61275
-8.61277
-8.61259
-12.2642
-12.2638
-12.2636
-12.2635
-12.2634
-12.2635
-9.63749
-9.63745
-9.63745
-9.63747
-9.63756
-9.63767
-8.79188
-8.79197
-8.792
-8.79199
-8.79201
-8.79191
-13.4578
-13.4576
-13.4577
-13.4578
-13.4579
-13.4581
-10.556
-10.5561
-10.5563
-10.5563
-10.5565
-10.5564
-10.7113
-10.7114
-10.7114
-10.7114
-10.7114
-10.7112
-13.7344
-13.7346
-13.7349
-13.7352
-13.7353
-13.7354
-9.66164
-9.66188
-9.66203
-9.66208
-9.6621
-9.66202
-10.2366
-10.2366
-10.2366
-10.2365
-10.2365
-10.2364
-13.1041
-13.1041
-13.1041
-13.1042
-13.1043
-13.1043
-10.4978
-10.498
-10.498
-10.498
-10.4979
-10.4978
-10.7087
-10.7087
-10.7087
-10.7086
-10.7086
-10.7085
-8.65391
-8.65362
-8.65353
-8.6537
-8.6543
-8.6549
-9.95611
-9.95578
-9.95547
-9.95548
-9.95543
-9.95635
-9.69232
-9.69244
-9.69235
-9.69222
-9.69203
-9.69181
-4.63287
-4.63256
-4.63265
-4.6325
-4.63373
-4.63196
-10.3026
-10.3025
-10.3026
-10.303
-10.3035
-10.3027
-10.5892
-10.5895
-10.5893
-10.5889
-10.5885
-10.5878
-11.772
-11.7695
-11.7709
-11.7703
-11.7712
-11.7701
-25.9747
-25.9739
-25.9736
-25.9738
-25.9746
-25.9734
-16.497
-16.4978
-16.4965
-16.4954
-16.4945
-16.4927
-47.9802
-47.9831
-47.9821
-47.9812
-47.9846
-47.9792
-29.3015
-29.3036
-29.3008
-29.2971
-29.2989
-29.2864
-14.2322
-14.2325
-14.2292
-14.2272
-14.227
-14.2204
-92.4933
-92.5278
-92.5141
-92.5006
-92.5124
-92.4869
-35.2809
-35.2937
-35.285
-35.2854
-35.2873
-35.2669
-24.471
-24.472
-24.4656
-24.4668
-24.4606
-24.4679
18579.3
18577.2
18579.2
18576
18562.2
18594.3
763.297
762.079
763.845
762.739
754.307
776.03
-66.2918
-66.3071
-66.2927
-66.2923
-66.2689
-66.3102
-3.15058
-3.15129
-3.15117
-3.14784
-3.16006
-3.13979
-6.82576
-6.82871
-6.8305
-6.83096
-6.86143
-6.81033
-6.95107
-6.94518
-6.94565
-6.92714
-6.93277
-6.92709
-0.0591028
-0.059775
-0.0607524
-0.0645808
-0.0597742
-0.0637639
-7.27535
-7.27871
-7.28085
-7.28149
-7.29974
-7.28886
-8.28666
-8.29149
-8.30066
-8.30087
-8.33028
-8.29033
2.84777
2.84299
2.84368
2.84591
2.80367
2.89407
-9.6503
-9.65261
-9.66118
-9.64968
-9.61479
-9.73243
1044.42
1045.07
1045.39
1047.74
1046.33
1048.64
66.9847
67.0038
67.1242
67.5351
67.648
67.0573
4937.43
4938.8
4941.34
4952.53
4944.86
4960.73
2761.79
2765.25
2764.24
2768.52
2767.29
2767.29
9124.92
9122.96
9118.49
9133.43
9169.53
9075.02
11662.2
11659.2
11654.9
11671.8
11709.4
11607.2
-37.1542
-36.4055
-37.1368
-36.9532
-35.1129
-39.7986
14019.5
14018.1
14019
14017.3
14010.3
14040.1
6798.1
6806.23
6797.24
6776.53
6793.66
6759.82
-156.528
-156.575
-156.515
-156.487
-156.523
-156.269
-0.0766193
-0.0766166
-0.076616
-0.0766159
-0.0766161
-0.0766172
-0.0482917
-0.0482907
-0.0482908
-0.0482913
-0.048292
-0.0482936
-0.0169869
-0.0169871
-0.0169875
-0.0169881
-0.0169888
-0.0169898
-0.0820367
-0.0820351
-0.0820353
-0.0820363
-0.0820376
-0.0820397
-0.0518725
-0.0518724
-0.0518731
-0.0518743
-0.0518756
-0.0518771
-0.0180813
-0.0180818
-0.0180822
-0.0180829
-0.0180839
-0.0180845
-0.0935375
-0.0935375
-0.0935403
-0.0935445
-0.0935491
-0.0935529
-0.0596366
-0.0596375
-0.0596393
-0.0596416
-0.0596439
-0.0596456
-0.0201163
-0.0201168
-0.0201174
-0.0201183
-0.0201191
-0.0201196
-0.112497
-0.112502
-0.112513
-0.112526
-0.112539
-0.112549
-0.0733318
-0.0733342
-0.0733388
-0.0733443
-0.0733493
-0.0733526
-0.0226257
-0.0226263
-0.0226277
-0.0226293
-0.0226308
-0.0226322
-0.140455
-0.140475
-0.140504
-0.140534
-0.14056
-0.140577
-0.096973
-0.0969789
-0.0969887
-0.0969994
-0.0970083
-0.0970136
-0.0235427
-0.0235442
-0.0235468
-0.0235499
-0.0235524
-0.0235544
-0.175642
-0.175682
-0.175725
-0.175765
-0.175792
-0.175804
-0.14129
-0.141301
-0.141316
-0.141329
-0.141339
-0.141344
-0.0194106
-0.0194126
-0.0194147
-0.0194168
-0.0194175
-0.0194183
-0.203271
-0.203308
-0.203329
-0.203333
-0.203321
-0.203296
-0.231486
-0.231498
-0.231507
-0.23151
-0.231511
-0.231505
-0.0010735
-0.00107377
-0.00106953
-0.00106747
-0.0010605
-0.00106109
-0.190843
-0.190836
-0.19078
-0.190681
-0.190583
-0.190498
-0.405916
-0.40591
-0.405896
-0.405863
-0.405856
-0.405824
0.033992
0.0339954
0.0340147
0.0340308
0.0340557
0.0340691
-0.120973
-0.120856
-0.120681
-0.120492
-0.120325
-0.12021
-0.714631
-0.714603
-0.714591
-0.714505
-0.714568
-0.714468
0.0473854
0.0474036
0.0474608
0.0475196
0.0475773
0.0476715
-0.0926844
-0.0924922
-0.0923171
-0.092184
-0.0921155
-0.092193
-1.1586
-1.15856
-1.15875
-1.15843
-1.15893
-1.15855
-0.141861
-0.141791
-0.14161
-0.141379
-0.141417
-0.14075
-0.672187
-0.672287
-0.672506
-0.672781
-0.673203
-0.672823
-1.72718
-1.72698
-1.72794
-1.72691
-1.72871
-1.72724
-0.0637807
-0.0635558
-0.0633114
-0.0628673
-0.0629541
-0.0627867
1.33065
1.33078
1.33094
1.33037
1.33
1.32946
-2.97713
-2.97697
-2.98005
-2.97713
-2.98583
-2.97546
-3.80838
-3.80856
-3.80974
-3.80794
-3.81683
-3.8007
)
;

boundaryField
{
    seabed_topleft_surface
    {
        type            fixedFluxPressure;
        gradient        uniform 0;
        value           nonuniform List<scalar> 
72
(
18816.4
18816.4
18816.4
18816.4
18816.4
18816.4
18269.8
18269.8
18269.8
18269.8
18269.8
18269.8
17210.5
17210.5
17210.5
17210.5
17210.5
17210.4
16349.6
16349.6
16349.6
16349.6
16349.6
16349.6
15984.8
15984.8
15984.7
15984.7
15984.7
15984.7
15780.8
15780.8
15780.8
15780.8
15780.8
15780.7
15656.9
15656.9
15656.9
15656.9
15656.9
15656.8
15971.8
15971.8
15971.7
15971.7
15971.7
15971.7
17105.5
17105.5
17105.5
17105.5
17105.5
17105.5
20038.4
20038.3
20038.4
20038.4
20038.4
20038.4
24652.5
24652.5
24652.6
24652.6
24652.6
24652.7
29347.9
29348
29348
29348.1
29348.2
29348.1
)
;
    }
    seabed_topright_surface
    {
        type            fixedFluxPressure;
        gradient        uniform 0;
        value           nonuniform List<scalar> 
72
(
-0.134713
-0.134713
-0.13471
-0.134706
-0.134702
-0.134699
-0.140375
-0.140373
-0.140368
-0.140362
-0.140355
-0.140349
-0.151705
-0.151703
-0.151693
-0.15168
-0.151665
-0.151653
-0.168744
-0.168733
-0.168709
-0.168678
-0.168645
-0.168619
-0.191761
-0.191727
-0.191673
-0.191611
-0.191552
-0.191508
-0.221605
-0.221528
-0.221441
-0.221357
-0.221287
-0.221241
-0.259512
-0.259405
-0.259331
-0.259284
-0.259267
-0.259269
-0.305514
-0.305469
-0.305524
-0.305624
-0.305757
-0.305869
-0.352837
-0.35313
-0.35348
-0.353744
-0.353881
-0.35395
-0.398906
-0.399191
-0.399471
-0.399484
-0.398819
-0.397955
-0.463439
-0.463793
-0.46414
-0.464411
-0.464549
-0.464633
-0.527054
-0.527057
-0.52703
-0.527004
-0.526962
-0.5269
)
;
    }
    breakwater_top_surface
    {
        type            fixedFluxPressure;
        gradient        uniform 0;
        value           nonuniform List<scalar> 
36
(
-3.15058
-3.15129
-3.15117
-3.14784
-3.16006
-3.13979
-0.0591028
-0.059775
-0.0607524
-0.0645808
-0.0597742
-0.0637639
2.84777
2.84299
2.84368
2.84591
2.80367
2.89407
66.9847
67.0038
67.1242
67.5351
67.648
67.0573
9124.92
9122.96
9118.49
9133.43
9169.53
9075.02
14019.5
14018.1
14019
14017.3
14010.3
14040.1
)
;
    }
    breakwater_left_surface
    {
        type            fixedFluxPressure;
        gradient        uniform 0;
        value           nonuniform List<scalar> 
24
(
29347.9
29348
29348
29348.1
29348.2
29348.1
33137.9
33138.1
33138.1
33138.2
33138.2
33138
29234
29234.1
29234.1
29234.1
29234.3
29233.8
27412.9
27411.6
27411.7
27411.9
27411.9
27411.4
)
;
    }
    breakwater_right_surface
    {
        type            fixedFluxPressure;
        gradient        uniform 0;
        value           nonuniform List<scalar> 
24
(
-0.527054
-0.527057
-0.52703
-0.527004
-0.526962
-0.5269
-0.623192
-0.622688
-0.622166
-0.621726
-0.621427
-0.621216
0.106595
0.106864
0.107021
0.107023
0.106864
0.106527
-1.90136
-1.90165
-1.90256
-1.90329
-1.90501
-1.90478
)
;
    }
    water_front_surface
    {
        type            fixedFluxPressure;
        gradient        uniform 0;
        value           nonuniform List<scalar> 
186
(
18816.4
18269.8
17210.5
16349.6
15984.8
15780.8
15656.9
15971.8
17105.5
20038.4
24652.5
29347.9
15411.4
9462.57
9145.91
10092
11086.4
11063.1
10433.8
8788.37
5705.49
7788.38
19969.2
33137.9
437.193
-17.85
-34.5535
-37.1905
-37.4231
-27.5028
-2.17357
94.0856
222.487
525.09
4398.55
29234
-1.43371
-2.58252
-5.52267
-7.96866
-11.2446
-12.1838
-7.86477
-16.1217
-7.79022
22.3216
159.728
27412.9
-0.134713
-0.140375
-0.151705
-0.168744
-0.191761
-0.221605
-0.259512
-0.305514
-0.352837
-0.398906
-0.463439
-0.527054
-0.12922
-0.135445
-0.1481
-0.167542
-0.194448
-0.230096
-0.277413
-0.344117
-0.466662
-0.614755
-0.680591
-0.623192
-0.11773
-0.124276
-0.137796
-0.15909
-0.189341
-0.229384
-0.27595
-0.304915
-0.251522
-0.188468
-0.152619
0.106595
-0.100127
-0.106567
-0.120079
-0.141961
-0.174307
-0.221096
-0.294938
-0.447529
-0.730889
-1.08254
-1.46382
-1.90136
-3.95131
-6.34297
-7.62251
-5.48447
-6.92951
-8.61243
-12.2642
-9.63749
-8.79188
-13.4578
-10.556
-10.7113
-13.7344
-9.66164
-10.2366
-13.1041
-10.4978
-10.7087
-8.65391
-9.95611
-9.69232
-4.63287
-10.3026
-10.5892
-11.772
-25.9747
-16.497
-47.9802
-29.3015
-14.2322
-92.4933
-35.2809
-24.471
18579.3
763.297
-66.2918
-3.15058
-6.82576
-6.95107
-0.0591028
-7.27535
-8.28666
2.84777
-9.6503
1044.42
66.9847
4937.43
2761.79
9124.92
11662.2
-37.1542
14019.5
6798.1
-156.528
-0.0766193
-0.0482917
-0.0169869
-0.0820367
-0.0518725
-0.0180813
-0.0935375
-0.0596366
-0.0201163
-0.112497
-0.0733318
-0.0226257
-0.140455
-0.096973
-0.0235427
-0.175642
-0.14129
-0.0194106
-0.203271
-0.231486
-0.0010735
-0.190843
-0.405916
0.033992
-0.120973
-0.714631
0.0473854
-0.0926844
-1.1586
-0.141861
-0.672187
-1.72718
-0.0637807
1.33065
-2.97713
-3.80838
)
;
    }
    water_back_surface
    {
        type            fixedFluxPressure;
        gradient        uniform 0;
        value           nonuniform List<scalar> 
186
(
18816.4
18269.8
17210.4
16349.6
15984.7
15780.7
15656.8
15971.7
17105.5
20038.4
24652.7
29348.1
15411.3
9462.46
9145.86
10091.9
11086.4
11063.1
10433.8
8788.34
5705.49
7788.34
19969.1
33138
437.114
-17.8485
-34.5523
-37.1898
-37.4212
-27.5027
-2.17452
94.0877
222.487
525.115
4398.31
29233.8
-1.43251
-2.58155
-5.52208
-7.96856
-11.2458
-12.1862
-7.86646
-16.1245
-7.79142
22.3251
159.737
27411.4
-0.134699
-0.140349
-0.151653
-0.168619
-0.191508
-0.221241
-0.259269
-0.305869
-0.35395
-0.397955
-0.464633
-0.5269
-0.129202
-0.135413
-0.148038
-0.167428
-0.194295
-0.230041
-0.277805
-0.345295
-0.468339
-0.617202
-0.678689
-0.621216
-0.117716
-0.124255
-0.137762
-0.159047
-0.189342
-0.229599
-0.276665
-0.306059
-0.25174
-0.186854
-0.149248
0.106527
-0.100119
-0.10656
-0.120079
-0.142
-0.174466
-0.221482
-0.295522
-0.447755
-0.729957
-1.08011
-1.46286
-1.90478
-3.95026
-6.34226
-7.62284
-5.48305
-6.92891
-8.61259
-12.2635
-9.63767
-8.79191
-13.4581
-10.5564
-10.7112
-13.7354
-9.66202
-10.2364
-13.1043
-10.4978
-10.7085
-8.6549
-9.95635
-9.69181
-4.63196
-10.3027
-10.5878
-11.7701
-25.9734
-16.4927
-47.9792
-29.2864
-14.2204
-92.4869
-35.2669
-24.4679
18594.3
776.03
-66.3102
-3.13979
-6.81033
-6.92709
-0.0637639
-7.28886
-8.29033
2.89407
-9.73243
1048.64
67.0573
4960.73
2767.29
9075.02
11607.2
-39.7986
14040.1
6759.82
-156.269
-0.0766172
-0.0482936
-0.0169898
-0.0820397
-0.0518771
-0.0180845
-0.0935529
-0.0596456
-0.0201196
-0.112549
-0.0733526
-0.0226322
-0.140577
-0.0970136
-0.0235544
-0.175804
-0.141344
-0.0194183
-0.203296
-0.231505
-0.00106109
-0.190498
-0.405824
0.0340691
-0.12021
-0.714468
0.0476715
-0.092193
-1.15855
-0.14075
-0.672823
-1.72724
-0.0627867
1.32946
-2.97546
-3.8007
)
;
    }
    water_left_surface
    {
        type            fixedFluxPressure;
        gradient        uniform 0;
        value           nonuniform List<scalar> 
42
(
18816.4
18816.4
18816.4
18816.4
18816.4
18816.4
15411.4
15411.4
15411.4
15411.4
15411.4
15411.3
437.193
437.156
437.126
437.165
437.176
437.114
-1.43371
-1.43377
-1.43364
-1.4333
-1.43281
-1.43251
-3.95131
-3.95093
-3.95066
-3.95052
-3.95036
-3.95026
-6.34297
-6.34274
-6.34253
-6.3424
-6.34231
-6.34226
-7.62251
-7.62273
-7.62283
-7.62288
-7.62292
-7.62284
)
;
    }
    water_right_surface
    {
        type            fixedFluxPressure;
        gradient        uniform 0;
        value           nonuniform List<scalar> 
42
(
-0.134713
-0.134713
-0.13471
-0.134706
-0.134702
-0.134699
-0.12922
-0.129218
-0.129214
-0.129209
-0.129205
-0.129202
-0.11773
-0.117727
-0.117724
-0.11772
-0.117717
-0.117716
-0.100127
-0.100123
-0.100121
-0.100119
-0.100118
-0.100119
-0.0766193
-0.0766166
-0.076616
-0.0766159
-0.0766161
-0.0766172
-0.0482917
-0.0482907
-0.0482908
-0.0482913
-0.048292
-0.0482936
-0.0169869
-0.0169871
-0.0169875
-0.0169881
-0.0169888
-0.0169898
)
;
    }
    water_top_surface
    {
        type            totalPressure;
        rho             rho;
        psi             none;
        gamma           1;
        p0              uniform 0;
        value           nonuniform List<scalar> 
180
(
-8.15902
-8.15982
-8.15991
-8.15997
-8.16011
-8.15965
-9.11032
-9.11112
-9.11126
-9.11143
-9.1116
-9.11102
-7.69242
-7.69298
-7.69299
-7.69301
-7.69305
-7.69253
-9.46074
-9.46133
-9.46115
-9.46107
-9.46107
-9.46046
-7.69647
-7.69676
-7.69657
-7.69649
-7.69656
-7.69611
-8.4049
-8.40535
-8.40532
-8.40532
-8.40538
-8.40484
-8.4
-8.40075
-8.40069
-8.40054
-8.40021
-8.39937
-9.46626
-9.46691
-9.46669
-9.46648
-9.46629
-9.46523
-10.1401
-10.1408
-10.1398
-10.1394
-10.1381
-10.1405
0
0
0
0
0
0
0
0
0
0
0
0
0
0
0
0
0
0
0
0
0
0
0
0
0
0
0
0
0
0
0
0
0
0
0
0
0
0
0
0
0
0
0
0
0
0
0
0
-0.0154733
-0.011668
-0.0134514
-0.0122938
-0.0125817
-0.0140727
-0.00029127
-0.000291276
-0.000291273
-0.000291276
-0.000291282
-0.000291274
-0.000330439
-0.000330438
-0.000330436
-0.000330443
-0.00033046
-0.000330467
-0.000419344
-0.000419331
-0.000419338
-0.000419367
-0.000419417
-0.000419464
-0.000584588
-0.000584601
-0.000584658
-0.000584757
-0.000584899
-0.000585054
-0.00087372
-0.000873931
-0.000874163
-0.000874446
-0.00087478
-0.000875121
-0.00139262
-0.00139347
-0.00139409
-0.00139467
-0.00139519
-0.00139554
-0.0023155
-0.00231739
-0.00231824
-0.00231868
-0.00231858
-0.00231762
-0.00418989
-0.00419133
-0.00419045
-0.00418856
-0.00418518
-0.00417987
-0.00839171
-0.00838674
-0.00838011
-0.00837322
-0.00836487
-0.00835707
-0.0204694
-0.0204548
-0.0204456
-0.0204447
-0.0204562
-0.0204383
-0.0942059
-0.0942358
-0.0942467
-0.0943319
-0.0948968
-0.0937841
-0.620831
-0.620795
-0.6216
-0.620313
-0.619514
-0.622431
)
;
    }
}


// ************************************************************************* //
