/*--------------------------------*- C++ -*----------------------------------*\
| =========                 |                                                 |
| \\      /  F ield         | OpenFOAM: The Open Source CFD Toolbox           |
|  \\    /   O peration     | Version:  v1612+                                |
|   \\  /    A nd           | Web:      www.OpenFOAM.com                      |
|    \\/     M anipulation  |                                                 |
\*---------------------------------------------------------------------------*/
FoamFile
{
    version     2.0;
    format      ascii;
    class       surfaceScalarField;
    location    "3";
    object      phi;
}
// * * * * * * * * * * * * * * * * * * * * * * * * * * * * * * * * * * * * * //

dimensions      [0 3 -1 0 0 0 0];

internalField   nonuniform List<scalar> 
2916
(
-4.23423e-06
0.458358
-0.458354
2.338e-06
0.458357
-0.458363
6.72152e-08
0.458357
-0.458355
-4.27702e-06
0.458362
-0.458357
1.53565e-07
0.458362
-0.458366
0.458352
-0.458352
-4.8985e-07
0.894993
-0.436635
1.2104e-06
0.894999
-0.436644
-2.50097e-06
0.894999
-0.436638
-3.62186e-06
0.895003
-0.43664
1.47432e-06
0.895004
-0.436647
0.894991
-0.436638
-1.15088e-06
1.18192
-0.286922
1.09649e-06
1.18193
-0.286932
-1.39066e-06
1.18193
-0.286927
-1.81203e-06
1.18193
-0.286927
3.07067e-06
1.18193
-0.286933
1.18192
-0.286924
-3.13848e-06
1.38872
-0.206796
5.5758e-07
1.38873
-0.206808
-6.51069e-07
1.38873
-0.206802
-1.38333e-06
1.38873
-0.206801
3.3461e-06
1.38873
-0.206806
1.38872
-0.206797
-5.11567e-06
1.56579
-0.177065
-1.21809e-06
1.56581
-0.177077
-1.91284e-06
1.5658
-0.177073
-2.46262e-06
1.5658
-0.177071
2.88194e-06
1.5658
-0.177076
1.56579
-0.177066
-6.8483e-06
1.72861
-0.162816
-3.40352e-06
1.72863
-0.162829
-3.87173e-06
1.72863
-0.162825
-3.52594e-06
1.72863
-0.162825
3.18553e-06
1.72863
-0.162829
1.72861
-0.162817
-9.30358e-06
1.85126
-0.122641
-5.10278e-06
1.85128
-0.122653
-5.79671e-06
1.85128
-0.122649
-4.86133e-06
1.85128
-0.122649
4.04946e-06
1.85127
-0.122655
1.85125
-0.122641
-8.26156e-06
1.87389
-0.0226256
-5.06042e-06
1.87391
-0.022637
-5.67558e-06
1.87391
-0.0226333
-4.52509e-06
1.87391
-0.0226343
9.92207e-07
1.87391
-0.0226405
1.87388
-0.0226269
-6.24459e-06
1.60236
0.271536
-4.53596e-06
1.6024
0.271514
-6.5625e-06
1.6024
0.271521
-6.3531e-06
1.60239
0.271518
-3.85894e-06
1.6024
0.271506
1.60235
0.271528
-4.60957e-06
0.901052
0.701317
-1.87169e-06
0.901097
0.701299
-5.2061e-06
0.901096
0.701303
-7.05546e-06
0.901092
0.701301
-6.94197e-06
0.901109
0.70129
0.901038
0.701304
7.18265e-06
0.168725
0.73232
2.71014e-06
0.168766
0.732336
9.50295e-07
0.168768
0.73233
-1.46783e-06
0.168767
0.732328
-1.0162e-05
0.168789
0.732329
0.168716
0.732311
-2.78706e-05
0.168753
-2.20267e-05
0.16876
-1.34849e-05
0.168759
-2.48716e-06
0.168756
2.44798e-05
0.168762
0.168741
1.13783e-06
0.579711
-1.03807
-2.53209e-06
0.579708
-1.03807
-4.68594e-06
0.579716
-1.03807
1.07108e-05
0.579708
-1.03808
2.33359e-05
0.579702
-1.03808
0.579735
-1.03806
1.47826e-05
1.12695
-0.983885
-8.32666e-06
1.12696
-0.983873
1.80137e-06
1.12695
-0.983885
1.79134e-05
1.12695
-0.983898
-6.28687e-06
1.12696
-0.983878
1.12696
-0.983869
2.50986e-05
1.53422
-0.694224
-2.39148e-06
1.53426
-0.694204
1.00525e-05
1.53424
-0.694222
1.69186e-05
1.53424
-0.694221
-2.66847e-05
1.53426
-0.694192
1.53422
-0.694214
2.96298e-05
1.83206
-0.504666
2.14594e-06
1.83212
-0.504643
1.3726e-05
1.83209
-0.504664
1.68018e-05
1.83209
-0.504656
-2.92367e-05
1.83212
-0.504623
1.83206
-0.504664
2.97328e-05
2.12666
-0.471689
3.03748e-06
2.12673
-0.471662
1.55653e-05
2.12669
-0.47169
2.02763e-05
2.12669
-0.471681
-2.21947e-05
2.12673
-0.471643
2.12666
-0.47169
2.29076e-05
2.42806
-0.464243
2.02853e-06
2.42815
-0.464229
1.73616e-05
2.42811
-0.464258
2.56508e-05
2.42811
-0.464252
-7.98569e-06
2.42815
-0.464214
2.42808
-0.464242
2.20602e-05
2.6873
-0.381907
6.3454e-06
2.68742
-0.381908
2.13047e-05
2.68737
-0.381927
2.91601e-05
2.68738
-0.381923
2.93376e-06
2.68742
-0.381897
2.68734
-0.381901
2.69286e-05
2.85526
-0.190613
1.71745e-05
2.85542
-0.190619
2.90476e-05
2.85536
-0.190632
3.19027e-05
2.85537
-0.190625
9.3784e-06
2.85541
-0.190604
2.85533
-0.190602
3.4069e-05
2.65629
0.470479
2.3361e-05
2.65645
0.470488
2.90877e-05
2.6564
0.470476
2.68531e-05
2.6564
0.470482
4.18855e-06
2.65644
0.470496
2.65636
0.4705
3.38336e-05
1.81071
1.54687
2.09301e-05
1.81088
1.54688
1.50855e-05
1.81083
1.54688
6.48937e-06
1.81083
1.54688
-1.89469e-05
1.81087
1.54688
1.81077
1.54687
4.16806e-05
0.847698
1.69528
1.34171e-05
0.847877
1.69537
5.37127e-06
0.847833
1.69534
-2.14462e-06
0.847832
1.69534
-3.0796e-05
0.847872
1.69536
0.847746
1.69531
-7.70789e-05
1.01653
-2.85953e-05
1.01659
-8.13638e-06
1.01657
7.5774e-06
1.01657
5.3658e-05
1.01659
1.01654
-8.98817e-05
0.788451
-1.82643
-5.18819e-05
0.788434
-1.82653
-4.0825e-06
0.788439
-1.82655
6.94939e-05
0.788408
-1.82656
0.000132595
0.788397
-1.82654
0.788498
-1.82643
-0.000108227
1.64951
-1.84483
-5.61973e-05
1.64944
-1.84492
-4.5296e-07
1.64943
-1.84492
5.24871e-05
1.64939
-1.84493
0.000106386
1.64938
-1.84492
1.64952
-1.84478
-9.73586e-05
2.62612
-1.67074
-3.88944e-05
2.62603
-1.67085
1.11754e-05
2.62601
-1.67086
4.96986e-05
2.62599
-1.67086
0.000103986
2.62599
-1.67085
2.62612
-1.67072
-0.000105148
3.99314
-1.87157
-2.9106e-05
3.99302
-1.87172
2.27112e-05
3.99302
-1.87173
6.53697e-05
3.99301
-1.87172
0.000142256
3.993
-1.87172
3.99316
-1.87156
-0.000117232
5.67538
-2.15382
-2.50659e-05
5.67524
-2.15397
3.73562e-05
5.67526
-2.15399
8.98044e-05
5.67525
-2.15398
0.000172907
5.67524
-2.15396
5.67543
-2.15379
-0.000111999
7.65443
-2.44317
-3.11738e-05
7.65426
-2.44333
3.46982e-05
7.65429
-2.44335
9.23675e-05
7.65428
-2.44334
0.000164002
7.65426
-2.4433
7.65448
-2.44313
-4.98004e-05
9.3763
-2.10373
-4.11447e-05
9.37618
-2.10384
9.83834e-06
9.3762
-2.10389
5.86559e-05
9.37621
-2.1039
9.61363e-05
9.37618
-2.10386
9.37638
-2.10371
0.000110613
8.51209
0.673495
7.71289e-06
8.51222
0.673447
-1.29986e-05
8.51217
0.673423
-2.05853e-05
8.51215
0.673453
-2.40473e-05
8.51214
0.67345
8.51216
0.6736
0.000194327
4.63478
4.34759
6.4374e-05
4.6352
4.34763
1.16264e-05
4.63509
4.34761
-1.0374e-05
4.63505
4.3476
-0.000100864
4.63509
4.34763
4.63498
4.34758
0.000150319
1.70622
4.47528
5.68216e-05
1.70653
4.47564
1.33413e-05
1.70643
4.47558
-1.05429e-06
1.70641
4.47553
-6.81645e-05
1.70645
4.47559
1.70636
4.47543
0.000146629
0.663887
2.73747
5.54283e-05
0.664126
2.73787
2.08201e-05
0.664048
2.73775
-4.12216e-06
0.664046
2.73772
-8.6185e-05
0.66409
2.7378
0.663954
2.73763
-0.000100999
1.68052
-1.68748e-05
1.68063
-6.79109e-06
1.68061
1.74672e-05
1.68059
0.000104389
1.68059
1.6806
-6.32616e-05
-0.294076
-1.53228
-1.61088e-05
-0.294107
-1.53247
1.01593e-05
-0.294114
-1.53246
2.05406e-05
-0.294115
-1.53245
4.58703e-05
-0.294104
-1.53246
-0.29409
-1.53229
-3.54353e-05
-0.597415
-1.54145
8.76479e-07
-0.597443
-1.54162
1.56507e-05
-0.597457
-1.5416
1.08658e-05
-0.597453
-1.54159
2.67097e-05
-0.597428
-1.54161
-0.597439
-1.54141
1.51878e-05
-0.874046
-1.39413
4.36453e-05
-0.873999
-1.39432
2.67709e-05
-0.874001
-1.3943
5.40085e-06
-0.873992
-1.3943
2.27726e-05
-0.87396
-1.39434
-0.874036
-1.3941
-2.43004e-05
-0.940775
-1.80482
7.88323e-06
-0.940679
-1.80507
-8.79977e-06
-0.940668
-1.80504
-9.81661e-06
-0.940662
-1.80505
5.07825e-05
-0.940631
-1.80511
-0.940718
-1.80482
-9.12462e-05
-1.04295
-2.05155
-4.99644e-05
-1.04288
-2.05181
-6.07168e-05
-1.04286
-2.05179
-4.65026e-05
-1.04286
-2.0518
6.15175e-05
-1.04285
-2.05185
-1.04288
-2.05156
-0.000111417
-1.00375
-2.48226
-5.93666e-05
-1.00376
-2.4825
-5.94209e-05
-1.00371
-2.48249
-5.14662e-05
-1.0037
-2.4825
3.48482e-05
-1.0037
-2.48254
-1.00368
-2.48229
-0.000104089
-0.260683
-2.8467
-3.87713e-05
-0.260802
-2.84686
4.75531e-06
-0.260737
-2.84691
2.26441e-05
-0.26065
-2.84696
0.000108681
-0.260639
-2.847
-0.26051
-2.84677
4.01144e-05
2.19111
-1.77834
5.54376e-05
2.19109
-1.77847
6.30432e-05
2.19114
-1.77847
3.13048e-05
2.19126
-1.77843
8.98591e-06
2.19135
-1.77852
2.19128
-1.77819
0.000104087
3.64302
2.89558
4.17253e-05
3.64327
2.89552
2.62157e-05
3.64318
2.89559
-2.6153e-05
3.64317
2.89574
-0.000267697
3.64324
2.89599
3.64318
2.89541
0.000252943
2.1875
5.93054
0.000111492
2.18778
5.93126
4.74603e-05
2.18768
5.93114
2.73424e-05
2.18762
5.9311
-4.52146e-05
2.18766
5.93124
2.18764
5.93093
0.000194235
0.470809
4.45397
0.000100653
0.470945
4.4548
1.72417e-05
0.470916
4.45459
-2.99614e-06
0.470875
4.45449
-5.64555e-05
0.4709
4.45462
0.47086
4.45434
-3.32275e-06
2.15133
1.87901e-05
2.15155
5.53487e-05
2.15149
2.65558e-05
2.1515
-0.000153228
2.15167
2.15131
-1.29817e-06
0.00285441
-0.00285311
-2.94788e-06
0.00285388
-0.00285332
-3.61169e-06
0.00285316
-0.00285338
-3.38015e-06
0.00285243
-0.0028534
-2.22847e-06
0.00285164
-0.00285343
0.00285055
-0.00285334
-1.97667e-06
0.00577819
-0.00292268
-4.21005e-06
0.00577656
-0.0029213
-5.49144e-06
0.00577473
-0.00292092
-5.50104e-06
0.00577287
-0.00292094
-3.9655e-06
0.0057709
-0.00292127
0.00576825
-0.00292182
-3.03249e-06
0.00881868
-0.00303782
-7.14248e-06
0.00881384
-0.0030329
-9.98787e-06
0.00880932
-0.0030315
-1.04413e-05
0.00880503
-0.0030315
-7.63169e-06
0.00880067
-0.00303241
0.00879493
-0.00303405
-6.88261e-06
0.0120286
-0.00320278
-1.50459e-05
0.0120169
-0.00319433
-2.03098e-05
0.0120074
-0.00319239
-2.09301e-05
0.0119991
-0.0031931
-1.52246e-05
0.0119911
-0.00319577
0.0119805
-0.00320038
-1.84352e-05
0.0154132
-0.00336594
-3.23112e-05
0.0153898
-0.00335896
-3.92244e-05
0.0153735
-0.00335913
-3.81064e-05
0.0153607
-0.00336254
-2.68013e-05
0.015349
-0.0033688
0.0153325
-0.00337832
-4.15711e-05
0.0189077
-0.00345294
-5.97327e-05
0.0188693
-0.0034617
-6.35268e-05
0.0188474
-0.00347026
-5.64164e-05
0.0188334
-0.00347962
-3.74051e-05
0.0188212
-0.00349092
0.0188007
-0.00350535
-6.90205e-05
0.0224466
-0.00347007
-8.17089e-05
0.0223958
-0.00351432
-7.2776e-05
0.0223775
-0.00353919
-5.46643e-05
0.0223728
-0.00355749
-3.15919e-05
0.0223712
-0.00357308
0.022357
-0.00358785
-7.30507e-05
0.0255294
-0.00300997
-5.74887e-05
0.0254784
-0.0030984
-2.16347e-05
0.025478
-0.00313646
8.45268e-06
0.0254977
-0.00315496
1.91835e-05
0.025522
-0.00316135
0.0255332
-0.00315683
-1.03291e-05
0.0272512
-0.0017115
5.87491e-05
0.0272197
-0.00181014
0.000129873
0.027243
-0.0018359
0.000164142
0.0272938
-0.00183
0.000133322
0.0273553
-0.00180195
0.0274179
-0.00175111
0.000103049
0.0271344
1.37058e-05
0.000238062
0.0271389
-5.466e-05
0.000335034
0.0271724
-2.64722e-05
0.000360521
0.0272255
4.27216e-05
0.000271976
0.0272978
0.000146143
0.0274004
0.00028906
0.000217833
0.0144871
0.0124294
0.000324421
0.0144981
0.0125332
0.00036467
0.014515
0.0126163
0.000348025
0.0145401
0.0127011
0.000247632
0.0145856
0.012812
0.0146748
0.0129728
8.4265e-05
0.0144027
6.57651e-05
0.0145163
2.8939e-05
0.0145516
5.89807e-07
0.0145677
-8.20802e-06
0.0145928
0.0146661
-2.04965e-06
0.00299822
-0.0058501
-3.44319e-06
0.00299692
-0.00585024
-3.77137e-06
0.00299587
-0.00585001
-3.29757e-06
0.00299498
-0.00584977
-2.15459e-06
0.0029942
-0.00584957
0.00299326
-0.00584909
-3.93918e-06
0.00612847
-0.00605
-5.61416e-06
0.00612507
-0.00604832
-5.93432e-06
0.00612243
-0.00604752
-5.17352e-06
0.00612017
-0.00604717
-3.38898e-06
0.0061182
-0.00604727
0.00611583
-0.0060476
-7.62592e-06
0.00950683
-0.00640851
-1.05643e-05
0.00949874
-0.00640281
-1.11016e-05
0.00949289
-0.00640075
-9.7509e-06
0.00948811
-0.0064002
-6.34375e-06
0.0094839
-0.00640099
0.00947887
-0.00640289
-1.45135e-05
0.0133182
-0.00699903
-2.00527e-05
0.0133005
-0.00698967
-2.08318e-05
0.013289
-0.00698696
-1.81623e-05
0.0132802
-0.00698709
-1.17656e-05
0.0132726
-0.00699002
0.0132634
-0.00699595
-2.72647e-05
0.0179742
-0.00799437
-3.56823e-05
0.0179387
-0.00798845
-3.5089e-05
0.0179184
-0.00798883
-2.92314e-05
0.0179048
-0.00799242
-1.83605e-05
0.0178939
-0.00800004
0.0178801
-0.0080128
-4.64606e-05
0.023957
-0.0093895
-5.37598e-05
0.0238937
-0.00940949
-4.68295e-05
0.0238651
-0.00942376
-3.4662e-05
0.0238511
-0.00943767
-1.99359e-05
0.0238431
-0.00945434
0.023831
-0.009476
-6.18209e-05
0.0311181
-0.0105696
-5.25327e-05
0.0310232
-0.0106532
-2.65737e-05
0.0309961
-0.0106961
-3.91731e-06
0.0309962
-0.0107251
6.2182e-06
0.0310081
-0.010748
0.0310162
-0.0107666
-3.11725e-05
0.0383899
-0.0102509
2.56575e-05
0.0382818
-0.0104138
9.02026e-05
0.0382726
-0.0104775
0.000123853
0.0383093
-0.0105016
0.000102911
0.038367
-0.0104989
0.0384291
-0.010467
7.28478e-05
0.0422591
-0.00565358
0.000202815
0.0421814
-0.00584003
0.000302706
0.042205
-0.0058686
0.000334325
0.0422774
-0.0058297
0.00025395
0.0423801
-0.0057348
0.0425058
-0.00557422
0.000213626
0.0390552
0.00300426
0.000318988
0.0390346
0.00298607
0.000351325
0.0391023
0.0030437
0.00031915
0.0392172
0.00313481
0.000209103
0.0393758
0.00325949
0.0395807
0.00342263
0.00015888
0.0275724
0.0237531
0.00016255
0.0276255
0.0239376
0.000107617
0.0277141
0.0240589
4.40924e-05
0.0278218
0.0241587
-6.30514e-06
0.0279643
0.0242722
0.0281411
0.0244048
-0.000159218
0.0421325
-0.000312189
0.0422931
-0.000415294
0.0423681
-0.000426899
0.0424
-0.000327385
0.0424557
0.0424795
-1.74284e-06
0.00301284
-0.00886191
-2.62327e-06
0.00301198
-0.00886226
-2.67984e-06
0.00301137
-0.008862
-2.15571e-06
0.00301095
-0.00886173
-1.27858e-06
0.00301074
-0.00886152
0.00301053
-0.00886086
-3.35244e-06
0.00621596
-0.00925043
-4.06437e-06
0.00621377
-0.00924932
-3.74975e-06
0.00621232
-0.00924858
-2.76664e-06
0.00621132
-0.00924825
-1.46387e-06
0.00621083
-0.00924837
0.00621045
-0.00924848
-6.1736e-06
0.00975832
-0.00994427
-6.948e-06
0.00975312
-0.00994009
-6.01353e-06
0.00975012
-0.00993844
-4.144e-06
0.00974829
-0.00993812
-1.90653e-06
0.00974753
-0.00993909
0.00974723
-0.00994089
-1.05439e-05
0.0137003
-0.0109296
-1.1275e-05
0.0136889
-0.0109236
-8.96438e-06
0.0136839
-0.010922
-5.42244e-06
0.0136816
-0.010923
-1.89954e-06
0.0136815
-0.0109264
0.0136825
-0.0109324
-1.54496e-05
0.017738
-0.0120162
-1.34575e-05
0.0177157
-0.0120166
-7.29404e-06
0.0177095
-0.0120199
-1.07103e-06
0.0177095
-0.0120256
2.40652e-06
0.0177136
-0.0120346
0.0177198
-0.0120473
-1.1017e-05
0.0213123
-0.0129528
8.94609e-07
0.021275
-0.0129803
1.56828e-05
0.0212701
-0.0129986
2.42025e-05
0.0212787
-0.013015
2.1083e-05
0.021295
-0.0130323
0.0213158
-0.013051
2.53434e-05
0.0242462
-0.0135289
6.26155e-05
0.0241943
-0.0136097
8.88814e-05
0.024199
-0.0136513
9.37156e-05
0.0242281
-0.0136796
6.84274e-05
0.0242712
-0.0136991
0.0243255
-0.0137081
0.000116567
0.0262403
-0.0123614
0.000190751
0.0261949
-0.0124884
0.000223186
0.0262259
-0.0125368
0.000209929
0.0262926
-0.012553
0.000141484
0.0263825
-0.0125417
0.0264958
-0.0124963
0.000234411
0.0265387
-0.00618633
0.000311137
0.0265556
-0.00627734
0.00030638
0.026639
-0.00627695
0.000244324
0.0267603
-0.00623523
0.000135621
0.0269084
-0.00615271
0.0270801
-0.00602272
0.000282509
0.0306759
-0.00141585
0.00037592
0.0308186
-0.00137155
0.00036255
0.030973
-0.00127732
0.000277164
0.0311376
-0.00115825
0.000151954
0.0313029
-0.00101043
0.0314714
-0.000817482
9.5808e-06
-0.000154387
0.0545732
-9.46733e-05
7.17732e-06
0.0548517
-0.000206856
0.000137481
0.055006
-0.000263541
0.000253493
0.0550978
-0.000225835
0.000340615
0.0551961
0.000413561
0.055236
-0.000235077
0.0422122
-0.000400495
0.0424639
-0.000465534
0.0425692
-0.000457254
0.0426441
-0.000181665
0.0425198
0.0427108
-1.39027e-06
0.00286557
-0.0117266
-1.68461e-06
0.00286478
-0.0117272
-1.45971e-06
0.00286448
-0.0117269
-9.5953e-07
0.00286446
-0.0117267
-4.34573e-07
0.00286467
-0.0117266
0.00286485
-0.0117257
-2.52577e-06
0.00601462
-0.0123972
-2.18072e-06
0.00601269
-0.0123969
-1.26204e-06
0.00601209
-0.0123964
-2.58877e-07
0.00601216
-0.0123962
3.56701e-07
0.00601275
-0.0123963
0.00601329
-0.0123959
-3.89771e-06
0.00979095
-0.0137159
-2.51278e-06
0.00978691
-0.0137142
-3.50648e-07
0.00978605
-0.0137134
1.45305e-06
0.00978663
-0.0137134
1.98896e-06
0.00978821
-0.0137142
0.00978983
-0.0137149
-3.94017e-06
0.0147431
-0.0158768
-5.84008e-07
0.0147357
-0.0158746
3.68787e-06
0.0147352
-0.0158745
6.47185e-06
0.0147377
-0.0158759
6.07946e-06
0.014742
-0.0158788
0.0147464
-0.0158823
1.48983e-06
0.0219096
-0.0191836
9.88093e-06
0.0218983
-0.0191869
1.74191e-05
0.0218996
-0.019191
2.04967e-05
0.0219067
-0.0191967
1.60922e-05
0.0219169
-0.0192043
0.0219279
-0.0192126
1.96007e-05
0.0324922
-0.0235546
3.90618e-05
0.0324783
-0.0235791
5.08946e-05
0.0324854
-0.0235957
5.15721e-05
0.0325026
-0.0236112
3.66138e-05
0.0325259
-0.0236265
0.0325529
-0.0236396
5.91811e-05
0.0472078
-0.0283036
9.46649e-05
0.0472032
-0.0283699
0.000109432
0.0472255
-0.0284063
0.00010296
0.0472625
-0.0284334
6.97262e-05
0.0473113
-0.0284514
0.0473708
-0.028456
0.000115166
0.0664962
-0.0317651
0.000161566
0.0665338
-0.0318656
0.000168021
0.0665872
-0.0319052
0.000147167
0.0666524
-0.031922
9.33614e-05
0.0667354
-0.0319115
0.0668362
-0.031868
0.000131881
0.0862601
-0.0260822
0.000144846
0.0863883
-0.0261448
0.000108107
0.086478
-0.0261311
6.39092e-05
0.0865499
-0.0260884
1.42687e-05
0.086634
-0.0260021
0.0867079
-0.0258796
1.31605e-05
0.10057
-0.0157394
-7.74793e-05
0.100767
-0.0156598
-0.000184224
0.10085
-0.0155431
-0.000227518
0.100874
-0.0154403
-0.000216914
0.100907
-0.0152943
0.100842
-0.0151696
-0.000334625
0.0909037
0.0645738
-0.000504078
0.0910541
0.0647327
-0.000572914
0.0910846
0.0648396
-0.000496287
0.0910309
0.0648639
-0.000359788
0.0910159
0.06495
0.090839
0.0648801
-0.000318448
0.133433
-0.000351564
0.13355
-0.000299283
0.1336
-0.000171987
0.133547
-0.000311151
0.133673
0.133238
2.2715e-05
-1.62371
0.0914057
1.83853e-05
-1.62388
0.09141
-1.4009e-06
-1.62385
0.0914097
-1.84877e-05
-1.62385
0.0914094
-2.04939e-05
-1.62387
0.0914106
-1.62371
0.0913958
2.83343e-05
-1.65252
0.0287769
6.57866e-06
-1.65264
0.0287779
-7.21236e-06
-1.65262
0.0287771
-1.77841e-05
-1.65262
0.0287782
-3.26927e-05
-1.65264
0.0287789
-1.65252
0.0287706
2.41562e-05
0.0260284
6.87207e-06
0.0260268
-2.14381e-06
0.0260269
-9.72413e-06
0.0260266
-2.59265e-05
0.0260261
0.0260271
2.02238e-05
-1.69265
0.242587
3.55575e-07
-1.69281
0.242611
-1.51092e-05
-1.69278
0.24261
-2.06463e-05
-1.69278
0.242605
-2.65993e-05
-1.6928
0.242607
-1.69262
0.24258
2.31729e-05
-1.73334
0.0694369
2.6088e-06
-1.73346
0.0694425
-1.05071e-05
-1.73344
0.0694422
-2.10203e-05
-1.73344
0.0694438
-3.9643e-05
-1.73345
0.0694465
-1.73332
0.0694363
2.28677e-05
0.03821
6.0992e-06
0.038208
-3.83968e-06
0.0382087
-1.34052e-05
0.0382093
-3.06427e-05
0.0382096
0.038212
2.79571e-05
-1.60113
0.449558
7.73398e-06
-1.60129
0.449596
-6.94984e-06
-1.60126
0.449589
-2.07198e-05
-1.60126
0.449583
-4.02723e-05
-1.6013
0.449587
-1.6011
0.449539
2.742e-05
-1.6863
0.154586
1.00011e-05
-1.68642
0.154586
4.274e-07
-1.6864
0.154588
-1.27395e-05
-1.6864
0.154592
-4.05097e-05
-1.68642
0.154596
-1.6863
0.154597
2.14649e-05
0.0608079
5.74965e-06
0.060807
-3.61596e-06
0.0608078
-1.17149e-05
0.0608083
-2.66095e-05
0.0608088
0.0608104
3.16406e-05
-1.93185
0.576555
1.00843e-05
-1.93204
0.576597
-8.45697e-06
-1.93202
0.576581
-2.99862e-05
-1.93202
0.576574
-6.01545e-05
-1.93207
0.576576
-1.93186
0.576518
4.15372e-05
-1.89266
0.115349
2.58413e-05
-1.89278
0.11534
1.49058e-05
-1.89276
0.115345
-2.92656e-06
-1.89276
0.11535
-4.02841e-05
-1.89279
0.115351
-1.89267
0.115368
2.64917e-05
0.0397217
8.14205e-06
0.0397209
-8.62605e-08
0.03972
-7.57097e-06
0.0397191
-2.57194e-05
0.0397187
0.0397186
3.51929e-05
-2.01343
0.538396
1.48445e-05
-2.01363
0.538438
-3.60086e-06
-2.0136
0.538418
-2.59662e-05
-2.01361
0.538412
-5.43857e-05
-2.01366
0.538416
-2.01346
0.538357
4.67824e-05
-1.92773
0.0296091
2.92273e-05
-1.92786
0.0295911
1.61526e-05
-1.92784
0.029599
-2.04212e-06
-1.92785
0.0296039
-3.78237e-05
-1.92787
0.0295991
-1.92776
0.0296295
2.64835e-05
0.0136874
7.49674e-06
0.0136871
-1.21159e-07
0.0136844
-7.56234e-06
0.0136819
-2.84239e-05
0.0136811
0.0136777
3.70236e-05
-2.17122
0.227314
2.04258e-05
-2.17139
0.227343
4.57524e-06
-2.17137
0.227314
-9.31259e-06
-2.17137
0.227296
-3.23853e-05
-2.1714
0.227304
-2.17124
0.227267
3.36283e-05
-2.05853
-0.0831124
1.14853e-05
-2.05865
-0.0831284
1.24032e-06
-2.05864
-0.0831201
-5.16715e-06
-2.05864
-0.0831153
-2.57617e-05
-2.05866
-0.0831223
-2.05853
-0.0830994
2.07242e-05
-0.0255284
8.84012e-07
-0.0255284
-7.45597e-06
-0.0255301
-1.17885e-05
-0.0255334
-2.74866e-05
-0.0255322
-0.0255385
-1.94948e-05
-2.20363
-0.415728
5.25434e-06
-2.20376
-0.415779
2.11715e-06
-2.20378
-0.415814
1.43594e-05
-2.2038
-0.415876
6.72246e-05
-2.20384
-0.415916
-2.20366
-0.415776
9.11366e-06
-2.02759
-0.259165
5.88856e-06
-2.02769
-0.259198
1.41409e-07
-2.02768
-0.259214
3.99665e-07
-2.02767
-0.259243
-1.05501e-05
-2.02768
-0.259273
-2.02754
-0.25922
1.2835e-05
0.0206997
-1.93827e-06
0.0207064
-1.21113e-05
0.0207065
-1.96162e-05
0.0207023
-3.2677e-05
0.0207095
0.0206935
-3.07683e-05
-2.47336
0.279315
7.0433e-05
-2.47351
0.279166
7.49185e-05
-2.47352
0.279238
8.35434e-06
-2.47352
0.279284
-0.00020095
-2.47365
0.279425
-2.47329
0.27913
-5.33556e-06
-1.94617
-0.786353
-2.80489e-05
-1.94627
-0.786422
-5.57334e-05
-1.94626
-0.786455
-3.49607e-05
-1.94627
-0.786517
-5.72943e-05
-1.94634
-0.786561
-1.94611
-0.786468
1.81853e-05
0.0522544
-2.19524e-06
0.0522469
-1.56818e-05
0.0522415
-1.16441e-05
0.0522109
-4.68119e-05
0.0522443
0.0522367
2.36321e-05
0.0105165
3.16435
0.000194528
0.0102701
3.16424
0.000218632
0.0104628
3.16434
7.84278e-05
0.0107242
3.16444
-0.000229016
0.0109958
3.16473
0.0102552
3.16406
6.12412e-06
-1.71394
0.938099
-7.23661e-05
-1.71408
0.938005
-0.000103265
-1.71399
0.938036
-4.08258e-05
-1.71392
0.938065
0.000139853
-1.71395
0.938201
-1.71391
0.937839
-2.49028e-05
0.493888
-5.38863e-05
0.493768
-8.22749e-05
0.493862
-3.51057e-05
0.493835
5.01827e-05
0.493889
0.493834
9.63479e-05
5.49513
3.59967
0.000171428
5.49559
3.59984
0.000201341
5.49561
3.59983
0.00012683
5.49571
3.59991
0.000147891
5.49579
3.60015
5.49559
3.59954
1.37045e-06
2.96782
3.46541
0.000189164
2.96784
3.46557
0.000271278
2.96804
3.46552
0.000156584
2.96824
3.46565
-7.4541e-05
2.96811
3.4661
2.96828
3.46507
4.82091e-05
2.75828
-7.14311e-05
2.75839
-0.000152133
2.7584
-0.000169476
2.75822
-0.000425177
2.75853
2.75798
0.000213015
5.80093
2.25249
0.000178115
5.80186
2.25281
0.000240045
5.80162
2.25274
8.28369e-05
5.80145
2.25311
-0.000449816
5.80173
2.25357
5.80135
2.25209
0.00029867
5.95275
3.31329
0.000274668
5.9535
3.31396
0.000331359
5.95336
3.31374
0.000108153
5.95374
3.31358
-0.000401616
5.95509
3.31326
5.95175
3.31427
0.000160921
4.3074
0.000293388
4.3077
0.000585366
4.30752
0.000117029
4.30777
-0.00213154
4.30917
4.30599
6.25594e-05
2.75339
1.65037
5.81011e-05
2.75384
1.65054
-2.67292e-06
2.75377
1.65052
9.7672e-05
2.75386
1.65065
0.000231069
2.75392
1.65119
2.75368
1.64995
0.000279307
3.37607
2.69033
4.92931e-05
3.37741
2.69061
-0.000413551
3.37734
2.69063
5.08804e-05
3.3761
2.69086
0.00156251
3.37446
2.6912
3.3791
2.69041
0.000192372
4.86134
0.00032524
4.86165
0.000477326
4.86142
1.59374e-05
4.86217
-0.00183394
4.86441
4.85843
0.000247063
0.726586
-0.766989
0.0401559
0.000148645
0.727325
-0.767838
0.0406116
0.000488578
0.72669
-0.767451
0.0404215
7.46571e-05
0.726737
-0.766666
0.040344
-0.00393935
0.729804
-0.767768
0.0419788
0.723892
-0.766969
0.039137
0.000873835
-0.351041
2.38481
-1.30806
-0.000264521
-0.350024
2.38678
-1.30829
0.00100588
-0.351874
2.38563
-1.30834
0.000180948
-0.347952
2.38318
-1.30767
-0.00628711
-0.339177
2.38532
-1.30988
-0.360157
2.38394
-1.30618
-0.000207014
0.938971
-0.810213
-0.00228996
0.940788
-0.810008
-0.00778652
0.943926
-0.809587
-0.00197041
0.933484
-0.812691
0.0275739
0.915007
-0.822929
0.960164
-0.798766
-0.000106759
0.549585
-1.31647
-0.000162971
0.549165
-1.31695
-0.00203222
0.550024
-1.31561
-0.000939495
0.545916
-1.31368
0.00478872
0.539965
-1.31346
0.557018
-1.3192
0.00188703
2.01565
0.91686
-0.0013603
2.01649
0.9227
-0.00451096
2.0163
0.922507
-0.00290423
2.01634
0.911155
0.00767275
2.02357
0.891141
2.00684
0.941793
0.00038936
-1.33628
0.00156631
-1.33317
0.0054861
-1.32927
-0.000381085
-1.34631
-0.0193712
-1.39016
-1.28952
-0.000735658
-1.09753
-0.218206
0.000591184
-1.10089
-0.217382
0.00175582
-1.10019
-0.216581
0.0010668
-1.09546
-0.217528
-0.00562407
-1.08597
-0.220795
-1.10915
-0.215675
0.000168167
1.48624
-1.66707
0.00037429
1.48564
-1.66404
0.000801486
1.48516
-1.66327
-0.000245102
1.48882
-1.67207
-0.00133831
1.49834
-1.69208
1.47483
-1.64352
0.000255008
-3.75567
0.000520441
-3.75663
0.00445279
-3.75561
0.00221496
-3.75921
-0.0176139
-3.77266
-3.74228
-0.00036094
-0.0795684
-0.138277
0.000744117
-0.0803219
-0.138165
0.00246322
-0.080191
-0.138109
0.00102861
-0.077658
-0.138436
-0.00778654
-0.0726627
-0.139317
-0.0861365
-0.137326
-0.000197146
1.07719
-2.82363
0.000524681
1.07847
-2.82355
0.00258934
1.07805
-2.82357
0.00130052
1.07641
-2.82485
-0.0086704
1.07408
-2.82884
1.08078
-2.81911
0.000789702
-4.89574
1.09484e-05
-4.89666
-0.000289337
-4.8959
0.000272778
-4.89735
0.000350971
-4.90363
-4.88909
0.00010236
0.6004
-0.738779
6.53697e-05
0.600507
-0.738635
5.65303e-05
0.600494
-0.738594
0.000105345
0.600653
-0.739137
1.4614e-05
0.6014
-0.740626
0.599917
-0.737228
0.000119089
0.395015
-2.61836
0.000123053
0.39554
-2.61859
0.000163124
0.39562
-2.61874
0.000475071
0.394138
-2.61865
-0.000302474
0.39191
-2.61858
0.399441
-2.61893
0.000484475
-4.82953
0.000214592
-4.82974
0.000758243
-4.82973
0.000975288
-4.83104
-0.00328351
-4.83344
-4.82566
5.96572e-06
0.911582
0.000102793
0.911805
0.000236036
0.911797
0.000185659
0.911566
-0.000323716
0.911073
0.912397
0.000123954
0.98343
9.5883e-05
0.983855
1.97682e-05
0.98376
0.000171667
0.983633
0.00020406
0.983666
0.984077
0.00026662
0.000346461
0.000274027
-0.000241358
-0.000777718
-6.26508e-07
-0.0138593
0.002133
-6.69004e-07
-0.0138602
0.00213306
-5.19807e-07
-0.0138601
0.00213319
-2.56065e-07
-0.01386
0.00213338
-2.05006e-08
-0.0138599
0.00213363
-0.0138589
0.00213372
-2.96345e-07
-0.0152456
0.0013865
-2.82699e-07
-0.0152466
0.00138662
-1.85288e-07
-0.0152465
0.00138673
-3.17818e-08
-0.0152465
0.00138685
1.21901e-07
-0.0152465
0.00138699
-0.0152454
0.001387
-9.78802e-08
0.000373851
-7.80503e-08
0.000373905
-3.07613e-08
0.000373951
4.36075e-08
0.000374001
1.33586e-07
0.000374048
0.000374042
-8.53897e-07
-0.0147509
0.00448777
-3.48832e-07
-0.0147516
0.00448814
2.74213e-07
-0.0147515
0.00448851
7.45837e-07
-0.0147514
0.004489
8.69629e-07
-0.0147515
0.00448951
-0.0147506
0.00448964
-1.75288e-07
-0.0163622
0.00299838
1.24987e-07
-0.0163632
0.00299871
3.66045e-07
-0.0163632
0.00299892
5.29539e-07
-0.0163632
0.00299915
5.51397e-07
-0.0163633
0.00299935
-0.0163623
0.00299926
2.62882e-08
0.000659459
1.17525e-07
0.000659554
1.90854e-07
0.000659613
2.39128e-07
0.000659672
2.30966e-07
0.000659711
0.000659657
-4.76018e-07
-0.0164987
0.00727203
9.18206e-07
-0.0164994
0.00727314
2.19665e-06
-0.0164993
0.00727406
2.83288e-06
-0.0164995
0.00727516
2.37081e-06
-0.0164999
0.0072762
-0.0164993
0.00727652
3.94054e-07
-0.0187427
0.00524269
9.68023e-07
-0.0187439
0.00524326
1.31297e-06
-0.0187441
0.00524362
1.32629e-06
-0.0187443
0.00524405
9.06911e-07
-0.0187446
0.00524445
-0.0187435
0.00524441
2.2134e-07
0.000673015
3.58523e-07
0.000673107
4.2258e-07
0.00067318
3.70314e-07
0.000673277
1.83951e-07
0.000673366
0.000673394
1.74076e-06
-0.0190907
0.0104851
4.68782e-06
-0.0190916
0.0104878
6.81897e-06
-0.0190921
0.01049
7.38818e-06
-0.019093
0.0104923
5.56367e-06
-0.0190943
0.0104942
-0.0190945
0.0104947
1.1965e-06
-0.0227975
0.00894861
2.37318e-06
-0.0227992
0.00894982
3.03953e-06
-0.0227996
0.0089507
2.98826e-06
-0.0228003
0.00895165
2.045e-06
-0.022801
0.0089525
-0.0228
0.00895252
2.93864e-07
4.98296e-05
6.10754e-07
4.99858e-05
7.69981e-07
5.01667e-05
7.22087e-07
5.04039e-05
5.30572e-07
5.05921e-05
5.07155e-05
8.72268e-06
-0.0226445
0.0139376
1.45503e-05
-0.0226476
0.0139432
1.72539e-05
-0.02265
0.0139469
1.64889e-05
-0.022653
0.0139501
1.12945e-05
-0.0226563
0.0139522
-0.0226581
0.0139518
3.66983e-06
-0.0291667
0.0154673
6.29192e-06
-0.0291695
0.0154697
7.49347e-06
-0.0291709
0.015471
7.09748e-06
-0.0291725
0.0154722
4.74549e-06
-0.0291741
0.0154731
-0.0291733
0.0154723
8.09482e-07
-0.00178673
1.55485e-06
-0.00178657
1.94055e-06
-0.00178643
1.80593e-06
-0.00178617
1.35186e-06
-0.00178619
-0.00178609
2.46563e-05
-0.0273965
0.0177551
3.34638e-05
-0.027407
0.0177627
3.39651e-05
-0.0274141
0.0177652
2.83492e-05
-0.0274212
0.0177657
1.69703e-05
-0.0274277
0.0177643
-0.0274309
0.0177599
9.77705e-06
-0.0387674
0.0268288
1.39327e-05
-0.0387727
0.0268316
1.44258e-05
-0.0387758
0.0268324
1.22548e-05
-0.0387791
0.0268318
6.79381e-06
-0.0387818
0.0268319
-0.0387811
0.0268287
1.8782e-06
-0.00527185
2.78791e-06
-0.00527205
3.13e-06
-0.00527257
2.38498e-06
-0.00527255
1.30385e-06
-0.00527325
-0.00527295
4.53025e-05
-0.0333666
0.022773
5.11101e-05
-0.0333895
0.0227764
4.2195e-05
-0.0334024
0.0227699
2.70931e-05
-0.0334131
0.0227601
1.11638e-05
-0.0334202
0.0227489
-0.03342
0.0227355
1.61471e-05
-0.0529337
0.0463799
1.97887e-05
-0.0529425
0.0463809
1.64373e-05
-0.0529471
0.0463801
1.21766e-05
-0.0529511
0.0463736
4.06635e-06
-0.0529538
0.0463738
-0.0529512
0.0463643
2.21115e-06
-0.0104836
2.52466e-06
-0.0104848
2.40934e-06
-0.0104868
1.21026e-06
-0.0104871
8.04685e-07
-0.0104893
-0.0104885
4.2829e-05
-0.039445
0.0304103
2.86713e-05
-0.0394752
0.0304001
1.03863e-06
-0.0394862
0.0303784
-2.295e-05
-0.0394915
0.0303539
-2.82141e-05
-0.0394874
0.0303307
-0.0394717
0.0303108
1.37933e-05
-0.0739546
0.0808755
1.20832e-05
-0.0739648
0.080872
1.78001e-06
-0.0739676
0.0808724
-2.98369e-06
-0.0739669
0.0808548
-1.1663e-05
-0.0739662
0.0808623
-0.0739574
0.0808383
-1.74796e-07
-0.014518
-2.25628e-06
-0.0145217
-4.22883e-06
-0.0145252
-4.94518e-06
-0.0145275
-5.31671e-06
-0.0145297
-0.0145343
-8.12352e-06
-0.0456267
0.049963
-5.64864e-05
-0.0456423
0.0499462
-0.000103695
-0.0456336
0.0499284
-0.000123736
-0.0456179
0.0499037
-0.000104023
-0.0455906
0.0498993
-0.0455457
0.0498721
-6.24235e-06
-0.110554
0.14581
-2.01125e-05
-0.110561
0.145805
-3.85613e-05
-0.110561
0.145818
-3.69726e-05
-0.11055