/*--------------------------------*- C++ -*----------------------------------*\
| =========                 |                                                 |
| \\      /  F ield         | OpenFOAM: The Open Source CFD Toolbox           |
|  \\    /   O peration     | Version:  v1612+                                |
|   \\  /    A nd           | Web:      www.OpenFOAM.com                      |
|    \\/     M anipulation  |                                                 |
\*---------------------------------------------------------------------------*/
FoamFile
{
    version     2.0;
    format      ascii;
    class       surfaceScalarField;
    location    "3.3";
    object      alphaPhi;
}
// * * * * * * * * * * * * * * * * * * * * * * * * * * * * * * * * * * * * * //

dimensions      [0 3 -1 0 0 0 0];

internalField   nonuniform List<scalar> 
2916
(
1.09195e-07
0.318792
-0.148023
5.66246e-06
0.31879
-0.148025
5.15225e-06
0.318791
-0.148021
1.47493e-06
0.318793
-0.148023
1.45246e-06
0.318792
-0.148026
0.318788
-0.148017
3.96823e-06
0.627939
-0.138082
5.21856e-06
0.62794
-0.138082
6.53024e-06
0.627941
-0.138081
1.48532e-06
0.627943
-0.138077
-4.90185e-06
0.627942
-0.138077
0.627935
-0.138083
6.33869e-06
0.854558
-0.0770408
5.26264e-06
0.854564
-0.0770394
5.96394e-06
0.854564
-0.0770394
2.02564e-06
0.854565
-0.0770371
-5.13008e-06
0.854565
-0.077036
0.854555
-0.0770405
6.51359e-06
1.03723
-0.0578537
5.18162e-06
1.03723
-0.0578516
5.21542e-06
1.03723
-0.057852
2.33742e-06
1.03724
-0.0578504
-3.56212e-06
1.03724
-0.057849
1.03722
-0.0578526
5.36368e-06
1.18917
-0.0507889
4.45277e-06
1.18918
-0.0507869
3.81016e-06
1.18918
-0.050787
1.44613e-06
1.18918
-0.0507859
-2.55196e-06
1.18918
-0.0507847
1.18917
-0.0507874
3.92673e-06
1.31006
-0.0443362
3.34361e-06
1.31008
-0.0443347
1.97186e-06
1.31007
-0.0443344
-1.86153e-07
1.31007
-0.0443336
-1.94816e-06
1.31007
-0.0443332
1.31006
-0.0443344
1.10993e-06
1.39576
-0.0332211
1.55574e-06
1.39578
-0.0332205
-2.92855e-07
1.39578
-0.0332197
-1.98155e-06
1.39578
-0.0332191
-7.20207e-07
1.39577
-0.0332197
1.39576
-0.033219
-1.72402e-06
1.3548
0.0438413
8.91586e-07
1.35482
0.0438374
-1.83726e-06
1.35482
0.0438407
-3.93291e-06
1.35481
0.0438412
-3.09335e-07
1.35481
0.0438361
1.35479
0.0438441
-8.6111e-07
1.02596
0.329035
1.1549e-06
1.02599
0.329021
-2.96593e-06
1.02599
0.329027
-6.03738e-06
1.02599
0.329025
-5.70108e-06
1.026
0.329012
1.02594
0.329033
1.01962e-06
0.414076
0.612083
4.68129e-07
0.414109
0.612081
-4.80224e-06
0.414111
0.612084
-8.22387e-06
0.414106
0.612083
-1.10143e-05
0.414122
0.612074
0.414047
0.612083
1.18646e-05
-0.0975734
0.511836
1.39037e-06
-0.0975438
0.511859
-3.51197e-06
-0.0975411
0.511853
-6.62796e-06
-0.0975433
0.511848
-1.58618e-05
-0.0975218
0.511849
-0.0975882
0.511822
-2.35034e-05
-0.0977932
-2.25933e-05
-0.0977813
-1.63726e-05
-0.0977796
-6.23939e-06
-0.0977847
2.088e-05
-0.0977871
-0.0978228
-1.26726e-06
0.0745236
-1.24419e-06
-3.90806e-07
0.0745223
-1.24418e-06
1.35048e-06
0.0745234
-1.24438e-06
2.90282e-06
0.0745212
-1.24457e-06
2.39221e-06
0.07452
-1.24456e-06
0.0745264
-1.24458e-06
-3.70582e-07
0.0599128
-5.29751e-06
-3.3033e-07
0.0599116
-5.29741e-06
1.84669e-06
0.0599113
-5.29761e-06
2.29097e-06
0.0599101
-5.29752e-06
4.58375e-08
0.0599102
-5.29709e-06
0.0599138
-5.29767e-06
7.57727e-07
0.079574
-1.4293e-07
1.35042e-07
0.0795737
-1.42981e-07
1.54607e-06
0.0795722
-1.42959e-07
1.58239e-06
0.0795714
-1.42959e-07
-1.08849e-06
0.0795724
-1.42996e-07
0.0795739
-1.42931e-07
1.79535e-06
0.132064
-1.69285e-07
4.81892e-07
0.132066
-1.69242e-07
1.82174e-06
0.132062
-1.69249e-07
1.75958e-06
0.132062
-1.69197e-07
-1.75921e-06
0.132064
-1.6917e-07
0.132063
-1.69312e-07
3.37524e-06
0.218062
-1.91883e-07
8.36806e-07
0.218066
-1.91871e-07
2.13232e-06
0.218061
-1.91868e-07
2.25382e-06
0.218061
-1.91851e-07
-2.38399e-06
0.218065
-1.91838e-07
0.218061
-1.91864e-07
5.38263e-06
0.350077
-1.95348e-08
1.11123e-06
0.350085
-1.95334e-08
2.38306e-06
0.350076
-1.95273e-08
2.88744e-06
0.350076
-1.9522e-08
-2.92834e-06
0.350084
-1.9528e-08
0.350076
-1.9529e-08
7.80195e-06
0.571369
-1.32783e-09
1.11937e-06
0.57138
-1.34862e-09
2.59589e-06
0.571367
-1.34843e-09
3.56001e-06
0.571368
-1.34818e-09
-3.6342e-06
0.57138
-1.36278e-09
0.57137
-1.32413e-09
1.09246e-05
0.879523
0.00262956
2.39991e-06
0.879546
0.00263092
3.75182e-06
0.879527
0.00262977
4.43094e-06
0.879528
0.00262978
-4.08699e-06
0.879544
0.002631
0.879534
0.00262977
2.48637e-05
1.25778
0.0647049
7.70046e-06
1.25785
0.0646908
7.73744e-06
1.25781
0.0646952
6.77334e-06
1.25781
0.0646948
-8.75333e-06
1.25783
0.064692
1.2578
0.0646988
4.2778e-05
1.19772
0.500357
2.04028e-05
1.19787
0.500335
1.03471e-05
1.19781
0.50034
1.14083e-06
1.19781
0.500339
-2.23044e-05
1.19785
0.50033
1.19775
0.500354
4.26449e-05
0.599068
1.11067
1.51908e-05
0.599225
1.11075
4.67039e-06
0.599174
1.11072
-5.22195e-06
0.599172
1.11071
-2.55842e-05
0.599217
1.11072
0.599094
1.11068
-6.74438e-05
0.499539
-2.8553e-05
0.499615
-1.06767e-05
0.499593
3.94053e-06
0.49959
4.53425e-05
0.49961
0.499535
-4.08456e-12
1.59033e-08
-1.2423e-06
-2.32618e-12
1.59024e-08
-1.24229e-06
-7.89525e-13
1.59034e-08
-1.24249e-06
1.54554e-12
1.59042e-08
-1.24268e-06
4.31295e-12
1.59049e-08
-1.24267e-06
1.59073e-08
-1.24268e-06
-8.21881e-12
6.49732e-08
-5.34164e-06
-3.70625e-12
6.49704e-08
-5.34154e-06
-1.07507e-13
6.49709e-08
-5.34175e-06
4.36202e-12
6.49683e-08
-5.34165e-06
9.90503e-12
6.49662e-08
-5.34122e-06
6.4975e-08
-5.34179e-06
-5.96714e-13
8.86521e-09
-8.3425e-08
-2.22385e-13
8.86599e-09
-8.34831e-08
2.83506e-14
8.86537e-09
-8.34615e-08
3.03805e-13
8.86459e-09
-8.34635e-08
7.17561e-13
8.86526e-09
-8.35025e-08
8.86508e-09
-8.34241e-08
-4.12512e-13
8.89769e-09
-1.69231e-07
-1.555e-13
8.8964e-09
-1.69189e-07
1.88411e-14
8.89662e-09
-1.69201e-07
2.05616e-13
8.89478e-09
-1.69147e-07
5.17743e-13
8.89374e-09
-1.69116e-07
8.89787e-09
-1.69256e-07
-3.3183e-13
9.76295e-09
-1.94979e-07
-1.65262e-13
9.76307e-09
-1.94971e-07
-2.26827e-14
9.7631e-09
-1.94973e-07
1.35031e-13
9.76242e-09
-1.94959e-07
3.61599e-13
9.76184e-09
-1.9494e-07
9.76171e-09
-1.94955e-07
-8.76976e-14
2.74313e-09
-1.46814e-08
-6.68905e-14
2.74364e-09
-1.46825e-08
-3.41449e-14
2.74405e-09
-1.46816e-08
6.85631e-15
2.74386e-09
-1.46795e-08
5.6614e-14
2.74298e-09
-1.46769e-08
2.74182e-09
-1.46722e-08
-4.55361e-14
1.21133e-09
-1.0801e-09
-1.99697e-14
1.21312e-09
-1.09608e-09
-2.05722e-14
1.21392e-09
-1.09743e-09
-1.61459e-14
1.21405e-09
-1.09875e-09
2.72186e-14
1.2138e-09
-1.10643e-09
1.21035e-09
-1.07575e-09
-5.00063e-09
0.00258685
5.35556e-05
-8.23932e-09
0.00258818
5.35817e-05
-8.19417e-09
0.00258706
5.35538e-05
-5.30192e-09
0.00258707
5.35531e-05
8.12704e-09
0.00258825
5.35753e-05
0.00258705
5.35655e-05
9.72035e-07
0.0629292
0.00321094
1.97672e-07
0.0629181
0.00321082
1.99033e-07
0.0629207
0.00321074
2.05793e-07
0.0629203
0.0032107
-5.26055e-07
0.0629196
0.00321069
0.0629237
0.00321104
7.6517e-06
0.371595
0.0560816
3.90756e-06
0.371611
0.0560832
2.55333e-06
0.371599
0.0560796
3.55657e-07
0.3716
0.0560795
-4.3854e-06
0.371606
0.056078
0.371596
0.0560861
0.000138706
0.496091
0.771213
3.94859e-05
0.496395
0.771225
9.62593e-06
0.496294
0.771208
-4.28575e-06
0.496299
0.771197
-5.19952e-05
0.496372
0.771186
0.496174
0.771217
-0.000119054
0.95615
-2.34839e-05
0.956303
-8.51443e-06
0.956266
1.21247e-05
0.956255
9.38492e-05
0.956277
0.956215
-1.60938e-11
-6.59822e-07
-3.52302e-07
-4.27942e-12
-6.59751e-07
-3.52239e-07
-1.68268e-12
-6.59806e-07
-3.52357e-07
-2.11642e-12
-6.59822e-07
-3.52485e-07
7.14752e-12
-6.59775e-07
-3.52502e-07
-6.59929e-07
-3.52519e-07
-1.21622e-11
-5.29233e-07
-3.19001e-06
2.15467e-11
-5.29144e-07
-3.19002e-06
-1.57295e-11
-5.29174e-07
-3.19015e-06
-1.31555e-11
-5.29179e-07
-3.19012e-06
5.47379e-11
-5.29137e-07
-3.18982e-06
-5.29289e-07
-3.1901e-06
3.6826e-13
-1.05169e-07
-6.53676e-07
1.36132e-12
-1.05119e-07
-6.53787e-07
-2.05346e-13
-1.05123e-07
-6.5377e-07
-4.38579e-13
-1.05087e-07
-6.53813e-07
2.02915e-12
-1.05071e-07
-6.53861e-07
-1.05195e-07
-6.53704e-07
-4.48012e-12
-7.70928e-08
-9.71939e-08
-2.38218e-12
-7.7076e-08
-9.70889e-08
-3.70236e-12
-7.70748e-08
-9.71119e-08
-2.71371e-12
-7.70697e-08
-9.7017e-08
4.14942e-12
-7.70676e-08
-9.6986e-08
-7.7088e-08
-9.73028e-08
-1.01938e-11
-3.17592e-08
-1.29546e-07
-6.48479e-12
-3.17482e-08
-1.29547e-07
-6.31685e-12
-3.1749e-08
-1.29543e-07
-4.08924e-12
-3.1745e-08
-1.29531e-07
5.55118e-12
-3.17388e-08
-1.2953e-07
-3.17526e-08
-1.29546e-07
-1.15161e-12
3.78927e-10
-5.40824e-08
-6.73193e-13
3.77826e-10
-5.40735e-08
-5.95617e-13
3.77694e-10
-5.40723e-08
-3.47036e-13
3.77562e-10
-5.40647e-08
6.99553e-13
3.76978e-10
-5.40565e-08
3.79011e-10
-5.4064e-08
-5.8463e-14
-8.61027e-10
-6.42451e-10
-1.80188e-14
-8.60913e-10
-6.4774e-10
-7.48368e-15
-8.60822e-10
-6.4815e-10
1.04353e-14
-8.60358e-10
-6.48521e-10
8.54619e-14
-8.60922e-10
-6.51067e-10
-8.60309e-10
-6.40828e-10
-7.03626e-11
5.35666e-05
-9.91849e-10
4.56915e-11
5.35925e-05
-9.93004e-10
1.23331e-10
5.35647e-05
-9.92265e-10
1.57276e-10
5.3564e-05
-9.92472e-10
3.385e-10
5.3586e-05
-9.93355e-10
5.35767e-05
-9.92254e-10
2.93251e-08
0.00301976
0.000229191
2.73655e-08
0.0030197
0.000229199
3.44453e-08
0.00301959
0.000229194
2.43007e-08
0.00301956
0.000229197
-2.08367e-08
0.0030196
0.000229204
0.00301987
0.000229204
9.71897e-07
0.0521041
0.00687614
5.14811e-07
0.0521069
0.00687634
3.51129e-07
0.052103
0.00687614
1.13077e-07
0.0521029
0.00687619
-1.463e-07
0.0521015
0.00687626
0.0521092
0.00687642
6.42229e-05
0.156483
0.189033
2.07956e-05
0.156645
0.189082
2.46824e-06
0.156586
0.189067
-1.24935e-06
0.156566
0.189068
-1.89771e-05
0.156557
0.189106
0.15658
0.189036
-7.24286e-05
1.06779
6.8563e-06
1.06794
2.47983e-05
1.06791
2.62419e-05
1.06788
-4.96363e-06
1.06792
1.06788
-4.60802e-53
-4.18798e-46
6.75158e-50
-4.33775e-53
-4.07297e-46
6.56709e-50
-4.12212e-53
-3.9974e-46
6.44535e-50
-3.66588e-53
-4.00224e-46
6.45385e-50
-2.1843e-53
-4.0884e-46
6.59079e-50
-3.65595e-46
5.88431e-50
-2.4267e-49
-2.51571e-42
4.36978e-46
-3.16278e-49
-2.44614e-42
4.24919e-46
-3.56606e-49
-2.40056e-42
4.16957e-46
-3.43687e-49
-2.4029e-42
4.17374e-46
-2.03641e-49
-2.45502e-42
4.2624e-46
-2.19925e-42
3.80994e-46
-7.68844e-46
-7.12804e-39
1.39756e-42
-1.24501e-45
-6.92973e-39
1.35886e-42
-1.45778e-45
-6.80042e-39
1.33335e-42
-1.39344e-45
-6.80533e-39
1.33438e-42
-8.33988e-46
-6.95408e-39
1.36297e-42
-6.24378e-39
1.22052e-42
-2.69601e-42
-1.24482e-35
2.85472e-39
-3.63275e-42
-1.20999e-35
2.77452e-39
-3.77426e-42
-1.18744e-35
2.72223e-39
-3.34892e-42
-1.18794e-35
2.72365e-39
-1.98825e-42
-1.21406e-35
2.78244e-39
-1.09318e-35
2.49713e-39
-7.11517e-39
-1.47995e-32
4.05722e-36
-7.78147e-39
-1.43836e-32
3.93917e-36
-6.78614e-39
-1.41168e-32
3.86389e-36
-5.20298e-39
-1.41178e-32
3.86423e-36
-2.83673e-39
-1.4429e-32
3.94784e-36
-1.30387e-32
3.55286e-36
-1.3036e-35
-1.25787e-29
4.10411e-33
-1.19545e-35
-1.22243e-29
3.97534e-33
-8.10636e-36
-1.20005e-29
3.89647e-33
-4.30072e-36
-1.19963e-29
3.89367e-33
-1.50339e-36
-1.22599e-29
3.9773e-33
-1.11277e-29
3.59201e-33
-1.28998e-32
-7.88688e-27
3.00464e-30
-7.61974e-33
-7.66551e-27
2.8998e-30
2.07112e-34
-7.52924e-27
2.8392e-30
5.95647e-33
-7.52343e-27
2.83505e-30
6.87809e-33
-7.68737e-27
2.89668e-30
-7.01568e-27
2.63034e-30
-6.05034e-30
-3.73983e-24
1.40198e-27
2.59762e-30
-3.63681e-24
1.34512e-27
1.25621e-29
-3.57594e-24
1.31631e-27
1.78278e-29
-3.57187e-24
1.3155e-27
1.53789e-29
-3.64855e-24
1.34783e-27
-3.3518e-24
1.23672e-27
1.9055e-27
-1.40333e-21
3.92873e-25
8.51014e-27
-1.36656e-21
3.74414e-25
1.40127e-26
-1.3459e-21
3.68523e-25
1.61664e-26
-1.34385e-21
3.7195e-25
1.27861e-26
-1.37175e-21
3.86125e-25
-1.26939e-21
3.62485e-25
2.55425e-24
-3.42755e-19
-1.00733e-19
5.15755e-24
-3.33379e-19
-9.98232e-20
6.74769e-24
-3.29792e-19
-9.76627e-20
6.9069e-24
-3.30856e-19
-9.5384e-20
5.05171e-24
-3.40023e-19
-9.41899e-20
-3.18837e-19
-8.5513e-20
8.6251e-22
-1.91885e-17
-8.40243e-17
1.17559e-21
-1.87599e-17
-8.23964e-17
1.24478e-21
-1.86239e-17
-8.17709e-17
1.12831e-21
-1.9075e-17
-8.1477e-17
7.74219e-22
-2.03775e-17
-8.25888e-17
-1.81321e-17
-7.90231e-17
-6.8358e-21
9.38847e-17
-2.5835e-20
9.13489e-17
-4.13727e-20
9.056e-17
-4.95788e-20
9.45546e-17
-3.03918e-20
1.06445e-16
7.8552e-17
-4.2289e-52
-5.13084e-45
1.55625e-48
-3.87491e-52
-5.09285e-45
1.54823e-48
-3.41921e-52
-4.96482e-45
1.51097e-48
-2.65907e-52
-4.87725e-45
1.48548e-48
-1.11742e-52
-4.87498e-45
1.48535e-48
-4.27965e-45
1.30648e-48
-2.30612e-48
-3.4003e-41
1.0813e-44
-2.97704e-48
-3.36749e-41
1.07297e-44
-3.02389e-48
-3.28004e-41
1.04577e-44
-2.52832e-48
-3.2202e-41
1.02712e-44
-1.18665e-48
-3.21782e-41
1.0264e-44
-2.82263e-41
9.00755e-45
-1.14413e-44
-1.09304e-37
3.72615e-41
-1.59049e-44
-1.08037e-37
3.68919e-41
-1.566e-44
-1.05186e-37
3.59255e-41
-1.2947e-44
-1.03234e-37
3.52622e-41
-6.89742e-45
-1.03152e-37
3.52275e-41
-9.05492e-38
3.08911e-41
-3.79306e-41
-2.26463e-34
8.30237e-38
-4.19593e-41
-2.23468e-34
8.20238e-38
-3.5096e-41
-2.17572e-34
7.98374e-38
-2.5725e-41
-2.1352e-34
7.83369e-38
-1.39298e-41
-2.13369e-34
7.82542e-38
-1.87735e-34
6.86669e-38
-6.51106e-38
-3.41675e-31
1.32014e-34
-3.72341e-38
-3.36684e-31
1.30108e-34
-2.61109e-39
-3.27927e-31
1.26605e-34
1.52424e-38
-3.21857e-31
1.24202e-34
1.01984e-38
-3.21662e-31
1.24071e-34
-2.84132e-31
1.09112e-34
-9.30305e-35
-4.064e-28
1.54777e-31
5.03415e-35
-3.99975e-28
1.52007e-31
1.94665e-34
-3.89875e-28
1.47851e-31
2.35569e-34
-3.82738e-28
1.45011e-31
1.68009e-34
-3.82503e-28
1.44861e-31
-3.39826e-28
1.27917e-31
4.85282e-31
-4.10273e-25
1.38544e-28
8.98458e-31
-4.03267e-25
1.35248e-28
1.11607e-30
-3.93546e-25
1.31452e-28
1.08112e-30
-3.86481e-25
1.28922e-28
7.56732e-31
-3.86185e-25
1.28869e-28
-3.45903e-25
1.14637e-28
1.24319e-27
-3.80268e-22
8.7897e-26
2.34615e-27
-3.73494e-22
8.44556e-26
2.82831e-27
-3.65206e-22
8.21025e-26
2.68215e-27
-3.58902e-22
8.07283e-26
1.84454e-27
-3.58573e-22
8.10713e-26
-3.25058e-22
7.34651e-26
3.00699e-24
-3.43452e-19
2.19845e-23
4.584e-24
-3.37666e-19
2.02214e-23
4.89077e-24
-3.31427e-19
1.99072e-23
4.20309e-24
-3.26318e-19
2.04317e-23
2.59189e-24
-3.26204e-19
2.18703e-23
-3.01321e-19
2.16482e-23
4.75399e-21
-5.55145e-17
-1.02437e-16
6.78784e-21
-5.42436e-17
-1.02914e-16
7.81017e-21
-5.37464e-17
-1.02814e-16
7.37891e-21
-5.33115e-17
-1.02169e-16
5.18344e-21
-5.37235e-17
-1.01323e-16
-5.13472e-17
-1.01888e-16
5.02798e-19
-1.1758e-15
7.48623e-16
5.0037e-19
-1.04756e-15
8.31478e-16
3.12361e-19
-1.02274e-15
8.09292e-16
1.41154e-19
-1.10705e-15
6.99249e-16
5.07849e-20
-1.16078e-15
7.42189e-16
-8.91517e-16
6.89564e-16
-1.75505e-17
-4.22518e-15
-3.9674e-17
-4.23953e-15
-5.58727e-17
-4.22088e-15
-5.71042e-17
-4.164e-15
-8.31273e-18
-4.4325e-15
-3.92499e-15
-1.768e-46
-6.43315e-39
3.05833e-42
-1.16069e-46
-6.3426e-39
3.01472e-42
-5.46179e-47
-6.30496e-39
2.99655e-42
1.89035e-47
-6.38708e-39
3.03615e-42
8.06375e-47
-6.61953e-39
3.1465e-42
-6.01556e-39
2.85753e-42
-5.93619e-43
-4.04394e-35
2.11218e-38
-7.20146e-43
-3.98729e-35
2.08206e-38
-3.33464e-43
-3.96381e-35
2.06949e-38
2.5583e-43
-4.01422e-35
2.09628e-38
7.22991e-43
-4.16017e-35
2.17246e-38
-3.78424e-35
1.97417e-38
-4.39678e-39
-1.15295e-31
6.98745e-35
-4.4706e-39
-1.13691e-31
6.88824e-35
-1.7291e-39
-1.1303e-31
6.84703e-35
1.169e-39
-1.14422e-31
6.93364e-35
2.45577e-39
-1.18566e-31
7.18543e-35
-1.08003e-31
6.53605e-35
-1.47951e-35
-1.89678e-28
1.39361e-31
-6.04149e-36
-1.87068e-28
1.37381e-31
6.39439e-36
-1.8601e-28
1.36568e-31
1.35198e-35
-1.88202e-28
1.38241e-31
1.21434e-35
-1.94958e-28
1.43241e-31
-1.77964e-28
1.30477e-31
-2.34649e-32
-1.92682e-25
1.77571e-28
5.46899e-33
-1.90081e-25
1.74999e-28
3.76674e-32
-1.89057e-25
1.73959e-28
5.24581e-32
-1.91144e-25
1.75981e-28
4.18056e-32
-1.97888e-25
1.8228e-28
-1.8122e-25
1.66379e-28
2.99409e-30
-1.222e-22
1.44973e-25
6.58142e-29
-1.20602e-22
1.42768e-25
1.21287e-28
-1.20003e-22
1.41897e-25
1.41874e-28
-1.21198e-22
1.43414e-25
1.12148e-28
-1.2534e-22
1.48454e-25
-1.1537e-22
1.35966e-25
4.31065e-26
-4.74377e-20
7.45937e-23
1.13972e-25
-4.68533e-20
7.33934e-23
1.70878e-25
-4.66528e-20
7.29514e-23
1.88646e-25
-4.70419e-20
7.36622e-23
1.4529e-25
-4.85565e-20
7.6209e-23
-4.5069e-20
7.02237e-23
5.2679e-23
-1.08564e-17
2.18505e-20
8.0997e-23
-1.07398e-17
2.14987e-20
9.65334e-23
-1.07054e-17
2.1392e-20
9.25987e-23
-1.07655e-17
2.15877e-20
6.21072e-23
-1.107e-17
2.23275e-20
-1.04187e-17
2.07934e-20
1.42727e-20
-2.57291e-17
3.23394e-18
2.0483e-20
-2.54456e-17
3.19272e-18
2.18767e-20
-2.53629e-17
3.18813e-18
1.87482e-20
-2.54848e-17
3.21825e-18
1.15274e-20
-2.61709e-17
3.32683e-18
-2.47123e-17
3.15263e-18
2.7264e-20
-1.66854e-14
7.43201e-15
-1.40773e-18
-1.66002e-14
7.46672e-15
-2.87823e-18
-1.66184e-14
7.54967e-15
-3.87663e-18
-1.63551e-14
7.64785e-15
-2.94846e-18
-1.61137e-14
7.91311e-15
-1.70824e-14
7.76497e-15
-1.13333e-15
-2.41806e-11
1.40018e-11
-1.69746e-15
-2.38403e-11
1.37521e-11
-1.89764e-15
-2.37198e-11
1.36418e-11
-1.92299e-15
-2.43097e-11
1.41702e-11
-1.2444e-15
-2.60055e-11
1.55716e-11
-2.20302e-11
1.21755e-11
-9.31985e-14
-2.25156e-10
-1.19679e-13
-2.2249e-10
-1.12555e-13
-2.21857e-10
-1.05654e-13
-2.28152e-10
-5.57896e-14
-2.37123e-10
-2.17696e-10
-1.75288e-50
-2.10807e-41
1.5117e-44
3.8871e-49
-2.11595e-41
1.51638e-44
7.46499e-49
-2.11667e-41
1.51651e-44
9.45508e-49
-2.14041e-41
1.53367e-44
8.47263e-49
-2.19787e-41
1.57546e-44
-2.02315e-41
1.45074e-44
2.90461e-45
-1.26952e-37
1.01931e-40
4.96101e-45
-1.27491e-37
1.02289e-40
7.54192e-45
-1.27562e-37
1.02318e-40
9.05945e-45
-1.28973e-37
1.03466e-40
7.36999e-45
-1.3237e-37
1.0625e-40
-1.21808e-37
9.78128e-41
6.35985e-42
-3.43645e-34
3.26673e-37
1.76467e-41
-3.45337e-34
3.27976e-37
3.2729e-41
-3.45621e-34
3.28143e-37
3.89622e-41
-3.49351e-34
3.3178e-37
2.91463e-41
-3.58252e-34
3.40546e-37
-3.29583e-34
3.13413e-37
6.078e-38
-5.452e-31
6.42398e-34
1.35147e-37
-5.485e-31
6.45391e-34
1.85113e-37
-5.49175e-31
6.45914e-34
1.87624e-37
-5.54889e-31
6.5293e-34
1.27789e-37
-5.68267e-31
6.69647e-34
-5.22749e-31
6.16148e-34
3.82846e-34
-5.59028e-28
8.43822e-31
5.96763e-34
-5.63414e-28
8.48578e-31
6.6428e-34
-5.64438e-28
8.496e-31
5.93399e-34
-5.70041e-28
8.58532e-31
3.75375e-34
-5.82625e-28
8.79369e-31
-5.36054e-28
8.09085e-31
9.84451e-31
-3.86902e-25
7.61537e-28
1.3379e-30
-3.90957e-25
7.66919e-28
1.34222e-30
-3.91907e-25
7.68222e-28
1.11883e-30
-3.95615e-25
7.75947e-28
6.85006e-31
-4.03324e-25
7.93284e-28
-3.71295e-25
7.30175e-28
1.41636e-27
-1.7145e-22
4.91284e-25
1.70931e-27
-1.73837e-22
4.95889e-25
1.53346e-27
-1.74096e-22
4.97059e-25
1.12947e-27
-1.7565e-22
5.01951e-25
5.54703e-28
-1.78549e-22
5.12115e-25
-1.64652e-22
4.72009e-25
8.68701e-25
-5.75785e-21
2.00415e-20
7.11776e-25
-5.81905e-21
2.0267e-20
2.44475e-25
-4.66368e-21
2.03195e-20
-1.67302e-25
-4.41551e-21
2.05571e-20
-3.11001e-25
-4.16313e-21
2.12469e-20
-4.02319e-21
1.92054e-20
4.34531e-23
3.38317e-17
1.46205e-17
-6.04354e-23
3.86748e-17
1.49758e-17
-1.61944e-22
3.11161e-17
1.20769e-17
-2.00082e-22
2.94151e-17
1.15565e-17
-1.57064e-22
2.78996e-17
1.11067e-17
2.68568e-17
1.06616e-17
-5.40037e-16
2.97306e-12
-3.90976e-11
-1.58023e-15
2.84736e-12
-3.88998e-11
-2.29609e-15
2.80493e-12
-3.87814e-11
-2.36613e-15
3.05338e-12
-3.86498e-11
-1.549e-15
3.70507e-12
-3.9052e-11
2.10796e-12
-3.82017e-11
-2.26406e-13
5.56799e-10
-1.5074e-08
-7.11187e-13
5.513e-10
-1.5006e-08
-8.39729e-13
5.50433e-10
-1.50146e-08
-6.94288e-13
5.54339e-10
-1.50139e-08
7.95832e-13
5.74095e-10
-1.52392e-08
5.31103e-10
-1.49136e-08
1.36754e-11
-6.02119e-07
8.50758e-12
-5.95221e-07
-1.41566e-11
-5.92784e-07
4.4405e-11
-6.07445e-07
2.9715e-10
-6.4974e-07
-5.49873e-07
3.96056e-12
3.3163e-16
1.14851e-08
1.11998e-12
3.63997e-16
1.14978e-08
-2.0714e-12
3.73818e-16
1.14969e-08
-4.1107e-12
3.6539e-16
1.15028e-08
-5.14735e-12
3.63207e-16
1.1514e-08
3.71896e-16
1.14893e-08
-8.54777e-21
1.31279e-15
-1.36597e-18
-2.20895e-21
1.43795e-15
-1.49885e-18
1.67677e-21
1.47599e-15
-1.53918e-18
4.48608e-21
1.44317e-15
-1.50458e-18
1.06626e-20
1.43466e-15
-1.4956e-18
1.46893e-15
-1.53065e-18
-2.78125e-20
-1.99114e-17
-1.21427e-20
-2.18069e-17
-2.69584e-21
-2.23843e-17
6.86901e-21
-2.18863e-17
2.72347e-20
-2.17563e-17
-2.22786e-17
8.04716e-11
-9.92469e-07
5.94316e-07
2.06737e-11
-9.92321e-07
5.94322e-07
-2.65461e-11
-9.92477e-07
5.94343e-07
-5.35096e-11
-9.9243e-07
5.94336e-07
-8.96942e-11
-9.92063e-07
5.94304e-07
-9.92532e-07
5.94335e-07
2.63379e-11
7.18823e-15
8.24187e-09
6.73003e-12
7.87313e-15
8.23337e-09
-5.28294e-12
8.08189e-15
8.23608e-09
-1.60456e-11
7.90211e-15
8.23606e-09
-3.50385e-11
7.8555e-15
8.23062e-09
8.04387e-15
8.24183e-09
-1.52877e-19
-1.57265e-16
-6.6542e-20
-1.72223e-16
-9.59543e-21
-1.76789e-16
5.23666e-20
-1.72853e-16
1.78009e-19
-1.71825e-16
-1.75972e-16
1.52491e-11
-9.46593e-08
-6.2831e-08
2.52217e-12
-9.46464e-08
-6.28376e-08
-4.69336e-12
-9.46505e-08
-6.28367e-08
-1.16097e-11
-9.46576e-08
-6.28402e-08
-2.28811e-11
-9.46553e-08
-6.28421e-08
-9.46723e-08
-6.2827e-08
5.79451e-14
4.72109e-14
1.0299e-10
1.42327e-14
5.17108e-14
1.02352e-10
-1.12363e-14
5.30804e-14
1.02591e-10
-3.62677e-14
5.18996e-14
1.02522e-10
-8.39429e-14
5.15944e-14
1.02044e-10
5.28274e-14
1.03082e-10
-8.9856e-19
-1.50808e-15
-2.83591e-19
-1.65165e-15
1.02243e-19
-1.69538e-15
4.72347e-19
-1.65764e-15
1.2687e-18
-1.64784e-15
-1.68744e-15
1.08185e-12
-1.02867e-10
-8.07337e-09
2.46427e-13
-1.02227e-10
-8.10216e-09
-2.86584e-13
-1.02465e-10
-8.09547e-09
-9.92833e-13
-1.02397e-10
-8.11782e-09
-2.05898e-12
-1.0192e-10
-8.12488e-09
-1.02955e-10
-8.04351e-09
7.04141e-17
3.61028e-14
8.6239e-14
1.58755e-17
3.95412e-14
8.53388e-14
-9.81078e-18
4.05872e-14
8.55553e-14
-3.43292e-17
3.96822e-14
8.54468e-14
-9.00664e-17
3.94486e-14
8.48833e-14
4.03907e-14
8.58223e-14
-6.14044e-19
-7.58529e-16
-1.13004e-19
-8.30743e-16
1.25618e-19
-8.5272e-16
3.09631e-19
-8.33701e-16
7.92717e-19
-8.28787e-16
-8.48628e-16
1.99765e-12
-3.7527e-08
4.1203e-08
5.30432e-13
-3.7533e-08
4.11823e-08
-4.16991e-13
-3.7527e-08
4.11848e-08
-1.80934e-12
-3.75333e-08
4.11747e-08
-3.76724e-12
-3.75318e-08
4.11642e-08
-3.74986e-08
4.11904e-08
4.41292e-13
1.89076e-15
-1.38994e-15
1.40945e-13
2.0718e-15
-1.38236e-15
1.96244e-14
2.12781e-15
-1.38319e-15
-1.01447e-13
2.08001e-15
-1.37978e-15
-4.55608e-13
2.06717e-15
-1.37544e-15
2.10367e-15
-1.38561e-15
-3.66628e-20
-2.20477e-17
-9.39344e-21
-2.41607e-17
3.48922e-21
-2.48132e-17
1.31677e-20
-2.4254e-17
3.74783e-20
-2.41028e-17
-2.4524e-17
7.4794e-13
-9.11192e-13
6.83989e-10
1.22227e-13
-9.11485e-13
6.88784e-10
-4.22359e-13
-9.11434e-13
6.89244e-10
-5.94259e-13
-9.1167e-13
6.8947e-10
-6.78713e-13
-9.11558e-13
6.91703e-10
-9.11816e-13
6.82027e-10
4.46359e-19
1.80575e-17
-9.126e-13
1.46833e-19
1.97761e-17
-9.12887e-13
-2.1984e-20
2.03088e-17
-9.12838e-13
-1.53916e-19
1.9853e-17
-9.13069e-13
-4.87323e-19
1.97287e-17
-9.12953e-13
2.00456e-17
-9.13222e-13
-3.33734e-22
1.47122e-21
-9.04997e-23
1.44334e-21
6.98292e-23
1.46241e-21
1.80629e-22
1.47992e-21
3.54122e-22
1.47326e-21
1.52534e-21
2.33004e-16
-1.8674e-11
-3.11297e-11
4.62162e-16
-1.8679e-11
-3.11838e-11
-6.82873e-17
-1.86805e-11
-3.11877e-11
-1.04677e-16
-1.86858e-11
-3.11893e-11
1.74049e-15
-1.86866e-11
-3.1215e-11
-1.86824e-11
-3.11039e-11
6.28555e-17
4.19936e-18
-1.9964e-11
-7.62361e-18
4.15145e-18
-1.99973e-11
-6.32153e-17
4.18257e-18
-1.99979e-11
-1.60963e-16
4.20822e-18
-2.00078e-11
-3.8347e-16
4.19069e-18
-2.00233e-11
4.3134e-18
-1.99762e-11
-6.54027e-23
-2.18213e-19
-1.43457e-23
-2.15744e-19
2.18204e-23
-2.17344e-19
4.41095e-23
-2.18667e-19
8.04942e-23
-2.17757e-19
-2.24135e-19
1.05907e-14
-3.55082e-09
2.68504e-09
1.39725e-14
-3.55119e-09
2.68453e-09
1.80926e-14
-3.5512e-09
2.68528e-09
9.3089e-15
-3.55201e-09
2.68608e-09
-2.30482e-14
-3.55237e-09
2.68581e-09
-3.55181e-09
2.68618e-09
1.43292e-14
1.61103e-15
-3.5708e-09
-5.66607e-14
1.60189e-15
-3.57112e-09
-8.93459e-14
1.60834e-15
-3.57117e-09
-7.28653e-14
1.61296e-15
-3.57203e-09
-1.50298e-13
1.60875e-15
-3.57231e-09
1.6337e-15
-3.57194e-09
-4.14457e-20
-2.39357e-17
2.61168e-21
-2.38224e-17
1.89846e-20
-2.38894e-17
8.11228e-21
-2.39317e-17
1.63759e-20
-2.38582e-17
-2.4244e-17
1.43928e-09
4.33774e-06
0.000224599
3.1688e-09
4.3376e-06
0.000224608
4.06081e-09
4.33771e-06
0.000224603
2.71177e-09
4.33843e-06
0.000224608
6.84452e-10
4.33897e-06
0.000224615
4.33748e-06
0.000224615
1.44925e-11
2.90325e-13
4.33416e-06
-2.34924e-12
2.88939e-13
4.33404e-06
-6.92494e-12
2.89717e-13
4.33414e-06
-3.75485e-12
2.90242e-13
4.33485e-06
-4.408e-13
2.89271e-13
4.3354e-06
2.93584e-13
4.33391e-06
-2.8802e-18
-2.00757e-13
2.43419e-17
-1.99753e-13
3.16516e-17
-2.00311e-13
1.72467e-17
-2.00703e-13
7.80364e-18
-2.00038e-13
-2.03014e-13
7.94578e-08
0.000457185
0.00664447
6.50901e-08
0.000457346
0.00664461
7.36876e-08
0.00045728
0.00664444
6.22931e-08
0.000457301
0.0066445
4.80484e-08
0.000457399
0.00664448
0.000457193
0.00664488
7.33775e-09
2.09741e-05
0.000440021
5.62598e-09
2.09851e-05
0.00044018
6.54684e-09
2.09814e-05
0.000440115
4.33591e-09
2.0981e-05
0.000440141
-2.84312e-09
2.09836e-05
0.000440242
2.0979e-05
0.000440028
8.47757e-11
1.99467e-05
4.99452e-11
1.99575e-05
3.1477e-11
1.99537e-05
-7.08579e-11
1.99531e-05
-3.09623e-10
1.99559e-05
1.99503e-05
2.52205e-06
0.013486
0.182084
2.16648e-06
0.0135001
0.182122
1.39183e-06
0.0134945
0.182113
1.21888e-06
0.0134961
0.182111
-1.35451e-06
0.0135105
0.182138
0.0134755
0.182099
2.7121e-07
0.00042001
0.0135016
2.70487e-07
0.000420469
0.0135157
1.88537e-07
0.000420328
0.0135102
1.47889e-07
0.00042021
0.013512
2.15797e-07
0.000420214
0.0135264
0.000420264
0.0134914
5.34309e-09
0.000294957
9.72765e-10
0.000295341
-5.02701e-09
0.000295221
3.11899e-09
0.000295082
-4.8738e-10
0.000295111
0.000295094
4.5803e-05
0.428122
0.694424
4.38055e-05
0.42824
0.694515
4.28113e-05
0.428184
0.694546
2.77361e-05
0.42815
0.694576
-9.37526e-05
0.42811
0.694814
0.428191
0.694414
2.37529e-05
0.0049167
0.328382
1.29928e-05
0.00492797
0.328498
1.87178e-05
0.00492591
0.328447
-6.1151e-07
0.00492034
0.32853
-4.47152e-05
0.00491721
0.328726
0.00492616
0.328198
4.27391e-07
0.00413775
-5.16185e-07
0.00414626
-6.59001e-07
0.00414493
-2.87948e-07
0.00413883
-1.29452e-06
0.00413515
0.00414727
2.56867e-06
0.000182068
-0.000218514
5.61499e-05
-1.63434e-07
0.000184848
-0.000216053
5.60126e-05
-4.46762e-06
0.000184897
-0.000214546
5.59833e-05
-1.8554e-06
0.000181513
-0.000217639
5.60511e-05
1.15838e-05
0.000171596
-0.000218033
5.67555e-05
0.000189401
-0.000211822
5.59184e-05
3.72628e-10
1.57413e-06
7.27872e-05
-1.33148e-05
-1.92562e-09
1.68858e-06
5.48524e-05
-1.34329e-05
-3.30013e-09
1.68508e-06
5.48716e-05
-1.3424e-05
-1.11342e-09
1.59506e-06
6.46926e-05
-1.32756e-05
1.42359e-08
1.66735e-06
0.000108783
-1.27678e-05
1.87222e-06
0.000201236
-1.36802e-05
-1.05512e-08
-0.000105711
-7.40993e-07
1.19972e-08
-0.000174488
-8.33872e-07
2.6598e-08
-0.000197016
-8.50185e-07
1.9993e-08
-0.000122755
-7.87226e-07
2.42808e-09
-0.000348994
-9.0672e-07
1.79459e-06
-2.9028e-08
3.5262e-07
-0.0473879
-0.0370944
2.30822e-06
-0.0473921
-0.0370936
-2.13699e-05
-0.0474527
-0.0370578
1.84552e-05
-0.0474059
-0.0368556
0.000129749
-0.0488526
-0.0366583
-0.0459834
-0.0374335
9.99262e-06
0.0832633
-0.282354
-5.15873e-05
0.0833886
-0.283351
-6.25522e-05
0.0835584
-0.283781
-2.7118e-05
0.083284
-0.282432
1.26043e-05
0.0852764
-0.286219
0.0817036
-0.280538
6.45021e-05
-0.169055
-5.98193e-05
-0.16977
-0.000249574
-0.170023
-0.000127483
-0.16839
0.00026263
-0.167624
-0.170488
-4.05856e-05
-0.159997
-0.00576886
1.98497e-05
-0.160148
-0.00575939
0.000100272
-0.160072
-0.00574935
0.000118131
-0.159963
-0.00572363
-0.000185314
-0.158611
-0.00572063
-0.161878
-0.00580748
0.000115709
0.149718
-0.556596
-0.00034301
0.150429
-0.557735
-0.00106985
0.150635
-0.557974
-2.69608e-05
0.148408
-0.556002
0.00102676
0.14606
-0.556062
0.153343
-0.558849
6.38533e-05
-0.000122211
-0.00012482
-0.000122973
-0.000315924
-0.000123216
-9.76008e-05
-0.000121107
0.000330224
-0.000119549
-0.000124828
3.02045e-05
-0.111777
-0.154975
0.000123543
-0.111749
-0.154912
0.000262368
-0.111797
-0.154928
0.000182625
-0.111986
-0.15546
-0.000114037
-0.112073
-0.156197
-0.111779
-0.154519
4.72358e-05
-0.000297406
-0.624556
-0.000367163
-0.000297516
-0.624589
-0.00088775
-0.000297247
-0.624506
0.000105663
-0.000298526
-0.624062
0.00103112
-0.000299758
-0.623936
-0.00029597
-0.624743
3.75627e-09
-0.000419621
-1.03107e-08
-0.000420475
-1.36291e-08
-0.000420459
-6.38838e-09
-0.000419641
1.74568e-09
-0.000419315
-0.000420796
0.000161108
0.0376461
-0.337658
0.000254517
0.0376645
-0.337572
0.000335988
0.037633
-0.337572
0.000196375
0.0377371
-0.337958
-9.30872e-05
0.0380896
-0.338644
0.0372794
-0.337107
-2.77945e-06
-0.00506117
-0.470273
0.000124311
-0.00507148
-0.470495
0.000366189
-0.00507059
-0.47045
6.59005e-05
-0.00506617
-0.470451
-0.000714351
-0.0050617
-0.470734
-0.00507233
-0.470006
3.65552e-08
-0.00548082
-3.20068e-08
-0.00549189
-2.07361e-07
-0.00549087
4.32047e-08
-0.00548606
4.73069e-07
-0.00548144
-0.00549265
4.86055e-05
0.275065
0.000143832
0.275188
0.000357549
0.275102
9.3787e-05
0.275227
-0.000975337
0.275599
0.274677
4.48299e-05
0.00142131
-8.97727e-06
0.00142659
-0.000132842
0.0014273
-1.14182e-05
0.00142307
0.000330236
0.00141696
0.00143175
4.50871e-07
6.21842e-07
1.1397e-06
-3.9825e-08
-1.75387e-06
2.69979e-41
8.0077e-37
-1.03938e-33
3.40665e-41
7.97936e-37
-1.03581e-33
3.49297e-41
7.98134e-37
-1.03611e-33
2.98298e-41
8.01152e-37
-1.03986e-33
1.76587e-41
8.1289e-37
-1.05493e-33
7.89689e-37
-1.02569e-33
2.50361e-44
1.42784e-39
-1.02723e-36
2.58272e-44
1.42264e-39
-1.02358e-36
2.23113e-44
1.42296e-39
-1.02388e-36
1.32506e-44
1.42858e-39
-1.0278e-36
-1.58505e-46
1.44984e-39
-1.04298e-36
1.40728e-39
-1.01309e-36
1.14289e-44
-1.38185e-36
1.06115e-44
-1.38411e-36
7.32216e-45
-1.38156e-36
8.88314e-46
-1.3893e-36
-8.67847e-45
-1.41814e-36
-1.35221e-36
3.32461e-37
7.64615e-33
-8.74172e-30
3.37274e-37
7.62004e-33
-8.71291e-30
3.58069e-37
7.62237e-33
-8.71593e-30
3.15911e-37
7.64999e-33
-8.74556e-30
1.75663e-37
7.76095e-33
-8.87115e-30
7.54569e-33
-8.63289e-30
2.31292e-40
1.37854e-35
-8.24457e-33
1.89676e-40