/*--------------------------------*- C++ -*----------------------------------*\
| =========                 |                                                 |
| \\      /  F ield         | OpenFOAM: The Open Source CFD Toolbox           |
|  \\    /   O peration     | Version:  v1612+                                |
|   \\  /    A nd           | Web:      www.OpenFOAM.com                      |
|    \\/     M anipulation  |                                                 |
\*---------------------------------------------------------------------------*/
FoamFile
{
    version     2.0;
    format      ascii;
    class       surfaceScalarField;
    location    "3.3";
    object      phi;
}
// * * * * * * * * * * * * * * * * * * * * * * * * * * * * * * * * * * * * * //

dimensions      [0 3 -1 0 0 0 0];

internalField   nonuniform List<scalar> 
2916
(
3.14706e-07
0.405908
-0.405909
7.41617e-06
0.405908
-0.405915
6.82852e-06
0.405909
-0.405909
2.08785e-06
0.405912
-0.405908
1.84792e-06
0.405913
-0.405913
0.405905
-0.405903
5.32663e-06
0.78665
-0.380747
6.89047e-06
0.786658
-0.380751
8.76905e-06
0.786657
-0.38075
2.11426e-06
0.78666
-0.380741
-6.5892e-06
0.786662
-0.38074
0.786649
-0.380751
8.2069e-06
1.0146
-0.227959
6.73565e-06
1.01462
-0.227956
7.73325e-06
1.01461
-0.227957
2.65149e-06
1.01462
-0.22795
-6.74275e-06
1.01462
-0.227947
1.0146
-0.227959
8.13518e-06
1.17442
-0.159822
6.3392e-06
1.17443
-0.159817
6.42109e-06
1.17443
-0.159819
2.88284e-06
1.17443
-0.159814
-4.55067e-06
1.17444
-0.15981
1.17442
-0.15982
6.51881e-06
1.29858
-0.124168
5.25756e-06
1.2986
-0.124164
4.50588e-06
1.2986
-0.124164
1.74045e-06
1.2986
-0.124162
-3.1599e-06
1.2986
-0.124159
1.29858
-0.124165
4.72818e-06
1.39181
-0.0932325
3.91825e-06
1.39183
-0.0932298
2.33525e-06
1.39183
-0.0932292
-1.56776e-07
1.39183
-0.0932274
-2.36306e-06
1.39183
-0.0932263
1.39181
-0.0932289
1.63411e-06
1.4493
-0.0574981
1.93995e-06
1.44933
-0.0574973
-1.50461e-07
1.44933
-0.0574959
-2.08128e-06
1.44932
-0.0574947
-1.02569e-06
1.44932
-0.0574956
1.4493
-0.0574944
-1.26453e-06
1.38409
0.0652169
1.18962e-06
1.38411
0.065213
-1.73201e-06
1.38411
0.0652175
-4.03394e-06
1.38411
0.0652182
-6.24344e-07
1.38411
0.0652116
1.38408
0.0652215
-5.06182e-07
1.03474
0.349344
1.46308e-06
1.03477
0.349337
-2.87493e-06
1.03477
0.349343
-6.20982e-06
1.03477
0.349342
-6.10687e-06
1.03478
0.349331
1.03472
0.349347
1.36188e-06
0.408551
0.62619
6.36683e-07
0.408585
0.626189
-4.8727e-06
0.408587
0.626192
-8.46083e-06
0.408582
0.626191
-1.15149e-05
0.408598
0.626181
0.40852
0.626192
1.21989e-05
-0.110272
0.518811
1.25326e-06
-0.110239
0.518835
-3.84484e-06
-0.110236
0.518828
-7.03497e-06
-0.110239
0.518823
-1.65594e-05
-0.110217
0.518824
-0.110297
0.5188
-2.4157e-05
-0.110248
-2.34189e-05
-0.11024
-1.70417e-05
-0.110243
-6.60412e-06
-0.110249
2.14055e-05
-0.110245
-0.110275
-1.06153e-05
0.645596
-1.05149
-3.31934e-06
0.64559
-1.05151
1.17679e-05
0.645599
-1.05152
2.43631e-05
0.645588
-1.05151
1.92166e-05
0.645581
-1.05149
0.64562
-1.0515
-6.36722e-06
1.1641
-0.899241
-5.18531e-06
1.1641
-0.89926
2.98064e-05
1.1641
-0.899283
3.67955e-05
1.16408
-0.899243
1.05352e-06
1.16409
-0.899211
1.16412
-0.899252
1.48205e-05
1.49173
-0.555608
2.92994e-06
1.49175
-0.555602
3.17087e-05
1.49174
-0.555625
3.24018e-05
1.49173
-0.555594
-2.12188e-05
1.49175
-0.555554
1.49174
-0.555603
2.93451e-05
1.71354
-0.381662
8.24367e-06
1.7136
-0.381638
3.03768e-05
1.71356
-0.381665
2.92332e-05
1.71355
-0.38164
-2.84123e-05
1.71359
-0.381593
1.71355
-0.38165
4.01752e-05
1.90908
-0.319753
1.02658e-05
1.90917
-0.319707
2.55273e-05
1.90912
-0.31974
2.68122e-05
1.90912
-0.319725
-2.8081e-05
1.90916
-0.319673
1.90909
-0.319735
4.63056e-05
2.11695
-0.301143
9.91017e-06
2.11705
-0.301078
2.03642e-05
2.117
-0.301116
2.43934e-05
2.11699
-0.301109
-2.51249e-05
2.11704
-0.301056
2.11696
-0.301121
4.73305e-05
2.35447
-0.29507
6.96261e-06
2.3546
-0.294999
1.53483e-05
2.35454
-0.295044
2.08293e-05
2.35454
-0.295042
-2.2331e-05
2.35458
-0.294994
2.35449
-0.295055
4.97312e-05
2.37069
0.0489462
1.07897e-05
2.37086
0.0489929
1.62715e-05
2.37079
0.0489603
1.88695e-05
2.37079
0.0489607
-1.92585e-05
2.37083
0.0489931
2.37074
0.0489557
6.81383e-05
1.95696
0.763012
2.0834e-05
1.95714
0.7631
2.03802e-05
1.95707
0.763064
1.74508e-05
1.95707
0.763067
-2.47377e-05
1.95711
0.763094
1.95701
0.763053
5.64356e-05
1.30899
1.2741
2.68766e-05
1.30918
1.27418
1.35564e-05
1.30912
1.27416
1.35394e-06
1.30912
1.27415
-2.96641e-05
1.30917
1.27416
1.30904
1.27413
4.40553e-05
0.606735
1.22102
1.56721e-05
0.60691
1.22113
4.88152e-06
0.606867
1.22109
-5.36038e-06
0.606866
1.22108
-2.62433e-05
0.606911
1.2211
0.606776
1.22104
-6.87969e-05
0.496556
-2.90998e-05
0.496631
-1.09067e-05
0.496606
4.01086e-06
0.496602
4.63921e-05
0.496623
0.496547
-0.00011637
0.436852
-1.48823
-6.58843e-05
0.436824
-1.48839
-2.24813e-05
0.436822
-1.48839
4.33704e-05
0.436805
-1.48838
0.000122049
0.436805
-1.48837
0.43686
-1.48824
-0.00011405
0.878166
-1.34044
-5.10792e-05
0.878101
-1.3406
-1.29125e-06
0.878088
-1.3406
6.06911e-05
0.878072
-1.34057
0.000137985
0.878085
-1.34057
0.878172
-1.34043
-0.000100053
1.4576
-1.13494
-3.6813e-05
1.45753
-1.13509
5.47626e-06
1.45751
-1.13509
5.19532e-05
1.4575
-1.13507
0.000121369
1.45752
-1.13505
1.4576
-1.13491
-0.000108338
2.30959
-1.23355
-4.03998e-05
2.30952
-1.2337
5.67714e-06
2.3095
-1.23371
5.52098e-05
2.3095
-1.23369
0.000137351
2.30952
-1.23368
2.30961
-1.23352
-0.000115853
3.40736
-1.4174
-5.71461e-05
3.40728
-1.41752
-7.00948e-06
3.40725
-1.41753
4.8422e-05
3.40724
-1.41752
0.000127869
3.40726
-1.4175
3.40737
-1.41736
-0.000152736
4.78979
-1.68342
-0.000120035
4.78967
-1.6835
-6.11995e-05
4.7896
-1.68352
1.22089e-05
4.78958
-1.68352
9.665e-05
4.7896
-1.68347
4.78972
-1.68338
-0.000231552
6.10464
-1.60969
-9.99028e-05
6.10428
-1.60975
-0.000105276
6.1044
-1.60985
-8.65166e-05
6.10438
-1.60987
0.000130621
6.10421
-1.60982
6.10455
-1.60976
-5.20308e-05
5.41088
0.742755
-6.51754e-05
5.41072
0.742574
-6.90814e-05
5.4108
0.742563
-4.90744e-05
5.41079
0.742541
7.59671e-05
5.41063
0.742444
5.41081
0.742769
0.000238592
2.82215
3.35151
4.77882e-05
2.82235
3.35166
4.88533e-05
2.82224
3.35162
5.22698e-05
2.82224
3.35161
-0.000125628
2.8223
3.3516
2.82217
3.35157
0.000124084
1.19183
2.90429
5.94817e-05
1.19208
2.90451
4.15417e-05
1.19197
2.90445
9.49058e-06
1.19197
2.90445
-7.13675e-05
1.19204
2.90451
1.19191
2.90432
0.000189678
0.481152
1.93151
5.40116e-05
0.481456
1.93189
1.35344e-05
0.481355
1.93174
-5.40758e-06
0.481361
1.93172
-7.0694e-05
0.481435
1.93177
0.481234
1.93164
-0.000122619
0.97783
-2.41288e-05
0.977989
-8.64068e-06
0.977945
1.24255e-05
0.977942
9.64377e-05
0.977974
0.977878
-2.89787e-05
-0.336988
-1.15121
-7.6927e-06
-0.336977
-1.15143
-3.63894e-06
-0.336989
-1.1514
-4.72111e-06
-0.336986
-1.15139
1.24209e-05
-0.336973
-1.15142
-0.337017
-1.15121
-3.60172e-06
-0.548666
-1.12876
8.50693e-06
-0.548606
-1.12898
-5.86986e-06
-0.548625
-1.12895
-4.82898e-06
-0.54862
-1.12894
2.04784e-05
-0.548592
-1.12898
-0.548696
-1.12872
5.23154e-06
-0.651018
-1.03259
1.93747e-05
-0.650884
-1.03282
-3.61382e-06
-0.650903
-1.03279
-6.5282e-06
-0.650897
-1.03278
2.9904e-05
-0.650857
-1.03282
-0.651022
-1.03256
-5.08303e-05
-0.637014
-1.2475
-2.77582e-05
-0.636857
-1.24775
-4.25365e-05
-0.636881
-1.24771
-3.10864e-05
-0.63688
-1.24772
4.61959e-05
-0.636841
-1.24777
-0.637005
-1.24749
-0.00011234
-0.656418
-1.39789
-7.22716e-05
-0.656293
-1.39812
-6.99817e-05
-0.656326
-1.39809
-4.54243e-05
-0.65633
-1.39809
5.99088e-05
-0.656298
-1.39814
-0.656419
-1.39789
-0.000137317
-0.62263
-1.71707
-8.05959e-05
-0.622578
-1.71727
-7.31982e-05
-0.622612
-1.71725
-4.55457e-05
-0.622627
-1.71725
7.91787e-05
-0.622624
-1.71727
-0.62265
-1.71707
-0.00015902
0.00761324
-2.23977
-3.77621e-05
0.0074843
-2.23993
-1.58507e-05
0.00746822
-2.23995
2.98371e-05
0.00745478
-2.24
0.000221535
0.00739696
-2.24004
0.00763832
-2.23982
-8.43448e-05
1.98329
-1.23284
1.00108e-05
1.9831
-1.23314
6.51783e-05
1.98305
-1.23308
9.42609e-05
1.98303
-1.23307
0.000261362
1.98294
-1.23326
1.98342
-1.23274
0.000114522
2.23362
3.10106
0.000101865
2.23372
3.10105
0.000136398
2.23359
3.10105
0.000102242
2.23357
3.10111
-7.74214e-05
2.23361
3.10111
2.23379
3.10112
0.000295774
0.870383
4.26724
0.000152481
0.87081
4.26757
0.000105485
0.870615
4.26747
3.71037e-05
0.870589
4.2675
-4.47152e-05
0.870618
4.26758
0.870656
4.26741
0.000281042
0.280953
2.52066
9.10342e-05
0.281244
2.52165
1.11712e-05
0.281145
2.52129
-5.29679e-06
0.28111
2.52121
-8.41207e-05
0.281113
2.52135
0.281114
2.5211
-7.6474e-05
1.25886
7.09071e-06
1.25915
2.54181e-05
1.25907
2.74181e-05
1.25905
-2.47572e-06
1.25912
1.25899
-4.07981e-06
-0.00652373
0.00652781
-4.1588e-06
-0.00652469
0.00652783
-4.04874e-06
-0.00652569
0.00652797
-3.57024e-06
-0.00652666
0.00652813
-2.40034e-06
-0.00652775
0.0065282
-0.00652931
0.00652827
-3.64281e-06
-0.0133218
0.00680398
-5.03419e-06
-0.0133245
0.00680405
-5.73049e-06
-0.0133267
0.00680383
-5.4545e-06
-0.0133287
0.00680344
-3.69757e-06
-0.0133307
0.0068027
-0.0133337
0.0068015
-4.17132e-06
-0.0207072
0.00739075
-6.85586e-06
-0.0207128
0.0073919
-8.0024e-06
-0.0207169
0.00739205
-7.50443e-06
-0.02072
0.00739163
-5.07253e-06
-0.0207231
0.00739081
-0.0207282
0.00738979
-8.04644e-06
-0.0289715
0.00827262
-1.08415e-05
-0.0289815
0.00827229
-1.1155e-05
-0.0289879
0.0082722
-9.63576e-06
-0.0289924
0.0082717
-6.36417e-06
-0.0289964
0.00827067
-0.0290038
0.00826909
-1.6424e-05
-0.0383645
0.00940975
-1.78275e-05
-0.0383803
0.00940181
-1.51855e-05
-0.0383887
0.00939928
-1.11281e-05
-0.0383934
0.00939754
-6.57905e-06
-0.0383968
0.00939571
-0.0384048
0.0093934
-3.21418e-05
-0.0489295
0.010598
-2.88674e-05
-0.0489502
0.0105676
-1.83323e-05
-0.0489556
0.0105565
-8.37939e-06
-0.048954
0.0105502
-2.45108e-06
-0.0489499
0.0105463
-0.0489514
0.0105437
-4.55628e-05
-0.0605044
0.011621
-2.4891e-05
-0.0605218
0.0115503
4.99702e-06
-0.0605106
0.011524
2.68722e-05
-0.0604896
0.0115129
2.88791e-05
-0.0604634
0.0115114
-0.0604408
0.0115191
-3.56532e-05
-0.0711297
0.0106606
2.6266e-05
-0.0711327
0.0105476
9.72698e-05
-0.0710976
0.010515
0.000133463
-0.0710419
0.0105161
0.000111268
-0.0709804
0.0105401
-0.0709175
0.0105888
3.46193e-05
-0.0783529
0.00718766
0.00014761
-0.0783016
0.00705476
0.000243321
-0.0782591
0.00706537
0.000278957
-0.0782171
0.00713977
0.000215531
-0.078172
0.00725442
-0.0781085
0.0074068
0.00013203
-0.0716788
-0.00680699
0.000227105
-0.0716017
-0.00679537
0.000282139
-0.0715478
-0.00676565
0.00027228
-0.0714899
-0.00671618
0.000177821
-0.0714163
-0.00666197
-0.0713079
-0.00662122
0.000159966
-0.0494283
-0.0224105
0.000217237
-0.0493618
-0.0222976
0.000225993
-0.0493278
-0.0222294
0.000201603
-0.0492965
-0.0221704
0.000134684
-0.0492479
-0.022104
-0.0491564
-0.022017
-2.79195e-05
-0.0493993
-8.30018e-05
-0.0493041
-0.000122009
-0.0492866
-0.000131257
-0.0492862
-8.76693e-05
-0.0492901
-0.0492438
-3.14793e-06
-0.00626531
0.0127985
-3.15577e-06
-0.00626711
0.0127983
-2.9153e-06
-0.00626843
0.0127987
-2.33761e-06
-0.00626953
0.0127991
-1.23298e-06
-0.0062706
0.0127994
-0.00627204
0.0127998
-2.71142e-06
-0.0126417
0.013186
-3.69537e-06
-0.0126462
0.013186
-3.85533e-06
-0.0126491
0.013186
-3.29006e-06
-0.0126513
0.0131857
-1.90173e-06
-0.0126533
0.0131849
-0.0126562
0.0131837
-4.16881e-06
-0.0190813
0.0138353
-5.887e-06
-0.0190892
0.0138364
-5.88647e-06
-0.0190935
0.0138364
-4.89768e-06
-0.0190965
0.0138359
-3.05123e-06
-0.019099
0.0138348
-0.0191033
0.0138335
-6.2231e-06
-0.0252771
0.0144748
-6.82717e-06
-0.0252899
0.0144739
-5.67596e-06
-0.0252953
0.0144732
-4.11272e-06
-0.0252981
0.014472
-2.55665e-06
-0.0253003
0.0144702
-0.0253057
0.014468
-6.10129e-06
-0.03057
0.0147096
-2.78605e-06
-0.0305891
0.0146991
1.07137e-06
-0.0305935
0.0146942
2.99659e-06
-0.0305935
0.0146907
2.06988e-06
-0.0305922
0.0146872
-0.0305952
0.0146839
-5.28015e-06
-0.0337936
0.0138278
7.65137e-06
-0.0338264
0.0137925
2.00982e-05
-0.0338264
0.0137768
2.34569e-05
-0.0338157
0.013768
1.66241e-05
-0.0338027
0.0137627
-0.0337953
0.0137613
4.29545e-05
-0.0337319
0.0115161
7.53182e-05
-0.0337483
0.0114393
9.29111e-05
-0.033729
0.0114087
8.98895e-05
-0.0336959
0.0113965
6.19661e-05
-0.0336588
0.0113969
-0.0336245
0.0114117
0.000128839
-0.030411
0.00720979
0.000190462
-0.0304147
0.00715164
0.000221788
-0.0303631
0.00711792
0.000207
-0.030281
0.00711714
0.000131735
-0.0301839
0.00714124
-0.030081
0.00717765
0.000218822
-0.0256158
0.0021727
0.000338373
-0.0255539
0.00207426
0.000368147
-0.0254105
0.0020837
0.000320969
-0.0252407
0.00214796
0.0001973
-0.0250617
0.00225523
-0.0248772
0.00240159
0.00029669
-0.0196075
-0.0131122
0.000464396
-0.0194507
-0.0130649
0.000556687
-0.0193568
-0.012911
0.000545984
-0.0192331
-0.0127126
0.000395835
-0.019102
-0.012471
-0.0189043
-0.0121972
0.000179932
-0.0067455
-0.0354519
0.000172862
-0.00660716
-0.0351318
9.32032e-05
-0.0065138
-0.0349916
3.5934e-05
-0.00643276
-0.0349132
1.96248e-05
-0.00634664
-0.0348409
-0.00621567
-0.0346857
-0.000115354
-0.0560303
-0.000245325
-0.0557832
-0.000329915
-0.0557191
-0.000303687
-0.0557474
-5.03438e-05
-0.0558869
-0.055511
-9.32699e-07
-0.00600436
0.0188055
-7.50426e-07
-0.0060054
0.0188053
-4.41397e-07
-0.00600596
0.0188055
-4.60012e-08
-0.00600628
0.0188056
2.74514e-07
-0.00600633
0.0188057
-0.00600624
0.0188059
-5.51466e-07
-0.0124869
0.0196705
-7.41072e-07
-0.0124897
0.0196702
-4.07135e-07
-0.0124909
0.01967
9.26722e-08
-0.0124914
0.0196696
4.353e-07
-0.0124912
0.0196688
-0.0124908
0.0196678
-1.35418e-06
-0.0201718
0.0215211
-1.30553e-06
-0.0201769
0.0215218
-4.28399e-07
-0.0201785
0.0215218
4.24947e-07
-0.0201788
0.0215212
7.09336e-07
-0.0201778
0.0215201
-0.0201765
0.021519
-2.26585e-06
-0.0300207
0.0243252
-5.08373e-07
-0.0300294
0.0243239
1.69755e-06
-0.0300311
0.024323
2.84676e-06
-0.0300304
0.0243217
2.35405e-06
-0.030028
0.0243197
-0.0300249
0.0243176
-2.60442e-06
-0.0433719
0.0280637
2.17979e-06
-0.0433862
0.0280515
7.27804e-06
-0.0433873
0.0280452
9.26966e-06
-0.0433831
0.0280404
6.99843e-06
-0.0433755
0.0280356
-0.0433658
0.0280316
2.16177e-06
-0.0621671
0.0326212
1.63791e-05
-0.0621861
0.0325787
2.83287e-05
-0.0621803
0.0325579
3.19578e-05
-0.0621636
0.032545
2.41408e-05
-0.0621405
0.0325366
-0.0621128
0.0325347
2.05378e-05
-0.0885793
0.0379079
5.56139e-05
-0.0885941
0.0378134
8.32818e-05
-0.0885721
0.0377745
9.06135e-05
-0.0885306
0.0377589
6.75515e-05
-0.0884781
0.0377609
-0.0884172
0.037785
5.83035e-05
-0.122055
0.0406274
0.000130734
-0.122014
0.0405003
0.000166189
-0.121956
0.040469
0.000162685
-0.12189
0.0404826
0.000115016
-0.121823
0.040535
-0.121756
0.0406318
0.000140889
-0.155612
0.0355889
0.00020454
-0.155518
0.0355144
0.000219479
-0.155445
0.0355585
0.000186631
-0.155375
0.0356667
0.000111582
-0.155315
0.0358229
-0.155273
0.0360318
-8.59832e-06
-0.177117
0.00840171
-0.000121712
-0.176965
0.00849623
-0.00023113
-0.17686
0.00861291
-0.000292632
-0.176771
0.0087444
-0.000229141
-0.176721
0.00887335
-0.176718
0.00901814
-0.000313771
-0.120609
-0.091646
-0.000491065
-0.120467
-0.0914534
-0.000551018
-0.120377
-0.0914156
-0.000537096
-0.120324
-0.0913755
-0.000350083
-0.120307
-0.0914426
-0.120398
-0.0913569
-0.000500716
-0.176137
-0.000692645
-0.176059
-0.000701066
-0.176089
-0.000605002
-0.176169
-0.00027792
-0.176523
-0.176188
8.17938e-08
-0.00519067
0.023997
5.4846e-07
-0.00519166
0.0239966
1.03184e-06
-0.00519188
0.0239966
1.2818e-06
-0.00519172
0.0239965
1.07494e-06
-0.00519127
0.0239964
-0.00519074
0.0239967
6.73783e-07
-0.0105132
0.0249923
1.12418e-06
-0.0105155
0.0249917
1.72382e-06
-0.0105158
0.0249914
2.03056e-06
-0.0105152
0.0249909
1.54105e-06
-0.0105139
0.0249902
-0.0105125
0.0249898
5.36909e-07
-0.0159127
0.0269185
1.55802e-06
-0.0159157
0.0269181
2.78808e-06
-0.015915
0.0269175
3.21731e-06
-0.0159129
0.0269166
2.29547e-06
-0.0159099
0.0269155
-0.0159068
0.0269149
3.02097e-06
-0.0211287
0.0295368
6.44742e-06
-0.0211314
0.0295348
8.6271e-06
-0.0211284
0.0295331
8.55329e-06
-0.0211233
0.0295311
5.65992e-06
-0.0211174
0.0295289
-0.0211117
0.0295275
1.43468e-05
-0.0254196
0.03234
2.20402e-05
-0.0254188
0.0323312
2.42534e-05
-0.0254117
0.0323258
2.12796e-05
-0.025402
0.0323213
1.3085e-05
-0.0253916
0.0323173
-0.025381
0.0323148
4.08154e-05
-0.0268919
0.034053
5.44187e-05
-0.0268807
0.0340278
5.38843e-05
-0.0268673
0.0340148
4.3948e-05
-0.026852
0.0340063
2.6009e-05
-0.0268356
0.0340011
-0.0268188
0.034001
8.48522e-05
-0.0223442
0.0332763
0.000100116
-0.0223104
0.0332301
8.83429e-05
-0.0222904
0.033212
6.33696e-05
-0.02227
0.0332051
2.97798e-05
-0.0222462
0.0332082
-0.0222284
0.0332242
8.69492e-05
-0.00716266
0.0253607
6.73179e-05
-0.00710085
0.0253122
1.75228e-05
-0.00707851
0.0253088
-2.43943e-05
-0.00706789
0.0253233
-3.87662e-05
-0.00705321
0.0253551
-0.00704181
0.0254054
2.49865e-05
0.0140192
0.0143833
-6.70795e-05
0.0141395
0.0143664
-0.000167784
0.0141735
0.014407
-0.000211827
0.0141701
0.014471
-0.00016586
0.0141702
0.0145529
0.0141674
0.0146557
-6.56666e-05
0.0623916
-0.0399046
-0.000187578
0.062556
-0.0397997
-0.000267334
0.0625341
-0.0396695
-0.00026997
0.0623988
-0.0394836
-0.000167638
0.0622318
-0.0392915
0.0624084
-0.0393937
-9.94186e-05
0.116913
-0.146069
-0.000331985
0.117135
-0.145803
-0.000434294
0.117072
-0.145853
-0.0003553
0.116618
-0.145674
0.000435238
0.11577
-0.145775
0.117285
-0.145802
0.000256585
-0.0594822
-0.000100142
-0.0585702
-0.000888576
-0.0582305
-0.000338202
-0.0601029
0.00440873
-0.0655022
-0.0544941
2.46374e-05
-1.22089
0.0696563
6.90058e-06
-1.22107
0.069666
-1.27713e-05
-1.22105
0.0696658
-2.53518e-05
-1.22104
0.0696666
-3.20431e-05
-1.22107
0.0696678
-1.22089
0.0696531
3.1962e-05
-1.22519
0.0042694
7.58337e-06
-1.22532
0.00426856
-5.62342e-06
-1.2253
0.00426806
-1.5266e-05
-1.2253
0.0042683
-3.56265e-05
-1.22532
0.00426836
-1.22519
0.00426517
2.6451e-05
0.0184522
1.0776e-05
0.0184515
2.60781e-06
0.0184517
-5.59005e-06
0.0184514
-2.27203e-05
0.0184509
0.0184512
2.89959e-05
-1.26854
0.209409
7.58473e-06
-1.26872
0.20943
-9.31896e-06
-1.26869
0.20943
-1.91387e-05
-1.26869
0.209427
-3.23621e-05
-1.26872
0.209428
-1.26851
0.209407
3.43627e-05
-1.2741
0.00980207
8.88468e-06
-1.27422
0.00979927
-6.76296e-06
-1.27421
0.00979896
-2.07854e-05
-1.2742
0.00979963
-4.54716e-05
-1.27423
0.00980029
-1.27409
0.00979959
2.75858e-05
0.0276774
1.11419e-05
0.0276757
1.82886e-06
0.0276751
-8.31195e-06
0.0276745
-2.83387e-05
0.0276736
0.0276747
2.25557e-05
-1.19864
0.37544
3.8703e-06
-1.19883
0.375457
-6.84655e-06
-1.1988
0.375454
-1.71608e-05
-1.1988
0.375451
-3.3797e-05
-1.19883
0.375451
-1.19861
0.37543
3.55078e-05
-1.22678
0.0379035
8.6462e-06
-1.2269
0.0378927
-7.19709e-06
-1.22688
0.0378948
-2.28507e-05
-1.22688
0.0378964
-5.15769e-05
-1.2269
0.0378969
-1.22678
0.0379091
2.34575e-05
0.0388557
6.64799e-06
0.0388552
-2.53539e-06
0.0388542
-1.14847e-05
0.0388536
-2.99651e-05
0.0388531
0.0388541
2.36188e-05
-1.35327
0.481181
5.1192e-06
-1.35346
0.481185
-6.61458e-06
-1.35343
0.481181
-2.22868e-05
-1.35343
0.481178
-4.54626e-05
-1.35347
0.481174
-1.35327
0.481159
3.71672e-05
-1.3283
0.0129006
7.91619e-06
-1.32843
0.0128853
-5.93154e-06
-1.32841
0.0128899
-1.89881e-05
-1.32841
0.0128921
-4.81001e-05
-1.32843
0.0128908
-1.32831
0.0129116
2.24268e-05
0.027561
3.52442e-06
0.0275628
-4.47746e-06
0.0275626
-1.06977e-05
0.0275625
-2.64678e-05
0.0275629
0.0275621
2.04889e-05
-1.39517
0.478446
5.23976e-06
-1.39537
0.478446
-4.36528e-06
-1.39534
0.478441
-1.88026e-05
-1.39534
0.478439
-3.91608e-05
-1.39538
0.478434
-1.39519
0.478425
3.88173e-05
-1.3562
-0.0261054
1.2222e-05
-1.35633
-0.0261248
1.49628e-06
-1.35631
-0.0261192
-9.09906e-06
-1.35631
-0.026118
-4.02315e-05
-1.35633
-0.026121
-1.35621
-0.0261
2.68844e-05
0.0154549
6.63479e-06
0.0154579
-1.93983e-06
0.0154574
-8.41131e-06
0.0154563
-2.42087e-05
0.0154555
0.0154512
2.27154e-05
-1.48421
0.24557
4.46482e-06
-1.48438
0.245574
-1.2189e-05
-1.48435
0.245566
-1.80712e-05
-1.48435
0.245547
-2.06176e-05
-1.48437
0.245538
-1.48422
0.245555
2.76756e-05
-1.44415
-0.0661893
9.50985e-06
-1.44427
-0.0662103
-9.56874e-07
-1.44426
-0.0662019
-9.32036e-06
-1.44426
-0.0661997
-3.02384e-05
-1.44428
-0.0661958
-1.44415
-0.0661974
2.78116e-05
-0.000916686
7.37837e-06
-0.000912898
-4.79526e-06
-0.000915848
-1.33439e-05
-0.000918934
-2.59209e-05
-0.000919002
-0.000921978
7.8557e-06
-1.60655
-0.387662
9.54834e-06
-1.60667
-0.38768
5.55788e-07
-1.60667
-0.387703
-2.90377e-06
-1.60669
-0.387762
1.4287e-05
-1.60672
-0.387795
-1.60655
-0.387705
9.26502e-06
-1.42931
-0.243439
-8.53023e-07
-1.42941
-0.243458
-8.97029e-06
-1.4294
-0.243461
-2.33633e-05
-1.4294
-0.243472
-5.46962e-05
-1.42943
-0.243455
-1.42929
-0.243513
2.31216e-05
0.0747546
5.10939e-06
0.0747676
-7.51309e-06
0.0747606
-1.50999e-05
0.0747567
-2.65391e-05
0.0747584
0.0747524
5.19572e-05
-2.11323
0.492667
6.96351e-05
-2.11348
0.49264
9.36254e-05
-2.11343
0.492625
5.09573e-05
-2.1134
0.49261
-0.000113486
-2.11351
0.492619
-2.11324
0.492688
9.01895e-06
-1.55538
-0.801296
-3.78961e-05
-1.5555
-0.801384
-5.84642e-05
-1.5555
-0.801374
-4.75644e-05
-1.55551
-0.801371
-9.46707e-05
-1.55558
-0.801338
-1.55542
-0.801436
4.18662e-05
0.0168383
-2.78785e-06
0.0168657
-1.886e-05
0.0168352
-7.52429e-06
0.0168088
-1.59278e-05
0.0168006
0.0168115
0.000108773
0.866093
2.72753
0.000236519
0.865853
2.72771
0.00030509
0.865971
2.72764
0.000204185
0.866161
2.72767
5.44487e-05
0.866163
2.72772
0.866093
2.72777
6.9304e-05
-0.960142
1.02487
-1.22294e-05
-0.960327
1.02488
-3.19579e-05
-0.960255
1.02487
-1.35993e-05
-0.960169
1.02494
1.74173e-06
-0.960199
1.02501
-0.96009
1.02475
9.59593e-06
0.592467
-8.52534e-05
0.592461
-0.000111793
0.592467
-5.97424e-05
0.592492
-2.2622e-05
0.592531
0.592439
0.000334339
4.35646
2.63796
0.000269556
4.35708
2.63827
0.00031095
4.35695
2.63812
0.000266511
4.35705
2.63816
0.000200519
4.35719
2.63818
4.35707
2.63831
0.000457262
3.29838
2.0825
0.000327137
3.29889
2.08321
0.000374102
3.29886
2.08292
0.000249057
3.29904
2.08308
-0.000206
3.29894
2.08372
3.29942
2.0822
0.000146872
1.95339
9.08976e-05
1.95363
6.76852e-05
1.95344
-8.87192e-05
1.95353
-0.000461312
1.954
1.95262
0.00025412
3.83023
1.32814
0.00021926
3.8313
1.32865
0.000141775
3.83093
1.32856
0.000123422
3.83081
1.32858
-0.000135164
3.83079
1.329
3.83109
1.32819
0.000405333
5.20345
0.708875
0.000416541
5.20452
0.709972
0.000283034
5.20433
0.709652
0.000229215
5.20435
0.709599
0.000394324
5.20416
0.710186
5.2049
0.70879
0.000152713
2.23802
5.24707e-05
2.23846
-8.77268e-05
2.23816
9.90949e-05
2.23769
6.70827e-06
2.23833
2.23696
6.87406e-05
1.588
0.998931
6.59505e-05
1.58869
0.999113
6.20748e-05
1.58848
0.999159
4.10568e-05
1.58846
0.999187
-0.000135055
1.58874
0.999552
1.58815
0.998899
0.000210384
0.821938
1.47473
0.00012294
0.823631
1.47512
0.000178861
0.823043
1.47503
-3.49156e-06
0.823054
1.47519
-0.000409607
0.823789
1.47555
0.821718
1.47481
0.000287852
2.15257
-0.000289635
2.15275
-0.000434369
2.15244
-0.000146584
2.15164
-0.000529781
2.15251
2.15155
0.0016203
0.0547677
-2.44364
2.38725
0.000179516
0.0568353
-2.44304
2.38764
-0.00227667
0.0572423
-2.44248
2.38769
-0.000975012
0.0549036
-2.44352
2.38731
0.00630735
0.0486217
-2.4424
2.38649
0.06045
-2.44791
2.39377
0.00180205
0.374612
0.931846
-1.25349
0.000610403
0.380118
0.932369
-1.25446
-0.00112666
0.381156
0.931548
-1.25373
0.00140881
0.377945
0.929146
-1.25473
-0.00529734
0.400098
0.904812
-1.24958
0.359934
0.955998
-1.26078
0.00190763
-0.0604368
-0.381743
0.00235036
-0.066452
-0.377525
0.00085056
-0.068318
-0.374626
0.00509168
-0.0615791
-0.384265
-0.011126
-0.0810972
-0.365847
-0.044272
-0.391936
1.6022e-05
-1.02256
-1.42109
4.74852e-05
-1.02292
-1.42015
-0.000691345
-1.02212
-1.41962
0.000598023
-1.02294
-1.42187
0.00415652
-1.02498
-1.42098
-1.01878
-1.42497
0.000287807
1.61092
-1.70193
-0.00107271
1.61272
-1.70192
-0.00155864
1.61213
-1.70222
-0.000450206
1.61132
-1.70622
0.000560886
1.60515
-1.72632
1.62001
-1.68223
0.00155696
-3.05617
-0.00127116
-3.06017
-0.00564899
-3.05897
-0.00192571
-3.05964
0.00463537
-3.06992
-3.04515
-0.000298614
-0.578879
-0.841914
0.000177822
-0.579196
-0.841426
0.000855388
-0.5789
-0.841399
0.00100676
-0.578422
-0.843597
-0.00162993
-0.573118
-0.845227
-0.585165
-0.841438
0.000474034
0.671625
-2.9529
-0.00114187
0.673402
-2.9529
-0.00362558
0.673978
-2.95262
-7.10744e-05
0.666259
-2.95446
0.00421721
0.6555
-2.95923
0.685577
-2.94875
0.00103224
-4.43577
-0.00204718
-4.43755
-0.00516576
-4.43704
-0.00158438
-4.43461
0.00551138
-4.43212
-4.43859
0.000190034
-0.373792
-0.468312
0.00071826
-0.373702
-0.468252
0.00149512
-0.373823
-0.468353
0.00102477
-0.37408
-0.469047
-0.000586788
-0.374089
-0.469526
-0.373677
-0.468347
0.000148521
-1.29043
-2.03641
-0.00116169
-1.28843
-2.03686
-0.00274798
-1.28811
-2.03674
0.000349278
-1.29756
-2.03407
0.00318998
-1.30256
-2.0336
-1.28187
-2.03737
0.0004099
-2.7606
-0.000787187
-2.76062
-0.0012234
-2.76094
-0.000517901
-2.75799
0.000218214
-2.7575
-2.76253
0.000260569
0.0788149
-0.547388
0.000412228
0.0788667
-0.547271
0.000544016
0.0787977
-0.547282
0.000306181
0.0790163
-0.547825
-0.000206629
0.0797584
-0.548772
0.0780243
-0.546578
-8.04003e-06
-0.358189
-1.5994
0.000466994
-0.358844
-1.59963
0.00132079
-0.359153
-1.59964
0.000228916
-0.354262
-1.5997
-0.00254758
-0.350084
-1.60098
-0.363494
-1.5984
0.00028308
-2.32325
-0.000111514
-2.32264
-0.00111715
-2.32224
0.000199646
-2.3236
0.00306572
-2.32598
-2.32006
7.42744e-05
0.451469
0.000214673
0.451702
0.000533202
0.451559
0.000139727
0.451755
-0.00145135
0.452372
0.450869
0.000204644
0.326594
-3.96442e-05
0.327436
-0.000606612
0.327515
-4.94989e-05
0.326684
0.00152198
0.325368
0.328802
0.000223674
0.000268604
0.000499462
-6.9282e-05
-0.000829296
9.44448e-07
0.0280407
-0.00404437
1.09467e-06
0.0280398
-0.00404416
1.09042e-06
0.0280397
-0.00404408
8.94312e-07
0.0280396
-0.00404401
4.61137e-07
0.0280394
-0.00404394
0.02804
-0.00404406
5.19622e-07
0.0304481
-0.00240825
4.90355e-07
0.0304472
-0.00240821
4.00037e-07
0.0304471
-0.00240829
2.01955e-07
0.030447
-0.00240838
-8.31316e-08
0.030447
-0.00240847
0.0304478
-0.00240863
1.63075e-07
-0.00127576
1.37666e-07
-0.00127579
7.82383e-08
-0.00127582
-3.28517e-08
-0.00127585
-1.8223e-07
-0.00127588
-0.00127589
1.2273e-06
0.0296892
-0.0087435
1.2385e-06
0.0296883
-0.00874321
1.30823e-06
0.0296881
-0.00874301
1.12293e-06
0.0296878
-0.0087428
5.45531e-07
0.0296875
-0.00874259
0.0296881
-0.00874262
4.99385e-07
0.0320784
-0.00479911
3.92329e-07
0.0320773
-0.00479898
3.13935e-07
0.0320772
-0.00479894
1.15462e-07
0.0320771
-0.00479887
-2.32448e-07
0.032077
-0.00479878
0.0320779
-0.00479882
-2.60244e-08
-0.00307035
-4.96497e-08
-0.00307038
-7.40043e-08
-0.00307038
-1.32204e-07
-0.00307036
-2.08487e-07
-0.00307031
-0.00307022
1.16968e-06
0.0332034
-0.0150316
1.59823e-06
0.0332025
-0.0150307
1.9636e-06
0.0332023
-0.01503
1.8505e-06
0.033202
-0.0150294
1.08374e-06
0.0332017
-0.0150289
0.0332023
-0.0150289
2.08474e-07
0.0355314
-0.00712906
3.63697e-07
0.0355303
-0.00712834
5.17537e-07
0.0355302
-0.00712781
4.85774e-07
0.03553
-0.00712726
2.40179e-07
0.0355299
-0.0071268
0.0355309
-0.0071268
-1.59308e-07
-0.00605866
-5.81816e-08
-0.0060586
4.09107e-08
-0.0060585
1.21397e-07
-0.00605835
2.06872e-07
-0.00605822
-0.00605809
2.75375e-06
0.0389052
-0.0244042
4.08509e-06
0.0389039
-0.0244023
4.5005e-06
0.0389034
-0.0244015
3.90501e-06
0.0389027
-0.0244009
2.31643e-06
0.0389019
-0.0244008
0.0389022
-0.0244014
1.57002e-06
0.0410751
-0.0093013
2.44455e-06
0.0410736
-0.00929929
2.71319e-06
0.0410732
-0.00929814
2.39466e-06
0.0410728
-0.00929718
1.42133e-06
0.0410724
-0.00929652
0.0410733
-0.00929704
1.26631e-07
-0.0113098
3.49586e-07
-0.0113099
5.62354e-07
-0.0113098
6.3879e-07
-0.0113096
6.27499e-07
-0.0113095
-0.0113092
6.65114e-06
0.0473084
-0.0393795
8.01431e-06
0.047304
-0.0393768
7.1138e-06
0.0473013
-0.0393767
5.01864e-06
0.0472989
-0.0393771
2.54607e-06
0.0472966
-0.039378
0.0472961
-0.0393795
4.44867e-06
0.0490977
-0.0110952
5.73801e-06
0.0490955
-0.0110928
5.51133e-06
0.0490948
-0.0110921
4.30757e-06
0.0490941
-0.011092
2.20661e-06
0.0490936
-0.0110921
0.0490947
-0.0110938
6.90509e-07
-0.0208745
1.02237e-06
-0.0208747
1.51132e-06
-0.0208745
1.23177e-06
-0.0208732
1.11187e-06
-0.020873
-0.0208705
9.89097e-06
0.0599284
-0.0652643
9.15075e-06
0.0599157
-0.0652632
5.31471e-06
0.0599088
-0.0652662
1.9681e-06
0.0599033
-0.0652695
9.13601e-07
0.0598996
-0.0652734
0.0598998
-0.0652765
1.01649e-05
0.060617
-0.0117942
1.14223e-05
0.0606135
-0.0117921
9.09728e-06
0.0606125
-0.0117933
6.19084e-06
0.060612
-0.0117969
2.8238e-06
0.0606116
-0.0117995
0.0606137
-0.0118047
-2.4174e-08
-0.0377902
3.50748e-07
-0.0377907
1.94402e-06
-0.0377907
2.09126e-06
-0.0377864
4.60272e-06
-0.0377878
-0.0377769
1.26975e-05
0.0775572
-0.109556
8.55665e-06
0.0775329
-0.109559
1.07562e-06
0.0775226
-0.109567
-4.54251e-06
0.0775176
-0.109574
-3.46495e-06
0.0775175
-0.109583
0.0775269
-0.109585
1.24813e-05
0.0749076
-0.00915637
8.06779e-06
0.074903
-0.00915674
-4.54755e-08
0.0749031
-0.00916407
-5.08177e-06
0.0749048
-0.00917723
-6.92876e-06
0.0749056
-0.00918536
0.0749095
-0.00919551
8.98256e-06
-0.0729533
1.51503e-05
-0.0729502
2.59049e-05
-0.0729519
1.83127e-05
-0.0729232
2.21719e-05
-0.0729361
-0.0728948
-3.99111e-06
0.111434
-0.195624
-2.3666e-05
0.111408
-0.195634
-3.7313e-05
0.111408
-0.195652
-4.63421e-05
0.11142
-0.195662
-2.32717e-05
0.111437
-0.195691
0.111478
-0.195683
2.33959e-06
0.10553
-0.00325416
-1.15413e-05
0.105526
-0.003261
-2.68886e-05
0.105528
-0.00326961
-4.23541e-05
0.10554
-0.0032831
-3.86634e-05
0.105543
-0.00329767
0.105559
-0.00331391
-4.88716e-06
-0.112227
3.7359e-06
-0.112239
3.58655e-05
-0.112267
3.14823e-05
-0.112182
0.000136754
-0.112318
-0.111986
-4.79585e-05
0.133255
-0.314448
-9.87712e-05
0.133261
-0.314477
-0.000107847
0.133289
-0.314526
-0.000137469
0.133358
-0.31452
-5.55219e-05
0.133395
-0.314615
0.133483
-0.314566
-4.66546e-05
0.120884
0.00916414
-0.000119289
0.120888
0.00918334
-0.000130755
0.120894
0.00913515
-0.000129424
0.120918
0.00915358
-3.63589e-05
0.120941
0.00906227