/*--------------------------------*- C++ -*----------------------------------*\
| =========                 |                                                 |
| \\      /  F ield         | OpenFOAM: The Open Source CFD Toolbox           |
|  \\    /   O peration     | Version:  v1612+                                |
|   \\  /    A nd           | Web:      www.OpenFOAM.com                      |
|    \\/     M anipulation  |                                                 |
\*---------------------------------------------------------------------------*/
FoamFile
{
    version     2.0;
    format      ascii;
    class       volScalarField;
    location    "6.65";
    object      alpha.water;
}
// * * * * * * * * * * * * * * * * * * * * * * * * * * * * * * * * * * * * * //

dimensions      [0 0 0 0 0 0 0];

internalField   nonuniform List<scalar> 
1116
(
0.658541
0.658541
0.658542
0.658542
0.658542
0.658543
0.930318
0.93037
0.930337
0.930328
0.930343
0.930328
0.974415
0.974415
0.974415
0.974415
0.974415
0.974415
0.974415
0.974415
0.974415
0.974415
0.974415
0.974415
0.971161
0.971173
0.971155
0.971203
0.971229
0.971119
0.929162
0.929131
0.929112
0.929225
0.929266
0.929063
0.899169
0.899137
0.899121
0.899236
0.899283
0.899053
0.882794
0.882813
0.882829
0.882833
0.882854
0.882754
0.875909
0.875912
0.875997
0.875885
0.875878
0.875939
0.872355
0.872221
0.872363
0.872279
0.872418
0.872195
0.870348
0.870174
0.870349
0.870247
0.870429
0.870137
0.869038
0.869076
0.869074
0.869026
0.869206
0.869287
0.756822
0.756729
0.756777
0.756801
0.756776
0.756798
0.930231
0.930282
0.930249
0.930241
0.930256
0.930241
0.799659
0.799555
0.799596
0.799635
0.799629
0.799626
0.457513
0.457259
0.457343
0.457443
0.457395
0.457416
0.288037
0.2882
0.288141
0.288076
0.288035
0.288164
0.203456
0.203568
0.203522
0.203511
0.203452
0.203549
0.150493
0.15037
0.15042
0.15043
0.150541
0.150373
0.138417
0.137757
0.13787
0.138343
0.138855
0.137505
0.172634
0.172126
0.172364
0.172547
0.172088
0.172765
0.2125
0.213684
0.213346
0.212706
0.211
0.21505
0.231423
0.22947
0.230629
0.230493
0.232321
0.228659
0.213813
0.209539
0.210795
0.213199
0.216372
0.208167
0.757678
0.757633
0.757645
0.757657
0.757645
0.757654
0.338704
0.338711
0.338752
0.338688
0.338667
0.338793
0.0768964
0.0768752
0.0768955
0.0768808
0.0768437
0.0769443
0.00351637
0.00346931
0.00348447
0.00350059
0.0034927
0.00349493
1.94465e-07
1.61266e-07
1.62464e-07
1.83483e-07
2.08085e-07
1.4494e-07
1.04753e-05
8.80257e-06
8.91438e-06
9.9209e-06
1.09704e-05
7.94081e-06
2.06787e-05
1.97448e-05
1.91466e-05
2.04702e-05
1.87838e-05
1.72109e-05
0.00120202
0.00108209
0.00108289
0.00120044
0.00133618
0.00100087
0.00945043
0.00927128
0.00918407
0.00955264
0.0100599
0.00892742
0.0264466
0.0265423
0.0265251
0.026366
0.0260761
0.0268126
0.030322
0.0311892
0.0310036
0.0301779
0.0291774
0.0318325
0.0287497
0.0287322
0.0287441
0.0287793
0.0287981
0.0287661
0.7499
0.750148
0.750084
0.749987
0.750012
0.750046
1.45808e-08
1.44664e-08
1.43597e-08
1.42751e-08
1.40289e-08
1.38221e-08
1.44664e-08
1.43597e-08
1.42751e-08
1.40289e-08
1.38221e-08
1.38221e-08
1.45808e-08
1.44664e-08
1.43597e-08
1.42751e-08
1.40289e-08
1.38221e-08
1.83519e-08
1.81869e-08
1.77812e-08
1.82226e-08
1.8649e-08
1.65674e-08
1.79535e-07
1.53284e-07
1.54595e-07
1.71408e-07
1.89192e-07
1.3663e-07
6.91202e-05
3.6134e-05
3.34329e-05
5.1525e-05
6.94768e-05
2.4117e-05
0.0063563
0.00594861
0.00591117
0.00616618
0.00640485
0.00560486
0.00988508
0.00988727
0.00992805
0.0100581
0.0101791
0.00997318
0.00469047
0.00465078
0.00474625
0.0046073
0.00446818
0.00485401
0.00934751
0.00931139
0.00935616
0.00923069
0.00942477
0.00918587
0.0292126
0.0291864
0.029211
0.0292564
0.0292785
0.0292246
0.0918399
0.0918457
0.0918499
0.0918517
0.0918523
0.0918523
0.0918372
0.0918396
0.0918457
0.0918499
0.0918517
0.0918524
0.0739504
0.0879781
0.0745688
0.0917902
0.0918315
0.0918449
0.0740733
0.0182099
0.0483604
0.0381997
0.0793759
0.0915111
0.0643578
0.0189901
0.0508795
0.0233332
0.0568733
0.0891102
0.0477345
0.0798718
0.0816841
0.079923
0.0718369
0.0805187
0.070969
0.0815081
0.0816308
0.0814095
0.0809232
0.0806867
0.0805383
0.0811689
0.0813268
0.0761756
0.0799357
0.0722898
0.0810477
0.0810923
0.080992
0.0745925
0.0778302
0.0416787
0.0809798
0.0810837
0.0807767
0.0820915
0.0827598
0.0467882
0.0781239
0.0808419
0.0814167
0.0830166
0.083274
0.0736759
0.0424115
0.0424613
0.0574964
0.0578702
0.083274
0.0458173
0.0918372
0.0764038
0.0918457
0.0693206
0.0790374
0.0918523
0.0595579
0.0196969
0.0491164
0.0303835
0.0276319
0.0736516
0.00453054
0.00543828
0.00262009
0.00627763
0.00726122
0.00642483
0.00215579
0.00312675
0.00231674
0.00311999
0.00303162
0.0025381
0.000125933
0.00184411
0.0014114
0.00160251
0.00117988
2.5559e-10
0.000283241
0.000205621
0.000618514
6.60724e-05
5.73428e-11
1.34751e-11
4.1161e-10
2.29863e-08
6.99373e-10
2.33365e-08
1.93288e-08
5.18532e-09
4.32288e-09
5.45431e-08
1.80302e-08
3.68785e-09
6.93912e-09
2.27774e-08
2.13124e-07
8.81315e-07
2.37508e-07
1.70276e-07
2.26229e-08
0.000250387
9.58835e-05
0.000121618
9.6425e-07
9.18439e-05
0.000255526
0.00220477
0.0238962
0.0203387
0.00968261
0.0403967
0.0470509
0.0289937
0.0780961
0.0791177
0.0800314
0.0831262
0.083274
0.0831114
0.0839538
0.0901887
0.0891014
0.0358382
0.0425344
0.0911009
0.0125683
5.48391e-05
0.00732303
4.84784e-05
0.000555039
0.0226617
6.95013e-10
9.595e-09
-6.41399e-09
1.70453e-08
2.26702e-08
1.52104e-08
7.95192e-11
1.23547e-10
6.2292e-11
1.52635e-09
4.76963e-09
2.54864e-10
4.82818e-11
2.60921e-11
3.03801e-11
7.12237e-11
5.48591e-11
1.34749e-11
7.79263e-11
5.58455e-11
5.59221e-11
3.72377e-11
1.34758e-11
1.31459e-11
1.75677e-10
1.07273e-07
6.896e-11
3.48714e-07
5.09465e-08
8.28989e-12
9.21066e-11
1.44214e-09
5.89114e-10
1.66524e-10
6.44213e-09
2.93778e-09
4.14802e-09
2.37175e-08
7.83936e-09
9.62494e-10
2.48493e-10
1.03978e-08
1.37563e-07
2.84011e-07
3.13097e-07
1.62114e-07
2.26346e-08
4.06417e-07
3.52663e-06
2.60683e-06
9.65658e-07
3.21588e-07
2.79148e-06
1.03591e-06
0.0358341
0.0233077
0.00845535
0.0288427
0.025534
0.0375966
0.0835417
0.0902772
0.0903619
0.0756863
0.0512859
0.0909574
0.000790002
3.62618e-05
0.000258497
2.14687e-08
3.36016e-08
0.00229021
1.0042e-08
1.13131e-10
3.59704e-09
9.61095e-09
2.67994e-08
3.29402e-08
3.22555e-11
2.60921e-11
2.14497e-11
3.40285e-08
1.38782e-07
7.49442e-07
4.38882e-13
5.76833e-13
1.4336e-11
5.46303e-11
4.81099e-12
6.32765e-10
5.43718e-09
5.59311e-09
3.90072e-10
7.56967e-09
7.82976e-10
9.421e-12
1.97239e-08
3.77761e-08
1.9331e-10
2.62677e-08
5.09411e-09
1.39683e-12
1.82483e-12
3.44722e-11
9.25415e-11
7.08751e-12
4.18911e-09
2.98392e-11
-2.87132e-10
1.43117e-09
6.48202e-10
9.6321e-11
2.50491e-10
1.29376e-10
4.66718e-09
2.23248e-08
1.62815e-07
2.14088e-07
1.29842e-10
2.77809e-07
8.92039e-07
6.68216e-06
1.19566e-05
0.000491915
0.00546395
0.000178019
8.05748e-06
0.000104197
0.00145406
0.000805457
0.0230981
0.000195827
0.670465
0.670563
0.670497
0.670465
0.670487
0.670521
0.214449
0.213646
0.213876
0.214041
0.213858
0.214125
0.00595452
0.00591718
0.00593396
0.0059373
0.0059353
0.00593969
0.0100765
0.0101079
0.0101022
0.010094
0.0101036
0.01009
0.0124475
0.0124711
0.0124701
0.0124611
0.0124807
0.0124544
0.00593432
0.00589688
0.00591366
0.00591705
0.00591504
0.0059194
1.45808e-08
1.44664e-08
1.43597e-08
1.42751e-08
1.40289e-08
1.38221e-08
1.32739e-08
1.27336e-08
1.21482e-08
1.33221e-08
1.43057e-08
1.05525e-08
2.28531e-20
-3.36615e-19
-1.24927e-20
-3.02464e-21
-6.78852e-20
1.55977e-20
1.7678e-08
1.80896e-08
1.75843e-08
1.78245e-08
1.82112e-08
1.64844e-08
6.36788e-08
5.68257e-08
5.05658e-08
6.48725e-08
7.69949e-08
3.34776e-08
-1.25521e-09
-1.70533e-09
-1.90325e-09
-1.26602e-09
-1.31477e-09
-2.30833e-09
1.47654e-07
1.33097e-07
1.26214e-07
1.47854e-07
1.6733e-07
1.02419e-07
2.04288e-05
7.21354e-06
6.51736e-06
1.69075e-05
2.28163e-05
8.38525e-07
0.000239298
0.00024449
0.000220168
0.000253447
0.000291379
0.000154116
2.77398e-06
2.43951e-06
2.40127e-06
2.72585e-06
3.44225e-06
2.10704e-06
0.000589979
0.000517841
0.000513103
0.000580923
0.000621616
0.000385311
0.000830591
0.000833914
0.000842169
0.000847103
0.000848501
0.000849899
0.00122929
0.00107201
0.00107725
0.00118919
0.00129367
0.000956509
0.00122312
0.00115534
0.001136
0.00121157
0.00128453
0.00120029
0.000781391
0.000791612
0.000799874
0.000773146
0.000743438
0.000825706
0.00247897
0.00243978
0.00245431
0.00245073
0.0023878
0.00257088
0.000400481
0.000426073
0.000436608
0.000386015
0.000332676
0.000446419
1.08212e-22
1.02091e-22
1.02091e-22
1.95281e-22
2.82433e-22
1.02885e-22
1.15909e-08
1.02423e-08
1.02336e-08
1.58629e-08
2.08731e-08
1.19323e-08
5.12573e-09
5.11657e-09
5.12572e-09
5.11657e-09
5.96618e-09
5.96618e-09
1.18968e-08
1.17849e-08
1.17453e-08
2.70388e-08
3.98187e-08
1.16157e-08
1.19695e-07
4.5817e-08
4.17007e-08
1.33963e-07
9.11174e-08
7.73087e-08
-8.75838e-16
-4.41665e-12
-1.05086e-12
-9.29464e-14
3.45457e-10
-4.08686e-12
2.26393e-06
2.27225e-06
2.27297e-06
2.27908e-06
2.28085e-06
2.26219e-06
-4.07828e-11
-5.73036e-11
-2.84868e-11
-6.18172e-11
-5.34069e-11
-1.42033e-10
-1.78991e-16
-1.75869e-16
-1.64464e-16
-1.73316e-16
-1.80963e-16
-7.10044e-16
1.28338e-21
1.23188e-21
1.22891e-21
1.29864e-21
2.58134e-21
1.23785e-21
0.0170746
0.0167898
0.0167635
0.0167498
0.0168874
0.0165777
-6.1642e-15
-6.13837e-15
-6.2433e-15
-6.06697e-15
-6.14298e-15
-5.46889e-15
1.90833e-10
1.88886e-10
1.89438e-10
1.92122e-10
1.95418e-10
1.85067e-10
0.0660103
0.0664271
0.0667113
0.0666686
0.066071
0.0661642
5.2345e-27
2.94037e-27
9.69352e-28
2.60917e-27
1.19553e-27
3.06962e-27
7.78733e-12
4.33556e-12
1.30479e-12
3.49315e-12
1.18119e-12
4.41919e-12
0.0719677
0.0718134
0.071723
0.0723713
0.0725202
0.0722262
-4.60951e-16
-3.8819e-16
-9.79453e-18
-7.76642e-19
-1.47421e-16
-9.14835e-17
-3.36011e-26
-2.53414e-26
-4.56384e-26
-2.76112e-26
-3.835e-26
-2.15916e-26
0.0724938
0.0725864
0.0727347
0.0728554
0.0728817
0.0727932
-2.28426e-15
-1.85779e-15
-3.11494e-15
-1.38215e-16
-1.97886e-14
-1.04508e-15
-4.2067e-26
-3.98015e-26
-4.28464e-26
-3.81119e-26
-6.97257e-26
-2.51528e-26
0.0724348
0.0724877
0.0725862
0.0726667
0.0726762
0.0726477
-1.63167e-15
-1.32644e-15
-2.34462e-15
-8.5011e-17
-1.45353e-14
-7.27933e-16
-4.20907e-26
-4.90688e-26
-5.36443e-26
-5.09188e-26
-5.59796e-26
-3.86732e-26
0.0721468
0.0721807
0.0722586
0.072318
0.0723197
0.0723176
-9.5264e-16
-7.75018e-16
-1.41183e-15
-1.32618e-16
-8.54838e-15
-4.10242e-16
-2.60753e-26
-3.07945e-26
-3.36282e-26
-3.32143e-26
-3.65889e-26
-2.62299e-26
0.0676124
0.0674383
0.0673177
0.0671805
0.0671684
0.0672675
-4.20469e-16
-3.42009e-16
-6.40379e-16
-1.05926e-16
-3.80829e-15
-1.76921e-16
-1.77243e-26
-2.12349e-26
-2.31077e-26
-2.39542e-26
-2.66615e-26
-1.97272e-26
0.0835339
0.0810819
0.0903623
0.090363
0.0501714
0.0908546
0.0825435
0.0213198
0.0345334
0.0315716
0.0199475
0.0907376
0.0172394
1.83312e-05
8.21212e-05
7.5931e-05
1.34941e-05
0.0240747
0.00110868
0.000670367
0.00134882
0.000784897
7.92638e-05
0.00433951
0.000517031
0.000251261
0.000973069
0.00070049
0.000135898
0.00375295
9.45416e-05
1.29394e-05
0.000116746
0.000126397
1.13778e-05
0.00150887
3.06163e-11
1.02155e-09
2.00723e-11
5.9127e-09
5.93771e-09
7.70758e-08
1.29617e-09
2.33252e-06
1.73338e-06
1.25496e-10
9.23064e-11
1.32167e-08
3.98949e-13
1.51138e-06
6.71165e-20
1.90167e-09
6.37119e-09
9.22072e-12
3.26903e-13
1.86309e-09
7.27253e-12
1.51567e-08
8.68466e-08
9.25213e-07
-9.49999e-12
1.13999e-09
1.29332e-10
-1.20848e-14
-3.43412e-14
8.21964e-08
-6.81444e-15
4.55925e-08
2.85379e-08
1.02005e-08
7.60748e-09
4.15009e-19
-2.02845e-14
3.62205e-13
1.44664e-11
5.53242e-18
3.31858e-18
2.30156e-18
1.79928e-16
6.4812e-18
4.71664e-18
4.08948e-18
2.28509e-18
1.20131e-18
2.57634e-16
9.18933e-24
5.27749e-23
1.47429e-22
2.57551e-22
8.0713e-20
1.91734e-10
1.01513e-10
8.82912e-11
2.16811e-16
2.28434e-11
5.58928e-11
3.67007e-16
1.57127e-16
1.21632e-17
1.78368e-17
4.73699e-18
6.86085e-18
3.26915e-14
3.05773e-14
2.61548e-14
3.49107e-14
3.20095e-14
1.18085e-14
2.30391e-09
3.66006e-12
4.80674e-12
5.35143e-15
5.26945e-12
9.25926e-15
2.21045e-14
2.55028e-14
4.24537e-14
2.0025e-16
9.64622e-17
1.03752e-16
2.15491e-13
2.19177e-13
1.81906e-13
2.44722e-13
2.32416e-13
8.58801e-14
1.32245e-14
3.4084e-13
3.35961e-12
-1.73807e-13
2.57474e-14
9.33351e-14
1.2933e-14
1.93398e-14
1.07287e-12
4.75586e-13
2.45364e-14
1.87975e-16
1.28839e-14
2.11616e-14
1.87312e-14
2.11805e-14
1.98067e-14
1.43652e-14
1.26599e-13
5.16823e-11
-4.71401e-10
-6.79136e-10
-1.77443e-11
-8.93888e-14
3.92102e-12
2.27012e-10
3.12516e-09
5.54603e-11
-4.51464e-16
9.1392e-19
4.13163e-16
1.93163e-21
6.72873e-14
2.10545e-18
7.00045e-21
3.06563e-24
-2.99339e-08
-1.64869e-08
-4.51722e-08
-3.62022e-09
-2.58712e-10
-2.68261e-10
1.92484e-12
3.55362e-12
2.48072e-11
1.08401e-12
1.47132e-14
1.02738e-12
2.06856e-10
2.06738e-10
1.90762e-10
1.88045e-10
1.68432e-10
1.68235e-10
-1.09507e-08
-5.58889e-09
-4.3984e-08
-1.12429e-09
-2.32318e-09
-3.62814e-09
1.64637e-12
1.98535e-12
1.98778e-12
2.22759e-12
6.15892e-13
1.47714e-12
6.8296e-11
7.61946e-11
9.08353e-11
5.72295e-11
1.36008e-10
1.24186e-10
0.0150267
0.0177854
0.0197861
0.0161083
0.0125982
0.01474
9.49291e-14
5.49662e-14
1.89351e-14
4.80809e-14
2.20673e-14
5.50477e-14
1.02872e-10
8.36938e-11
7.78161e-11
2.0248e-10
2.96613e-10
1.17756e-10
)
;

boundaryField
{
    seabed_topleft_surface
    {
        type            zeroGradient;
    }
    seabed_topright_surface
    {
        type            zeroGradient;
    }
    breakwater_top_surface
    {
        type            zeroGradient;
    }
    breakwater_left_surface
    {
        type            zeroGradient;
    }
    breakwater_right_surface
    {
        type            zeroGradient;
    }
    water_front_surface
    {
        type            zeroGradient;
    }
    water_back_surface
    {
        type            zeroGradient;
    }
    water_left_surface
    {
        type            zeroGradient;
    }
    water_right_surface
    {
        type            zeroGradient;
    }
    water_top_surface
    {
        type            inletOutlet;
        inletValue      uniform 0;
        value           nonuniform List<scalar> 
180
(
0.00595452
0.00591718
0.00593396
0.0059373
0.0059353
0.00593969
0.00593432
0.00589688
0.00591366
0.00591705
0.00591504
0.0059194
0
0
0
0
0
0
0
0
0
0
0
0
0.000239298
0.00024449
0.000220168
0.000253447
0.000291379
0.000154116
0.000830591
0.000833914
0.000842169
0.000847103
0.000848501
0.000849899
0.000781391
0.000791612
0.000799874
0.000773146
0.000743438
0.000825706
0
0
0
0
0
0
0
0
0
0
0
0
0
0
0
0
0
0
0
0
0
0
0
0
0
0
0
0
0
0
0
0
0
0
0
0
0
0
0
0
0
0
0
0
0
0
0
0
0
0
0
0
0
0
0
0
0
0
0
0
0
0
0
0
0
0
0.0172394
1.83312e-05
8.21212e-05
7.5931e-05
1.34941e-05
0.0240747
9.45416e-05
1.29394e-05
0.000116746
0.000126397
1.13778e-05
0.00150887
3.98949e-13
0
0
1.90167e-09
0
9.22072e-12
0
0
0
0
0
0
0
0
0
0
0
0
0
0
0
0
0
0
2.15491e-13
2.19177e-13
1.81906e-13
2.44722e-13
0
8.58801e-14
1.28839e-14
2.11616e-14
1.87312e-14
0
0
0
0
0
0
0
0
0
0
0
0
0
0
0
0
0
0
0
0
0
0
0
0
0
0
0
)
;
    }
}


// ************************************************************************* //
