/*--------------------------------*- C++ -*----------------------------------*\
| =========                 |                                                 |
| \\      /  F ield         | OpenFOAM: The Open Source CFD Toolbox           |
|  \\    /   O peration     | Version:  v1612+                                |
|   \\  /    A nd           | Web:      www.OpenFOAM.com                      |
|    \\/     M anipulation  |                                                 |
\*---------------------------------------------------------------------------*/
FoamFile
{
    version     2.0;
    format      ascii;
    class       volScalarField;
    location    "8.9";
    object      alpha.water;
}
// * * * * * * * * * * * * * * * * * * * * * * * * * * * * * * * * * * * * * //

dimensions      [0 0 0 0 0 0 0];

internalField   nonuniform List<scalar> 
1116
(
0.744196
0.744979
0.746549
0.74282
0.740869
0.746667
0.788842
0.789215
0.789779
0.78833
0.787281
0.790155
0.93187
0.93265
0.932688
0.932005
0.931421
0.93296
0.971795
0.9718
0.971796
0.971798
0.971798
0.971787
0.971846
0.971848
0.971846
0.971847
0.971849
0.971843
0.971848
0.971848
0.971848
0.971849
0.971851
0.971849
0.971846
0.971848
0.971848
0.971851
0.971851
0.971851
0.899219
0.899115
0.899511
0.898657
0.897118
0.900939
0.791422
0.78846
0.789804
0.790113
0.791131
0.789741
0.782519
0.781598
0.781849
0.782062
0.783914
0.782406
0.737703
0.736042
0.736629
0.73797
0.738202
0.735718
0.677346
0.676295
0.676017
0.677333
0.676925
0.675723
0.256535
0.253211
0.252361
0.257945
0.258431
0.25408
0.281511
0.282282
0.281662
0.27936
0.274814
0.28348
0.393375
0.395636
0.396077
0.392967
0.389806
0.398544
0.586682
0.590498
0.591399
0.587443
0.587035
0.595608
0.768235
0.773231
0.773474
0.768809
0.767985
0.77625
0.846948
0.848974
0.849416
0.84683
0.846974
0.847488
0.854237
0.852788
0.854143
0.853581
0.853643
0.851959
0.864746
0.863283
0.86406
0.864039
0.864054
0.863742
0.84051
0.845814
0.843396
0.843194
0.845017
0.845855
0.511766
0.518246
0.514282
0.519551
0.524054
0.513224
0.288448
0.288763
0.288526
0.288289
0.288734
0.289988
0.536912
0.511065
0.523912
0.533403
0.512486
0.516343
3.81917e-07
1.42378e-07
1.92182e-07
3.29455e-08
1.67715e-07
1.22432e-07
1.89931e-08
7.62178e-09
1.03746e-08
1.67152e-09
8.06412e-09
6.88371e-09
1.11474e-21
1.21666e-21
3.10848e-21
9.83448e-23
4.95206e-22
1.4034e-15
-2.03083e-19
-4.25135e-20
-8.03487e-20
-1.69545e-21
1.36392e-16
-1.32289e-16
1.16091e-12
5.58361e-13
7.74861e-13
1.06561e-13
-5.37133e-14
-4.30284e-11
0.0047342
0.00486604
0.00484053
0.00472968
0.00468096
0.00516329
0.0182277
0.0183013
0.0182931
0.0184703
0.018188
0.0186949
0.0344384
0.0327469
0.0331339
0.0347112
0.0334737
0.0334612
0.0600347
0.0574734
0.0583719
0.059515
0.0575643
0.0592871
0.145257
0.134748
0.138182
0.140756
0.137006
0.142824
0.255941
0.244399
0.248098
0.252521
0.24704
0.254045
0.459723
0.439714
0.447639
0.460974
0.454578
0.432839
8.46356e-05
3.88683e-05
2.87229e-05
5.38258e-05
8.08865e-05
2.826e-05
1.78203e-05
6.56062e-06
9.931e-06
3.57589e-07
5.96741e-06
6.47008e-06
-4.46115e-17
-1.30862e-18
-7.94307e-18
-8.35829e-18
-3.92816e-16
7.3153e-25
-8.75604e-19
-1.24801e-18
-5.33978e-16
-8.15254e-18
-2.69687e-20
5.933e-18
-1.4897e-16
-2.24939e-16
-2.38023e-16
-5.28328e-17
-2.15484e-16
-1.93761e-11
5.99859e-18
-1.47914e-12
-1.72926e-12
-3.37616e-12
-2.65361e-12
-1.16984e-14
2.20393e-07
2.21558e-07
1.96662e-07
1.65747e-07
1.58068e-07
1.27893e-07
4.17055e-07
3.62408e-07
3.23813e-07
3.08838e-07
3.0154e-07
2.78663e-07
4.30717e-07
3.70102e-07
3.32802e-07
2.85438e-07
2.91504e-07
2.57368e-07
3.32068e-05
3.24839e-05
3.31866e-05
3.25553e-05
3.47389e-05
2.93951e-05
0.0853095
0.0525371
0.0632376
0.0785582
0.0744201
0.0603407
0.117046
0.124141
0.118133
0.120266
0.130945
0.114501
0.0959148
0.0959676
0.0958981
0.0959222
0.093907
0.0958797
0.0959708
0.0960172
0.0959724
0.0959679
0.0959741
0.0959579
0.0960147
0.0960206
0.0960078
0.0959814
0.0959678
0.0959763
0.0960206
0.0960206
0.0695592
0.0865865
0.095976
0.095989
0.0960168
0.0950085
0.0458832
0.055946
0.095989
0.0962571
0.0702538
0.0620888
0.0605999
0.0607052
0.0515065
0.0588105
0.068134
0.0672124
0.0550425
0.0331597
0.0217637
0.0499477
0.0552456
0.0636286
0.044519
0.00857661
0.0121234
0.0433961
0.0219308
0.0401181
0.0352974
0.00828713
0.00950455
0.0353547
0.00951524
0.00963946
0.0349595
0.0184252
0.00953956
0.0343553
0.0119193
0.00426102
0.0199784
0.030392
0.0245048
0.0343199
0.0132704
0.00483077
0.0185239
0.0314657
0.033261
0.0341429
0.0954469
0.0780576
0.0504935
0.0660893
0.0936712
0.0950171
0.080762
0.0688786
0.052421
0.0643916
0.0797225
0.0850304
0.067794
0.0753186
0.083437
0.0759341
0.0744016
0.0846872
0.0956978
0.074035
0.0534395
0.0929549
0.0872893
0.0910353
0.096013
0.0915095
0.0459104
0.0944545
0.0957488
0.0966811
0.0956998
0.0948552
0.0460676
0.0409539
0.091447
0.0969997
0.0872179
0.0836858
0.0370709
0.0173565
0.0226828
0.0482498
0.0167059
0.0128682
0.0202694
0.00848452
0.00658267
0.00663076
0.00891095
0.00344284
0.004508
0.00534343
0.00229926
0.00289641
0.00496045
0.00449919
0.000269955
0.000395413
0.000185515
0.000189353
0.00219842
0.00320105
0.000238743
0.000234021
0.000198789
0.0018293
0.00659036
0.00288266
0.00195084
0.000238655
0.000261198
0.00214709
0.00784513
0.000254644
3.67717e-06
3.48868e-08
0.00502994
0.0133676
0.00356185
9.37686e-08
7.1208e-09
4.14337e-09
3.47785e-08
0.000786914
0.00732481
6.82318e-07
1.40518e-08
4.41931e-09
4.4825e-08
0.00314027
0.00664704
0.00371768
0.0128017
0.0109568
3.38176e-08
0.0041893
0.003901
0.0206183
0.0619327
0.0636487
0.0380406
0.0225071
0.00978926
0.0454918
0.0733551
0.0760219
0.0928245
0.095764
0.0125964
0.0754864
0.0233379
0.0118168
0.0367437
0.0727775
0.0224559
0.0420368
0.00198951
0.00361665
0.000589295
0.00538747
0.00867186
0.00146208
2.40022e-05
0.000326405
4.73519e-05
9.11678e-05
7.75727e-05
2.38775e-05
7.81579e-06
5.08389e-06
1.73988e-05
8.8459e-05
7.94522e-05
0.000148106
0.000375311
0.00176436
0.00298109
0.00067993
0.000709174
0.00188738
0.00219813
0.00581973
0.00627158
0.00248028
1.20348e-08
1.10688e-08
7.08981e-09
4.13882e-09
1.40812e-08
2.40237e-08
1.67488e-08
1.7442e-07
7.73552e-09
4.11442e-09
4.14235e-09
2.32749e-08
8.48721e-08
1.32051e-06
4.41932e-09
4.13886e-09
4.44605e-09
0.000281725
4.6262e-07
6.22834e-08
6.71035e-09
4.41932e-09
6.71002e-09
2.32737e-08
9.28667e-07
4.74852e-08
9.6173e-09
6.71035e-09
9.6173e-09
0.00046655
0.000104901
9.28667e-07
0.0188888
0.0305799
0.00739443
0.00580478
0.000151348
0.00268169
0.0253287
0.0265178
0.0269893
0.0337787
0.00365626
0.0176477
0.00186809
0.00103835
0.00545949
0.0161399
0.00565117
0.00854379
7.80406e-06
5.08382e-06
8.65458e-06
3.16448e-05
0.000982729
7.80199e-06
4.53525e-06
3.68926e-06
3.36263e-06
5.85014e-06
3.72161e-05
7.98941e-06
1.87958e-06
8.47794e-07
0.00144085
3.61883e-05
0.00715652
0.00700773
0.00570843
0.00751503
0.00751683
0.00751142
0.000167039
0.000133643
0.000122837
0.000157276
0.00015785
0.000101371
0.000166704
8.47947e-05
7.60082e-05
0.000156226
0.000158022
7.03827e-05
0.000166508
9.95615e-05
6.16154e-05
0.000158773
0.000159224
0.000152401
2.95971e-05
6.99385e-21
5.22385e-07
1.37329e-20
1.27866e-05
6.34733e-07
-7.96698e-17
-2.23848e-18
2.56941e-31
-5.04242e-19
-2.83818e-16
-2.82304e-17
-2.07947e-20
2.87934e-33
4.98458e-31
8.09444e-34
5.04147e-23
4.72029e-32
-6.3284e-16
-2.38784e-17
-2.07835e-18
-1.02197e-16
-5.64768e-15
-1.51852e-16
-1.13506e-15
-3.77392e-17
1.00871e-18
-7.22145e-18
-7.45493e-15
-3.02218e-16
-4.28735e-19
1.93567e-20
2.09758e-18
1.04351e-20
3.0196e-21
7.52904e-19
-3.11577e-17
3.59239e-20
4.51593e-19
-2.21394e-18
-2.22539e-16
-1.64651e-18
-5.85246e-17
5.4382e-19
1.05484e-17
4.16088e-18
-2.42569e-16
4.16002e-18
-7.22969e-18
3.52552e-19
4.17147e-18
6.65955e-21
2.74285e-19
8.05965e-17
-4.18388e-18
1.57556e-22
6.07071e-23
-2.619e-19
-2.80872e-17
6.38773e-21
-5.50158e-18
1.63139e-19
1.908e-22
1.82282e-29
-1.16313e-17
8.05893e-23
-8.86896e-20
8.15597e-19
3.51281e-18
3.12387e-20
4.77532e-17
1.87183e-14
-1.05734e-17
-1.22741e-20
-3.51297e-17
-1.38676e-13
-1.07815e-12
-1.23688e-13
-4.98925e-17
1.32284e-23
-6.82376e-19
2.02576e-08
1.60196e-07
4.84557e-08
-1.46934e-21
1.05127e-21
1.07921e-20
2.11916e-29
6.84732e-28
1.22004e-24
1.14847e-06
6.4388e-07
5.99013e-07
1.40938e-06
2.3705e-06
2.1514e-07
1.0383e-06
2.7509e-07
3.05534e-07
5.84171e-07
9.78957e-07
1.22063e-07
1.96635e-19
1.04731e-21
2.86834e-25
-1.56566e-22
3.61354e-20
8.36157e-22
2.63755e-06
2.6534e-06
2.67534e-06
2.69016e-06
2.48758e-06
6.51819e-07
2.58951e-06
1.70044e-06
1.68274e-06
2.03914e-06
2.23479e-06
3.14492e-07
1.06386e-17
3.0797e-18
5.81567e-18
5.77337e-18
7.10303e-18
5.23473e-18
9.02396e-07
1.44736e-06
9.16994e-07
7.48447e-07
8.8649e-07
4.913e-07
1.2066e-06
2.80918e-06
1.13667e-06
1.13667e-06
1.13613e-06
1.83964e-06
1.60785e-05
5.48387e-06
8.4676e-06
9.65463e-06
9.27411e-06
2.97902e-06
2.50649e-06
1.83171e-06
1.5037e-06
1.91806e-06
1.46227e-06
1.08914e-06
2.08447e-06
1.99563e-06
1.14845e-06
1.13171e-06
1.13667e-06
1.51123e-06
4.32103e-05
1.24908e-05
1.6707e-05
3.12591e-05
2.38922e-05
1.3543e-05
3.49438e-05
3.31778e-05
3.39087e-05
3.37734e-05
3.55035e-05
2.99866e-05
1.1268e-05
8.16266e-06
7.15924e-06
7.57645e-06
8.15669e-06
7.6793e-06
2.04933e-05
1.35966e-05
1.56548e-05
1.99774e-05
1.2403e-05
1.54817e-05
0.00128412
0.00113556
0.00117648
0.00128093
0.00119416
0.00128475
0.0018954
0.00148428
0.00167526
0.00182604
0.00162487
0.00183465
4.39712e-06
7.70138e-06
2.68251e-06
3.7402e-06
1.76181e-06
2.94617e-05
0.0220047
0.0221074
0.0223309
0.0222258
0.0215303
0.0211966
1.11992e-11
6.31879e-12
2.42038e-10
7.99934e-09
3.2299e-09
1.5486e-10
-5.30485e-14
-4.96075e-15
3.29992e-06
2.30063e-06
4.79932e-08
6.01295e-11
0.0234452
0.0232607
0.0230332
0.0227513
0.0225137
0.0226305
6.52781e-12
7.85914e-12
1.2814e-11
5.62995e-11
2.35227e-11
1.47438e-11
1.20807e-13
4.82029e-13
3.18558e-08
5.36033e-08
1.80866e-09
5.62438e-13
0.0238125
0.0237936
0.0237294
0.0236961
0.0236832
0.0236895
2.41578e-13
5.13201e-13
2.53186e-11
2.35227e-11
4.23702e-12
5.62858e-13
6.37427e-18
-1.52888e-14
-3.43783e-16
3.95449e-12
2.81235e-13
4.00586e-13
0.0238099
0.0237444
0.0237149
0.0236934
0.0236544
0.0236101
1.99905e-12
1.51489e-12
1.78338e-12
4.3203e-12
2.56202e-12
1.9228e-12
5.46534e-18
4.05752e-18
4.00634e-18
5.52438e-18
6.37994e-18
5.34984e-18
0.0234548
0.0234353
0.0232565
0.0233776
0.023316
0.0233268
1.78051e-09
1.54334e-09
1.98698e-09
3.97272e-09
2.29725e-09
2.23633e-09
4.66125e-11
1.51479e-12
1.54715e-11
4.24113e-12
2.55538e-12
1.92281e-12
0.0229652
0.0228062
0.0228314
0.022952
0.0228294
0.0229473
4.64381e-06
6.49399e-08
3.89026e-08
4.46061e-05
1.24004e-05
4.81226e-07
1.84808e-08
3.76333e-08
9.16923e-09
1.02645e-08
3.28216e-09
2.60472e-07
9.88213e-07
1.20348e-08
8.32113e-06
2.43647e-06
1.752e-07
8.51657e-07
1.24244e-06
3.11271e-07
9.93475e-06
4.766e-07
3.89245e-07
1.60183e-06
1.55582e-315
2.3748e-19
1.54279e-09
1.74834e-20
2.26438e-23
3.47592e-28
9.78309e-06
2.50139e-06
6.13082e-08
2.37228e-09
1.5832e-06
4.96046e-06
4.55089e-06
8.23482e-07
7.45229e-09
6.85689e-10
2.03091e-06
4.94508e-06
2.04217e-119
4.75476e-24
4.22908e-09
1.2043e-10
1.0158e-22
1.87649e-28
3.95412e-06
4.75782e-06
7.01146e-07
9.84098e-09
2.40554e-06
1.22883e-07
4.83226e-06
7.655e-07
9.15521e-09
8.22464e-09
1.62824e-06
3.35134e-06
5.41895e-27
7.75226e-23
4.17787e-08
3.93037e-09
2.9157e-21
6.36299e-25
1.16936e-10
8.04832e-06
2.40583e-06
6.71035e-09
1.61968e-06
-4.00351e-11
6.34688e-12
5.77793e-07
4.49887e-07
9.34709e-08
-9.98575e-18
-3.01156e-13
1.16737e-19
3.41665e-22
3.08376e-15
7.03646e-08
6.52061e-18
-1.09698e-17
6.47706e-05
2.76389e-05
2.95647e-08
9.6173e-09
5.41479e-07
8.892e-09
4.10175e-12
1.78716e-05
2.59136e-06
7.15936e-08
1.96385e-07
-7.04566e-15
-1.99891e-16
1.15185e-21
7.5793e-19
8.35719e-08
4.25435e-07
-2.25264e-14
0.000271616
3.75669e-05
2.85759e-08
1.63628e-08
3.91141e-08
2.39801e-08
3.11202e-05
0.000311465
5.6766e-10
1.18064e-08
1.83519e-08
1.16273e-08
-1.71548e-14
8.89054e-21
-3.07894e-16
2.21295e-07
3.0803e-06
7.33894e-09
0.00106123
0.00146999
0.0130327
0.0135756
0.00717138
0.00364962
0.000294368
0.00168848
0.00346975
0.00213507
0.000622244
2.3964e-08
-4.29341e-14
-5.01159e-18
-1.22482e-14
-7.67014e-18
4.66391e-07
1.11223e-08
0.00440047
0.0100335
0.00396225
0.00450526
0.00595756
0.00678389
0.0012191
0.00301265
0.00411711
0.00261711
0.00211076
0.000108091
1.04799e-07
7.32231e-06
0.00119396
0.000166341
9.21937e-07
4.3816e-07
0.00478184
0.00616272
5.5461e-06
2.80554e-06
0.000211556
0.000685668
0.00103935
0.0018659
0.00036988
0.000137855
0.000111336
9.90359e-05
1.00199e-05
2.63215e-05
0.000131745
2.36298e-05
1.03934e-05
8.6174e-08
0.000665029
0.000162912
1.87931e-06
9.15486e-07
1.24283e-07
1.15578e-06
0.000157055
0.000180828
6.84071e-07
1.12023e-07
3.16847e-08
1.87139e-06
3.03696e-05
3.97973e-05
1.35765e-06
6.99272e-08
3.16904e-08
8.29056e-08
5.72064e-05
1.87716e-06
7.36877e-07
2.30608e-07
7.02473e-07
4.80483e-06
5.88831e-05
7.36843e-07
2.30632e-07
1.36555e-07
7.07864e-08
3.30825e-05
5.00907e-05
2.7627e-05
2.4592e-06
7.15655e-08
3.16904e-08
2.75063e-06
0.00684857
0.00626389
0.00566875
0.00543383
0.00693328
0.00722157
4.24122e-09
0.000245987
0.00098627
0.000676679
1.43425e-05
1.05507e-08
3.02875e-06
3.91823e-08
1.57403e-06
1.14214e-07
4.84342e-08
3.14624e-07
)
;

boundaryField
{
    seabed_topleft_surface
    {
        type            zeroGradient;
    }
    seabed_topright_surface
    {
        type            zeroGradient;
    }
    breakwater_top_surface
    {
        type            zeroGradient;
    }
    breakwater_left_surface
    {
        type            zeroGradient;
    }
    breakwater_right_surface
    {
        type            zeroGradient;
    }
    water_front_surface
    {
        type            zeroGradient;
    }
    water_back_surface
    {
        type            zeroGradient;
    }
    water_left_surface
    {
        type            zeroGradient;
    }
    water_right_surface
    {
        type            zeroGradient;
    }
    water_top_surface
    {
        type            inletOutlet;
        inletValue      uniform 0;
        value           nonuniform List<scalar> 
180
(
0.000166508
9.95615e-05
6.16154e-05
0.000158773
0.000159224
0.000152401
0
0
0
0
0
0
0
0
0
0
0
0
0
0
0
0
0
0
0
0
0
0
0
0
0
0
0
0
0
0
0
0
0
0
0
0
0
0
0
0
0
0
1.60785e-05
0
8.4676e-06
9.65463e-06
9.27411e-06
0
4.32103e-05
1.24908e-05
1.6707e-05
3.12591e-05
2.38922e-05
1.3543e-05
2.04933e-05
1.35966e-05
1.56548e-05
1.99774e-05
1.2403e-05
1.54817e-05
0
0
0
0
0
0
0
0
3.29992e-06
2.30063e-06
4.79932e-08
6.01295e-11
1.20807e-13
4.82029e-13
3.18558e-08
5.36033e-08
1.80866e-09
5.62438e-13
0
0
0
3.95449e-12
2.81235e-13
4.00586e-13
0
0
0
0
0
0
4.66125e-11
1.51479e-12
1.54715e-11
4.24113e-12
2.55538e-12
1.92281e-12
0
0
0
0
0
0
0
0
0
0
0
0
0
0
0
0
0
0
0
0
0
0
0
0
0
0
0
0
0
0
0
0
0
0
0
0
0
0
0
0
0
0
0
0
0
0
0
1.11223e-08
1.04799e-07
7.32231e-06
0.00119396
0.000166341
9.21937e-07
4.3816e-07
1.00199e-05
2.63215e-05
0.000131745
2.36298e-05
1.03934e-05
8.6174e-08
3.03696e-05
3.97973e-05
1.35765e-06
6.99272e-08
3.16904e-08
8.29056e-08
5.00907e-05
2.7627e-05
2.4592e-06
7.15655e-08
3.16904e-08
2.75063e-06
0
3.91823e-08
1.57403e-06
1.14214e-07
4.84342e-08
3.14624e-07
)
;
    }
}


// ************************************************************************* //
