/*--------------------------------*- C++ -*----------------------------------*\
| =========                 |                                                 |
| \\      /  F ield         | OpenFOAM: The Open Source CFD Toolbox           |
|  \\    /   O peration     | Version:  v1612+                                |
|   \\  /    A nd           | Web:      www.OpenFOAM.com                      |
|    \\/     M anipulation  |                                                 |
\*---------------------------------------------------------------------------*/
FoamFile
{
    version     2.0;
    format      ascii;
    class       volScalarField;
    location    "8.9";
    object      p;
}
// * * * * * * * * * * * * * * * * * * * * * * * * * * * * * * * * * * * * * //

dimensions      [1 -1 -2 0 0 0 0];

internalField   nonuniform List<scalar> 
1116
(
6859.7
6852.26
6854.57
6862.34
6864.07
6859.36
7320.89
7318.43
7313.53
7313.76
7312.85
7314.46
8597.71
8602.91
8601.1
8592.21
8588.64
8601.41
10204.6
10212.3
10213.9
10209.2
10210.9
10221.3
11533.3
11539.4
11540.8
11535.6
11536.3
11545.5
12431.6
12433.7
12435.5
12432.6
12433.6
12435
12976.9
12976.1
12978.1
12977.3
12977.1
12977.3
13373.2
13371.2
13372.7
13373.1
13370.9
13373.5
13567.7
13573.3
13572.3
13570.3
13570.8
13577.8
13135
13151.2
13148.7
13139.2
13137.5
13157
12405.3
12457.8
12458.5
12393.3
12390.8
12464.7
15019
14927
14932.5
14986.8
14943.7
14905.2
1245.85
1231.72
1227.54
1253.44
1259.14
1235.23
1371.82
1377.72
1374.15
1359.34
1342.42
1378.76
1888.62
1897.71
1898.14
1888.06
1875.99
1905.99
2800.17
2816.58
2820.14
2802.93
2800.68
2838.47
3726.63
3750.29
3751.38
3729.1
3725.23
3765.34
4169.26
4176.46
4177.58
4171.21
4183.72
4172.13
4467.62
4464.49
4469.77
4470.3
4472.68
4464.94
4813.59
4814.34
4818
4820.15
4817.38
4813.61
5252.48
5261.56
5259.28
5258.1
5249.12
5269.98
5889.2
5855.47
5864.25
5876.84
5859.58
5895.06
7772.03
7706.91
7724.88
7767.45
7761.76
7734.05
11756
11565.2
11605.2
11777.2
11758.3
11584
-61.3228
-61.2906
-61.2896
-61.0899
-60.8067
-61.3196
-79.6815
-79.6441
-80.0292
-80.5878
-80.6289
-80.9631
-98.7921
-98.9658
-99.2654
-99.0865
-99.4587
-100.077
-80.9355
-81.2023
-81.1221
-80.5616
-80.6411
-81.2613
5.13835
5.57103
5.78577
5.85946
6.10265
7.26558
122.616
124.154
124.065
123.421
124.354
126.879
138.357
137.603
137.212
139.58
137.792
138.421
226.771
225.868
225.949
228.063
225.611
226.194
361.907
348.968
351.769
357.546
352.455
352.685
895.944
860.32
867.434
882.356
883.339
875.423
3254.57
3264.48
3277.08
3273.67
3301.72
3286.95
8218.18
8188.7
8184.15
8333.21
8394.45
8007.18
-48.353
-48.0594
-48.0423
-48.1239
-48.1688
-48.1938
-56.8785
-56.8803
-56.9602
-57.0566
-57.0704
-57.5094
-62.4704
-62.4829
-62.6792
-62.7552
-62.9491
-63.298
-59.062
-59.1134
-59.072
-59.03
-58.916
-58.4697
-27.4758
-27.5764
-27.5748
-27.2343
-27.0223
-27.5986
-5.07737
-4.98381
-5.01572
-4.93146
-5.00526
-4.77492
1.41163
1.69644
1.50854
1.33022
1.27702
1.25872
5.93786
5.65295
5.26453
5.31789
5.83807
3.7903
8.79494
6.84893
6.57719
7.71968
7.80941
5.12546
56.5875
39.4607
45.3507
50.34
47.7844
39.3862
125.704
27.1999
80.4903
83.6118
71.5687
48.9899
927.254
1034.69
977.857
925.556
968.223
1004.33
1405.94
1382
1354.01
1350.89
1424.49
1474.05
1370.16
1336.55
1284.92
1290.55
1343.32
1436.36
1322.76
1281.58
1282.09
1295.16
1294.36
1381.05
1329
1265.96
1285.49
1359.79
1321.71
1394.38
1350.56
1339.33
1325.8
1412.08
1426.73
1474.39
1355.64
1339.06
1331.67
1336.46
1343.31
1419.22
1202.83
1145.86
1077.83
969.916
986.663
1070.8
796.487
774.506
670.885
619.934
628.901
647.995
417.257
412.653
400.643
412.877
395.252
394.099
253.923
242.631
238.663
260.311
225.632
240.38
212.445
207.418
214.249
258.451
268.964
252.643
215.844
203.741
223.549
269.314
290.636
287.994
454.248
412.038
274.743
369.927
531.054
558.342
384.565
333.017
262.541
321.685
398.145
463.178
395.781
356.446
390.092
382.038
374.636
422.343
474.05
374.578
441.443
508.611
478.975
455.198
484.24
370.475
445.335
472.88
488.362
601.44
516.209
336.205
387.007
441.036
493.173
584.998
405.06
223.757
268.008
350.215
420.007
428.523
329.916
231.826
160.328
230.625
240.527
252.969
203.459
161.245
111.827
130.971
107.065
94.7589
102.433
82.2031
66.7801
70.7255
62.1696
61.4541
63.805
61.4283
67.4841
74.0617
81.494
87.3189
57.5205
60.8928
67.2261
82.026
91.655
86.8336
-4.97669
-11.4712
-17.7035
-15.3474
-3.63574
33.435
-12.2158
-13.111
-13.9254
-15.0608
-15.1001
-11.268
-0.855134
-6.85438
-8.3064
-7.42298
-6.98248
-5.6965
11.0725
-7.28098
8.60997
15.0987
6.72251
8.07141
23.2847
29.7693
212.861
238.638
102.737
97.7067
53.1269
66.7429
97.4259
152.195
242.299
305.939
60.6619
73.2971
78.5679
122.835
147.162
162.93
66.7216
25.6065
33.7342
80.4678
92.6961
91.0612
39.063
38.6024
33.576
46.4907
46.4335
48.9062
31.9159
25.6157
29.1901
32.8564
34.3727
37.9795
29.6999
19.4595
19.2333
23.301
37.2238
41.4754
32.8606
20.645
10.8959
14.6493
20.827
18.4937
-34.6502
-32.9618
-33.8522
-36.6399
-36.2113
-34.6914
-35.2274
-33.6095
-34.3073
-35.2519
-34.6283
-34.0626
-37.8942
-38.494
-37.1936
-35.4594
-33.8882
-33.2747
-42.6852
-48.3724
-41.4331
-38.3555
-40.2598
-37.2697
-47.2305
-54.5154
-43.2604
-43.569
-50.314
-46.6913
-41.7685
-45.4989
9.87354
38.0301
-34.4833
-35.6401
-38.5556
-41.6989
-3.92745
-14.4839
-26.7387
15.8325
-30.1587
-41.442
-4.50181
13.6417
7.93489
-0.558606
-6.91708
-10.1008
-1.15979
6.84054
8.62211
11.6211
3.80876
-5.19011
-6.19715
-3.58662
0.749574
4.85759
12.4922
2.43987
-5.35881
-7.77736
-1.46488
7.40261
16.126
-3.42482
-20.5838
-27.8041
-39.5077
-20.7238
-61.0065
-61.1747
-61.4211
-60.9176
-60.7893
-60.9895
-66.7299
-66.3542
-66.1156
-66.4879
-66.7357
-67.0142
-73.6356
-73.3499
-73.1551
-73.952
-73.984
-74.1524
-63.368
-63.4308
-63.5436
-63.4769
-63.5228
-63.5401
-68.1027
-68.1508
-68.1697
-68.0864
-68.1252
-68.0581
-76.0334
-75.9573
-75.8233
-75.9896
-76.2419
-75.8949
-61.0228
-60.9912
-61.0004
-61.025
-61.1162
-61.053
-64.9593
-64.9753
-64.9789
-65.0099
-65.0249
-65.0188
-69.6495
-69.6909
-69.6694
-69.703
-69.6984
-69.7037
-51.3243
-51.2856
-51.2432
-51.1791
-51.1837
-50.9108
-60.2015
-60.208
-60.1986
-60.1846
-60.2215
-60.0771
-66.7926
-66.7887
-66.76
-66.7653
-66.7649
-66.7008
-26.3546
-26.2366
-26.2016
-26.1452
-26.2532
-25.5996
-50.2589
-50.2323
-50.2185
-50.2182
-50.2539
-50.1024
-63.0347
-63.0423
-63.0207
-63.0206
-63.0104
-62.9689
-9.76033
-9.64542
-9.68005
-9.68316
-10.1576
-9.43967
-43.0004
-42.838
-42.8272
-42.8464
-42.9568
-42.6091
-61.8382
-61.8333
-61.7794
-61.8119
-61.8565
-61.8004
-15.4567
-15.288
-15.5628
-15.5002
-15.9593
-15.4846
-45.0206
-44.1903
-44.3119
-44.507
-44.6515
-43.8252
-63.7955
-63.7749
-63.6822
-63.9304
-63.8073
-63.6871
-23.2874
-22.3935
-23.1358
-22.625
-22.7383
-23.2486
-57.1415
-52.6138
-53.4895
-54.4514
-53.7648
-50.5875
-66.708
-66.7141
-66.0013
-65.7738
-65.8662
-66.0986
-41.3876
-41.7159
-42.2647
-42.0444
-41.7725
-42.7749
-83.0758
-78.2397
-80.2196
-80.4409
-79.9334
-77.8297
-82.2566
-79.8271
-80.4396
-80.8657
-80.3692
-78.4648
-27.3225
-29.7536
-30.5809
-31.2962
-31.3747
-32.2919
-54.0585
-54.0577
-54.4725
-54.5641
-55.0946
-55.0712
-71.6699
-69.017
-70.6017
-71.321
-70.6688
-67.9455
-39.5352
-38.3297
-36.6231
-39.0105
-40.4864
-38.7764
-18.3939
-17.3524
-17.4027
-17.0498
-18.4349
-16.3283
-62.5072
-62.0513
-62.3179
-62.3155
-62.6077
-62.1413
45.5644
46.1554
47.3624
45.2066
44.4084
46.3654
-31.1055
-33.6667
-32.0904
-30.1524
-31.6326
-33.9474
-61.6113
-61.6469
-61.5938
-61.872
-61.9649
-61.6291
55.2309
56.9847
54.5936
46.6945
45.0762
49.846
-47.938
-49.1254
-50.7388
-51.9832
-49.8776
-48.4606
-66.0481
-66.2782
-66.9816
-66.4328
-65.3518
-65.1324
68.0326
67.0083
66.0574
65.4623
65.8387
66.8809
-46.7961
-47.0551
-47.6618
-47.9447
-47.3942
-46.9528
-65.7818
-65.706
-65.5724
-65.2195
-65.1227
-65.0491
70.6776
70.5798
70.147
70.0664
70.3368
70.3949
-46.1944
-46.3176
-46.6169
-46.6259
-46.4006
-46.2795
-66.0697
-66.0187
-65.8542
-65.5033
-65.474
-65.4586
71.9167
71.7531
71.4705
71.2417
71.1546
71.1119
-44.8398
-44.7995
-44.7989
-44.8205
-44.7929
-44.784
-64.9582
-64.9211
-64.9125
-64.8764
-64.8784
-64.8803
73.9071
74.0855
73.3414
72.974
72.7727
72.5565
-42.9267
-42.8089
-42.8422
-43.0186
-42.9917
-43.0626
-63.8006
-63.8323
-63.7641
-63.7498
-63.7823
-63.821
72.2873
68.4745
68.2069
70.2943
71.6776
65.9324
-42.623
-42.5162
-42.5045
-42.8989
-42.8727
-43.2175
-61.7099
-61.5996
-61.5484
-61.4966
-61.566
-61.54
-44.7586
-43.7067
-41.4875
-42.1163
-43.8255
-44.9976
-55.1783
-55.1406
-54.7479
-54.8222
-55.0812
-55.2393
-65.8507
-66.0866
-65.6948
-66.0479
-66.387
-66.3491
-44.9512
-43.8806
-42.4019
-42.8847
-43.6582
-44.9598
-55.7577
-55.6452
-55.6447
-55.7474
-55.9114
-56.0355
-66.7302
-66.932
-66.9721
-67.0528
-67.3018
-67.1987
-46.1782
-45.3284
-43.9619
-44.5947
-45.7299
-47.0138
-55.9338
-55.9705
-56.194
-56.5792
-57.2282
-57.5513
-66.8704
-67.3752
-67.2962
-67.5567
-67.7842
-67.5326
-47.2264
-48.6752
-49.6735
-50.2986
-52.4836
-51.3916
-55.5244
-56.4593
-57.8167
-58.8114
-59.9049
-59.5126
-67.7685
-68.541
-68.7885
-68.8504
-68.627
-67.984
-49.0319
-54.262
-55.7051
-56.2661
-62.1609
-59.8319
-55.0283
-56.5367
-58.0237
-59.8437
-61.2294
-61.1076
-68.0867
-69.0462
-69.2593
-68.8146
-68.4394
-67.9531
-57.778
-62.1535
-63.2332
-66.3551
-72.1501
-70.5727
-64.2181
-66.1268
-69.61
-73.3492
-73.0166
-72.0206
-70.151
-71.4273
-72.1579
-71.3273
-69.8653
-69.4846
-73.0924
-72.6932
-63.1053
-80.6322
-80.7306
-76.7421
-75.5827
-81.2703
-82.4506
-82.9344
-82.8576
-81.974
-73.4507
-74.9862
-76.229
-74.8072
-74.2601
-73.7351
-70.3888
-86.717
-53.1728
-45.8482
-57.3538
-58.7785
-76.0921
-86.2274
-93.962
-80.6584
-79.0869
-76.5026
-76.2251
-76.6291
-86.1474
-82.1957
-77.4369
-75.1886
-17.7126
-34.5727
-24.9525
-22.2945
-20.7624
-18.9363
-48.1528
-55.3143
-50.9354
-47.7185
-46.5157
-50.5917
-67.5464
-68.4469
-69.8846
-69.1083
-67.3773
-67.3018
-15.4875
-25.3354
-28.2831
-29.0375
-25.4208
-23.2921
-41.0029
-45.7736
-48.8001
-52.9268
-51.6992
-50.0112
-65.2572
-66.1083
-66.7453
-68.4067
-67.3186
-65.917
-8.70315
-12.4183
-18.3643
-22.8067
-23.6709
-18.2518
-43.8881
-44.5448
-47.2685
-49.6838
-49.8626
-48.3669
-66.2497
-66.5377
-66.6801
-66.113
-64.0656
-62.4353
8.32041
6.02908
-2.72333
-15.4925
-30.1744
-15.942
-48.9404
-48.9026
-53.0152
-55.7782
-54.9862
-53.893
-64.0612
-64.5772
-66.4233
-65.4479
-63.3021
-63.9751
)
;

boundaryField
{
    seabed_topleft_surface
    {
        type            calculated;
        value           nonuniform List<scalar> 
72
(
10523.8
10520.2
10530.2
10519.7
10511.8
10535.6
11204.5
11203.9
11201.7
11194.8
11188.8
11204.5
13184.6
13193.6
13192
13179.7
13173.3
13193.6
14987.8
14995.5
14997.1
14992.4
14994.1
15004.4
16316.7
16322.9
16324.2
16319
16319.8
16328.9
17215.1
17217.1
17218.9
17216
17217.1
17218.5
17760.3
17759.5
17761.6
17760.7
17760.6
17760.7
17799.5
17797
17800.4
17796.7
17786.8
17808.2
17464
17455
17460.6
17460.1
17465.7
17465.8
16987.5
16999.2
16998
16989.5
16996.9
17009
16037.5
16081.8
16085.4
16026.8
16025.4
16087.1
18354.4
18257.3
18261.4
18322.1
18277.1
18232.6
)
;
    }
    seabed_topright_surface
    {
        type            calculated;
        value           nonuniform List<scalar> 
72
(
1882.46
1858.79
1830.46
1827.45
1891.15
1950.41
1846.97
1813.58
1761.73
1767.34
1820.14
1913.1
1799.78
1758.63
1759.07
1772.02
1771.15
1857.88
1806.05
1743.01
1632.43
1790.45
1798.54
1871.27
1827.59
1811.41
1556.32
1692.08
1903.62
1952.6
1706
1649.27
1634.55
1639.86
1601.48
1713.31
1542.76
1481.26
1353.4
1137.88
1098.6
1321.32
1073.05
1092.29
894.704
667.027
693.433
866.292
530.011
614.833
579.12
458.546
446.907
572.857
305.631
294.949
415.479
355.828
277.46
414.224
275.973
233.291
317.403
412.808
394.374
426.313
286.016
232.415
319.551
428.951
459.1
460.794
)
;
    }
    breakwater_top_surface
    {
        type            calculated;
        value           nonuniform List<scalar> 
36
(
167.961
170.218
168.922
160.508
155.482
158.616
187.821
185.893
183.827
181.851
181.063
182.678
192.266
192.076
191.328
191.084
191.292
191.381
193.492
193.008
192.581
192.246
191.968
191.709
193.743
193.826
192.205
192.432
191.928
191.765
189.724
185.132
184.988
187.666
188.449
183.282
)
;
    }
    breakwater_left_surface
    {
        type            calculated;
        value           nonuniform List<scalar> 
24
(
15030.4
14938.4
14943.9
14998.2
14955.2
14916.6
11764.9
11573.7
11613.8
11786
11766.7
11592.6
8225.63
8195.83
8191.41
8340.68
8401.82
8014.2
929.126
1036.67
979.746
927.479
970.315
1006.16
)
;
    }
    breakwater_right_surface
    {
        type            calculated;
        value           nonuniform List<scalar> 
24
(
216.085
203.839
223.877
269.861
291.213
288.586
57.6458
60.9569
67.2748
82.0464
91.6758
86.8856
32.8883
20.6917
10.9476
14.7596
20.9446
18.55
16.2554
-3.29782
-20.4774
-27.6691
-39.3727
-20.5889
)
;
    }
    water_front_surface
    {
        type            calculated;
        value           nonuniform List<scalar> 
186
(
6859.7
7320.89
8597.71
10204.6
11533.3
12431.6
12976.9
13373.2
13567.7
13135
12405.3
15019
1245.85
1371.82
1888.62
2800.17
3726.63
4169.26
4467.62
4813.59
5252.48
5889.2
7772.03
11756
-61.3228
-79.6815
-98.7921
-80.9355
5.13835
122.616
138.357
226.771
361.907
895.944
3254.57
8218.18
-48.353
-56.8785
-62.4704
-59.062
-27.4758
-5.07737
1.41163
5.93786
8.79494
56.5875
125.704
927.254
1405.94
1370.16
1322.76
1329
1350.56
1355.64
1202.83
796.487
417.257
253.923
212.445
215.844
454.248
384.565
395.781
474.05
484.24
516.209
405.06
329.916
203.459
102.433
63.805
57.5205
-4.97669
-12.2158
-0.855134
11.0725
23.2847
53.1269
60.6619
66.7216
39.063
31.9159
29.6999
32.8606
-34.6502
-35.2274
-37.8942
-42.6852
-47.2305
-41.7685
-38.5556
-30.1587
-6.91708
3.80876
12.4922
16.126
-61.0065
-66.7299
-73.6356
-63.368
-68.1027
-76.0334
-61.0228
-64.9593
-69.6495
-51.3243
-60.2015
-66.7926
-26.3546
-50.2589
-63.0347
-9.76033
-43.0004
-61.8382
-15.4567
-45.0206
-63.7955
-23.2874
-57.1415
-66.708
-41.3876
-83.0758
-82.2566
-27.3225
-54.0585
-71.6699
-39.5352
-18.3939
-62.5072
45.5644
-31.1055
-61.6113
55.2309
-47.938
-66.0481
68.0326
-46.7961
-65.7818
70.6776
-46.1944
-66.0697
71.9167
-44.8398
-64.9582
73.9071
-42.9267
-63.8006
72.2873
-42.623
-61.7099
-44.7586
-55.1783
-65.8507
-44.9512
-55.7577
-66.7302
-46.1782
-55.9338
-66.8704
-47.2264
-55.5244
-67.7685
-49.0319
-55.0283
-68.0867
-57.778
-64.2181
-70.151
-73.0924
-75.5827
-73.4507
-70.3888
-76.0921
-76.2251
-17.7126
-48.1528
-67.5464
-15.4875
-41.0029
-65.2572
-8.70315
-43.8881
-66.2497
8.32041
-48.9404
-64.0612
)
;
    }
    water_back_surface
    {
        type            calculated;
        value           nonuniform List<scalar> 
186
(
6859.36
7314.46
8601.41
10221.3
11545.5
12435
12977.3
13373.5
13577.8
13157
12464.7
14905.2
1235.23
1378.76
1905.99
2838.47
3765.34
4172.13
4464.94
4813.61
5269.98
5895.06
7734.05
11584
-61.3196
-80.9631
-100.077
-81.2613
7.26558
126.879
138.421
226.194
352.685
875.423
3286.95
8007.18
-48.1938
-57.5094
-63.298
-58.4697
-27.5986
-4.77492
1.25872
3.7903
5.12546
39.3862
48.9899
1004.33
1474.05
1436.36
1381.05
1394.38
1474.39
1419.22
1070.8
647.995
394.099
240.38
252.643
287.994
558.342
463.178
422.343
455.198
601.44
584.998
428.523
252.969
94.7589
61.4541
87.3189
86.8336
33.435
-11.268
-5.6965
8.07141
97.7067
305.939
162.93
91.0612
48.9062
37.9795
41.4754
18.4937
-34.6914
-34.0626
-33.2747
-37.2697
-46.6913
-35.6401
15.8325
-0.558606
11.6211
4.85759
7.40261
-20.7238
-60.9895
-67.0142
-74.1524
-63.5401
-68.0581
-75.8949
-61.053
-65.0188
-69.7037
-50.9108
-60.0771
-66.7008
-25.5996
-50.1024
-62.9689
-9.43967
-42.6091
-61.8004
-15.4846
-43.8252
-63.6871
-23.2486
-50.5875
-66.0986
-42.7749
-77.8297
-78.4648
-32.2919
-55.0712
-67.9455
-38.7764
-16.3283
-62.1413
46.3654
-33.9474
-61.6291
49.846
-48.4606
-65.1324
66.8809
-46.9528
-65.0491
70.3949
-46.2795
-65.4586
71.1119
-44.784
-64.8803
72.5565
-43.0626
-63.821
65.9324
-43.2175
-61.54
-44.9976
-55.2393
-66.3491
-44.9598
-56.0355
-67.1987
-47.0138
-57.5513
-67.5326
-51.3916
-59.5126
-67.984
-59.8319
-61.1076
-67.9531
-70.5727
-72.0206
-69.4846
-76.7421
-81.974
-73.7351
-58.7785
-76.5026
-75.1886
-18.9363
-50.5917
-67.3018
-23.2921
-50.0112
-65.917
-18.2518
-48.3669
-62.4353
-15.942
-53.893
-63.9751
)
;
    }
    water_left_surface
    {
        type            calculated;
        value           nonuniform List<scalar> 
42
(
6872.25
6864.83
6867.16
6874.86
6876.56
6871.95
1250.1
1235.91
1231.72
1257.71
1263.42
1239.44
-61.3066
-61.2745
-61.2734
-61.0737
-60.7905
-61.3034
-48.3357
-48.0429
-48.026
-48.1072
-48.1516
-48.1774
-61.0065
-61.1747
-61.4211
-60.9176
-60.7893
-60.9895
-66.7299
-66.3542
-66.1156
-66.4879
-66.7357
-67.0142
-73.6356
-73.3499
-73.1551
-73.952
-73.984
-74.1524
)
;
    }
    water_right_surface
    {
        type            calculated;
        value           nonuniform List<scalar> 
42
(
1407.57
1383.64
1355.64
1352.52
1426.09
1475.68
455.839
413.342
275.593
371.034
532.616
559.927
-4.83363
-11.4509
-17.6872
-15.3312
-3.53821
33.6673
-34.6343
-32.946
-33.8363
-36.6241
-36.1955
-34.6755
-44.7586
-43.7067
-41.4875
-42.1163
-43.8255
-44.9976
-55.1783
-55.1406
-54.7479
-54.8222
-55.0812
-55.2393
-65.8507
-66.0866
-65.6948
-66.0479
-66.387
-66.3491
)
;
    }
    water_top_surface
    {
        type            calculated;
        value           nonuniform List<scalar> 
180
(
-80.0927
-75.5001
-72.8969
-79.5621
-79.593
-79.1249
-79.5393
-79.345
-79.1015
-79.4429
-79.9304
-79.0208
-73.4096
-73.4872
-73.5028
-73.4499
-73.4401
-73.5064
-72.6542
-72.6851
-72.669
-72.6495
-72.6826
-72.5757
-71.87
-71.9401
-71.9223
-71.8976
-71.8823
-71.8996
-73.083
-73.1725
-73.1084
-73.1435
-73.1323
-73.0474
-76.5874
-76.882
-76.6211
-76.7466
-76.501
-76.3496
-72.4094
-82.3973
-81.0592
-76.2228
-74.8269
-82.7052
-69.773
-72.3116
-69.2509
-69.3323
-69.3062
-73.8886
-71.6343
-69.5269
-69.8161
-70.8144
-70.309
-69.5991
-70.0759
-69.6027
-69.7439
-70.0405
-69.5209
-69.7321
-70.5549
-70.7693
-71.1417
-70.6339
-71.4383
-70.0706
-68.6702
-68.7305
-68.8964
-68.8278
-68.6733
-68.67
-68.67
-68.67
-68.6722
-68.6737
-68.6701
-68.67
-68.6708
-68.6704
-68.67
-68.67
-68.67
-68.67
-68.67
-68.67
-68.6704
-68.6715
-68.67
-68.67
-68.67
-68.67
-68.67
-68.67
-68.67
-68.67
-68.6702
-68.6723
-68.67
-68.6703
-68.6756
-68.67
-70.4803
-71.1172
-69.4475
-70.8931
-71.9883
-71.1661
-72.2457
-72.5627
-72.9053
-73.0976
-73.2265
-72.5801
-71.4341
-72.1209
-72.5135
-73.2208
-73.2756
-72.6717
-71.1376
-72.087
-73.2321
-74.0254
-73.3468
-72.474
-71.2455
-73.3334
-74.8018
-74.9783
-73.1719
-71.9103
-71.6174
-76.8989
-79.7943
-76.4329
-72.7355
-70.5434
-69.5184
-74.4145
-79.8248
-71.8939
-68.7129
-68.6708
-68.6772
-69.1723
-150.577
-80.0812
-68.7332
-68.7001
-69.3574
-70.4757
-77.7079
-70.291
-69.383
-68.6759
-70.7534
-71.4001
-68.7631
-68.6748
-68.6722
-68.6757
-72.1063
-70.5652
-68.8387
-68.6749
-68.6722
-68.8587
-68.9058
-68.6727
-68.778
-68.6778
-68.6733
-68.6916
)
;
    }
}


// ************************************************************************* //
