/*--------------------------------*- C++ -*----------------------------------*\
| =========                 |                                                 |
| \\      /  F ield         | OpenFOAM: The Open Source CFD Toolbox           |
|  \\    /   O peration     | Version:  v1612+                                |
|   \\  /    A nd           | Web:      www.OpenFOAM.com                      |
|    \\/     M anipulation  |                                                 |
\*---------------------------------------------------------------------------*/
FoamFile
{
    version     2.0;
    format      ascii;
    class       volVectorField;
    location    "8.9";
    object      U;
}
// * * * * * * * * * * * * * * * * * * * * * * * * * * * * * * * * * * * * * //

dimensions      [0 1 -1 0 0 0 0];

internalField   nonuniform List<vector> 
1116
(
(0.146227 0.00211917 0.0128372)
(0.0939057 -0.0161219 0.013461)
(0.0775288 0.0334283 0.00467544)
(0.192008 0.0322584 0.0126766)
(0.242591 -0.00163454 0.0198544)
(0.091783 -0.0490492 0.000713908)
(0.295397 0.0170259 0.234735)
(0.261214 -0.00659201 0.256524)
(0.247752 0.00345333 0.269669)
(0.302838 -0.0313798 0.243115)
(0.328716 0.0225796 0.249233)
(0.243775 -0.0111304 0.264145)
(0.367182 0.0107585 0.124364)
(0.349598 0.00148552 0.139692)
(0.341821 -0.00207952 0.152424)
(0.364609 -0.0262073 0.120979)
(0.380363 0.014224 0.114809)
(0.327806 0.00394887 0.143158)
(0.404404 0.00324669 -0.0907359)
(0.39649 0.00187912 -0.0910299)
(0.392865 -0.00270476 -0.0874188)
(0.402894 -0.0120064 -0.0935098)
(0.412968 0.00411715 -0.0975682)
(0.384239 0.00621152 -0.0924935)
(0.483529 -0.000564867 -0.247799)
(0.478413 -0.00045587 -0.251964)
(0.478609 -0.000771549 -0.254093)
(0.482428 -0.00281168 -0.246883)
(0.487735 -0.00123627 -0.24685)
(0.477065 0.000774459 -0.253683)
(0.614193 -0.00121518 -0.227352)
(0.605555 -0.00125671 -0.229413)
(0.608842 -0.000241622 -0.232305)
(0.610762 0.000373444 -0.225955)
(0.615156 -0.00317436 -0.226813)
(0.607281 -0.00340039 -0.229796)
(0.792576 0.00168158 -0.174209)
(0.780082 -0.00034387 -0.18086)
(0.783486 -0.00113465 -0.181985)
(0.789179 -0.000976758 -0.17516)
(0.794643 -0.00188748 -0.171047)
(0.779004 -0.00102282 -0.182661)
(0.974456 0.00189507 -0.109363)
(0.970737 -0.000873229 -0.129196)
(0.972005 -0.00140906 -0.126748)
(0.974 -0.00187531 -0.113865)
(0.970254 -0.00240285 -0.10273)
(0.970561 -0.000664144 -0.139478)
(0.956681 -0.00484174 -0.101703)
(0.965983 -0.00344172 -0.110872)
(0.964909 0.000738588 -0.105632)
(0.958987 -0.00134832 -0.106947)
(0.94533 -0.00585031 -0.112559)
(0.968312 -0.00543309 -0.113587)
(0.565628 -0.00382119 -0.35045)
(0.555702 -0.000583259 -0.324912)
(0.5594 -0.00194273 -0.324306)
(0.565962 0.000171568 -0.354462)
(0.558997 0.000461364 -0.373556)
(0.556578 -0.00228855 -0.30577)
(-0.0803251 0.000251144 -0.760427)
(-0.119982 0.00527953 -0.738319)
(-0.116382 -0.00273256 -0.73935)
(-0.0781558 0.00221951 -0.761297)
(-0.0673945 0.00491517 -0.784301)
(-0.127501 0.0031873 -0.717218)
(-0.353561 0.0104182 -1.05103)
(-0.397927 0.0047984 -1.06032)
(-0.395591 -0.00243444 -1.06556)
(-0.35225 0.00693742 -1.05102)
(-0.324974 0.00971553 -1.05823)
(-0.401107 0.0152988 -1.04827)
(0.0526572 -0.007311 -0.540605)
(0.19673 0.0295597 -0.535315)
(0.217938 -0.0805045 -0.539247)
(-0.104253 -0.0568343 -0.548929)
(-0.263189 -0.00780672 -0.544232)
(0.172419 0.082142 -0.545877)
(0.720513 -0.0209513 -0.441082)
(0.800223 0.0540665 -0.446447)
(0.816025 -0.0284386 -0.438172)
(0.702631 0.0637805 -0.41415)
(0.690168 -0.0378111 -0.383097)
(0.786785 0.0444885 -0.434549)
(0.788195 -0.00704909 -0.28279)
(0.817336 0.0423227 -0.274229)
(0.810149 -0.0194967 -0.264337)
(0.805256 0.0292288 -0.279105)
(0.839877 -0.0118133 -0.282888)
(0.803587 0.0386682 -0.27166)
(0.898064 -0.00377224 -0.0659994)
(0.903905 0.0120374 -0.0586491)
(0.894793 -0.00719288 -0.0555394)
(0.910941 0.00342338 -0.0680237)
(0.936266 -0.00108871 -0.0779617)
(0.896161 0.0204527 -0.067347)
(1.25845 -0.00241554 0.0120999)
(1.26071 -0.00137591 0.0149971)
(1.25624 -0.000668772 0.0135292)
(1.26263 -0.000965595 0.0128166)
(1.27238 0.00164841 0.0113969)
(1.25356 0.00888552 0.00361602)
(1.68653 4.07177e-05 -0.0220581)
(1.68727 -0.00254951 -0.0188036)
(1.68532 -0.00135971 -0.0211532)
(1.68758 -0.00243837 -0.0200796)
(1.69317 3.0491e-05 -0.0170572)
(1.67912 0.00246215 -0.030709)
(2.11327 0.0024894 -0.0908595)
(2.11764 -0.00102665 -0.0821988)
(2.11315 -0.00319915 -0.0843918)
(2.11646 -0.0026407 -0.0889248)
(2.12257 -0.00123834 -0.0848002)
(2.10815 -0.00112046 -0.0923484)
(2.50962 0.00446474 -0.0509146)
(2.53462 -0.000743835 -0.0412362)
(2.52195 -0.00217082 -0.0443817)
(2.52203 -0.00400589 -0.048173)
(2.52583 0.0013254 -0.0417025)
(2.51995 0.00238875 -0.0467)
(2.89517 0.00251009 0.381586)
(2.93615 -0.00252612 0.37398)
(2.92015 0.00228534 0.376306)
(2.91122 -0.000486649 0.379959)
(2.91668 -0.00677452 0.379411)
(2.91978 -0.00693091 0.369698)
(2.92846 0.00559455 1.2943)
(2.94393 0.00416424 1.31399)
(2.93188 -0.00501424 1.31211)
(2.95294 0.00161041 1.28201)
(2.97018 -0.011462 1.28541)
(2.9111 -0.0174848 1.31582)
(2.44395 -0.00653782 1.84543)
(2.44452 0.00604947 1.88161)
(2.44134 0.00222387 1.88429)
(2.45658 0.00992121 1.83706)
(2.48409 0.000582703 1.84888)
(2.39142 -0.0121687 1.87469)
(2.28777 -0.0497536 0.996586)
(2.21616 -0.0151978 0.982573)
(2.21042 0.01861 0.965073)
(2.33147 -0.0166483 1.00229)
(2.40388 0.00685214 1.06675)
(2.16939 0.0608715 0.9688)
(0.75434 -0.0481416 -1.40842)
(1.3515 0.172934 -1.44273)
(1.4813 -0.423226 -1.41668)
(0.201393 -0.277885 -1.35378)
(-0.165454 0.00814865 -1.29024)
(1.3893 0.529605 -1.38334)
(4.22008 -0.173116 -1.00932)
(4.78635 0.306644 -0.726557)
(4.84398 -0.128222 -0.69988)
(4.19362 0.356131 -1.12213)
(3.89186 -0.137853 -1.29161)
(4.98495 0.530515 -0.720829)
(7.67733 -0.251257 -0.512811)
(8.13199 0.356611 -0.319485)
(8.25142 -0.0530147 -0.272742)
(7.81917 0.545254 -0.514961)
(7.71271 -0.126642 -0.555258)
(8.68102 0.54769 -0.286934)
(9.39811 -0.18895 -0.8967)
(9.89469 0.221266 -0.839978)
(9.90738 -0.156435 -0.822401)
(9.59319 0.241276 -0.873443)
(9.42087 -0.133007 -0.865206)
(10.3316 0.447152 -0.808866)
(8.52954 -0.108805 -0.569011)
(8.78918 0.0184636 -0.579641)
(8.80592 -0.121253 -0.581852)
(8.59408 -0.010225 -0.564386)
(8.31816 -0.100401 -0.552285)
(8.85728 0.186672 -0.548829)
(5.02951 -0.0361501 -0.856226)
(5.0222 -0.0243118 -0.857296)
(5.04969 -0.0347499 -0.864494)
(4.98502 -0.0170467 -0.860177)
(4.91477 -0.0148395 -0.890388)
(5.06217 0.0453453 -0.860904)
(5.12598 -0.0200784 -1.11989)
(5.13474 -0.0186494 -1.13156)
(5.14179 -0.0123418 -1.13671)
(5.07051 0.014004 -1.13063)
(5.06573 -0.0158298 -1.12913)
(5.1795 -0.023586 -1.14776)
(5.93747 -0.0700866 -0.946372)
(5.96863 -0.0527311 -0.991346)
(5.95019 0.0119577 -0.984033)
(5.89799 0.0422726 -0.967515)
(5.9919 -0.0614507 -0.964126)
(5.90721 -0.0687926 -0.99122)
(5.76235 -0.0562662 -0.40349)
(5.75216 -0.0487349 -0.417293)
(5.73374 0.0180019 -0.411944)
(5.74928 0.0466856 -0.407971)
(5.94443 -0.0980411 -0.421922)
(5.57929 -0.0977019 -0.436414)
(5.14923 0.0360336 -0.0142759)
(5.12437 0.0129438 0.112916)
(5.07469 -0.0204413 0.078378)
(5.20773 0.0190749 0.00858459)
(5.31103 -0.0489933 0.0373911)
(4.91461 -0.0431881 0.0617391)
(4.8146 0.0508326 -0.152255)
(4.82773 0.0349093 -0.0520464)
(4.77959 -0.0366689 -0.0735149)
(4.89802 0.00594889 -0.154018)
(4.92828 -0.00799248 -0.164894)
(4.6755 -0.0154552 -0.0386613)
(5.15733 -0.190745 2.26035)
(5.30582 -0.0792517 2.04499)
(5.2448 0.120758 2.11753)
(5.1961 0.0202276 2.24696)
(5.38903 -0.107961 2.12632)
(5.03518 -0.0197459 2.20489)
(-2.17058 -0.0776761 -3.71869)
(-2.05048 0.228459 -3.82182)
(-1.58115 -0.0723136 -3.75031)
(-2.23906 0.116118 -3.7853)
(-2.40009 -0.020827 -4.10564)
(-1.60032 0.296427 -3.65271)
(-1.79749 -0.0424967 -4.43659)
(-2.03812 -0.0166161 -4.30283)
(-2.25207 0.152165 -4.22542)
(-1.66613 0.268349 -4.47932)
(-1.47093 -0.0130103 -5.14023)
(-2.05766 -0.0223392 -3.75261)
(-1.67352 -0.0893946 -2.7953)
(-1.69511 0.0098808 -3.01461)
(-1.59542 -0.0826374 -2.81524)
(-1.72446 -0.0215044 -2.88529)
(-1.74177 -0.0592868 -2.96072)
(-1.3942 0.111093 -2.12275)
(-0.720237 -0.0853445 -0.181043)
(-0.659336 -0.0323134 -0.0503814)
(-0.614411 -0.0543096 0.0574507)
(-0.732686 0.0129334 -0.197167)
(-0.773778 -0.111372 -0.340662)
(-0.232511 0.0459537 0.7576)
(1.36736 -0.0583772 2.14211)
(1.41818 -0.0258523 2.33213)
(1.44577 -0.0460885 2.37313)
(1.33954 -0.0410256 2.12238)
(1.24497 -0.0445991 1.86771)
(1.63988 0.0390474 2.75362)
(3.59233 -0.0318543 2.04269)
(3.54042 -0.020279 2.08629)
(3.60638 -0.0214295 2.10975)
(3.50806 -0.0641845 1.98484)
(3.39972 0.0224444 1.75609)
(3.6777 0.062213 2.16)
(5.60044 -0.0356534 -0.869963)
(5.55449 -0.00577603 -0.95957)
(5.66087 0.020231 -0.946848)
(5.4556 -0.00340757 -0.953481)
(5.25416 0.0661799 -0.977331)
(5.85479 0.0745246 -0.958691)
(7.88337 -0.228291 -0.788646)
(7.50786 -0.12514 -1.31589)
(7.62877 0.0664097 -1.27071)
(7.64775 0.0553952 -0.99194)
(7.41711 -0.070602 -1.10338)
(7.85358 0.0619181 -1.18382)
(10.7979 -0.304999 1.7959)
(10.9288 -0.12582 1.49989)
(11.0766 0.0536001 1.4677)
(10.6464 0.0169002 1.7088)
(10.5233 -0.122693 1.71272)
(11.4945 0.059764 1.39411)
(9.22194 0.0504542 1.77273)
(9.08039 0.0268425 2.00307)
(9.0133 -0.0388537 1.90293)
(9.30686 0.0207255 1.80545)
(9.3715 -0.0647328 1.93791)
(9.04876 -0.0401084 1.76862)
(4.46734 0.262481 2.61757)
(6.99258 0.258375 2.40551)
(5.91502 -0.436814 2.42815)
(4.99617 -0.0934913 2.662)
(5.10571 0.301201 2.60925)
(6.54897 0.441256 2.31937)
(4.31825 -0.258769 8.3474)
(5.16426 -0.0216075 7.1768)
(4.6508 0.0561776 7.57439)
(4.37777 0.15176 8.32419)
(4.62608 -0.17329 8.08538)
(4.82522 0.0777042 7.24423)
(-0.461493 0.0405299 -0.644139)
(-0.596513 -0.0801931 -0.149515)
(-0.547081 -0.305921 -0.98678)
(-0.574678 0.21329 -0.237444)
(-0.159494 -0.386396 0.07876)
(-0.190849 -0.107162 -0.658251)
(-1.43164 0.0799217 -0.669899)
(-1.24289 -0.0954521 0.14884)
(-1.24362 -0.364707 -0.599333)
(-1.14251 0.551901 -0.144483)
(-0.796601 -0.0995731 0.252904)
(-1.19022 -0.195438 -0.711942)
(-2.0972 0.173622 -0.48608)
(-1.96467 0.0941378 0.139597)
(-1.28863 -0.11615 -0.298834)
(-0.706414 0.567017 -0.320075)
(-1.51596 -0.229493 0.278392)
(-1.98125 -0.203992 -0.630242)
(-2.21433 0.220796 -0.368012)
(-2.37633 0.689752 0.0771066)
(-1.27159 0.432123 0.809102)
(-1.36343 -0.0152916 0.363863)
(-2.32309 -0.508537 0.15531)
(-2.38849 -0.169397 -0.776127)
(-1.62124 0.24753 -0.120008)
(-1.30981 0.919969 0.360363)
(0.0724775 0.401277 0.62772)
(-1.10703 -0.186608 0.421198)
(-2.95804 -0.47036 0.601681)
(-3.23005 -0.257587 -0.17564)
(-1.4916 0.330145 0.15545)
(-0.674071 0.819397 -0.00585519)
(-0.349376 1.16032 -0.533061)
(-1.0655 0.0815008 -0.21021)
(-2.10532 -0.733311 0.149091)
(-2.80832 -0.254967 0.173575)
(-0.122645 0.376174 -0.00907493)
(1.18592 1.00482 -0.848564)
(0.702927 1.90193 -1.10287)
(-2.80095 1.17147 -0.0724448)
(-2.67951 -1.25569 0.172897)
(-0.699336 -0.115172 -0.549448)
(0.831338 -0.078483 0.232319)
(2.20881 0.433523 -1.14582)
(2.76052 0.41349 -1.79193)
(-3.99443 1.35691 0.86401)
(-1.77825 -0.509459 0.663497)
(1.12131 0.230398 -0.620585)
(0.78484 -0.135546 0.76077)
(2.21438 -0.080545 -0.756758)
(3.4553 -0.639067 -1.89677)
(1.00294 0.212644 -0.0514493)
(1.97013 0.0851849 -0.653479)
(2.05436 0.360568 -0.749317)
(1.22756 0.217991 1.13466)
(1.48494 -0.601231 0.704357)
(3.67837 -1.10522 -1.92233)
(4.60602 -0.615884 -2.49676)
(4.24186 -0.487392 -1.95221)
(2.30775 0.455852 -0.80554)
(1.83666 0.0841154 0.705409)
(1.49797 -0.815925 2.16286)
(2.6619 -1.52486 -1.24126)
(3.65584 -0.900097 -2.52696)
(3.75167 -0.429922 -2.64262)
(1.99686 0.641477 -0.678061)
(0.704295 0.083411 0.223146)
(0.916514 -0.542269 1.33702)
(1.31031 -0.899399 -0.803082)
(1.93553 -0.310744 -1.74526)
(1.71352 -0.221293 -1.41385)
(0.594887 0.174593 -0.219492)
(-0.212616 -0.38577 -1.30629)
(-0.129395 0.00298792 -1.15128)
(0.477509 -0.754744 -1.79157)
(-0.0140237 -1.24447 -1.43267)
(-0.169489 -0.582154 -0.414654)
(0.050054 0.151368 -1.85102)
(-1.37775 -0.654246 -1.10246)
(-1.32662 -0.041004 -0.836491)
(-0.84944 -1.04152 -1.44027)
(-0.913051 -1.00184 -0.479038)
(-1.02337 -0.656688 0.0312586)
(-1.22566 0.589086 -1.98828)
(-1.7633 -0.815335 -0.885036)
(-1.80064 -0.355396 -0.435044)
(-1.16706 -0.927543 -0.702652)
(-1.00274 -0.24788 0.174562)
(-1.60486 -0.353442 0.117949)
(-1.91883 0.859881 -1.54389)
(-2.24961 -0.822791 -1.11055)
(-2.35798 -0.512849 0.318905)
(-2.12804 -0.416947 2.08543)
(-2.18545 0.0262124 0.813143)
(-2.07006 0.0169959 -0.608003)
(-2.26321 1.14783 -1.86018)
(-3.01079 -0.697099 -1.32512)
(-3.08522 -0.270981 0.469628)
(-1.87899 -0.229873 2.19222)
(-3.16403 -0.348215 0.908155)
(-3.63202 -0.30982 -0.372272)
(-3.50612 0.724859 -1.79652)
(-3.7577 -0.278325 -1.24811)
(-4.23178 0.587255 0.539099)
(-2.56711 -0.0647698 1.76259)
(-3.39198 -1.12593 1.43319)
(-4.31816 -0.793656 0.611251)
(-4.45452 0.18254 -0.305494)
(-4.25654 0.169455 -0.887385)
(-5.16764 1.54505 0.651421)
(-2.85743 0.510123 2.12058)
(-4.03719 -0.66198 3.479)
(-3.57332 -1.28415 2.57337)
(-4.43061 0.319073 1.02814)
(-3.59057 0.448718 0.0114174)
(-5.05069 2.86552 0.996313)
(-3.27553 1.30264 2.33217)
(-5.25511 0.469848 5.23122)
(-1.51494 0.0793596 5.05113)
(-2.61036 0.847163 2.53096)
(0.334092 0.162197 0.355163)
(-1.90544 2.96257 1.08006)
(-3.95245 2.14057 2.26411)
(-0.0630965 1.01653 4.48604)
(2.37439 0.905417 4.41461)
(-3.10158 1.29101 2.08834)
(0.794823 0.188154 0.780112)
(3.38898 0.333626 2.12483)
(-0.451922 1.58833 1.89118)
(0.915786 0.885131 2.7997)
(2.86232 -0.573124 2.48991)
(-3.67653 0.869846 0.875344)
(0.508515 0.106222 -0.500264)
(3.80132 0.0655354 0.463307)
(3.30976 -0.202258 -0.765749)
(3.74834 -0.169157 -2.59816)
(3.3916 -0.852408 -4.44282)
(0.355819 0.40006 -0.21185)
(1.96239 0.444001 -2.88021)
(2.49499 0.875754 -2.46082)
(3.02038 1.08093 -3.81399)
(3.67085 0.720701 -4.5728)
(3.56864 -0.425579 -3.86678)
(1.4137 -0.588321 -2.12244)
(0.336783 -0.435068 -1.20191)
(0.658401 0.181008 -1.61087)
(0.926373 -0.336976 2.04256)
(0.0514415 -1.6364 -2.26297)
(0.0263709 -0.765562 -4.21687)
(0.155756 0.509726 -2.42205)
(-1.40552 -0.96703 -0.294178)
(-1.56339 -0.218802 -0.393653)
(-1.33688 -1.38317 1.02307)
(-0.821837 -1.13106 -1.79033)
(-0.933373 -0.712588 -4.54065)
(-1.49386 0.798704 -2.8026)
(-1.75842 -1.38363 0.927847)
(-1.11317 0.119158 0.22246)
(1.60054 -1.42781 -1.22025)
(1.05678 -0.154714 -2.55792)
(-0.665267 -0.555405 -2.59995)
(-2.12302 1.14835 -0.536502)
(-1.57658 -1.80689 0.622361)
(-0.741717 -1.70702 -1.15833)
(-0.118882 -1.43524 -0.862331)
(-0.146366 0.239751 -2.48362)
(-0.0596389 0.956166 -4.38186)
(-1.25754 1.76589 0.215898)
(-2.1791 -2.75973 0.370437)
(-2.52842 -2.6899 -1.58119)
(-3.18256 -1.06915 0.918861)
(-3.01256 0.257725 -0.200128)
(-2.42915 1.55773 -3.06779)
(-2.14497 2.2243 -1.71042)
(-3.45757 -2.02883 -1.80275)
(-3.96788 -1.7184 -1.72584)
(-4.70879 -0.517705 2.54947)
(-4.53799 -0.559231 1.50943)
(-4.42593 0.610493 -1.31765)
(-4.28286 1.15438 -1.51581)
(-4.5936 -1.22305 -3.1253)
(-5.52488 -0.447002 -0.949426)
(-4.97792 -0.623288 3.38363)
(-4.89914 -1.33479 3.39901)
(-4.78335 -0.205612 1.45093)
(-5.68309 0.645752 0.212348)
(-5.92864 -0.725644 -2.86299)
(-6.87934 0.72185 0.198541)
(-5.80795 -0.768351 4.71849)
(-4.32716 -0.436558 7.96966)
(-3.29743 -0.299769 8.33347)
(-6.66936 0.617615 2.2243)
(-7.18796 -0.789017 -1.86601)
(-7.66968 1.35205 1.99296)
(-6.08735 0.0360319 6.31071)
(-0.845279 -0.131594 7.19589)
(-3.55539 -0.707898 5.53926)
(-8.86116 0.648642 3.51808)
(-7.75413 -0.556318 0.201466)
(-4.50318 0.740078 4.14516)
(-4.40516 0.648124 5.89314)
(-0.591987 -0.113535 4.92165)
(0.896103 -1.56077 1.22783)
(-4.99411 0.67115 3.41306)
(-7.72593 0.244612 1.08152)
(-4.03084 1.47528 2.1044)
(-0.230915 1.59456 0.846667)
(1.58836 1.10676 -1.58885)
(2.8462 -0.252773 -4.62141)
(-0.973778 0.330256 1.10036)
(2.31089 0.754771 -3.68833)
(3.90539 1.89141 -5.1858)
(3.78466 1.84329 -4.84327)
(3.67006 1.14064 -4.51803)
(3.61792 -0.157044 -4.23327)
(2.82613 -0.77423 -3.4207)
(0.565402 -0.14931 -1.68364)
(0.32168 -0.31986 -2.03077)
(1.09011 0.0757085 2.70345)
(0.627536 1.37025 -0.456275)
(0.306866 0.878773 -5.69774)
(0.197725 0.603576 -3.85506)
(-1.24722 -0.417745 -0.489816)
(-0.646744 -0.0177454 -1.98871)
(-0.854953 0.243184 0.26733)
(-0.355634 1.23276 -1.27041)
(0.0878529 0.873804 -3.49587)
(-0.691365 0.527845 -3.27147)
(-2.92 -0.783421 1.18175)
(-2.72132 0.384405 -0.197381)
(-2.53388 -0.137139 0.357754)
(-1.65424 1.05877 -2.14242)
(-1.44017 0.260319 -2.70519)
(-2.53366 0.62994 -0.528534)
(-2.96271 -0.903052 3.70706)
(-4.24895 1.06375 -0.0911477)
(-3.17713 0.447547 -5.5256)
(-1.4195 1.37977 -7.18432)
(-2.99133 -0.0232364 -3.90154)
(-3.90484 0.518229 3.19439)
(-3.38154 -0.463941 5.54733)
(-3.72801 0.723095 -4.55362)
(-1.13846 -0.0252253 -8.75586)
(0.413611 1.69417 -9.14261)
(-2.12844 1.0051 -7.48441)
(-3.1208 1.09376 2.15532)
(-3.8519 -0.373653 2.84862)
(-4.17696 -1.33136 -4.28514)
(-4.5692 -0.65986 -2.12899)
(-4.54538 0.629292 -1.99177)
(-3.60318 1.41112 -4.26348)
(-3.43757 1.21325 -0.612759)
(-3.67106 -0.829386 -0.543428)
(-5.42213 -1.68921 -2.89792)
(-6.37492 -0.897782 2.57117)
(-6.18962 -0.169751 2.77559)
(-5.36403 0.96918 0.579586)
(-5.04463 0.922631 0.0785069)
(-5.13537 -1.27433 -1.97456)
(-6.75724 -1.67452 -0.196764)
(-6.24724 -1.67528 6.22253)
(-4.2376 -0.857881 7.81)
(-5.32627 0.600981 4.57981)
(-6.53633 0.752358 1.72264)
(-6.36045 -1.27053 -1.05509)
(-7.52022 -1.28473 1.94606)
(-4.87038 -2.26673 8.38978)
(-2.99047 -1.84748 7.37237)
(-6.64576 -1.22886 5.66569)
(-7.2278 0.132153 3.66767)
(-6.66729 -0.879673 0.503685)
(-7.52746 -0.195509 4.23276)
(-4.93206 -0.763753 7.94629)
(-1.66251 -1.77915 6.37418)
(-1.86782 -1.98137 4.08743)
(-3.24485 0.271829 5.46609)
(-7.44067 0.29877 2.73674)
(-9.32524 1.74427 4.6808)
(-7.06363 2.49055 4.94911)
(-5.31607 1.29122 3.94983)
(1.31583 -0.00573144 -2.68091)
(-5.50133 -0.967341 5.24988)
(3.36394 0.338266 -3.12694)
(3.65649 0.954529 -3.44478)
(3.52067 1.1977 -3.38713)
(3.6908 1.26463 -3.68779)
(3.83354 0.116514 -4.0516)
(3.3303 -0.626323 -3.55851)
(-2.30872 -0.0139959 -0.625328)
(-2.50633 0.174752 -0.486977)
(-2.22512 -0.119861 -0.321122)
(-2.40196 -0.0331329 -0.516145)
(-2.45447 -0.140303 -0.819892)
(-2.2735 0.0377437 -0.0508097)
(-2.2815 -0.164665 -0.51606)
(-2.21789 -0.00916136 0.232949)
(-1.96673 -0.0366128 0.646894)
(-2.27272 0.191672 -0.250657)
(-2.4536 -0.11884 -0.651185)
(-2.05509 -0.0142585 0.350174)
(-2.01183 -0.26136 2.12556)
(-1.90997 -0.225238 1.16464)
(-1.69098 0.183307 0.833662)
(-1.95691 0.490787 1.95851)
(-2.13643 0.0573146 1.9746)
(-1.95532 -0.000146051 2.11346)
(-0.910908 0.0182785 -3.79317)
(-1.10489 -0.028788 -3.854)
(-1.38333 -0.0251186 -3.66832)
(-0.887719 0.0856498 -3.66342)
(-0.799448 -0.0951854 -4.0869)
(-1.78436 -0.133106 -3.21521)
(-0.411287 0.0106228 -4.07695)
(-0.337322 -0.0579225 -4.05215)
(-0.382477 -0.0426346 -3.97989)
(-0.398611 0.0709267 -4.04292)
(-0.414443 -0.0489135 -4.31091)
(-0.61371 -0.133517 -3.70131)
(-0.229939 -0.00459452 -4.66352)
(-0.204992 -0.0288171 -4.62168)
(-0.192226 -0.0009794 -4.56867)
(-0.252092 0.0479745 -4.64281)
(-0.241075 -0.0220276 -4.74664)
(-0.241537 -0.0677865 -4.55089)
(-1.64227 0.0354761 -3.31537)
(-1.64802 0.0566431 -3.64263)
(-1.60793 -0.0522262 -3.56131)
(-1.64996 -0.0743904 -3.44705)
(-1.6985 -0.0141876 -3.47096)
(-1.71254 0.0163513 -3.50449)
(-1.08566 0.0359223 -2.58166)
(-1.06964 0.0323675 -2.66935)
(-1.03916 0.00695731 -2.63981)
(-1.06598 0.0183161 -2.63352)
(-1.11237 0.0389494 -2.63542)
(-0.964153 0.0340468 -2.6082)
(-0.642302 0.00720287 -3.07958)
(-0.630906 -0.00182963 -3.10468)
(-0.619259 0.0025006 -3.10965)
(-0.634226 0.00770938 -3.09251)
(-0.662571 -0.00782137 -3.0893)
(-0.628045 -0.00877041 -3.11065)
(-1.15019 -0.0113447 -2.86392)
(-1.16347 -0.0451169 -3.03939)
(-1.15892 -0.0231738 -2.98398)
(-1.15989 -0.00226241 -2.9593)
(-1.16919 -0.138704 -3.05361)
(-1.19055 -0.129048 -2.86831)
(-0.438486 0.0208517 -2.01253)
(-0.444528 0.0041208 -2.01155)
(-0.45114 -0.00953722 -1.97623)
(-0.445523 0.0124375 -2.00614)
(-0.450864 -0.0243283 -2.02383)
(-0.443415 -0.026369 -1.88412)
(-0.211472 -0.00237643 -2.82289)
(-0.215292 -0.00853911 -2.83376)
(-0.21421 -0.00267741 -2.82804)
(-0.216642 0.00184461 -2.82109)
(-0.217549 -0.0155332 -2.83277)
(-0.22213 -0.0152936 -2.79481)
(-0.0842628 -0.0132014 -2.61388)
(-0.0778019 -0.0377913 -2.72234)
(-0.0565178 -0.00271474 -2.66654)
(-0.0945639 0.00313494 -2.68367)
(-0.115654 -0.0890759 -2.74971)
(-0.0306644 -0.0957907 -2.62636)
(0.00571268 0.0176969 -1.61005)
(-0.00591808 0.00342683 -1.62298)
(-0.0103335 -0.00419482 -1.59993)
(0.00757171 -0.00113729 -1.61115)
(-0.0107789 -0.0084197 -1.62492)
(0.00773037 2.98085e-05 -1.5339)
(-0.045065 0.00187205 -2.52942)
(-0.0429799 -0.00200737 -2.55694)
(-0.0419782 -0.00152326 -2.54995)
(-0.0402202 8.96033e-05 -2.54025)
(-0.0431244 -0.00994929 -2.53426)
(-0.0367913 -0.00763375 -2.54114)
(1.2002 -0.0107338 -2.99252)
(1.21767 -0.0274148 -3.06229)
(1.27895 -0.000761345 -3.0017)
(1.11701 -0.0145004 -3.08689)
(0.990968 -0.000347854 -3.12134)
(1.31589 0.00450502 -2.99429)
(0.721516 0.00363308 -2.27846)
(0.717035 -0.0114858 -2.30542)
(0.728688 -0.00598655 -2.27654)
(0.697376 -0.0277499 -2.3127)
(0.630566 -0.00606559 -2.33697)
(0.743077 0.0180235 -2.23531)
(0.140421 0.0076255 -2.97043)
(0.159371 0.00266669 -3.00047)
(0.159349 -0.000816359 -2.97906)
(0.161166 -0.0013459 -2.99082)
(0.142149 -0.00300119 -2.98713)
(0.168622 -0.000849707 -2.95862)
(2.37952 -0.0195259 -3.94656)
(2.26475 0.0067474 -4.05712)
(2.38325 -0.0129346 -3.97836)
(2.07921 0.00574329 -4.04224)
(1.84433 0.0235904 -3.93852)
(2.42856 0.033858 -3.95462)
(1.53575 0.01355 -3.59146)
(1.408 0.00204738 -3.66666)
(1.48321 -0.0123238 -3.59341)
(1.37361 -0.0674111 -3.63457)
(1.23325 0.0106946 -3.5188)
(1.38456 0.0544851 -3.56708)
(0.0781389 0.050455 -3.9792)
(0.135176 0.0374126 -4.05258)
(0.114945 -0.00412523 -3.98767)
(0.0784984 -0.0355875 -4.01901)
(0.0738105 0.0176474 -3.95743)
(0.154608 0.0402298 -3.919)
(3.02753 -0.609925 -4.60342)
(3.12435 -0.356547 -5.80595)
(3.2409 0.109166 -5.62305)
(2.84142 0.263663 -4.86851)
(2.83903 -0.664707 -5.40677)
(3.31959 -0.410888 -5.28967)
(2.04725 -0.432746 -3.88938)
(2.12203 -0.253049 -5.33512)
(2.25929 0.112841 -5.19122)
(1.962 0.205872 -4.34566)
(1.87704 -0.550019 -4.34671)
(2.23853 -0.356507 -5.12296)
(-0.208674 0.118588 -2.73506)
(0.199378 0.0631731 -5.23988)
(0.184949 -0.100366 -4.97791)
(0.0380425 0.0339142 -3.88669)
(-0.100799 0.0913987 -3.50919)
(0.228102 0.0949597 -5.2982)
(5.03308 -0.530287 0.0452879)
(1.56015 -0.340284 -0.829898)
(2.47656 -0.402474 -0.625805)
(4.07371 -0.0304274 -0.39436)
(3.57625 -0.456365 -1.00439)
(1.66542 -0.0177095 -0.437606)
(2.13861 -0.86115 1.30964)
(-0.421593 -0.302686 -2.37044)
(0.378365 0.174605 -1.68275)
(2.23213 0.163942 -0.717312)
(1.35013 -1.17465 -1.26206)
(-0.721301 -0.7682 -2.33281)
(-3.2677 -0.519105 7.16792)
(-0.922362 0.0284899 -2.69916)
(-1.85925 0.0112288 0.495328)
(-2.49321 0.344608 4.78817)
(-2.45914 -0.710634 4.18051)
(-0.601874 -0.244646 -3.23092)
(7.51413 0.0854077 7.34673)
(8.45676 0.18444 6.41036)
(7.96014 -0.20993 6.89111)
(7.77157 0.0710138 7.15128)
(7.37074 0.0861237 7.18915)
(8.23039 0.252227 6.40906)
(0.923513 -0.00791273 11.2835)
(3.58206 0.163408 9.2893)
(2.8536 -0.228724 9.90446)
(1.75877 0.138057 10.4474)
(1.538 0.13178 10.3528)
(3.17203 0.341382 9.58255)
(-4.63471 -0.473021 13.9688)
(-0.885366 -0.07327 12.6139)
(-1.99427 0.00015301 12.9988)
(-3.61197 0.167676 13.4223)
(-3.48983 -0.294656 13.7733)
(-1.33954 -0.0438933 12.7651)
(-7.08801 -0.0256855 7.17506)
(-7.3726 -0.00158586 10.4297)
(-7.32826 -0.0115525 8.7975)
(-6.93212 0.174077 7.3656)
(-7.23101 0.140541 7.51246)
(-7.45492 -0.0362641 10.286)
(-6.34391 -0.34997 8.32346)
(-7.38936 -0.11961 10.5273)
(-7.09654 0.178167 9.24248)
(-6.56875 0.125308 8.22485)
(-6.95615 -0.229015 8.53743)
(-6.98987 -0.338108 9.91202)
(-4.7508 -0.494969 7.90522)
(-6.18313 -0.253366 10.3048)
(-5.77083 0.228451 8.85568)
(-5.07046 0.12783 8.06347)
(-5.54747 -0.369189 8.71113)
(-5.55019 -0.39283 9.59193)
(-1.128 0.149437 7.66892)
(-1.8043 0.128814 8.53644)
(-1.53913 -0.156394 7.84379)
(-1.0077 -0.0351095 8.15645)
(-1.02259 0.195132 7.91021)
(-1.63943 0.150883 8.69969)
(-0.369425 -0.016202 3.70695)
(-0.363176 0.0537626 4.23)
(-0.237068 -0.0120283 3.82588)
(-0.212994 -0.143198 3.73647)
(-0.227882 0.0240372 3.64953)
(-0.395366 -0.0690863 4.21668)
(-0.28026 0.0865092 -1.94132)
(-0.0811286 0.0617845 -2.04867)
(-0.0895286 -0.0460731 -2.22299)
(-0.157631 -0.0362327 -1.9814)
(-0.155886 0.0792432 -2.35248)
(-0.245097 0.0188646 -1.67309)
(1.93013 0.049307 -0.127654)
(1.99935 0.102546 -0.248889)
(1.99008 0.0394811 -0.332771)
(2.13651 -0.0577482 -0.230047)
(2.31573 -0.13187 -0.13229)
(2.17169 -0.0815891 -0.118657)
(-0.493956 0.0363279 -3.40547)
(-0.427167 0.308314 -3.43971)
(-0.352682 0.0956502 -3.46621)
(-0.681797 -0.165914 -3.10181)
(-1.38295 -0.064645 -3.45741)
(-1.51182 0.00563254 -3.6635)
(-1.07503 -0.111638 0.0221754)
(-1.12404 -0.245354 -0.347648)
(-1.49472 -0.233429 0.196632)
(-2.2426 0.0283364 0.761362)
(-1.97823 0.232277 0.726224)
(-1.74789 0.116189 0.857716)
(0.436798 0.0084665 -0.255765)
(0.456521 -0.00537617 -0.260427)
(0.51278 -0.00347456 -0.256921)
(0.510801 0.0121598 -0.287593)
(0.47113 0.000958918 -0.305088)
(0.452765 -0.0016093 -0.294172)
(0.275438 -0.00838784 -1.70197)
(0.43222 -0.0508666 -1.71052)
(0.634386 -0.170385 -1.79512)
(0.356428 -0.314643 -2.01208)
(0.0213841 -0.277099 -2.17924)
(-0.10359 -0.0935253 -2.00916)
(0.0978737 -0.0261386 0.229193)
(0.0627203 -0.0885297 0.191617)
(-0.102807 -0.153938 0.211913)
(-0.336004 0.00588904 0.442451)
(-0.156803 0.102785 0.667797)
(-0.0975719 0.0149834 0.71694)
(0.25147 0.00139019 0.0479301)
(0.26474 0.00611389 0.0478041)
(0.259291 0.00506822 0.0441148)
(0.258552 -0.00192211 0.0531289)
(0.257047 -0.00290911 0.0530321)
(0.252639 4.89391e-05 0.0420012)
(0.39021 0.0027117 -0.693375)
(0.391166 -0.00930892 -0.723369)
(0.365503 -0.0945866 -0.763827)
(0.272589 -0.165388 -0.763596)
(0.137781 -0.135419 -0.741598)
(0.0848491 -0.0514313 -0.700372)
(-0.162948 -0.0150471 0.0398477)
(-0.172486 -0.0560867 0.028574)
(-0.191647 -0.0765438 0.0850437)
(-0.235458 -0.00283192 0.155581)
(-0.216702 0.0445192 0.177837)
(-0.215605 0.0112997 0.198054)
(-0.222934 0.0016822 0.059923)
(-0.214052 0.00203231 0.0586305)
(-0.217102 0.000777981 0.056214)
(-0.219172 0.00196291 0.0583284)
(-0.22562 4.7491e-06 0.0594841)
(-0.218608 -0.00107346 0.0487288)
(0.642785 -0.0341132 -0.682626)
(0.679857 -0.070919 -0.685809)
(0.69916 -0.066035 -0.678072)
(0.659358 -0.0509176 -0.677247)
(0.621254 -0.0408036 -0.684269)
(0.596634 -0.0166468 -0.671576)
(0.170891 -0.00365216 -0.00583292)
(0.14384 -0.00298293 -0.00339549)
(0.121703 -0.0111966 0.0266867)
(0.11562 -0.00242435 0.0549548)
(0.130833 0.0137739 0.0681907)
(0.117895 0.00409626 0.0777823)
(-0.357967 -0.0106664 -0.143126)
(-0.376928 -0.00152139 -0.148677)
(-0.36292 0.0074466 -0.149477)
(-0.357555 0.00149142 -0.144461)
(-0.359033 -0.00246773 -0.142797)
(-0.373256 -0.00518312 -0.160888)
(0.392268 -0.0213257 -0.249614)
(0.501913 -0.051246 -0.413843)
(0.594484 -0.0328607 -0.350315)
(0.509903 -0.0182036 -0.227062)
(0.412366 0.00292513 -0.233123)
(0.403471 -0.00312653 -0.415327)
(0.0517746 0.0182552 0.861343)
(0.0597654 0.00723839 0.868891)
(0.0618651 -0.0389701 0.903137)
(0.0873305 -0.015244 0.917422)
(0.0825557 0.0471772 0.923908)
(0.0582018 0.03416 0.921317)
(-0.61216 0.034125 -0.445093)
(-0.654922 0.00829709 -0.566539)
(-0.651953 -0.0287751 -0.492462)
(-0.585401 -0.00937616 -0.44974)
(-0.612859 0.035369 -0.465702)
(-0.705389 0.0317635 -0.564326)
(2.08271 0.0444126 0.12281)
(2.24109 -0.0121065 -0.048526)
(2.35491 -0.0811659 0.00870736)
(2.30622 -0.134658 0.228508)
(2.2558 0.0865069 0.177082)
(2.20219 0.0192103 0.116631)
(0.51648 -0.00553515 -0.020909)
(0.476548 -0.0102725 -0.0680161)
(0.503146 -0.024829 0.0323937)
(0.540673 -0.0196259 -0.0240413)
(0.51723 0.0428949 -0.105085)
(0.45865 0.0256843 0.0343523)
(0.428771 0.27866 -1.40004)
(-0.149371 -0.0243936 -2.47316)
(-0.0490796 0.536484 -1.88902)
(-0.0141162 1.10462 -2.44018)
(0.0103488 0.595124 -3.02083)
(0.123752 -0.0960587 -1.04541)
(0.124796 0.234346 -1.51951)
(-0.149881 0.0843978 -2.61523)
(0.41521 0.108915 -1.02212)
(-0.047179 -0.0789344 -1.73317)
(-0.128818 -0.0887657 -2.81866)
(-0.00866628 -0.352596 -2.30527)
(-0.111294 0.127917 -1.90193)
(-0.100048 -0.013042 -2.21148)
(0.197358 -0.0686287 -1.24621)
(-0.0840736 0.136452 -2.10785)
(-0.122546 0.0689122 -2.57546)
(-0.0837829 -0.0465148 -2.23366)
(-0.0178195 0.248649 -2.56661)
(0.0299097 0.0955301 -3.87576)
(-0.348278 0.28291 -3.9957)
(-0.30213 0.646441 -3.7749)
(-0.0227236 0.433294 -3.76982)
(-0.315553 0.0721209 -2.59359)
(0.172221 0.159579 -2.61949)
(0.0375507 0.244719 -2.96291)
(-0.168488 0.00835564 -2.61927)
(-0.194906 -0.0924681 -2.88877)
(-0.088946 -0.0717815 -3.42489)
(0.105528 -0.14026 -3.11282)
(-0.121305 0.045795 -2.67332)
(-0.140364 0.0682203 -2.78939)
(-0.121188 0.0179875 -2.90961)
(-0.120705 0.0653873 -2.97501)
(-0.127644 0.0203469 -3.018)
(-0.0696771 -0.0410678 -2.79571)
(-1.12212 0.296566 -0.463273)
(-0.478219 0.619434 -3.41599)
(-0.553789 0.747805 -4.2266)
(-0.617151 0.711694 -3.77406)
(-0.334949 0.152914 -3.61957)
(-1.32927 -0.0547856 -1.92232)
(0.712082 0.449357 -2.28935)
(0.563191 0.489633 -3.32144)
(0.276129 0.126204 -2.86642)
(0.151672 -0.0955455 -3.2108)
(0.388651 -0.149314 -3.74194)
(0.512116 -0.166081 -2.91658)
(0.00422597 0.1227 -2.35022)
(-0.124379 0.0552056 -2.62619)
(-0.0347213 -0.0216704 -2.77162)
(-0.0320619 0.0622621 -3.01596)
(0.0162264 -0.0544303 -3.03411)
(0.179404 -0.0751115 -2.82819)
(-1.9958 0.555549 1.29834)
(-1.87641 1.66477 -2.44117)
(-1.74713 1.65044 -3.7473)
(-1.88689 0.697334 -3.3559)
(-2.18412 -0.560107 -2.36083)
(-3.4419 -0.354941 1.00318)
(0.322911 0.548541 -2.5028)
(0.253869 0.666065 -4.03747)
(-0.126418 0.133969 -3.85715)
(0.0395522 -0.388003 -3.66436)
(0.407467 -0.547116 -3.97945)
(-0.183849 -0.366574 -2.59374)
(0.100631 0.125824 -2.22045)
(0.00299394 0.0670388 -2.61319)
(0.0649047 -0.133648 -3.01969)