/*--------------------------------*- C++ -*----------------------------------*\
| =========                 |                                                 |
| \\      /  F ield         | OpenFOAM: The Open Source CFD Toolbox           |
|  \\    /   O peration     | Version:  v1612+                                |
|   \\  /    A nd           | Web:      www.OpenFOAM.com                      |
|    \\/     M anipulation  |                                                 |
\*---------------------------------------------------------------------------*/
FoamFile
{
    version     2.0;
    format      ascii;
    class       volScalarField;
    location    "8.45";
    object      alpha.water;
}
// * * * * * * * * * * * * * * * * * * * * * * * * * * * * * * * * * * * * * //

dimensions      [0 0 0 0 0 0 0];

internalField   nonuniform List<scalar> 
1116
(
0.745343
0.745094
0.746065
0.744499
0.743859
0.74626
0.812071
0.81191
0.811983
0.811834
0.81184
0.81197
0.958857
0.95889
0.958652
0.958988
0.95918
0.958634
0.974092
0.974092
0.974092
0.974092
0.974092
0.974092
0.974093
0.974093
0.974093
0.974093
0.974093
0.974093
0.974093
0.974093
0.974093
0.974093
0.974093
0.974093
0.928334
0.92752
0.927855
0.92797
0.927184
0.928746
0.831679
0.830483
0.831343
0.8304
0.830511
0.831767
0.794188
0.79266
0.793272
0.793827
0.795239
0.793405
0.755367
0.754313
0.754386
0.755797
0.756884
0.754247
0.716237
0.714209
0.713993
0.716857
0.717916
0.71332
0.665425
0.667824
0.667655
0.664931
0.663447
0.668366
0.504339
0.508338
0.510822
0.502407
0.49592
0.509476
0.459769
0.448198
0.442174
0.460505
0.46663
0.443329
0.569492
0.564489
0.56088
0.570798
0.575379
0.562248
0.776418
0.778161
0.77823
0.77668
0.776257
0.779352
0.934048
0.935301
0.936521
0.933584
0.932537
0.936934
0.957146
0.956717
0.957424
0.95683
0.957097
0.957115
0.944779
0.945659
0.945793
0.944871
0.944836
0.944842
0.76334
0.774151
0.771619
0.767573
0.764505
0.777607
0.325113
0.332573
0.330043
0.327651
0.325986
0.335274
0.250217
0.226264
0.230462
0.250068
0.257093
0.214858
0.257707
0.255766
0.256771
0.256847
0.257462
0.250288
0.146636
0.167763
0.16727
0.143476
0.136734
0.169713
0.000307789
0.00102438
0.00187014
4.90263e-06
3.08747e-06
0.001371
1.2132e-05
6.52286e-06
2.8662e-06
3.41321e-06
2.95536e-06
2.16955e-06
0.00211856
0.00034452
4.59201e-13
0.00204184
0.00267642
0.000125056
0.0346592
0.032811
0.0328103
0.0345296
0.0351217
0.0329796
0.105017
0.104811
0.105569
0.104935
0.104316
0.108153
0.199822
0.201268
0.201041
0.200938
0.199046
0.20506
0.220266
0.21941
0.220389
0.219756
0.21879
0.221347
0.252069
0.24618
0.249866
0.247821
0.246785
0.249247
0.305411
0.301771
0.303055
0.304812
0.304136
0.303737
0.188452
0.199251
0.194913
0.187752
0.193587
0.198302
0.03974
0.0416984
0.0389054
0.0403977
0.0441328
0.0404018
0.0140758
0.00648591
0.00665174
0.0153867
0.0185514
0.00598541
6.0472e-06
5.61878e-06
5.36219e-06
4.41709e-06
2.61564e-06
2.16955e-06
1.61629e-05
6.51474e-06
4.98676e-06
7.8603e-06
6.07748e-06
1.82631e-06
2.02025e-12
4.48141e-13
3.58657e-13
4.59203e-13
1.72942e-11
9.43273e-12
4.48141e-13
3.58657e-13
3.12041e-13
3.58657e-13
1.20945e-12
1.0262e-12
4.03774e-13
3.77817e-13
3.58657e-13
3.77817e-13
4.43886e-13
6.90899e-13
4.98529e-13
4.03773e-13
3.77817e-13
4.43885e-13
3.32894e-12
1.0674e-09
5.40127e-08
4.69212e-08
4.23414e-08
5.811e-08
8.27442e-08
3.502e-08
1.21603e-07
1.16264e-07
1.11205e-07
1.2536e-07
1.29749e-07
9.78632e-08
1.35179e-07
1.34836e-07
1.34339e-07
1.30995e-07
1.27803e-07
1.2782e-07
0.0105304
0.00819307
0.00924519
0.00925969
0.00860974
0.00819777
0.000477981
0.000566403
0.00059696
0.000483955
0.00051341
0.000622478
0.00408751
0.00560672
0.00563189
0.00379103
0.00331795
0.00586041
0.0947212
0.0947222
0.0947212
0.0947224
0.092625
0.0947075
0.0947222
0.0947239
0.0947298
0.0947209
0.0947197
0.0947151
0.0947222
0.0947229
0.0877632
0.0947221
0.0947197
0.0947176
0.0947109
0.0811794
0.0300758
0.0642874
0.0794377
0.0947097
0.0829011
0.0488687
0.0634802
0.0636227
0.0387644
0.0400871
0.0496047
0.0565617
0.0608446
0.0613515
0.0609591
0.0546993
0.0550076
0.0539637
0.0320434
0.0146833
0.029759
0.0530857
0.0550076
0.0508211
0.0335292
0.00352766
0.0114353
0.0398298
0.0488635
0.0507106
0.0361406
0.00554224
0.0140471
0.0407978
0.0167122
0.0475841
0.0338557
0.0192498
0.0146193
0.0410298
0.0183955
0.0147605
0.0326453
0.0354533
0.0282744
0.0410298
0.0197469
0.00962705
0.0249202
0.0404586
0.0410034
0.0410298
0.0947233
0.094723
0.0947384
0.0947202
0.0946824
0.0947092
0.0908524
0.0947255
0.0947179
0.0947205
0.0947189
0.0947091
0.0927806
0.0947236
0.094235
0.0946865
0.0947182
0.09471
0.0947002
0.0915211
0.0292759
0.0725236
0.0947284
0.0947014
0.0941107
0.0538081
0.0220385
0.0326723
0.0513765
0.0639487
0.0424091
0.0175339
0.021269
0.0149292
0.0143786
0.0162842
0.00256461
0.00391235
0.00535772
0.00538287
0.00429018
0.00244206
0.000959025
0.00015901
0.000897545
0.00353839
0.00237212
4.40605e-05
0.00950652
0.00226347
5.84346e-06
0.00176549
0.000562485
4.72483e-05
0.0100764
1.86932e-06
1.33509e-06
0.000345919
7.56007e-05
0.0020239
0.00408169
0.00071294
5.3233e-06
2.47092e-05
6.75021e-05
0.00547219
0.00883585
0.00338171
0.0012795
0.000155662
0.000233927
0.00683834
0.0398036
0.0639552
0.0514515
0.0712892
0.0899879
0.0810048
0.0139363
0.0302753
0.0137106
0.0411086
0.0653885
0.0540013
0.0126506
0.0340294
0.041425
0.0730078
0.0821838
0.0318473
0.0281057
0.0620038
0.0877096
0.0935716
0.094649
0.0410382
0.0414762
0.0648669
0.0327713
0.0509586
0.0747592
0.0444099
0.0302709
0.0353115
0.00058027
0.000691098
0.00424264
0.0126514
0.00160923
0.000383107
0.000141954
0.000310258
2.94234e-05
4.70807e-05
5.80216e-06
9.67142e-06
0.000183135
0.000904743
1.27408e-05
3.53548e-05
9.95614e-07
1.86671e-06
3.00746e-05
2.52352e-06
3.83476e-05
0.000238458
6.71397e-07
8.22035e-07
4.0681e-07
8.21838e-07
4.65595e-05
0.000401615
7.7691e-07
0.000702397
0.000446864
0.00197753
0.00307705
6.65487e-05
0.000598726
0.00353443
0.00508211
0.00701917
0.00665079
0.00172363
2.34335e-08
2.34335e-08
2.83231e-08
3.41435e-08
0.00271962
0.000433157
2.34335e-08
2.83211e-08
3.41435e-08
2.92622e-08
3.41435e-08
0.000446582
2.52325e-07
4.31014e-08
3.77865e-08
3.41435e-08
4.22884e-08
0.00321709
8.59593e-06
2.67097e-07
0.0115443
0.0346811
0.0142045
0.00134727
1.67106e-05
0.0142998
0.0378876
0.0483811
0.0261608
0.00739634
0.0020618
0.0248065
0.00957783
0.00744305
0.00940377
0.00550019
0.00152851
0.00656748
2.20122e-05
2.43746e-05
1.27408e-05
0.000245175
0.000109273
1.17272e-05
1.551e-06
2.45283e-06
7.27984e-06
6.08033e-05
6.71261e-07
9.22431e-07
7.23393e-07
4.10395e-07
5.94357e-05
0.000221945
4.98289e-07
4.06452e-07
3.3244e-07
3.21166e-07
6.71525e-07
1.80783e-05
6.51968e-07
6.23149e-07
4.06609e-07
0.000674751
0.00155735
1.72066e-06
0.00758947
0.00678301
0.00767332
0.00783099
0.00783099
0.00728799
0.000243733
0.000119827
8.98527e-05
0.000222984
0.000256142
0.000107752
0.000277472
0.000130789
8.58725e-05
0.000266606
0.000266606
0.000161924
0.000277244
0.000191195
0.000142296
0.000266083
0.000266528
0.000265605
0.000116032
0.000111541
0.000110855
4.5388e-05
4.12203e-05
9.90948e-05
5.70287e-05
2.77256e-05
5.77029e-05
1.38683e-05
5.71351e-05
5.0613e-05
9.18072e-32
8.89144e-32
1.22584e-31
1.184e-31
1.19021e-30
6.0981e-33
2.0734e-11
9.21097e-13
1.77402e-13
3.04855e-12
8.85009e-12
5.82642e-13
-2.68604e-14
-2.95539e-14
9.94291e-18
-1.43455e-14
-2.29898e-12
-2.5542e-18
2.50808e-22
2.96492e-20
1.67119e-17
8.6625e-22
-6.72049e-20
1.66711e-19
1.00408e-11
4.10048e-13
2.60793e-13
6.83788e-12
1.44097e-11
7.80657e-13
3.92422e-15
2.9169e-15
2.59851e-15
1.33619e-14
7.81692e-14
5.44216e-16
5.17285e-15
7.93002e-17
1.39096e-16
3.72296e-15
2.94046e-14
1.13995e-17
4.20209e-13
3.65055e-13
3.12032e-13
3.65055e-13
6.20146e-13
6.86375e-13
5.29925e-13
2.32555e-13
1.34648e-13
3.55362e-13
3.43195e-13
3.43197e-13
-2.19428e-15
-1.56116e-16
-1.25106e-16
-1.62238e-15
-1.89559e-14
-3.3338e-17
1.74285e-06
1.44399e-06
1.3048e-06
1.87577e-06
2.66294e-06
1.04467e-06
2.25516e-06
1.95893e-06
1.7393e-06
2.42753e-06
3.82669e-06
1.32722e-06
-4.81883e-15
-3.29931e-18
-2.48178e-16
-2.91625e-15
-1.56998e-13
6.20338e-19
4.52793e-06
5.42513e-06
4.84877e-06
5.0137e-06
6.27042e-06
4.28566e-06
1.33266e-05
1.2877e-05
1.29208e-05
1.348e-05
1.31859e-05
6.6089e-06
-2.65254e-13
-5.77149e-14
-4.96729e-14
2.72823e-08
2.21718e-06
-5.58665e-18
5.96926e-07
1.354e-06
1.07481e-06
8.64689e-07
9.77439e-07
9.6101e-07
1.32959e-05
7.68477e-06
8.09298e-06
1.33904e-05
1.09623e-05
4.57262e-06
9.20461e-06
7.0416e-06
6.2809e-06
9.06074e-06
9.30439e-06
4.27014e-06
1.3518e-07
1.36933e-07
1.36111e-07
1.34342e-07
1.31007e-07
1.2782e-07
5.23957e-06
2.96802e-06
3.80423e-06
5.22187e-06
2.97851e-06
2.28527e-06
1.55567e-05
1.32339e-05
1.38494e-05
1.60355e-05
7.7306e-06
7.3184e-06
1.44132e-07
1.81515e-07
1.67678e-07
1.51296e-07
1.56268e-07
1.53087e-07
8.61176e-06
2.98271e-06
4.72676e-06
7.20429e-06
5.13601e-06
2.12961e-06
1.30642e-05
1.14154e-05
1.18912e-05
1.39356e-05
7.7068e-06
6.75572e-06
0.000128548
0.000106864
0.000103558
0.000138656
0.000163113
8.58207e-05
0.000178958
0.00012587
0.000134374
0.000193313
0.000226482
9.08482e-05
7.72285e-06
7.44809e-06
5.7233e-06
1.10325e-05
1.49191e-05
9.97457e-06
0.0110119
0.0103985
0.0107829
0.0110368
0.0112036
0.0100177
0.000325088
0.000451765
0.000312634
0.000469308
0.000575481
0.000713645
-1.50775e-11
-2.88482e-11
-1.72502e-11
-4.70921e-11
-5.43333e-11
-1.00802e-10
0.0273953
0.0272186
0.0268501
0.0268746
0.0267733
0.026665
2.96608e-13
2.85731e-13
2.97752e-12
1.50189e-12
7.58947e-13
1.73218e-14
-1.5112e-15
-1.46272e-14
-1.31623e-14
3.1161e-09
8.75112e-12
2.52174e-16
0.0292108
0.0289184
0.0287838
0.0285459
0.0284747
0.0285678
2.2518e-13
3.45543e-14
2.00305e-14
1.02345e-14
7.26748e-15
2.34208e-16
-5.15371e-17
-1.081e-16
-2.34671e-16
4.43161e-18
1.48274e-17
1.23133e-17
0.0296324
0.0296048
0.0295508
0.0295144
0.0294816
0.029461
4.5034e-13
1.40718e-26
7.92445e-27
4.14196e-27
2.9535e-27
2.91412e-27
-3.99791e-27
-3.76219e-27
-4.10675e-27
-3.74405e-27
-6.50511e-27
-2.60347e-27
0.0290078
0.028998
0.028958
0.0289097
0.0288518
0.0288757
2.97165e-24
4.95481e-24
3.52276e-24
2.2582e-24
1.94077e-24
1.96042e-24
-3.21507e-27
-3.56167e-27
-3.91109e-27
-3.71645e-27
-4.2602e-27
-2.82894e-27
0.0272348
0.0273121
0.0272695
0.0271088
0.0269628
0.0271812
7.44279e-12
1.25547e-11
8.96146e-12
5.74135e-12
4.92212e-12
5.03025e-12
-1.08863e-18
5.95495e-18
8.93602e-18
9.40311e-18
1.01145e-17
9.98809e-18
0.026874
0.0268444
0.0268196
0.0267757
0.0266514
0.0267589
6.7377e-09
1.02932e-08
8.20905e-09
9.04385e-09
1.12829e-08
1.23265e-08
-1.33271e-14
-3.85745e-14
-5.14803e-15
-6.96922e-14
-7.10972e-14
-5.58127e-14
2.26147e-07
2.37298e-08
1.98067e-06
2.92622e-08
4.83586e-08
7.34159e-08
1.74318e-06
7.24319e-08
2.37303e-05
3.71618e-07
6.99384e-07
2.66318e-06
6.31941e-26
1.00305e-08
7.30833e-10
1.85619e-18
3.49177e-24
1.97445e-25
1.04093e-05
2.67367e-06
2.92622e-08
2.61036e-08
2.92622e-08
6.68439e-08
2.75948e-05
3.48077e-06
5.57613e-08
8.07655e-09
5.6819e-06
1.80066e-05
4.91459e-25
5.30082e-21
4.24037e-08
7.83489e-09
7.36907e-22
3.93299e-24
4.08908e-05
1.10569e-05
4.11262e-08
1.3709e-07
2.07718e-06
3.25067e-07
2.98355e-05
9.58196e-06
6.54368e-08
4.04713e-07
8.34261e-06
2.31662e-05
7.45915e-23
3.31442e-14
2.25523e-07
3.73221e-08
1.24146e-19
4.15261e-22
0.000118635
2.19351e-07
1.01483e-07
1.44098e-07
1.50291e-07
3.56352e-07
1.78457e-06
2.9643e-05
8.6143e-08
1.22286e-07
1.24271e-06
6.8983e-09
1.16355e-19
5.74507e-19
7.76801e-08
5.28973e-07
4.38026e-08
-2.58833e-12
0.000335376
2.84737e-06
0.00871254
0.0105811
0.000865168
3.87881e-06
4.74402e-05
0.000453583
0.000550544
0.00121675
4.23871e-07
4.5365e-08
1.41598e-18
-4.70527e-16
-2.19726e-14
-3.08035e-14
6.68151e-07
6.09491e-10
0.000898433
0.00566122
0.0100167
0.00671521
0.00276481
0.000500987
9.81129e-05
0.00141681
0.00399732
0.00218429
2.14631e-05
6.74899e-07
2.05017e-08
1.80426e-07
5.90119e-07
4.52276e-07
5.51003e-07
6.53871e-08
0.000712917
0.00345839
0.00185318
0.000169397
0.000338779
0.000112881
9.76016e-05
0.000362327
0.000468896
5.474e-05
6.0829e-05
1.82317e-05
1.87758e-07
4.38619e-07
1.68287e-07
2.08121e-06
5.13692e-08
2.89303e-08
4.10329e-05
5.9002e-05
9.87619e-07
2.12893e-07
1.22868e-06
3.17943e-05
1.80121e-06
6.00247e-06
2.37842e-06
6.52844e-08
1.39349e-06
8.08442e-07
3.07055e-07
2.02257e-07
1.55279e-07
5.99971e-08
4.86079e-08
1.80562e-09
5.04194e-07
4.09522e-07
3.30359e-07
3.21025e-07
1.42209e-06
5.69202e-06
6.56002e-07
6.02135e-07
6.81022e-07
5.83428e-07
2.37811e-08
3.64883e-10
8.00843e-07
1.03151e-06
8.71992e-07
2.61298e-07
9.09444e-10
1.12759e-09
4.12855e-07
3.3228e-07
3.21165e-07
2.98827e-07
9.74535e-09
6.93806e-11
2.64308e-05
9.86073e-06
1.47829e-06
4.15466e-07
3.64314e-10
1.04158e-10
8.59517e-06
8.4352e-06
3.65401e-06
2.13818e-07
1.25095e-10
1.2163e-10
5.0354e-07
4.11758e-07
3.32023e-07
3.20681e-07
8.0388e-07
1.90742e-09
8.87049e-05
4.4812e-05
1.15931e-05
1.71513e-06
9.62095e-09
8.58871e-09
7.40667e-06
9.3996e-06
1.12015e-05
3.71525e-07
1.8796e-10
1.44251e-11
0.00787909
0.00704465
0.00567445
0.00687061
0.0070939
0.00768537
1.98426e-10
4.39027e-10
1.18263e-09
4.51289e-10
1.87849e-10
3.8004e-12
8.33102e-07
7.5606e-07
1.78333e-06
1.33992e-07
-2.18206e-18
-3.80129e-18
)
;

boundaryField
{
    seabed_topleft_surface
    {
        type            zeroGradient;
    }
    seabed_topright_surface
    {
        type            zeroGradient;
    }
    breakwater_top_surface
    {
        type            zeroGradient;
    }
    breakwater_left_surface
    {
        type            zeroGradient;
    }
    breakwater_right_surface
    {
        type            zeroGradient;
    }
    water_front_surface
    {
        type            zeroGradient;
    }
    water_back_surface
    {
        type            zeroGradient;
    }
    water_left_surface
    {
        type            zeroGradient;
    }
    water_right_surface
    {
        type            zeroGradient;
    }
    water_top_surface
    {
        type            inletOutlet;
        inletValue      uniform 0;
        value           nonuniform List<scalar> 
180
(
0.000277244
0.000191195
0.000142296
0.000266083
0.000266528
0.000265605
0
0
0
0
0
0
0
0
0
0
0
0
0
0
0
0
0
0
0
0
0
0
0
0
0
0
0
0
0
0
0
0
0
0
0
0
9.20461e-06
0
0
9.06074e-06
9.30439e-06
0
1.55567e-05
1.32339e-05
1.38494e-05
1.60355e-05
7.7306e-06
7.3184e-06
1.30642e-05
1.14154e-05
1.18912e-05
1.39356e-05
7.7068e-06
6.75572e-06
7.72285e-06
7.44809e-06
5.7233e-06
1.10325e-05
1.49191e-05
9.97457e-06
0
0
0
0
0
0
0
0
0
3.1161e-09
8.75112e-12
2.52174e-16
0
0
0
0
0
0
0
0
0
0
0
0
0
0
0
0
0
0
0
0
0
0
0
0
0
0
0
0
0
0
0
0
0
0
0
0
0
0
0
0
0
0
0
0
0
0
0
0
0
0
0
0
0
0
0
0
0
0
6.68151e-07
6.09491e-10
2.05017e-08
1.80426e-07
5.90119e-07
4.52276e-07
5.51003e-07
6.53871e-08
1.87758e-07
4.38619e-07
1.68287e-07
2.08121e-06
5.13692e-08
2.89303e-08
3.07055e-07
2.02257e-07
1.55279e-07
5.99971e-08
4.86079e-08
1.80562e-09
8.00843e-07
1.03151e-06
8.71992e-07
2.61298e-07
9.09444e-10
1.12759e-09
8.59517e-06
8.4352e-06
3.65401e-06
2.13818e-07
1.25095e-10
1.2163e-10
7.40667e-06
9.3996e-06
1.12015e-05
3.71525e-07
1.8796e-10
1.44251e-11
0
0
0
0
0
0
)
;
    }
}


// ************************************************************************* //
