/*--------------------------------*- C++ -*----------------------------------*\
| =========                 |                                                 |
| \\      /  F ield         | OpenFOAM: The Open Source CFD Toolbox           |
|  \\    /   O peration     | Version:  v1612+                                |
|   \\  /    A nd           | Web:      www.OpenFOAM.com                      |
|    \\/     M anipulation  |                                                 |
\*---------------------------------------------------------------------------*/
FoamFile
{
    version     2.0;
    format      ascii;
    class       surfaceScalarField;
    location    "8.45";
    object      alphaPhi;
}
// * * * * * * * * * * * * * * * * * * * * * * * * * * * * * * * * * * * * * //

dimensions      [0 3 -1 0 0 0 0];

internalField   nonuniform List<scalar> 
2916
(
-0.0033586
0.249297
-0.270123
0.00344521
0.237756
-0.270579
0.0160845
0.2313
-0.271033
0.00699339
0.25569
-0.269953
-0.0116461
0.269984
-0.273162
0.231884
-0.27027
-0.000770777
0.432846
-0.152947
-0.00262478
0.423033
-0.153317
-0.00710928
0.418558
-0.152705
-0.00477343
0.434204
-0.150511
0.00236876
0.445083
-0.151135
0.415178
-0.151229
0.00298557
0.524121
-0.0626059
-0.000797453
0.519774
-0.0614633
-0.00827511
0.518385
-0.060572
-0.00395287
0.524161
-0.0627572
0.00789922
0.528963
-0.064083
0.515672
-0.0610627
0.0021296
0.511164
0.0108292
-9.77344e-05
0.508877
0.0131261
-0.00417892
0.509112
0.0133564
-0.00160287
0.510715
0.0108716
0.00500021
0.512645
0.00971635
0.50807
0.0126039
2.97642e-05
0.475111
0.036024
-0.000172657
0.470808
0.0382718
-0.00128045
0.47222
0.0380005
-0.000809722
0.473619
0.0366258
0.000424843
0.475377
0.0360337
0.471524
0.036972
-0.000730794
0.44649
0.0293528
-3.81409e-05
0.44044
0.0296766
0.000566664
0.442088
0.0295281
-0.000533039
0.444789
0.0299307
-0.00256769
0.447007
0.0304064
0.440884
0.0280733
0.000715541
0.339241
0.0262223
-8.0929e-05
0.335593
0.0247996
-0.000182324
0.336821
0.024865
-0.000616712
0.337955
0.0263645
0.000127796
0.337065
0.0276927
0.337157
0.0241643
-0.000206844
0.245722
0.0801882
-0.000327225
0.246425
0.076152
-0.000109633
0.246881
0.0765831
-0.000559301
0.245981
0.0791559
-0.000195852
0.242566
0.081905
0.248317
0.0747345
-0.00159281
0.0788208
0.128399
0.000820349
0.0784519
0.127843
0.00192471
0.0792573
0.128127
0.00179964
0.078367
0.128284
-0.000826035
0.0757267
0.128999
0.0794425
0.130373
0.00148466
-0.0150668
0.0604155
0.000862244
-0.0233539
0.0673189
-1.23627e-05
-0.0220956
0.067138
0.00238715
-0.0166146
0.060609
0.00442811
-0.0151487
0.0581448
-0.0266703
0.072935
0.0019527
-0.0027479
-0.0123331
0.00132325
-0.0132273
-0.00696717
0.000304263
-0.0125501
-0.00618814
0.00126114
-0.00364898
-0.0118509
0.00263776
0.000740833
-0.0151822
-0.0176664
-0.00368458
0.00972625
-0.00914184
-0.00237359
-0.00117851
-0.0138888
-0.00111194
-0.00411846
-0.00968146
0.013851
-0.0120817
-0.00340471
-0.00170131
0.216803
-0.137159
-0.00421382
0.225069
-0.141335
-0.0124065
0.227054
-0.141353
-0.00657007
0.209653
-0.108908
0.00671831
0.201966
-0.0260724
0.221939
-0.138985
-0.0107633
0.365978
-0.000928207
0.00231603
0.364396
-0.00275533
0.022134
0.361457
-0.0040248
0.00826609
0.368457
-0.00040092
-0.0134318
0.380971
-2.70569e-05
0.357814
-0.00306531
-0.00456951
0.594034
-0.0351907
0.00123767
0.595748
-0.0359781
0.00974698
0.594487
-0.0335447
0.00464356
0.596718
-0.0348165
-0.00419543
0.605495
-0.0330612
0.588689
-0.034504
-0.000151549
0.85523
-0.0327644
0.000341152
0.855417
-0.0305765
0.000535909
0.856259
-0.0304769
0.000595735
0.855675
-0.0323136
0.000768153
0.858874
-0.0315079
0.850577
-0.0311439
0.00226881
1.06557
-0.0572803
0.000362909
1.06354
-0.0544859
-0.00348812
1.06397
-0.053866
-0.00074646
1.06594
-0.0571826
0.00385114
1.06885
-0.0571986
1.06105
-0.0566952
0.00253559
1.2366
-0.0963553
0.000653333
1.23926
-0.0965951
-0.00243825
1.23768
-0.0945837
-0.00029038
1.23855
-0.0969481
0.00359449
1.23958
-0.0959893
1.23773
-0.0979616
0.00487586
1.32316
-0.121593
0.000270882
1.34006
-0.120496
-0.00326457
1.33354
-0.119776
-0.00123118
1.32988
-0.120878
0.00425638
1.32763
-0.12097
1.33471
-0.1205
0.00584637
0.836164
-0.118077
-0.000347927
0.868005
-0.113421
-0.00615181
0.858249
-0.114055
-0.000823216
0.850182
-0.11811
0.00760302
0.843911
-0.117994
0.870851
-0.110035
0.00138045
0.391355
-0.00122243
0.000109256
0.357032
-0.00891314
-0.00182047
0.36283
-0.00600914
0.000304399
0.391321
-0.00323806
0.00217716
0.403716
-0.00310794
0.336298
-0.00352689
-0.00692039
0.511283
0.00811489
0.00115841
0.491296
0.00685962
0.00548276
0.496505
0.00720197
-0.0021849
0.51076
0.00810693
-0.00845765
0.514769
0.00843652
0.469189
0.00712175
-0.00841657
0.330016
-0.0074927
0.000994189
0.338131
-0.00824328
0.00513706
0.336378
-0.00851821
-0.00266985
0.329326
-0.00761187
-0.0085407
0.32765
-0.00638784
0.332399
-0.00985634
0.0143324
-0.0351823
-0.00575733
-0.0441307
-0.0276518
-0.0443008
-0.00585106
-0.0336535
0.0255206
-0.0301547
-0.016327
0.000242403
0.00095807
-0.000183439
-0.000316945
0.00280243
-8.84127e-05
-0.000657488
0.00397395
-4.84384e-05
-9.46145e-05
0.000292133
-9.54208e-05
8.01356e-05
-1.4183e-07
-0.000153494
0.00310843
-4.64961e-05
-1.83332e-06
1.14829e-05
-1.77115e-05
7.9886e-06
2.16234e-05
-1.75327e-05
3.91434e-05
4.23351e-05
-2.77368e-05
2.93916e-06
5.26145e-06
-9.17799e-06
-8.01396e-06
1.98617e-06
-5.8129e-06
2.26694e-05
-1.7035e-05
-5.17995e-06
0.00295791
-9.64371e-08
-4.39434e-06
0.00192375
-2.68886e-08
-2.03006e-05
0.00154213
-1.02376e-08
0.000110436
0.00308158
-2.62346e-08
0.000757185
0.00322433
-2.80776e-07
0.00227892
2.55043e-06
-1.36817e-05
0.0631006
-1.6616e-10
-0.000196044
0.0650344
-9.69329e-12
4.74676e-05
0.0651568
-3.69677e-12
0.000625319
0.063518
-9.2291e-11
0.00209608
0.0617482
-6.4367e-09
0.0704878
-2.29977e-06
-0.000653473
0.267001
-1.00348e-11
-0.000785515
0.271555
-2.26504e-12
-2.14593e-05
0.271219
-2.13285e-12
-0.000342057
0.268076
-6.64228e-12
-0.000540213
0.264496
-3.11619e-10
0.280806
-1.15894e-07
-0.00384458
0.533811
-7.60032e-06
-0.000366254
0.531947
-6.35644e-06
0.00308806
0.531775
-5.78246e-06
-0.000702133
0.532789
-8.19333e-06
-0.00696491
0.533301
-1.11873e-05
0.533179
-4.70413e-06
-0.00355203
0.7067
-1.16954e-05
5.65422e-05
0.693759
-1.58182e-05
0.00587799
0.695718
-1.3846e-05
-0.00132404
0.704816
-1.28668e-05
-0.0119551
0.71014
-1.59204e-05
0.685132
-1.47062e-05
0.00882551
0.936135
-1.54162e-06
-7.11394e-05
0.933473
-2.91873e-06
-0.00282145
0.934149
-2.41863e-06
0.000834818
0.932616
-2.00669e-06
0.00321835
0.939172
-2.36728e-06
0.921379
-1.899e-06
0.00519917
0.794827
-4.99401e-08
0.000507363
0.828445
-2.63348e-07
0.000630156
0.811314
-2.30422e-07
0.00839137
0.806929
-2.1956e-07
0.00920884
0.831271
-3.62516e-07
0.804256
-6.11868e-08
-0.016932
0.171118
0.0719385
0.0023454
0.216507
0.0602359
0.0144909
0.196491
0.0658553
0.000510831
0.170432
0.072683
-0.018055
0.195436
0.0722747
0.205888
0.0578102
-0.0072593
0.00117668
-0.0214787
0.000161645
0.00186046
-0.0294775
0.00539433
0.00124943
-0.0285375
-0.000625524
0.00104968
-0.0217948
-0.00732651
0.00218061
-0.0214736
0.00355792
-0.0282848
-0.00075187
-0.00580358
5.64725e-05
-0.00193068
0.000417401
-0.00199786
-0.00112659
-0.00618659
-0.00139989
0.00507653
-0.00214085
1.99242e-06
-1.28898e-05
-0.000197407
-1.06255e-07
-2.54426e-06
-0.00011138
-3.21814e-06
-1.00764e-06
-8.00428e-05
-7.52784e-07
-6.42258e-06
-0.000130256
2.71038e-06
-6.66527e-06
-0.000186184
-3.21437e-07
-7.35183e-05
7.82686e-07
9.27108e-08
-7.77267e-05
1.47274e-06
2.66862e-08
-5.88342e-05
2.96737e-06
1.02271e-08
-7.38683e-05
2.41624e-06
2.44124e-08
-4.02736e-05
4.24793e-07
2.30272e-08
-3.27536e-05
1.31429e-07
-4.0018e-05
-8.69369e-13
8.78916e-11
-3.89461e-09
-6.80344e-14
4.92485e-12
-2.10226e-10
3.27003e-15
6.59426e-13
-9.27696e-12
-1.48049e-10
4.33561e-11
-1.71515e-09
-2.55238e-07
6.35187e-09
-8.90718e-09
2.42678e-06
-8.20585e-11
-4.55822e-14
1.02474e-11
-9.05536e-11
-1.90381e-14
1.52484e-12
-4.16151e-12
-1.37589e-13
1.04211e-12
-1.57803e-12
-4.94299e-12
5.9691e-12
-4.81037e-11
8.60122e-13
3.37243e-10
-4.21737e-10
1.27041e-07
-1.91024e-11
-1.91398e-14
3.01398e-12
-3.58351e-12
-8.05943e-15
2.12315e-12
-1.40277e-12
-1.58303e-14
2.02337e-12
-1.12067e-12
-1.18114e-13
2.54403e-12
-2.60233e-12
1.79553e-13
3.16277e-11
-8.75924e-12
1.11572e-08
-2.63678e-12
-1.16608e-08
8.87034e-07
-8.47569e-06
-6.7859e-10
7.54908e-07
-7.12233e-06
7.33868e-09
6.85287e-07
-6.47576e-06
-1.24229e-09
9.47293e-07
-9.13204e-06
-1.07467e-08
1.36003e-06
-1.25379e-05
5.45946e-07
-5.25393e-06
-6.26672e-08
2.83301e-06
-1.34265e-05
1.43496e-09
3.44118e-06
-1.84119e-05
5.82515e-08
3.06982e-06
-1.61411e-05
-1.56882e-08
3.11505e-06
-1.47987e-05
-1.02181e-07
3.90282e-06
-1.84509e-05
2.57917e-06
-1.67241e-05
6.06384e-08
1.4298e-06
-1.10764e-07
-2.28403e-09
1.78892e-06
-7.19596e-07
-2.13293e-08
1.57826e-06
-4.92072e-07
2.89447e-09
1.62267e-06
-3.09005e-07
2.88798e-08
1.76587e-06
-3.38368e-07
1.34621e-06
-5.36917e-07
4.73414e-08
7.81077e-07
4.23374e-07
3.22799e-10
1.06999e-06
3.92758e-07
-3.20376e-08
9.83131e-07
4.09323e-07
1.78015e-08
8.65205e-07
4.11089e-07
7.7947e-08
8.93817e-07
4.05872e-07
9.48749e-07
3.71083e-07
-0.000608792
0.0179608
-0.000221988
-5.23773e-05
0.0321658
0.000707366
0.000614588
0.0291264
0.000493482
0.00209643
0.0195592
0.000190231
0.00208393
0.0193566
-0.000244804
0.0353744
0.00044165
-0.00085118
-0.00660886
0.000784581
-3.86737e-05
-0.00317315
0.000659051
0.000586627
-0.00520222
0.000655495
5.02672e-05
-0.00585867
0.00101077
-0.00069152
-0.00532269
0.00129836
-0.000839307
0.000195234
-0.0017979
0.000559759
0.000145263
0.000931039
0.000775899
0.000723672
-0.00127093
0.000552617
-0.00442527
0.000321521
0.00125235
0.00624424
0.0611414
-0.0674303
-0.0179292
0.0390874
-0.0149636
0.0208698
0.0425447
-0.0813881
0.0200652
0.0378488
-0.0370647
-0.001038
0.0199202
0.000315313
0.0507712
-0.0519039
0.0135748
0.111406
-0.0638889
-0.0087784
0.0633289
-0.00195008
0.0528576
0.0342513
-0.0533732
0.0592284
0.0382864
-0.00681394
-0.000520715
0.0609704
0.0186791
0.107625
-0.0574084
0.0506119
0.110093
-0.0493488
0.0532121
0.0608318
-0.000149913
0.0518563
0.0226189
-0.00394877
0.00514587
0.0709672
0.0140637
-0.0345927
0.0903723
0.0102429
0.124064
-0.051258
0.092157
0.0464578
-0.028665
0.0650714
0.00475066
0.0237796
0.0191446
-0.00408699
0.0489198
-0.00167908
0.0185322
0.0547894
-0.0309291
0.0719182
0.0209132
0.113071
-0.0202213
0.0371013
-0.0204817
0.00532969
0.0192552
-0.0403662
0.0355931
0.011414
-0.0388482
0.02744
0.015046
-0.0317256
0.0349213
5.9325e-06
-0.00118847
0.0451147
0.000839119
0.0515089
0.0178896
-0.0608946
0.0209907
0.017162
-0.0585798
0.0189765
-0.00251462
-0.0512699
0.0148405
-0.0323328
-0.0292521
0.0193047
-0.0110515
-0.0581437
0.0264924
-0.0422025
0.0236944
0.00660227
-0.0799923
0.0127863
0.00700789
-0.0833287
0.00869376
0.0035136
-0.0553399
0.0104843
-0.00312122
-0.00772642
0.0135193
-0.00478795
-0.0330814
0.0119482
-0.0597231
0.00784821
0.00240139
-0.0835246
0.00142161
0.00394696
-0.0878473
-0.00210045
0.00450691
-0.063812
0.0034236
-0.000435445
-0.00757746
0.00652786
-0.00577579
-0.0349817
0.00723066
-0.0610731
-0.00190778
-0.011757
-0.0510254
0.000543014
0.00268995
-0.0980057
-0.00935751
0.00143459
-0.0623687
-0.000967075
-0.000377582
-0.0137286
0.00494782
-0.00881807
-0.0279525
0.0024818
-0.0564096
-4.71468e-05
-0.00611206
-0.0328007
0.00263887
-0.0112813
-0.0514978
-0.00476329
-0.0175687
-0.0554412
-0.000271197
-0.00784706
-0.0303795
0.000327282
-0.0074311
-0.0202677
-0.00151993
-0.0490289
-0.00118297
-0.000235152
-0.0169028
-0.00831932
-0.00536243
-0.0171403
-0.000208662
-0.0189012
-0.0281825
-0.00173089
-0.0153319
-0.0301876
-0.00547614
0.00858236
-0.0235598
-0.0148252
-0.0252779
-0.00153971
-0.00115406
-0.00636026
-0.000478171
-0.00745405
-0.00679834
-0.00929656
-0.00266341
-0.0211496
0.00822317
-0.0209256
-0.00342588
-0.0156266
0.0536947
-0.105475
-0.0467539
0.06459
-0.0484847
-0.0156092
0.0572776
-0.169872
0.021837
0.0497305
-0.124394
0.00738076
0.0412379
-0.0265238
0.0561286
-0.101117
-0.0391372
0.103218
-0.0551592
-0.0325229
0.112801
-0.0568486
-0.00274577
0.0696098
-0.0952753
0.0321284
0.0657202
-0.0577088
0.0245966
0.102293
-0.0349218
0.126493
-0.10316
-0.0252127
0.148389
-0.0523064
0.00341301
0.137222
-0.053261
0.0162296
0.0554479
-0.0678165
-0.0132757
0.111102
-0.00194852
0.0065918
0.136365
-0.0439128
0.150874
-0.0693287
0.0113533
0.170938
-0.0628051
0.0166931
0.12113
-0.0359722
0.0135315
0.00920792
0.0727234
-0.0411149
0.0523815
0.0755691
-0.0154988
0.157331
-0.0257169
0.158785
-0.043419
0.0522019
0.172762
-0.0486259
0.00149934
0.0333261
0.0381433
-0.0105524
0.0210172
0.0517632
-0.0166673
0.0051536
0.0739248
-0.0114847
0.0036671
0.0778715
0.0143075
0.0455764
0.0263356
0.00341263
-0.00124412
0.00587085
0.00343147
0.0228275
-0.0127936
0.0085892
0.00371791
-0.014362
-0.00682331
-0.00042613
0.00398636
-0.0129548
0.00640655
0.000620825
0.0143697
0.0040182
0.000500519
0.00016396
-0.00015718
0.00336167
-0.000326652
-0.00577493
0.000481801
-0.000313238
-0.001475
-0.0132465
0.00211447
0.00274594
-0.0122528
0.000493395
0.00138003
-0.000165734
0.00140409
-0.00486857
-4.74629e-05
0.000409239
0.000535166
1.41644e-05
0.000169319
0.000319088
-0.000203687
0.000494236
-0.00767642
0.002925
0.000903106
-0.00325356
2.74338e-05
0.000268988
-3.18314e-05
0.00903439
-0.0124562
-0.000352842
0.000981374
7.82476e-05
-4.59674e-05
0.000118056
0.00020157
-1.65614e-05
0.000366827
-0.00089014
4.74571e-05
-2.75527e-05
-0.000183526
3.47298e-05
4.15293e-05
-4.15742e-05
0.00406335
-0.00569205
-2.7105e-05
9.25731e-05
-0.000761638
3.71128e-05
1.05299e-05
-5.31865e-07
7.07488e-06
-3.24927e-05
-3.92209e-05
-4.01035e-05
-0.000974735
-0.000296793
-0.000190804
-0.00178267
-0.00038616
-0.000759647
-0.00613885
-0.00027886
-6.3925e-05
-0.00478173
3.67186e-06
-1.09335e-05
-0.00164265
-0.000146748
3.38342e-06
-0.000440716
-0.00514735
0.000525766
-0.000509053
-0.0151677
-0.00193815
-0.000407839
0.00168834
-0.0103417
0.000151151
-0.0124547
0.000141384
-0.0151833
-1.22111e-05
-0.0218369
-0.0021398
-0.0193777
-0.00716374
-0.0434282
0.010113
-1.16357e-08
-0.0461045
0.0169348
-5.47438e-07
-0.0431559
0.00137437
-3.62217e-05
-0.006474
0.00911904
-0.00168431
0.0710233
0.0251877
-0.0737306
0.0187777
-0.0231718
-0.0367318
0.0109505
3.44118e-05
-0.0100764
0.0247283
-7.24073e-06
-0.0148342
0.0181989
-3.78911e-07
0.00924768
0.0415893
-6.71471e-07
0.0948776
0.0707501
-0.00097736
0.0387419
-0.0131081
-0.0309635
0.0216621
0.000135838
-0.0138364
0.0692758
-3.7543e-05
-0.00903396
0.131325
-1.21532e-06
0.0824371
0.125953
-6.68399e-07
0.0824377
0.157594
-1.3853e-05
0.0708317
-1.9109e-05
-0.023309
0.0807035
-0.000426499
-0.00580447
0.140489
-0.0119451
0.0434174
0.085027
-0.0135673
0.0723174
0.173162
0.000335423
0.0913486
0.168365
-0.0555896
0.103977
0.0011363
-0.0195965
0.0987869
-0.0086899
0.0283789
0.202887
-0.0123696
0.00592404
0.00122576
0.0594725
-0.00718746
0.019004
0.0719852
0.0141496
0.0568945
0.0150104
0.0710821
0.0158017
0.00408347
0.0280328
-0.0108616
0.00799139
0.0139634
0.0125972
-0.0012877
0.00223402
0.00688358
-0.00120392
0.00196391
0.00720648
0.000973173
0.000424222
0.0101926
0.000766743
0.0156815
-6.55162e-05
0.00041411
0.000529802
-0.000239377
0.000363904
0.00257282
-0.000615308
0.00045442
0.00105928
-3.7181e-05
0.000249788
0.000626636
0.000143678
3.95804e-05
0.000620208
0.000227747
0.000361893
-0.000102128
0.000384135
2.88772e-05
-0.000100209
0.000113916
0.000198329
-0.000982316
0.000288915
4.33779e-05
-3.12857e-05
-5.92345e-05
8.69118e-05
5.3742e-06
-4.94472e-06
3.49466e-06
9.98892e-05
2.98086e-05
-5.98561e-06
2.98081e-05
6.26778e-07
-1.34793e-06
5.06238e-05
2.20647e-06
-1.09308e-05
8.15603e-05
1.61989e-05
-2.39981e-05
-7.05415e-08
-9.90958e-07
-3.89833e-05
-3.1545e-05
2.59357e-06
-1.73862e-05
0.000164716
-5.21342e-07
2.54373e-06
1.29963e-07
3.09513e-06
7.67996e-05
1.79709e-06
3.42578e-06
8.27579e-05
3.89919e-06
4.90952e-06
-7.81673e-05
3.6215e-05
8.3574e-05
3.9181e-05
-3.80178e-05
9.32986e-05
-7.23732e-05
-0.00031924
3.29726e-05
6.93735e-06
-2.08048e-06
-0.00079743
0.00071838
0.00082237
-0.00141534
0.000744394
0.00198813
-0.00274024
-0.00184561
0.00094672
-0.00491
-0.00914069
3.38046e-05
8.1313e-05
0.00323262
-0.0116717
0.00738914
-0.0114778
0.00596103
-0.0140932
0.000171663
-0.0178203
-0.00514695
-0.0177122
-0.0104698
-2.17932e-08
1.10806e-08
-7.29266e-08
-7.35557e-07
7.99486e-09
-1.22707e-08
-3.32376e-05
2.07871e-08
-3.77507e-06
-0.00171448
-1.85905e-10
-2.50885e-06
0.00337093
0.000972999
-3.06298e-06
0.000325688
-2.74681e-06
-3.16869e-08
4.50527e-05
-1.05712e-05
-9.78217e-09
1.07692e-07
-7.39699e-06
-1.45046e-08
2.79521e-08
-3.0936e-07
-5.46927e-07
1.55512e-08
-1.44592e-07
6.81023e-06
8.35454e-06
-1.94822e-05
0.000850482
-3.93502e-05
-1.63152e-07
0.000224052
-4.30914e-05
-3.3688e-08
5.33203e-07
-3.79757e-05
-1.58381e-08
1.06281e-07
-1.2234e-06
4.17916e-08
8.04599e-08
-5.93422e-07
2.92388e-07
6.51633e-07
-6.2018e-06
0.00545209
3.72703e-05
-0.000214031
2.66826e-05
-9.21141e-06
-0.0134039
0.00148397
-0.000238698
-0.00070646
0.0587258
-9.74288e-06
0.0522591
0.123986
-8.86374e-07
0.00382498
0.0458984
-0.000101224
0.00415
9.80057e-05
-0.0087731
0.000443517
-0.000321649
-0.0037812
0.0661399
-0.00374606
0.0266412
0.0687424
-0.00135695
0.0271951
0.0673618
0.00980867
0.00465474
0.0542057
-0.000180624
0.0155931
0.00039519
-0.00867243
0.00373799
-0.000126538
-0.00814954
0.0463392
-0.00521336
-2.62663e-05
0.00325503
0.0226058
0.00328986
0.000587112
0.0209758
0.0020758
0.000392797
0.0147223
0.00381369
0.000775268
-0.00581826
0.00160069
0.00126592
-0.00207924
0.000657961
0.0067466
-0.00042046
7.83586e-05
0.00247166
-6.75906e-05
-9.40662e-06
0.000782339
7.60799e-06
7.46985e-06
0.000897903
-9.18751e-05
0.000795509
-0.000387522
-1.25925e-05
0.00021532
-0.000112343
6.91916e-05
0.000435441
-6.90684e-05
-3.65997e-06
7.39107e-05
-8.4026e-06
2.22744e-06
1.16649e-05
-1.02512e-05
5.84855e-07
1.78789e-05
-5.47827e-05
7.82994e-05
-2.43199e-05
2.76998e-06
8.96195e-06
-4.83287e-06
1.45524e-05
3.13917e-05
-1.20104e-06
3.15948e-06
2.07511e-06
-4.33723e-06
6.09476e-07
1.79349e-06
-8.4297e-05
6.66644e-06
1.2521e-05
-4.45051e-05
4.34579e-05
4.42878e-08
2.69703e-06
9.25748e-07
-4.52763e-08
1.25342e-05
1.97172e-06
-5.68982e-07
5.34227e-06
1.05424e-06
-6.57283e-06
4.02911e-05
1.59917e-06
7.97594e-07
-3.52875e-05
-3.27595e-06
1.48927e-05
-8.41467e-06
9.82055e-07
1.47187e-05
-5.61602e-06
2.45767e-05
0.000689238
1.53276e-05
5.64445e-05
0.00068361
3.25777e-05
0.00109645
-0.00142903
9.4283e-05
-4.44122e-06
-0.00801246
-0.000558162
8.7886e-05
-2.59385e-07
0.00267251
-0.0150178
0.00547103
-0.013233
0.00749855
-0.0131517
0.00384427
-0.0142158
-0.0052627
-0.0152385
-0.0151722
1.47278e-05
6.54241e-05
-0.000317752
6.28955e-06
9.46247e-05
-0.000187292
-8.30387e-06
8.75739e-05
-0.000164175
-7.74812e-06
7.45999e-05
-0.000191661
1.41257e-05
1.07513e-05
-0.000196001
0.000139305
-0.000160286
-1.08789e-05
0.000319057
-4.84385e-05
2.05123e-06
0.000211952
-7.32426e-05
2.46618e-05
0.00015897
-8.09277e-05
4.61783e-06
0.000327855
-3.93804e-05
-4.03001e-05
0.000295327
-4.58262e-05
0.000360977
-0.000158094
-4.91079e-05
-8.9222e-19
-1.02605e-06
-5.07779e-19
7.14424e-05
-5.19676e-19
3.8589e-05
-1.02537e-18
-2.86428e-05
-1.24162e-17
-6.37911e-20
-6.58563e-06
-0.000165511
-1.36587e-07
2.29485e-06
-0.000116024
-7.12328e-09
1.50358e-05
-0.000115889
-3.27363e-10
5.83198e-07
-4.29013e-05
-5.9584e-08
-1.69061e-05
-0.000105364
-2.70833e-07
-0.000102569
-8.83593e-10
-2.58507e-06
-2.76385e-19
1.4734e-07
-3.94157e-06
-1.74998e-19
1.79948e-09
6.41103e-06
-5.93016e-19
-1.90994e-09
9.18936e-07
-7.4158e-20
6.40548e-08
-7.5192e-06
-2.53158e-18
3.0017e-07
-1.58398e-20
-1.9873e-08
-5.11736e-22
-1.16809e-18
-1.27958e-21
-6.8201e-19
9.16325e-22
-1.11489e-18
5.18707e-22
-1.09913e-18
-1.77695e-22
-1.49471e-17
-7.98086e-20
6.1859e-11
-1.41094e-07
-4.10807e-10
-3.51107e-13
-7.29132e-09
-1.83572e-11
-2.53743e-10
-8.11423e-11
-7.90647e-13
-7.56948e-10
-6.05785e-08
-1.93853e-10
1.5573e-10
-2.79646e-07
-9.42274e-10
-8.03915e-10
1.32913e-12
5.62601e-09
-9.60566e-16
6.16482e-10
1.0938e-10
-7.20996e-16
2.63885e-11
-1.88125e-09
-1.7051e-16
-4.57117e-13
1.3279e-09
-1.00757e-15
2.67161e-10
2.06623e-08
-1.15955e-14
1.30437e-09
-3.45836e-17
-1.45937e-11
2.66695e-19
-9.61795e-16
6.91411e-20
-2.02624e-16
1.8868e-19
-9.58451e-17
3.59684e-19
-1.00895e-15
5.58695e-18
-1.1617e-14
-2.49546e-17
-1.04264e-15
-4.5349e-10
2.94438e-11
-8.2103e-15
-2.61099e-11
1.30935e-12
-3.52237e-13
-4.23044e-13
5.15667e-13
-2.80821e-12
-2.00599e-10
1.48975e-11
7.9765e-13
-1.00871e-09
5.71576e-11
-4.04062e-12
9.32058e-13
8.0516e-12
-5.54288e-13
1.56529e-10
-7.00394e-16
-3.04625e-14
8.46304e-12
-1.06696e-12
-2.5551e-14
2.80131e-13
-1.55413e-12
-3.14988e-13
6.79609e-11
1.97876e-11
-2.76397e-12
2.81718e-10
-6.67675e-15
1.18011e-12
2.87897e-17
-3.71782e-13
-1.32825e-17
-3.46003e-14
1.79621e-17
-2.03898e-14
-1.82419e-16
-2.11392e-13
-6.35678e-18
-2.11864e-12
-6.72301e-15
-2.14161e-15
-1.70691e-11
4.40637e-11
-3.16949e-15
-3.5629e-12
5.91181e-12
-3.34882e-14
-2.36256e-12
4.09752e-12
-6.85147e-14
-1.3193e-11
2.79467e-11
2.88249e-14
-7.1817e-11
1.25062e-10
-2.26765e-12
1.19161e-11
2.41455e-13
-1.09773e-10
2.52718e-10
-1.91702e-15
-4.00272e-11
4.51756e-11
-2.377e-13
-3.2458e-11
3.16195e-11
-1.72649e-13
-1.36961e-10
1.96068e-10
2.21406e-12
-9.35414e-10
1.14859e-09
-1.2101e-11
1.88893e-11
5.01947e-13
-1.10776e-10
-2.64443e-14
-3.95526e-11
-2.45637e-13
-3.22626e-11
-1.41783e-13
-1.37333e-10
1.66131e-11
-9.54546e-10
4.49916e-12
-1.352e-07
-9.67344e-06
6.48019e-06
1.71005e-08
-8.61533e-06
6.2277e-06
1.74103e-07
-7.67247e-06
5.58653e-06
1.31582e-08
-1.03712e-05
6.94286e-06
-3.98251e-07
-1.56897e-05
9.51059e-06
-5.85874e-06
4.61202e-06
9.21132e-08
-3.38811e-07
-2.25648e-06
4.0449e-09
-1.65834e-07
-1.81891e-06
-6.55434e-08
-1.39465e-07
-1.55493e-06
1.07214e-07
-3.99285e-07
-2.8687e-06
2.92868e-07
-1.69395e-06
-5.28759e-06
-7.46169e-08
-2.10656e-07
4.05056e-10
-3.39327e-07
-1.44537e-11
-1.65455e-07
-5.72653e-10
-1.38939e-07
1.33627e-10
-4.00129e-07
1.12349e-08
-1.70601e-06
-6.33802e-08
-5.09328e-07
-3.21677e-05
1.38127e-05
3.1297e-07
-3.30329e-05
1.4063e-05
1.38445e-06
-3.22297e-05
1.29075e-05
-8.07336e-08
-3.68275e-05
1.5301e-05
-3.5748e-06
-4.28856e-05
1.85648e-05
-2.84765e-05
9.2222e-06
1.82338e-06
-1.65142e-05
-7.07263e-06
5.63671e-07
-1.04279e-05
-7.74059e-06
7.05404e-07
-8.96022e-06
-7.65697e-06
6.53735e-07
-1.7144e-05
-1.00231e-05
-8.23223e-07
-2.21708e-05
-1.11419e-05
-5.0943e-06
-3.37569e-06
7.46275e-08
-9.27458e-06
1.60455e-09
-9.86517e-06
-3.53116e-08
-9.06225e-06
3.93654e-08
-6.49374e-06
7.2435e-07
-1.41195e-05
-4.43351e-06
1.73711e-07
-1.49283e-06
2.06466e-06
6.58635e-08
-5.60174e-06
5.43542e-06
5.14296e-08
-4.924e-06
4.03352e-06
-8.48924e-09
-5.17073e-06
3.2976e-06
-2.26016e-07
-1.48417e-06
3.79896e-06
-4.86434e-06
3.4853e-06
2.10489e-06
-6.73709e-07
4.60426e-07
2.15953e-07
-1.1141e-05
-1.07256e-06
1.08496e-07
-1.02805e-05
-2.28988e-06
7.75035e-08
-1.10572e-06
-1.73884e-06
-1.4578e-06
2.53608e-06
-2.86526e-06
-8.97562e-06
-8.71928e-07
2.23242e-06
-5.20798e-06
1.68727e-07
-5.4691e-06
-4.22142e-07
-6.12987e-06
1.04956e-06
-4.6669e-06
8.0289e-07
-1.37048e-05
-4.16006e-06
6.59006e-08
6.97565e-07
1.59538e-06
-6.41004e-09
9.63239e-07
5.29697e-06
-4.4143e-08
8.7452e-07
3.9459e-06
1.46358e-08
7.7387e-07
2.88844e-06
9.19296e-08
9.11992e-07
3.13861e-06
6.8503e-07
3.21955e-06
1.56901e-06
7.56298e-05
-6.89689e-05
-2.04261e-07
4.11717e-05
-3.95889e-06
-4.7153e-07
5.04862e-05
-1.67553e-05
7.84476e-07
7.13021e-05
-3.93438e-05
6.4881e-07
3.95094e-05
-3.16399e-05
2.34633e-05
-3.22024e-06
1.71505e-06
-5.61668e-05
-2.09052e-07
-2.3856e-05
-3.27217e-07
-3.27824e-05
4.99861e-07
-4.35701e-05
7.23124e-08
-2.42703e-05
-9.2729e-06
-5.04134e-05
6.43415e-05
-0.000231408
-1.36008e-05
6.74843e-05
0.000610574
0.00013462
5.80534e-05
0.000293236
0.000376733
6.50659e-05
-0.000112135
0.000293394
-7.67669e-06
-0.00015005
4.16681e-05
0.000696268
-4.76438e-06
0.000233751
-0.0001676
-4.75221e-07
0.00013301
-2.77158e-05
1.17855e-05
0.000163081
-7.86889e-05
1.60614e-05
0.000208133
-0.000117301
5.67801e-06
0.000120621
-0.000118791
7.27454e-05
-6.44262e-06
-1.33748e-06
-2.29597e-05
-4.88713e-08
-1.75973e-05
1.62367e-06
-1.73438e-05
4.37527e-07
-2.70318e-05
-1.32228e-06
-3.3175e-05
-1.37233e-05
-0.000134502
0.00114963
-0.000986375
-1.76356e-05
0.000851378
-0.000305772
5.94811e-05
0.000883639
-0.000644672
-1.63454e-06
0.00127828
-0.00104945
-0.000103358
0.00151899
-0.00118315
0.000618234
-0.000101737
-7.80856e-05
0.000181026
-4.7632e-05
-6.69063e-07
0.000195659
-9.71413e-06
1.86513e-05
0.00015484
-4.78332e-05
-5.34547e-05
0.000243656
-8.69332e-05
-0.000109796
0.000320377
-0.000126964
0.000204923
1.40855e-05
-3.42075e-06
7.94964e-06
2.24935e-08
5.04826e-06
7.15306e-07
4.27683e-06
-3.80544e-06
9.95269e-06
-6.77414e-06
1.08616e-05
5.66929e-06
-0.00166814
0.00453935
-0.0155082
0.000467397
0.00598221
-0.0138365
4.89249e-05
0.00486893
-0.0140088
-0.00178652
0.00548557
-0.0157793
-0.00308575
0.00609256
-0.016139
0.00736454
-0.0136197
-4.90359e-05
-7.5256e-06
0.000110872
4.82467e-06
-4.20864e-06
0.000151891
-3.71592e-05
-3.91083e-06
0.000121267
-9.51919e-05
-9.23036e-06
0.00014812
-0.000210161
-1.02495e-05
0.000177588
-3.55249e-06
0.000197605
-3.68904e-08
4.61012e-07
9.55945e-10
8.01969e-07
-1.11148e-07
4.78301e-07
-1.53246e-07
7.64526e-07
-5.31783e-07
9.91213e-07
1.58591e-06
0.00120861
-1.6212e-08
-0.00989951
0.013311
0.000718573
-3.29001e-08
-0.00982678
0.0145882
-0.000322891
-8.90459e-08
-0.00924374
0.0142381
-0.000733638
-3.23239e-08
-0.00958047
0.0142488
-0.000759983
-1.29035e-08
-0.00989314
0.0143097
-3.73509e-10
-0.00980161
0.0133533
-1.34253e-11
-1.04878e-08
-6.19848e-14
-5.71172e-09
-1.68869e-10
-1.13084e-08
-3.46613e-14
-2.14369e-08
-8.25513e-11
-3.15074e-08
1.31558e-10
-5.77723e-08
-2.0406e-11
-4.55194e-09
9.5105e-11
-2.7934e-08
-3.37373e-13
-1.27867e-10
5.23314e-11
-1.28515e-08
-1.94805e-12
1.18761e-12
-3.73225e-10
-2.46583e-10
1.78862e-11
-1.02591e-08
1.27378e-10
2.39668e-11
-1.17064e-08
2.90797e-09
1.05101e-10
-3.43931e-08
2.45794e-10
-2.62071e-12
-1.85863e-08
1.11852e-12
2.12998e-13
5.94683e-11
3.41464e-15
-8.63988e-13
-0.000120272
-1.70664e-11
-0.00490378
-0.000189645
-2.40672e-11
-0.00492386
3.41351e-05
-2.24572e-10
-0.00493516
3.09101e-05
-1.03502e-10
-0.00496269
-7.49446e-05
-5.09295e-11
-0.00494274
-1.15182e-12
-0.00490478
-3.6572e-14
-1.77124e-11
-6.14007e-14
-5.8552e-13
-2.3078e-11
-9.13959e-15
-2.15993e-13
-9.32067e-11
-3.74461e-15
-6.16629e-14
-9.93076e-12
-1.12201e-15
-1.13554e-16
-3.89219e-13
-4.85932e-16
-4.55383e-15
-3.03714e-16
1.05857e-13
1.27785e-28
9.44013e-13
1.20427e-28
1.28237e-11
9.58053e-29
1.8581e-13
1.84133e-28
1.27342e-15
4.74046e-28
1.99465e-28
-5.4369e-06
-7.28709e-14
-0.000101173
2.47047e-05
-2.31525e-12
-0.000155667
6.08128e-05
-1.34233e-12
-0.000166359
3.07299e-05
-6.85784e-13
-0.00013966
-1.59311e-05
-4.86963e-13
-0.000121982
-4.71329e-13
-0.000155024
-1.56503e-15
6.99482e-28
-1.49673e-12
-1.94157e-15
6.85439e-28
-2.32402e-12
-1.22031e-15
7.42961e-28
-1.34679e-12
-7.00218e-16
6.60678e-28
-6.87426e-13
-3.84763e-16
1.1333e-27
-4.87764e-13
4.38199e-28
-4.72018e-13
-4.12268e-29
-1.48503e-29
-7.24717e-29
-1.43727e-29
-1.12897e-28
-1.47483e-29
-8.60184e-29
4.11172e-29
-6.2783e-29
1.14735e-28
9.17109e-29
-6.33925e-05
-4.98801e-10
0.00436555
-7.35448e-05
-8.41446e-10
0.00434285
-6.58854e-05
-6.00636e-10
0.00434492
-7.31515e-05
-3.84811e-10
0.00435301
-8.35946e-05
-3.29903e-10
0.00433521
-3.37169e-10
0.00432266
-4.64662e-13
7.09436e-28
-4.99833e-10
-4.33791e-13
7.96613e-28
-8.43801e-10
-2.26756e-13
8.67348e-28
-6.0219e-10
-1.52183e-13
8.2418e-28
-3.85573e-10
-7.43549e-14
9.45453e-28
-3.30469e-10
6.26338e-28
-3.37715e-10
-1.62455e-29
-1.11913e-28
-4.28297e-29
-1.19368e-28
-7.01562e-29
-1.2217e-28
-6.95542e-29
-7.6235e-29
-4.44445e-29
-5.53847e-29
-2.69102e-29
-9.24736e-05
-4.56221e-07
0.0102678
-8.41709e-05
-6.9705e-07
0.0100722
-7.51611e-05
-5.55861e-07
0.0102153
-9.13662e-05
-6.12727e-07
0.0102761
-0.000114464
-7.64512e-07
0.0102672
-8.35449e-07
0.00995097
-2.40469e-10
-1.55173e-09
-4.54857e-07
-1.80096e-10
-2.49356e-09
-6.95349e-07
-1.88963e-10
-1.79055e-09
-5.54607e-07
-2.80881e-10
-2.28442e-09
-6.10603e-07
-1.02637e-10
-2.91367e-09
-7.61926e-07
-3.50975e-09
-8.32167e-07
6.97866e-13
-1.55243e-09
2.57684e-12
-2.49544e-09
1.7452e-13
-1.78815e-09
3.28518e-13
-2.28458e-09
4.00325e-13
-2.91374e-09
-3.50935e-09
-0.000139544
-0.000110857
3.37535e-05
-0.000151994
0.000211027
-0.000121057
8.1155e-05
-0.000148282
-0.000155908
-0.000177836
-0.00019848
1.00058e-08
-4.59399e-07
2.81703e-10
-7.99587e-07
1.03704e-07
-4.77563e-07
9.97278e-08
-7.621e-07
9.34724e-08
-9.88265e-07
-1.58147e-06
6.05767e-11
-5.30725e-11
-1.10529e-09
-9.67444e-10
-9.31595e-10
1.76335e-07
-1.79454e-06
2.69194e-07
4.57388e-08
-9.94914e-08
2.95057e-08
1.43116e-06
-3.02518e-05
6.28029e-10
-5.11546e-10
-1.06058e-06
-6.30877e-09
-3.11558e-08
-3.173e-06
-6.23602e-08
-3.10912e-06
4.26512e-08
7.70189e-07
-3.99221e-16
-4.59158e-06
4.73314e-08
-4.51094e-08
-7.94663e-08
2.9439e-06
-3.86826e-10
-1.49586e-08
-4.8177e-07
-4.87805e-10
-1.09534e-08
-1.70437e-06
-2.07759e-14
-1.27438e-06
-7.18657e-15
-2.19698e-06
8.71392e-19
-4.00093e-16
-3.34459e-11
2.31654e-10
-1.63645e-12
-9.02848e-09
-3.78351e-17
-4.89441e-10
-2.10097e-17
-2.07927e-14
-7.20758e-15
5.22905e-06
-4.62364e-05
2.56001e-05
1.49919e-07
-8.99036e-06
2.6077e-06
3.18546e-08
-2.11441e-07
3.10701e-08
-6.31898e-09
-1.11543e-07
-3.43711e-10
-2.06303e-07
-1.86499e-05
-6.8435e-07
-4.02851e-05
6.37814e-07
5.72564e-06
-5.1872e-13
-1.59596e-05
2.15631e-08
-2.68296e-10
-1.03793e-06
-6.77916e-09
-1.43523e-07
-2.01789e-08
1.70029e-07
-4.23757e-08
-2.08811e-07
-4.82353e-06
-9.08048e-11
-6.75227e-06
-3.8376e-12
-1.38773e-05
8.97314e-16
-5.20017e-13
7.79336e-14
-3.67182e-11
-3.71191e-09
-3.32698e-08
-2.4933e-13
2.71226e-10
-1.00988e-14
-9.10648e-11
-3.8549e-12
3.4334e-05
-4.67023e-05
9.08746e-05
1.1272e-06
-2.66616e-05
7.82048e-06
-1.01905e-07
-4.26107e-07
5.40311e-07
-7.35446e-08
-1.43169e-06
1.14407e-07
-1.29819e-05