/*--------------------------------*- C++ -*----------------------------------*\
| =========                 |                                                 |
| \\      /  F ield         | OpenFOAM: The Open Source CFD Toolbox           |
|  \\    /   O peration     | Version:  v1612+                                |
|   \\  /    A nd           | Web:      www.OpenFOAM.com                      |
|    \\/     M anipulation  |                                                 |
\*---------------------------------------------------------------------------*/
FoamFile
{
    version     2.0;
    format      ascii;
    class       volScalarField;
    location    "8.45";
    object      p;
}
// * * * * * * * * * * * * * * * * * * * * * * * * * * * * * * * * * * * * * //

dimensions      [1 -1 -2 0 0 0 0];

internalField   nonuniform List<scalar> 
1116
(
9824.24
9819.01
9807.22
9775.33
9754.07
9772.49
10087.5
10055.4
10053.9
10079.8
10119.9
10044.3
11038
11025.9
11022.5
11030
11041.3
11014.2
12523.8
12522.5
12521.8
12522.5
12524.1
12520.4
13781.1
13781.8
13782.4
13782.7
13783.2
13785.8
14456.6
14456.2
14456.9
14458.8
14459.5
14461
14514.9
14512.2
14513.2
14514.3
14515.5
14515.1
13612.4
13612
13612
13611.2
13611.8
13613.4
11309.7
11324.6
11320.8
11312.9
11309.6
11321.9
8771.15
8761.94
8761.7
8772.12
8772.87
8747.25
7203.13
7177
7167.44
7178.05
7163.28
7126.97
5662.82
5687.58
5691.57
5678.58
5711.46
5749.41
2609.76
2650.25
2660.31
2563.61
2466.06
2635.34
2241.97
2201.8
2178.66
2238.66
2261.3
2178.73
2837.06
2793.53
2769.89
2842.41
2869.71
2758.5
4131.31
4116.91
4114.01
4131.44
4137.51
4110.44
5431.22
5429.49
5432.84
5432.13
5431.28
5441.08
6220.58
6221.45
6222.46
6223.12
6223.91
6230.9
6086.63
6090.08
6091.31
6085.78
6088.65
6090.66
5187.64
5191.57
5190.1
5183.23
5178.89
5184.79
4021.23
4035.87
4023.22
4010.83
3996.27
3994.34
3177.83
3172.76
3170.62
3181.17
3176.66
3156.77
2317.85
2369.68
2349.57
2313.16
2333.09
2364.57
1732.23
1670.21
1674.05
1756.86
1795.88
1685.18
-2.48102
2.73848
4.26113
-1.84122
-7.4988
0.963002
-27.4605
-23.6377
-24.9243
-30.1262
-31.7843
-25.9822
31.5071
29.7018
28.3358
32.0257
33.4463
25.9779
162.827
154.837
151.503
163.026
164.242
152.841
521.091
522.144
523.909
522.652
520.295
531.793
1003.73
1012.81
1011.89
1009.35
1003.31
1025.31
1054.61
1063.41
1065.81
1054.1
1053.32
1071.54
1100.87
1084.71
1098.79
1082.7
1080.19
1097.59
1375.77
1358.34
1364.83
1372.14
1368.21
1368.25
1325.12
1328.85
1317.14
1367.1
1374.75
1324.59
650.851
691.726
675.325
656.774
663.495
689.737
636.153
631.261
631.278
639.002
638.621
636.69
-19.7993
-19.6804
-20.1973
-20.0506
-20.3617
-20.6214
-27.9184
-27.8035
-28.1854
-28.7567
-29.0742
-29.0505
-19.1299
-18.7288
-18.5255
-18.4045
-18.0776
-16.2352
-26.8548
-27.0413
-27.3331
-27.044
-27.0382
-27.3147
-36.3411
-36.3795
-36.4972
-36.4991
-36.5522
-36.844
-54.6259
-54.1571
-54.2545
-54.4804
-54.5533
-53.8629
-111.055
-110.333
-110.622
-110.423
-110.384
-109.658
-138.599
-144.023
-143.589
-141.787
-141.282
-146.752
-14.1903
-13.8438
-13.4087
-12.8287
-13.471
-17.3157
179.824
178.889
180.363
186.718
182.318
163.663
237.311
236.97
237.624
239.402
236.222
235.674
329.567
353.038
347.096
335.807
331.788
358.973
2296.91
2263.22
2325.14
2267.36
2270.75
2299.17
2163.3
2113.98
2201.65
2142.25
2122.4
2224.2
2033.22
1963.06
2075.58
2098.81
2057.86
2108.29
2023.86
1957.2
1921.47
2001.65
1988.97
1993.16
1840.57
1776.8
1671.7
1680.23
1719.35
1695.3
1154.2
1081.61
1013.15
905.276
1010.01
1052.33
553.972
511.016
482.29
412.271
460.867
457.159
326.531
280.996
275.086
266.117
261.324
239.067
265.297
261.988
218.105
211.238
186.228
220.663
220.61
230.497
197.833
171.089
156.311
221.951
233.755
219.298
224.307
251.953
280.862
280.261
248.343
248.755
264.029
301.608
311.99
303.248
1197.9
1255.11
1281.5
1256.58
1270.94
1291.96
909.726
996.743
934.772
980.911
1026.79
1075.4
854.029
883.053
1074.85
968.599
954.858
994.388
934.401
895.579
1072.73
1026.17
1006.33
1033.21
739.337
703.117
676.02
706.207
829.679
813.911
311.736
280.743
251.701
259.363
308.407
262.216
83.5601
57.2587
42.2788
76.1612
74.8058
48.1994
21.3559
14.9645
3.0864
30.6035
17.526
11.1958
40.1962
20.227
10.0815
18.3274
8.74996
13.0464
34.2599
16.5768
18.5551
17.2685
19.2027
30.3769
32.5825
35.2112
36.3375
40.748
51.5717
52.5226
35.4756
43.7352
51.8471
62.7314
61.9303
52.7487
188.04
274.196
253.795
339.568
506.777
393.703
62.8807
127.437
79.2993
173.542
293.403
249.81
74.3965
138.945
187.517
321.738
348.516
282.103
143.282
210.469
357.903
295.106
260.115
274.153
201.34
233.039
207.267
192.19
187.54
201.863
59.5394
70.2944
73.6027
78.2433
73.2523
56.2416
8.83868
18.3589
22.5435
29.2468
24.3354
22.4641
-0.986161
0.949167
3.26636
11.2331
13.9335
14.8734
-1.5168
-1.16079
-6.4608
-3.84262
0.825559
3.13054
-1.31609
0.0835746
-3.08432
-4.54488
1.22931
0.479413
5.343
5.40687
0.795161
0.0220473
-0.292785
-2.7232
-10.6106
-27.3451
-29.118
-13.2664
-17.4948
-17.5033
-35.7057
-40.1577
-39.4408
-36.1662
-31.6226
-42.1585
-39.7004
-42.038
-38.3372
-36.6085
-40.4615
-43.386
-40.8305
-45.4929
-42.7947
-38.9036
-47.6383
-42.7031
-40.7661
-45.4321
-23.3759
34.2504
-53.2696
-44.5586
-48.9794
-38.134
8.4043
-7.86932
-35.443
-35.4294
-74.2711
-76.3981
-32.2812
-14.551
-22.6648
-21.6666
-33.2455
-22.7362
-9.36998
-5.748
-6.41068
-4.73653
-14.7194
-13.2872
-9.86734
-8.0406
-8.28499
-6.82387
-15.6885
-17.0513
-20.2952
-17.4304
-16.2376
-13.7457
-23.2412
-24.8797
-30.4803
-27.6002
-24.4198
-25.2201
-10.7881
-15.7719
-22.8912
-27.5673
-23.7298
-20.3543
-27.6553
-42.8222
-54.5375
-60.6574
-73.4073
-41.0826
-33.7404
-33.6216
-34.0297
-33.3109
-33.5641
-33.52
-55.9318
-55.4765
-55.4783
-55.4696
-55.5437
-55.499
-73.26
-72.9934
-72.7712
-73.2941
-73.3016
-74.5387
-35.9979
-36.0123
-36.4539
-36.7611
-37.0915
-36.9206
-55.6882
-55.6759
-55.6235
-55.6138
-55.6551
-55.4065
-75.5333
-75.3991
-74.9861
-75.2926
-75.7056
-74.8512
-34.1511
-33.7518
-33.7604
-33.6627
-33.3813
-32.7682
-54.6671
-54.7027
-54.8245
-54.5988
-54.5455
-54.6714
-70.7715
-70.8756
-70.8296
-70.8624
-70.8834
-70.9272
-40.0486
-39.7129
-39.6857
-39.7811
-39.8228
-39.0737
-59.0231
-59.0213
-58.9634
-58.9791
-58.9133
-58.8277
-72.3953
-72.4598
-72.3841
-72.4062
-72.3716
-72.3448
-51.1295
-50.8165
-50.8921
-50.9535
-51.0459
-50.6703
-67.1074
-67.1241
-67.0936
-67.1745
-67.1507
-67.1538
-74.9335
-75.0381
-74.9645
-75.0167
-74.8541
-75.0804
-70.7719
-69.9176
-70.16
-70.3494
-70.9066
-69.5537
-80.7038
-80.3201
-80.3602
-80.7618
-81.0609
-79.9836
-77.7532
-78.0499
-78.0144
-77.9196
-77.4251
-78.5517
-137.261
-134.175
-134.616
-135.284
-136.796
-132.231
-130.07
-128.336
-128.574
-130.099
-131.574
-126.561
-81.3111
-82.4079
-82.4531
-81.8445
-81.6074
-83.9923
-203.545
-202.164
-201.527
-201.492
-202.733
-201.005
-175.406
-174.867
-174.03
-176.911
-178.706
-173.459
-88.2491
-91.0196
-90.9509
-89.485
-88.6163
-91.2728
-159.289
-161.592
-160.952
-160.702
-160.732
-161.644
-158.912
-160.755
-159.667
-160.381
-160.332
-158.581
-94.9507
-96.5305
-95.7661
-95.9841
-95.8265
-94.7916
-60.2593
-61.5398
-60.653
-60.5115
-62.1577
-63.7534
-101.221
-103.598
-102.703
-102.57
-103.139
-102.867
-85.6591
-86.7962
-86.3448
-86.2259
-86.3708
-86.4145
40.136
38.4952
38.5737
43.6462
40.5256
37.8895
-49.0642
-46.9895
-49.3988
-49.1786
-50.0693
-46.3249
-74.3215
-73.9244
-74.3207
-74.8868
-75.7017
-75.3953
55.2836
79.1319
67.6462
66.7605
77.0366
94.4689
-68.6079
-65.8739
-66.7463
-67.3517
-66.6585
-63.3708
-71.524
-71.3815
-71.644
-71.7407
-71.9423
-71.5154
76.2557
74.6965
73.6755
74.6778
75.1705
74.2371
-49.2251
-49.5029
-49.5059
-49.029
-48.7071
-48.5698
-67.9015
-67.9011
-67.4148
-67.3839
-67.3876
-67.3867
92.7584
91.7042
91.7501
91.194
90.8101
91.0364
-50.7943
-50.6854
-50.3551
-50.1256
-49.9196
-49.838
-66.7361
-66.6934
-66.5153
-66.4416
-66.5346
-66.5556
96.4995
96.3345
96.1516
96.166
96.1565
95.9762
-51.2919
-51.2676
-51.1823
-51.0912
-51.0169
-50.9656
-67.2823
-67.2551
-67.1974
-67.1753
-67.1755
-67.1722
94.3917
94.3543
94.1521
93.8286
93.5199
93.6094
-53.0629
-53.0361
-53.0203
-53.1198
-53.209
-53.2275
-66.9253
-66.9076
-66.8964
-66.8863
-66.8936
-66.8901
87.7183
88.2344
88.0032
87.6699
87.5811
88.3986
-53.8498
-53.7355
-53.6157
-53.4521
-53.2176
-53.1255
-66.7811
-66.7383
-66.7475
-66.6752
-66.6344
-66.6
78.1146
79.3145
78.7974
78.6579
78.8014
81.0619
-56.2614
-56.4372
-56.0866
-56.3642
-56.4979
-56.6266
-68.1149
-67.9367
-68.046
-68.0233
-68.002
-67.8331
-46.4884
-48.7555
-49.0341
-48.7861
-53.8917
-52.4317
-56.3338
-56.8132
-57.1472
-57.2209
-59.2062
-57.8954
-68.3018
-68.8455
-68.5774
-68.5859
-68.8994
-68.5219
-49.5754
-51.1013
-50.9833
-51.946
-55.2845
-55.7718
-58.8944
-58.958
-59.4672
-59.9789
-61.0489
-61.3518
-69.9861
-70.4839
-70.9271
-70.4566
-70.4621
-69.6589
-51.6697
-55.5297
-54.3307
-55.1272
-61.9738
-60.6811
-57.7232
-58.318
-59.0126
-60.3805
-62.3401
-62.9641
-68.2736
-69.1788
-69.2007
-68.9074
-68.3424
-67.5207
-60.601
-63.986
-65.1105
-69.703
-80.4441
-75.2205
-63.365
-65.2478
-68.3291
-74.1158
-73.3843
-69.8636
-68.0501
-69.1246
-69.1749
-68.2938
-66.5654
-65.6977
-88.0793
-91.5385
-82.8552
-82.6164
-90.7934
-84.5337
-77.551
-84.3704
-88.5632
-89.4927
-86.6752
-81.3719
-69.2906
-70.5652
-71.1917
-69.8914
-67.7877
-66.6343
-103.959
-122.504
-116.443
-76.063
-74.2268
-65.9111
-75.7031
-83.8446
-91.0657
-79.4386
-78.5582
-71.5387
-69.0295
-70.396
-70.4124
-69.696
-68.9029
-67.4778
-50.6462
-55.1534
-40.0138
-35.4894
-34.8543
-34.5126
-58.1156
-60.1416
-56.7057
-54.3909
-55.4581
-54.2089
-66.6874
-67.729
-66.9737
-65.8928
-65.4752
-65.0522
-28.6814
-30.2096
-27.879
-26.8495
-26.9874
-27.9498
-46.0059
-47.8812
-46.3681
-46.5575
-47.4946
-49.3012
-63.5841
-63.9755
-63.4415
-63.0187
-62.9573
-63.2105
-27.5
-29.4169
-33.2079
-34.0147
-33.8186
-33.7928
-45.7951
-47.0895
-49.2116
-50.4854
-51.1173
-51.6304
-62.9643
-63.0956
-62.8571
-62.181
-61.8262
-61.6982
-31.2288
-33.1053
-38.4099
-41.3111
-40.1263
-37.5976
-48.8307
-49.4067
-51.0173
-51.9345
-51.7625
-50.882
-64.4613
-64.4346
-63.8642
-62.4715
-62.0311
-62.1148
-26.8399
-27.7924
-31.1424
-37.1186
-36.9622
-32.7703
-54.0437
-53.9006
-53.1823
-51.8617
-50.7523
-50.5011
-63.4915
-63.7366
-63.7559
-61.2468
-60.6993
-60.8175
-11.6504
-12.23
-13.4692
-20.2924
-29.8213
-31.3954
-55.781
-55.9376
-54.8005
-54.014
-54.0853
-53.7565
-66.5936
-65.9706
-64.6326
-65.1305
-65.4431
-65.5376
)
;

boundaryField
{
    seabed_topleft_surface
    {
        type            calculated;
        value           nonuniform List<scalar> 
72
(
13494
13487.5
13480.5
13440.9
13416.5
13446.7
14085.3
14052.5
14051.3
14076.4
14116.6
14041.6
15757.6
15745.6
15741.1
15750.2
15762.4
15732.6
17318.3
17317
17316.3
17317
17318.6
17314.9
18575.6
18576.3
18576.9
18577.2
18577.7
18580.3
19251.1
19250.7
19251.4
19253.3
19254
19255.4
19084.4
19077.6
19080.3
19082
19079.3
19086.6
17706.7
17700.3
17704.6
17699.1
17700.3
17708.1
15219.6
15226.9
15226.2
15221.1
15224.7
15227.9
12490.2
12475.8
12475.9
12493.2
12499.3
12460.8
10729.7
10693.6
10683
10707.7
10698.1
10639.2
8939.6
8976.15
8979.3
8952.92
8978.51
9040.64
)
;
    }
    seabed_topright_surface
    {
        type            calculated;
        value           nonuniform List<scalar> 
72
(
2767.57
2733.88
2795.79
2738.03
2731.11
2769.77
2633.97
2584.66
2672.35
2612.91
2593.05
2694.83
2503.89
2433.73
2512.03
2569.47
2528.51
2578.94
2494.47
2361.27
2074.27
2322.67
2384.48
2463.76
2253.11
2022
1988.75
1997.98
1914.88
1897.32
1403.02
1364.64
1317.24
1211.86
1314.67
1326.21
829.363
781.274
644.767
489.39
612.112
723.1
601.922
535.802
444.869
288.385
322.472
439.829
510.477
516.251
400.728
243.411
260.219
426.185
307.705
469.387
369.221
270.661
233.114
428.614
329.126
296.796
389.743
431.197
424.807
486.923
350.359
301.013
391.482
505.462
518.523
509.911
)
;
    }
    breakwater_top_surface
    {
        type            calculated;
        value           nonuniform List<scalar> 
36
(
215.4
212.975
210.148
211.271
211.267
209.803
240.799
238.312
237.699
235.977
235.244
235.926
246.606
246.306
245.858
245.695
245.524
245.243
241.438
241.352
240.954
240.394
239.801
240.008
226.076
226.972
226.531
225.41
224.607
226.494
214.705
215.759
215.121
214.766
214.301
217.088
)
;
    }
    breakwater_left_surface
    {
        type            calculated;
        value           nonuniform List<scalar> 
24
(
5674.05
5698.84
5702.83
5689.79
5722.65
5760.68
1734.66
1672.99
1676.83
1759.25
1798.15
1688
636.397
631.382
631.402
639.267
638.937
636.803
329.648
353.143
347.201
335.883
331.857
359.082
)
;
    }
    breakwater_right_surface
    {
        type            calculated;
        value           nonuniform List<scalar> 
24
(
248.692
248.934
264.465
302.306
312.698
303.956
35.6379
43.8075
51.8847
62.7505
61.9507
52.8781
-10.5848
-27.2717
-29.0196
-13.1367
-17.3711
-17.4593
-27.5191
-42.6988
-54.4
-60.5174
-73.2673
-40.9512
)
;
    }
    water_front_surface
    {
        type            calculated;
        value           nonuniform List<scalar> 
186
(
9824.24
10087.5
11038
12523.8
13781.1
14456.6
14514.9
13612.4
11309.7
8771.15
7203.13
5662.82
2609.76
2241.97
2837.06
4131.31
5431.22
6220.58
6086.63
5187.64
4021.23
3177.83
2317.85
1732.23
-2.48102
-27.4605
31.5071
162.827
521.091
1003.73
1054.61
1100.87
1375.77
1325.12
650.851
636.153
-19.7993
-27.9184
-19.1299
-26.8548
-36.3411
-54.6259
-111.055
-138.599
-14.1903
179.824
237.311
329.567
2296.91
2163.3
2033.22
2023.86
1840.57
1154.2
553.972
326.531
265.297
220.61
233.755
248.343
1197.9
909.726
854.029
934.401
739.337
311.736
83.5601
21.3559
40.1962
34.2599
32.5825
35.4756
188.04
62.8807
74.3965
143.282
201.34
59.5394
8.83868
-0.986161
-1.5168
-1.31609
5.343
-10.6106
-35.7057
-39.7004
-40.8305
-40.7661
-48.9794
-74.2711
-33.2455
-14.7194
-15.6885
-23.2412
-10.7881
-27.6553
-33.7404
-55.9318
-73.26
-35.9979
-55.6882
-75.5333
-34.1511
-54.6671
-70.7715
-40.0486
-59.0231
-72.3953
-51.1295
-67.1074
-74.9335
-70.7719
-80.7038
-77.7532
-137.261
-130.07
-81.3111
-203.545
-175.406
-88.2491
-159.289
-158.912
-94.9507
-60.2593
-101.221
-85.6591
40.136
-49.0642
-74.3215
55.2836
-68.6079
-71.524
76.2557
-49.2251
-67.9015
92.7584
-50.7943
-66.7361
96.4995
-51.2919
-67.2823
94.3917
-53.0629
-66.9253
87.7183
-53.8498
-66.7811
78.1146
-56.2614
-68.1149
-46.4884
-56.3338
-68.3018
-49.5754
-58.8944
-69.9861
-51.6697
-57.7232
-68.2736
-60.601
-63.365
-68.0501
-88.0793
-77.551
-69.2906
-103.959
-75.7031
-69.0295
-50.6462
-58.1156
-66.6874
-28.6814
-46.0059
-63.5841
-27.5
-45.7951
-62.9643
-31.2288
-48.8307
-64.4613
-26.8399
-54.0437
-63.4915
-11.6504
-55.781
-66.5936
)
;
    }
    water_back_surface
    {
        type            calculated;
        value           nonuniform List<scalar> 
186
(
9772.49
10044.3
11014.2
12520.4
13785.8
14461
14515.1
13613.4
11321.9
8747.25
7126.97
5749.41
2635.34
2178.73
2758.5
4110.44
5441.08
6230.9
6090.66
5184.79
3994.34
3156.77
2364.57
1685.18
0.963002
-25.9822
25.9779
152.841
531.793
1025.31
1071.54
1097.59
1368.25
1324.59
689.737
636.69
-20.6214
-29.0505
-16.2352
-27.3147
-36.844
-53.8629
-109.658
-146.752
-17.3157
163.663
235.674
358.973
2299.17
2224.2
2108.29
1993.16
1695.3
1052.33
457.159
239.067
220.663
221.951
280.261
303.248
1291.96
1075.4
994.388
1033.21
813.911
262.216
48.1994
11.1958
13.0464
30.3769
52.5226
52.7487
393.703
249.81
282.103
274.153
201.863
56.2416
22.4641
14.8734
3.13054
0.479413
-2.7232
-17.5033
-42.1585
-43.386
-42.7031
-44.5586
-35.4294
-21.6666
-4.73653
-6.82387
-13.7457
-25.2201
-20.3543
-41.0826
-33.52
-55.499
-74.5387
-36.9206
-55.4065
-74.8512
-32.7682
-54.6714
-70.9272
-39.0737
-58.8277
-72.3448
-50.6703
-67.1538
-75.0804
-69.5537
-79.9836
-78.5517
-132.231
-126.561
-83.9923
-201.005
-173.459
-91.2728
-161.644
-158.581
-94.7916
-63.7534
-102.867
-86.4145
37.8895
-46.3249
-75.3953
94.4689
-63.3708
-71.5154
74.2371
-48.5698
-67.3867
91.0364
-49.838
-66.5556
95.9762
-50.9656
-67.1722
93.6094
-53.2275
-66.8901
88.3986
-53.1255
-66.6
81.0619
-56.6266
-67.8331
-52.4317
-57.8954
-68.5219
-55.7718
-61.3518
-69.6589
-60.6811
-62.9641
-67.5207
-75.2205
-69.8636
-65.6977
-84.5337
-81.3719
-66.6343
-65.9111
-71.5387
-67.4778
-34.5126
-54.2089
-65.0522
-27.9498
-49.3012
-63.2105
-33.7928
-51.6304
-61.6982
-37.5976
-50.882
-62.1148
-32.7703
-50.5011
-60.8175
-31.3954
-53.7565
-65.5376
)
;
    }
    water_left_surface
    {
        type            calculated;
        value           nonuniform List<scalar> 
42
(
9836.81
9831.57
9819.8
9787.88
9766.62
9785.07
2618.09
2658.65
2668.76
2571.91
2474.26
2643.76
-2.45985
2.77123
4.30756
-1.82495
-7.48257
1.00136
-19.7833
-19.6645
-20.1813
-20.0347
-20.3457
-20.6055
-33.7404
-33.6216
-34.0297
-33.3109
-33.5641
-33.52
-55.9318
-55.4765
-55.4783
-55.4696
-55.5437
-55.499
-73.26
-72.9934
-72.7712
-73.2941
-73.3016
-74.5387
)
;
    }
    water_right_surface
    {
        type            calculated;
        value           nonuniform List<scalar> 
42
(
2298.52
2264.83
2326.75
2268.98
2272.33
2300.79
1199.48
1256.69
1283.08
1258.16
1272.52
1293.54
188.7
275.247
254.643
340.737
508.248
395.03
-35.6898
-40.1418
-39.4249
-36.1504
-31.5636
-42.1357
-46.4884
-48.7555
-49.0341
-48.7861
-53.8917
-52.4317
-56.3338
-56.8132
-57.1472
-57.2209
-59.2062
-57.8954
-68.3018
-68.8455
-68.5774
-68.5859
-68.8994
-68.5219
)
;
    }
    water_top_surface
    {
        type            calculated;
        value           nonuniform List<scalar> 
180
(
-87.6893
-81.7863
-78.4317
-86.9236
-86.9542
-86.8908
-83.6395
-83.6142
-83.0368
-83.4293
-84.4629
-81.6797
-80.0927
-80.4094
-80.4214
-80.1989
-80.1776
-80.3756
-81.2147
-81.373
-81.3072
-81.258
-81.2191
-81.1937
-83.5528
-83.9853
-83.9012
-83.6952
-83.5262
-83.9033
-85.933
-86.7543
-86.8267
-86.2922
-85.608
-87.279
-83.1595
-85.0212
-85.2391
-83.3925
-80.9538
-88.058
-69.4016
-69.6517
-69.6445
-69.3958
-69.3083
-71.7643
-69.7372
-69.5779
-69.6201
-69.7701
-69.2003
-69.1721
-69.5662
-69.4531
-69.4858
-69.626
-69.1987
-69.1335
-69.1998
-69.1809
-69.0626
-69.4268
-69.6935
-69.3543
-68.7804
-68.7428
-68.7991
-68.7232
-68.7082
-68.6778
-68.6719
-68.7127
-68.7276
-68.6702
-68.67
-68.67
-68.848
-68.8283
-68.7688
-68.7624
-68.7678
-68.7897
-68.8506
-68.8618
-68.8418
-68.8311
-68.8253
-68.8185
-68.9361
-68.9439
-68.9327
-68.9306
-68.9298
-68.9284
-68.6817
-68.6823
-68.6795
-68.676
-68.6735
-68.6738
-68.6893
-68.6893
-68.6859
-68.6946
-68.7049
-68.6952
-70.7142
-72.9407
-68.7605
-71.3182
-74.6041
-71.5981
-74.927
-75.3148
-76.0951
-76.4257
-76.4843
-74.174
-72.5827
-74.4126
-74.2044
-75.5246
-74.9736
-72.3458
-71.8262
-74.1629
-74.9747
-74.6959
-72.1109
-70.8464
-68.9582
-70.0812
-70.4728
-69.3013
-68.7158
-68.67
-68.6714
-68.6824
-68.7105
-68.701
-68.7078
-68.6745
-68.6829
-68.7001
-68.6815
-68.8128
-68.6735
-68.672
-68.6911
-68.6839
-68.6807
-68.6741
-68.6733
-68.6701
-68.7249
-68.7408
-68.7298
-68.6879
-68.6701
-68.6701
-69.2596
-69.2487
-68.9207
-68.6847
-68.67
-68.67
-69.1781
-69.3148
-69.4384
-68.6955
-68.67
-68.67
-69.3794
-69.7452
-68.9992
-69.0537
-69.1249
-69.0417
)
;
    }
}


// ************************************************************************* //
