/*--------------------------------*- C++ -*----------------------------------*\
| =========                 |                                                 |
| \\      /  F ield         | OpenFOAM: The Open Source CFD Toolbox           |
|  \\    /   O peration     | Version:  v1612+                                |
|   \\  /    A nd           | Web:      www.OpenFOAM.com                      |
|    \\/     M anipulation  |                                                 |
\*---------------------------------------------------------------------------*/
FoamFile
{
    version     2.0;
    format      ascii;
    class       volScalarField;
    location    "8.45";
    object      p_rgh;
}
// * * * * * * * * * * * * * * * * * * * * * * * * * * * * * * * * * * * * * //

dimensions      [1 -1 -2 0 0 0 0];

internalField   nonuniform List<scalar> 
1116
(
13494
13487.5
13480.5
13440.9
13416.5
13446.7
14085.3
14052.5
14051.3
14076.4
14116.6
14041.6
15757.6
15745.6
15741.1
15750.2
15762.4
15732.6
17318.3
17317
17316.3
17317
17318.6
17314.9
18575.6
18576.3
18576.9
18577.2
18577.7
18580.3
19251.1
19250.7
19251.4
19253.3
19254
19255.4
19084.4
19077.6
19080.3
19082
19079.3
19086.6
17706.7
17700.3
17704.6
17699.1
17700.3
17708.1
15219.6
15226.9
15226.2
15221.1
15224.7
15227.9
12490.2
12475.8
12475.9
12493.2
12499.3
12460.8
10729.7
10693.6
10683
10707.7
10698.1
10639.2
8939.6
8976.15
8979.3
8952.92
8978.51
9040.64
10046.7
10146.1
10192.7
9972.16
9779.13
10147.9
9023.02
8812.57
8700.78
9030.55
9143.32
8717.85
11232.9
11115.7
11039
11257.5
11352.2
11047.7
15572.4
15583.7
15581.8
15576.4
15576.2
15594.7
19192.1
19208.8
19230.2
19186.2
19170
19244.5
20321.4
20316
20327.4
20319.3
20324
20331.3
20005.5
20021.9
20025.1
20006
20008.3
20010.4
16436.3
16599.3
16560.6
16494.2
16444.7
16643.4
8820.59
8945.01
8895.13
8847.54
8808.47
8943.23
6874.94
6517.37
6577.02
6876.09
6974.97
6333.52
6125.2
6148.46
6143.15
6107.86
6136.84
6062.74
3904.96
4153.88
4150.46
3883.11
3822.89
4197.54
29.6061
52.394
74.652
22.8202
17.1181
59.1164
-2.62189
1.06337
-0.312841
-5.50133
-7.17062
-1.38783
107.988
62.6895
52.877
106.626
123.604
53.5851
1037.09
983.794
980.442
1034.12
1049.85
985.93
3120.29
3116.29
3136.64
3119.84
3102.31
3207.87
5927.25
5971.76
5965.29
5960.2
5907.8
6077.24
6479.32
6467.15
6493.56
6466.32
6441.87
6522.76
7305.31
7144.77
7249.2
7182.99
7155.08
7232.83
8887.95
8781.3
8819.27
8869.65
8849.15
8839.41
5969.88
6238.36
6120.3
5994.7
6145.39
6210.83
1649.68
1738.57
1653.7
1671.73
1770.02
1704.8
1005.78
814.815
818.897
1040.77
1117.98
807.974
14.7591
14.8633
14.3376
14.4518
14.079
13.8039
6.98711
6.7709
6.33665
5.86392
5.48519
5.36301
15.221
15.622
15.8254
15.9464
16.2733
18.1157
7.49607
7.30962
7.01776
7.30691
7.31266
7.03613
-1.99023
-2.02867
-2.14635
-2.14818
-2.2013
-2.49317
-20.275
-19.8062
-19.9036
-20.1296
-20.2024
-19.512
-76.702
-75.9804
-76.2698
-76.0706
-76.0303
-75.306
-104.244
-109.668
-109.235
-107.431
-106.926
-112.397
20.1652
20.5117
20.9468
21.5267
20.8843
17.0396
575.543
494.398
531.976
538.829
512.125
479.333
288.065
290.758
292.46
290.361
288.191
291.386
504.187
579.793
574.713
500.253
479.999
594.433
2767.57
2733.88
2795.79
2738.03
2731.11
2769.77
2633.97
2584.66
2672.35
2612.91
2593.05
2694.83
2503.89
2433.73
2512.03
2569.47
2528.51
2578.94
2494.47
2361.27
2074.27
2322.67
2384.48
2463.76
2253.11
2022
1988.75
1997.98
1914.88
1897.32
1403.02
1364.64
1317.24
1211.86
1314.67
1326.21
829.363
781.274
644.767
489.39
612.112
723.1
601.922
535.802
444.869
288.385
322.472
439.829
510.477
516.251
400.728
243.411
260.219
426.185
307.705
469.387
369.221
270.661
233.114
428.614
329.126
296.796
389.743
431.197
424.807
486.923
350.359
301.013
391.482
505.462
518.523
509.911
2606.66
2663.86
2690.47
2665.29
2679.09
2700.5
2261.51
2405.53
2343.45
2389.62
2435.48
2483.94
2234.19
2291.81
2476.41
2376.81
2363.54
2402.95
2342.81
2257.21
1518.31
2108.22
2415.16
2441.65
2139.07
1509.73
1015.09
1201.77
1600.51
1769.76
950.594
553.517
579.444
493.804
534.745
516.598
136.034
129.567
135.859
170.111
152.675
98.8701
50.2012
32.0361
31.0269
97.4087
67.1675
26.5757
194.833
68.2695
24.899
59.0412
31.7594
28.4733
197.284
31.3358
33.3063
37.0908
35.0468
74.8937
107.383
60.4349
51.1474
55.8431
67.2966
147.787
180.242
108.235
85.4087
79.7538
80.1045
168.119
1188.43
1866.71
1539.75
2111.88
2737.52
2404.21
429.094
894.226
439.979
1205.93
1921.05
1598.28
409.089
997.773
1227.66
2136.19
2387.93
1087.43
856.882
1755.13
2532.79
2613.71
2605.13
1304.81
1242.74
1847.9
1035.25
1466.06
2044.93
1315.19
826.222
960.556
112.37
119.728
201.809
390.952
72.8327
52.2925
50.565
61.3944
49.5979
48.1595
23.6973
25.7275
32.2974
57.9555
38.7871
40.2814
23.0488
23.4262
18.8177
20.7604
26.3069
33.5179
23.2416
24.6449
21.4668
20.0165
26.912
34.8669
29.9032
47.1685
36.292
73.0457
99.6874
23.4495
28.6093
83.8484
120.019
183.361
170.102
49.2955
-1.354
-5.80605
-5.08893
-1.81418
96.0561
7.05686
-5.34877
-7.68615
-3.98514
-2.25663
-6.10947
6.29004
-6.47099
-11.1405
-8.44257
-4.5516
-13.2859
102.047
-6.12024
-11.072
407.135
1258.74
468.531
36.0258
-14.0551
486.937
1342.92
1686.75
896.655
252.738
30.8335
809.227
330.748
275.22
334.391
201.432
53.5584
236.988
25.7363
29.4393
28.3774
38.0279
23.3813
21.4661
24.5368
26.3944
26.3157
29.6136
18.6854
17.3312
14.0805
16.9346
20.1529
28.2216
11.1268
9.48514
3.88199
6.76171
9.95411
9.75119
23.5851
18.6004
11.4736
29.9386
64.064
14.0556
267.14
224.298
243.135
242.426
229.676
243.367
21.1535
15.8079
14.0779
20.6679
21.877
15.3769
12.9792
5.52811
3.1053
12.8557
12.7816
7.1839
8.16578
2.95094
0.0582028
7.42068
7.44158
6.14563
13.2642
13.0517
12.58
9.38559
8.87133
11.5946
1.34071
-0.226479
1.44178
-0.911247
1.37955
1.27662
-11.7683
-11.6341
-11.2211
-11.5276
-11.9406
-11.0862
9.9939
10.3932
10.3846
10.4823
10.7637
11.3768
-0.71207
-0.747651
-0.869547
-0.643762
-0.590503
-0.716372
-7.00652
-7.1106
-7.06457
-7.09744
-7.11839
-7.16224
4.09637
4.43208
4.45932
4.36388
4.32221
5.07132
-5.06813
-5.06625
-5.00841
-5.02413
-4.95826
-4.87269
-8.63033
-8.69482
-8.61908
-8.64123
-8.6066
-8.57978
-6.98446
-6.67153
-6.74713
-6.80852
-6.90089
-6.52533
-13.1524
-13.1691
-13.1386
-13.2195
-13.1957
-13.1988
-11.1685
-11.2731
-11.1995
-11.2517
-11.0891
-11.3154
-26.55
-25.7089
-25.9574
-26.1217
-26.6441
-25.3626
-26.6272
-26.2595
-26.3115
-26.676
-26.8996
-25.9571
-13.9882
-14.2849
-14.2494
-14.1546
-13.6601
-14.7867
-92.9163
-89.7911
-90.2571
-90.9182
-92.3746
-87.8974
-75.3971
-73.6873
-73.9225
-75.4178
-76.9086
-72.2497
-17.5461
-18.6429
-18.6881
-18.0777
-17.7012
-20.2273
-159.374
-157.96
-157.335
-157.309
-158.544
-156.817
-120.734
-120.498
-119.639
-122.234
-124.16
-119.257
-23.8977
-26.8061
-26.7858
-25.1429
-24.2586
-27.2358
-115.138
-117.441
-116.801
-116.551
-116.582
-117.494
-104.674
-106.64
-105.507
-106.145
-106.217
-104.503
-30.1947
-31.9225
-31.1189
-31.1976
-31.569
-30.5604
-16.108
-17.3868
-16.5006
-16.3598
-18.0058
-19.6016
-46.8018
-49.4826
-48.4934
-48.2268
-48.9073
-48.7968
-21.0618
-22.3041
-21.8224
-21.5732
-22.1148
-22.2191
89.9501
87.353
87.2857
93.9061
91.864
85.8193
14.5369
13.75
11.7991
15.1961
16.0933
12.5269
-10.0646
-9.68493
-10.1911
-10.419
-10.9863
-10.9949
585.064
581.862
587.326
597.639
615.27
580.404
2.86972
12.4316
4.06
11.8995
18.3155
29.0505
-7.759
-7.61654
-7.87897
-7.97569
-8.17735
-7.75045
1328.56
1319.2
1301.93
1304.01
1300.04
1294.33
4.72994
4.45215
4.44908
4.92598
5.2479
5.38522
-4.13648
-4.13615
-3.64982
-3.61873
-3.6226
-3.62169
1425.12
1411.17
1405.29
1394.24
1390.71
1395.04
3.16066
3.26962
3.59989
3.82937
4.03537
4.11696
-2.97109
-2.92844
-2.75028
-2.67661
-2.76963
-2.79059
1447.46
1446.08
1443.51
1441.92
1440.47
1439.38
2.66309
2.68738
2.77265
2.86379
2.93807
2.98942
-3.51729
-3.49006
-3.4324
-3.41025
-3.41051
-3.40722
1417.81
1417.34
1415.37
1412.92
1410.05
1411.2
0.892056
0.918921
0.934711
0.835184
0.746023
0.727545
-3.16034
-3.14265
-3.13144
-3.12129
-3.12855
-3.12505
1332.94
1336.87
1334.75
1327.33
1320.81
1331.26
0.105231
0.219498
0.339315
0.502902
0.737408
0.829514
-3.01609
-2.9733
-2.98245
-2.91022
-2.86944
-2.83501
1307.43
1307.32
1305.71
1303.63
1298.29
1305.3
-2.30607
-2.48168
-2.13117
-2.40869
-2.54234
-2.6709
-4.3499
-4.17173
-4.28104
-4.25832
-4.23704
-4.0681
-2.33338
-4.60946
-4.80174
-4.63976
-9.74458
-8.28342
-2.28481
-2.85427
-1.91308
-3.24592
-5.21347
-3.79684
-4.53677
-5.07983
-4.81233
-4.82094
-5.13441
-4.75693
-4.97139
-6.83841
-6.83702
-7.7998
-11.1382
-11.6238
-3.45205
-4.81537
-5.50915
-6.02345
-6.78761
-6.42625
-6.22105
-6.71893
-7.15936
-6.69113
-6.69713
-5.89386
-5.72139
-10.8971
-10.1839
-10.9762
-17.7372
-16.5217
-2.16001
-3.84652
-5.05406
-6.40365
-7.93542
-7.76045
-4.50857
-5.41384
-5.42135
-5.14007
-4.57736
-3.75575
-11.2241
-19.8314
-20.961
-25.5517
-36.2925
-31.0598
-9.31383
-9.69503
-14.3694
-20.1543
-19.3623
-15.9082
-4.28511
-5.35963
-5.405
-4.49513
-2.79762
-1.9327
-29.144
-47.2679
345.52
428.166
-8.49376
-40.2177
-21.0389
-5.96681
-4.9333
30.0464
-32.6974
-27.4145
-5.52565
-6.80016
-7.42667
-6.12641
-3.98016
-2.86924
-20.1923
171.306
369.449
264.229
91.8488
0.327843
-16.4597
46.478
178.349
92.2522
-23.4463
-17.5473
-5.26316
-6.61953
-6.60982
-5.90217
-5.10276
-3.70867
24.939
141.51
85.8582
16.1262
24.2311
14.6105
1.10018
13.3432
22.5233
2.51462
1.77565
0.728854
-2.91048
-3.93602
-3.19801
-1.99521
-1.70693
-1.28534
17.2732
16.5374
16.3095
17.3049
17.2118
17.5974
8.04623
6.39731
7.71508
7.40098
6.53552
4.69739
0.200497
-0.197642
0.333418
0.750103
0.810759
0.554641
16.6672
14.7462
10.9517
10.1445
10.3892
10.6032
8.1953
6.89795
4.7801
3.50108
2.83894
2.3246
0.851669
0.735091
0.963478
1.6006
1.93881
2.06687
12.9344
11.0544
5.74922
2.84713
4.01916
6.54739
6.54898
5.07981
3.01738
2.04287
2.19253
3.07298
-0.148736
-0.132303
0.133592
1.30708
1.73392
1.65021
17.3273
16.3707
13.0173
7.04056
7.2183
11.3748
4.69257
2.46981
1.39763
2.18572
3.20319
3.45434
0.745339
0.627198
0.722601
2.54187
3.06574
2.9475
379.969
342.59
280.924
326.852
327.171
351.681
-1.82604
-1.98262
-0.845452
-0.058991
-0.130338
0.19849
-2.77552
-2.15744
-0.753998
-1.35696
-1.67814
-1.77264
)
;

boundaryField
{
    seabed_topleft_surface
    {
        type            fixedFluxPressure;
        gradient        uniform 0;
        value           nonuniform List<scalar> 
72
(
13494
13487.5
13480.5
13440.9
13416.5
13446.7
14085.3
14052.5
14051.3
14076.4
14116.6
14041.6
15757.6
15745.6
15741.1
15750.2
15762.4
15732.6
17318.3
17317
17316.3
17317
17318.6
17314.9
18575.6
18576.3
18576.9
18577.2
18577.7
18580.3
19251.1
19250.7
19251.4
19253.3
19254
19255.4
19084.4
19077.6
19080.3
19082
19079.3
19086.6
17706.7
17700.3
17704.6
17699.1
17700.3
17708.1
15219.6
15226.9
15226.2
15221.1
15224.7
15227.9
12490.2
12475.8
12475.9
12493.2
12499.3
12460.8
10729.7
10693.6
10683
10707.7
10698.1
10639.2
8939.6
8976.15
8979.3
8952.92
8978.51
9040.64
)
;
    }
    seabed_topright_surface
    {
        type            fixedFluxPressure;
        gradient        uniform 0;
        value           nonuniform List<scalar> 
72
(
2767.57
2733.88
2795.79
2738.03
2731.11
2769.77
2633.97
2584.66
2672.35
2612.91
2593.05
2694.83
2503.89
2433.73
2512.03
2569.47
2528.51
2578.94
2494.47
2361.27
2074.27
2322.67
2384.48
2463.76
2253.11
2022
1988.75
1997.98
1914.88
1897.32
1403.02
1364.64
1317.24
1211.86
1314.67
1326.21
829.363
781.274
644.767
489.39
612.112
723.1
601.922
535.802
444.869
288.385
322.472
439.829
510.477
516.251
400.728
243.411
260.219
426.185
307.705
469.387
369.221
270.661
233.114
428.614
329.126
296.796
389.743
431.197
424.807
486.923
350.359
301.013
391.482
505.462
518.523
509.911
)
;
    }
    breakwater_top_surface
    {
        type            fixedFluxPressure;
        gradient        uniform 0;
        value           nonuniform List<scalar> 
36
(
1328.56
1319.2
1301.93
1304.01
1300.04
1294.33
1425.12
1411.17
1405.29
1394.24
1390.71
1395.04
1447.46
1446.08
1443.51
1441.92
1440.47
1439.38
1417.81
1417.34
1415.37
1412.92
1410.05
1411.2
1332.94
1336.87
1334.75
1327.33
1320.81
1331.26
1307.43
1307.32
1305.71
1303.63
1298.29
1305.3
)
;
    }
    breakwater_left_surface
    {
        type            fixedFluxPressure;
        gradient        uniform 0;
        value           nonuniform List<scalar> 
24
(
8939.6
8976.15
8979.3
8952.92
8978.51
9040.64
3904.96
4153.88
4150.46
3883.11
3822.89
4197.54
1005.78
814.815
818.897
1040.77
1117.98
807.974
504.187
579.793
574.713
500.253
479.999
594.433
)
;
    }
    breakwater_right_surface
    {
        type            fixedFluxPressure;
        gradient        uniform 0;
        value           nonuniform List<scalar> 
24
(
350.359
301.013
391.482
505.462
518.523
509.911
180.242
108.235
85.4087
79.7538
80.1045
168.119
28.6093
83.8484
120.019
183.361
170.102
49.2955
267.14
224.298
243.135
242.426
229.676
243.367
)
;
    }
    water_front_surface
    {
        type            fixedFluxPressure;
        gradient        uniform 0;
        value           nonuniform List<scalar> 
186
(
13494
14085.3
15757.6
17318.3
18575.6
19251.1
19084.4
17706.7
15219.6
12490.2
10729.7
8939.6
10046.7
9023.02
11232.9
15572.4
19192.1
20321.4
20005.5
16436.3
8820.59
6874.94
6125.2
3904.96
29.6061
-2.62189
107.988
1037.09
3120.29
5927.25
6479.32
7305.31
8887.95
5969.88
1649.68
1005.78
14.7591
6.98711
15.221
7.49607
-1.99023
-20.275
-76.702
-104.244
20.1652
575.543
288.065
504.187
2767.57
2633.97
2503.89
2494.47
2253.11
1403.02
829.363
601.922
510.477
307.705
329.126
350.359
2606.66
2261.51
2234.19
2342.81
2139.07
950.594
136.034
50.2012
194.833
197.284
107.383
180.242
1188.43
429.094
409.089
856.882
1242.74
826.222
72.8327
23.6973
23.0488
23.2416
29.9032
28.6093
-1.354
-5.34877
-6.47099
-6.12024
-14.0551
30.8335
53.5584
23.3813
18.6854
11.1268
23.5851
267.14
21.1535
12.9792
8.16578
13.2642
1.34071
-11.7683
9.9939
-0.71207
-7.00652
4.09637
-5.06813
-8.63033
-6.98446
-13.1524
-11.1685
-26.55
-26.6272
-13.9882
-92.9163
-75.3971
-17.5461
-159.374
-120.734
-23.8977
-115.138
-104.674
-30.1947
-16.108
-46.8018
-21.0618
89.9501
14.5369
-10.0646
585.064
2.86972
-7.759
1328.56
4.72994
-4.13648
1425.12
3.16066
-2.97109
1447.46
2.66309
-3.51729
1417.81
0.892056
-3.16034
1332.94
0.105231
-3.01609
1307.43
-2.30607
-4.3499
-2.33338
-2.28481
-4.53677
-4.97139
-3.45205
-6.22105
-5.72139
-2.16001
-4.50857
-11.2241
-9.31383
-4.28511
-29.144
-21.0389
-5.52565
-20.1923
-16.4597
-5.26316
24.939
1.10018
-2.91048
17.2732
8.04623
0.200497
16.6672
8.1953
0.851669
12.9344
6.54898
-0.148736
17.3273
4.69257
0.745339
379.969
-1.82604
-2.77552
)
;
    }
    water_back_surface
    {
        type            fixedFluxPressure;
        gradient        uniform 0;
        value           nonuniform List<scalar> 
186
(
13446.7
14041.6
15732.6
17314.9
18580.3
19255.4
19086.6
17708.1
15227.9
12460.8
10639.2
9040.64
10147.9
8717.85
11047.7
15594.7
19244.5
20331.3
20010.4
16643.4
8943.23
6333.52
6062.74
4197.54
59.1164
-1.38783
53.5851
985.93
3207.87
6077.24
6522.76
7232.83
8839.41
6210.83
1704.8
807.974
13.8039
5.36301
18.1157
7.03613
-2.49317
-19.512
-75.306
-112.397
17.0396
479.333
291.386
594.433
2769.77
2694.83
2578.94
2463.76
1897.32
1326.21
723.1
439.829
426.185
428.614
486.923
509.911
2700.5
2483.94
2402.95
2441.65
1769.76
516.598
98.8701
26.5757
28.4733
74.8937
147.787
168.119
2404.21
1598.28
1087.43
1304.81
1315.19
390.952
48.1595
40.2814
33.5179
34.8669
23.4495
49.2955
7.05686
6.29004
102.047
36.0258
252.738
201.432
38.0279
29.6136
28.2216
9.75119
14.0556
243.367
15.3769
7.1839
6.14563
11.5946
1.27662
-11.0862
11.3768
-0.716372
-7.16224
5.07132
-4.87269
-8.57978
-6.52533
-13.1988
-11.3154
-25.3626
-25.9571
-14.7867
-87.8974
-72.2497
-20.2273
-156.817
-119.257
-27.2358
-117.494
-104.503
-30.5604
-19.6016
-48.7968
-22.2191
85.8193
12.5269
-10.9949
580.404
29.0505
-7.75045
1294.33
5.38522
-3.62169
1395.04
4.11696
-2.79059
1439.38
2.98942
-3.40722
1411.2
0.727545
-3.12505
1331.26
0.829514
-2.83501
1305.3
-2.6709
-4.0681
-8.28342
-3.79684
-4.75693
-11.6238
-6.42625
-5.89386
-16.5217
-7.76045
-3.75575
-31.0598
-15.9082
-1.9327
-40.2177
-27.4145
-2.86924
0.327843
-17.5473
-3.70867
14.6105
0.728854
-1.28534
17.5974
4.69739
0.554641
10.6032
2.3246
2.06687
6.54739
3.07298
1.65021
11.3748
3.45434
2.9475
351.681
0.19849
-1.77264
)
;
    }
    water_left_surface
    {
        type            fixedFluxPressure;
        gradient        uniform 0;
        value           nonuniform List<scalar> 
42
(
13494
13487.5
13480.5
13440.9
13416.5
13446.7
10046.7
10146.1
10192.7
9972.16
9779.13
10147.9
29.6061
52.394
74.652
22.8202
17.1181
59.1164
14.7591
14.8633
14.3376
14.4518
14.079
13.8039
21.1535
15.8079
14.0779
20.6679
21.877
15.3769
12.9792
5.52811
3.1053
12.8557
12.7816
7.1839
8.16578
2.95094
0.0582028
7.42068
7.44158
6.14563
)
;
    }
    water_right_surface
    {
        type            fixedFluxPressure;
        gradient        uniform 0;
        value           nonuniform List<scalar> 
42
(
2767.57
2733.88
2795.79
2738.03
2731.11
2769.77
2606.66
2663.86
2690.47
2665.29
2679.09
2700.5
1188.43
1866.71
1539.75
2111.88
2737.52
2404.21
-1.354
-5.80605
-5.08893
-1.81418
96.0561
7.05686
-2.33338
-4.60946
-4.80174
-4.63976
-9.74458
-8.28342
-2.28481
-2.85427
-1.91308
-3.24592
-5.21347
-3.79684
-4.53677
-5.07983
-4.81233
-4.82094
-5.13441
-4.75693
)
;
    }
    water_top_surface
    {
        type            totalPressure;
        rho             rho;
        psi             none;
        gamma           1;
        p0              uniform 0;
        value           nonuniform List<scalar> 
180
(
0
0
0
0
0
0
-14.9695
-14.9442
-14.3668
-14.7593
-15.7929
-13.0097
-11.4227
-11.7394
-11.7514
-11.5289
-11.5076
-11.7056
-12.5447
-12.703
-12.6372
-12.588
-12.5491
-12.5237
-14.8828
-15.3153
-15.2312
-15.0252
-14.8562
-15.2333
-17.263
-18.0843
-18.1567
-17.6222
-16.938
-18.609
-14.4895
-16.3512
-16.5691
-14.7225
-12.2838
-19.388
-0.100157
-0.981708
-0.974531
-0.104175
0
-3.09433
0
0
0
0
0
0
0
0
0
0
0
0
0
0
0
0
0
0
-0.110409
-0.0727932
-0.129087
-0.0532323
-0.0382003
-0.00777362
-0.0019371
-0.0427257
-0.0576177
0
0
0
-0.177986
-0.158255
-0.098845
-0.0924217
-0.0978309
-0.119689
-0.180647
-0.191817
-0.171782
-0.161101
-0.155344
-0.148523
-0.26608
-0.273895
-0.262745
-0.260612
-0.259757
-0.258375
-0.0116734
-0.0122694
-0.00946079
-0.00602441
-0.00352933
-0.00383306
-0.0192846
-0.0193235
-0.0158797
-0.0245705
-0.0348788
-0.0252458
-2.0442
-4.2707
-0.0904887
-2.64815
-5.93412
-2.92813
-6.25702
-6.6448
-7.42512
-7.75574
-7.8143
-5.50402
-3.91273
-5.7426
-5.5344
-6.85463
-6.30362
-3.67579
-3.15622
-5.49289
-6.30465
-6.02594
-3.44094
-2.17644
-0.288172
-1.41118
-1.80278
-0.63128
0
0
0
0
0
0
0
0
0
0
0
0
0
0
0
0
0
0
0
0
0
0
0
0
0
0
0
0
0
0
0
0
0
0
0
0
0
0
-0.70943
-1.07516
-0.329242
-0.383663
-0.45491
-0.371657
)
;
    }
}


// ************************************************************************* //
