/*--------------------------------*- C++ -*----------------------------------*\
| =========                 |                                                 |
| \\      /  F ield         | OpenFOAM: The Open Source CFD Toolbox           |
|  \\    /   O peration     | Version:  v1612+                                |
|   \\  /    A nd           | Web:      www.OpenFOAM.com                      |
|    \\/     M anipulation  |                                                 |
\*---------------------------------------------------------------------------*/
FoamFile
{
    version     2.0;
    format      ascii;
    class       volVectorField;
    location    "8.45";
    object      U;
}
// * * * * * * * * * * * * * * * * * * * * * * * * * * * * * * * * * * * * * //

dimensions      [0 1 -1 0 0 0 0];

internalField   nonuniform List<vector> 
1116
(
(0.314517 -0.000196094 -0.203825)
(0.28313 -0.00884168 -0.204613)
(0.266233 0.0193739 -0.209749)
(0.347702 0.0236489 -0.201072)
(0.40224 -0.00220359 -0.200876)
(0.275223 -0.0316148 -0.209275)
(0.825593 0.00553272 0.0306469)
(0.798807 -0.00813249 0.0403135)
(0.78478 0.00148951 0.0478564)
(0.826256 -0.0192947 0.0320093)
(0.847612 0.0117055 0.0278784)
(0.778544 -0.00856325 0.0465645)
(1.08555 0.00427301 -0.0244572)
(1.07222 0.00109525 -0.022285)
(1.06784 -0.00282879 -0.0167799)
(1.08592 -0.014078 -0.0268087)
(1.10062 0.00763021 -0.0307622)
(1.05981 0.00581648 -0.0172808)
(1.11841 0.002107 -0.111)
(1.11418 0.00205811 -0.110928)
(1.11329 -0.00225808 -0.110232)
(1.11854 -0.00630763 -0.111137)
(1.1242 0.00341877 -0.112722)
(1.10989 0.00610383 -0.110542)
(1.00556 -0.000261777 -0.0808704)
(1.00018 0.000359437 -0.0789138)
(1.00175 -0.000740252 -0.0805524)
(1.00376 -0.00184974 -0.0790508)
(1.00654 3.61226e-05 -0.0800525)
(1.00069 0.0010483 -0.0803997)
(0.924195 -0.00105733 -0.000482085)
(0.912132 -0.000561883 -0.00276193)
(0.915971 0.000455431 -0.00362848)
(0.919973 0.000758163 0.000321074)
(0.924237 -0.00200925 0.000643051)
(0.914026 -0.00289111 -0.00414854)
(0.922475 0.00154188 -0.00380869)
(0.907503 -0.000300048 -0.0163198)
(0.910934 0.000197804 -0.0142033)
(0.918949 -0.000617674 -0.00646117)
(0.92522 -0.000608541 0.000596637)
(0.905732 0.00073523 -0.0195323)
(0.804 0.000412787 -0.0984668)
(0.803306 -0.000997624 -0.11459)
(0.803778 0.000294731 -0.110738)
(0.805174 -0.000568553 -0.103121)
(0.799075 -0.000660231 -0.0939096)
(0.805251 0.000199637 -0.125411)
(0.348306 -0.00296317 -0.36371)
(0.357726 -0.000619492 -0.356778)
(0.357885 0.00222555 -0.356663)
(0.349846 0.00306027 -0.364022)
(0.335072 0.000591127 -0.371541)
(0.365011 -0.0022185 -0.349119)
(-0.102137 -0.000648089 -0.62803)
(-0.108381 0.00376998 -0.603454)
(-0.10445 -0.0012727 -0.604538)
(-0.105785 0.00131271 -0.628069)
(-0.112258 0.00642565 -0.648625)
(-0.106314 0.00308124 -0.581824)
(-0.180559 0.000732524 -0.642351)
(-0.208239 0.00528454 -0.624726)
(-0.206739 -0.00170347 -0.626127)
(-0.185476 0.00278968 -0.643109)
(-0.18009 0.00322457 -0.66383)
(-0.222158 0.00283467 -0.61253)
(-0.0848365 0.0152737 -0.49276)
(-0.12886 0.0109658 -0.487713)
(-0.126477 -0.0177027 -0.489928)
(-0.0881998 -0.0227115 -0.495162)
(-0.0638548 0.00950688 -0.510313)
(-0.142616 0.0284872 -0.488292)
(0.194957 -0.00754791 -1.0857)
(0.23115 0.00452642 -1.08031)
(0.236073 -0.0206824 -1.07508)
(0.125224 -0.0330481 -1.08842)
(0.034343 0.00287989 -1.10713)
(0.216533 0.0319701 -1.07343)
(1.27899 -0.0335851 -0.831849)
(1.31057 -0.00934486 -0.852304)
(1.32036 0.0166026 -0.8622)
(1.28893 0.0819056 -0.821439)
(1.32789 -0.044248 -0.817145)
(1.30012 -0.0197839 -0.852728)
(1.56253 -0.0138895 -0.277341)
(1.57914 -0.00401947 -0.276813)
(1.57978 0.00654946 -0.279927)
(1.5693 0.0341249 -0.274947)
(1.59326 -0.0134725 -0.275158)
(1.56177 -0.00589913 -0.281615)
(1.78002 -0.000764474 0.1583)
(1.77634 0.000228985 0.168153)
(1.77462 0.000418992 0.168474)
(1.78215 0.00159741 0.158646)
(1.79466 0.000705357 0.15523)
(1.75661 0.000678031 0.16527)
(2.04693 0.00203255 0.252243)
(2.04284 0.00224971 0.260292)
(2.04213 -0.00131384 0.260716)
(2.04865 -0.0058374 0.253062)
(2.05685 0.00381689 0.251463)
(2.0325 0.00515302 0.255796)
(2.36353 0.00259893 0.141807)
(2.36075 0.00234639 0.145486)
(2.36005 -0.00102063 0.145738)
(2.36477 -0.0040079 0.14347)
(2.36889 0.00314119 0.145484)
(2.35638 0.00468786 0.139304)
(2.74608 0.00643496 0.114906)
(2.76141 0.00328791 0.121913)
(2.75261 -0.00254791 0.119778)
(2.75411 -0.00489789 0.11838)
(2.75421 0.00285852 0.117387)
(2.75594 0.00566233 0.121343)
(3.26475 0.00925433 0.434674)
(3.29124 0.00436793 0.432844)
(3.27843 -0.00496102 0.42989)
(3.27665 -0.00907848 0.435836)
(3.27334 0.00668781 0.440251)
(3.28108 0.0123498 0.435381)
(4.01503 0.0035649 1.0444)
(4.0436 0.00433017 1.02787)
(4.03362 -0.00354375 1.02958)
(4.02545 -0.0039969 1.04305)
(4.02653 0.00612454 1.05511)
(4.01457 0.00926153 1.03024)
(4.49519 -0.0360382 1.04226)
(4.61514 -0.0145489 1.05882)
(4.58942 0.0221387 1.06198)
(4.51105 0.0234378 1.04232)
(4.51886 -0.0368149 1.04188)
(4.57873 -0.0340568 1.07305)
(3.56303 -0.0454512 0.609957)
(3.68221 -0.0133989 0.618457)
(3.66456 0.0190189 0.624252)
(3.57359 0.0189935 0.612275)
(3.55735 -0.0344866 0.615539)
(3.7002 -0.0386546 0.622912)
(1.68479 0.0762989 0.482606)
(1.57263 0.0698276 0.519228)
(1.56466 -0.135753 0.522425)
(1.71285 -0.161392 0.483651)
(1.78885 0.101839 0.486957)
(1.54344 0.161958 0.498165)
(-1.12687 0.00209091 -1.99337)
(0.28049 0.361876 -2.05048)
(0.580895 -0.543413 -2.00742)
(-2.34392 -0.433417 -1.97564)
(-3.53734 -0.0305993 -2.00646)
(0.118092 0.80045 -1.97854)
(1.66927 -0.333962 -1.17559)
(2.05919 0.318539 -1.40597)
(2.22876 -0.083701 -1.49938)
(2.12766 0.928616 -1.19764)
(2.81381 -0.601791 -1.20963)
(2.22366 0.512175 -1.42812)
(0.338115 -0.0813346 -0.351703)
(0.562948 0.0637488 -0.26386)
(0.587379 -0.129037 -0.219155)
(0.398823 0.114194 -0.338875)
(0.302705 -0.0120021 -0.305137)
(0.994064 0.428292 -0.135836)
(1.1574 -0.0131133 -0.612909)
(1.31918 0.0139153 -0.593734)
(1.32746 -0.0303268 -0.594336)
(1.1785 0.0327128 -0.606417)
(1.0907 8.64763e-05 -0.594413)
(1.5187 0.104784 -0.589086)
(2.33277 -0.00641472 -0.728296)
(2.38023 -0.00458184 -0.711435)
(2.36585 -0.00883249 -0.705236)
(2.34148 0.00815343 -0.728027)
(2.31498 -0.0170977 -0.72869)
(2.43071 0.0122798 -0.718423)
(3.53975 -0.0175028 -0.717176)
(3.57328 -0.0146359 -0.718729)
(3.55047 0.00961349 -0.707039)
(3.54663 0.0177882 -0.720551)
(3.5448 -0.0279455 -0.72034)
(3.55381 -0.0277111 -0.715292)
(4.5651 -0.016606 -0.785757)
(4.52475 -0.016319 -0.787739)
(4.51585 0.0170296 -0.779495)
(4.55434 0.0305304 -0.786179)
(4.6156 -0.0442518 -0.787524)
(4.47677 -0.0536514 -0.783978)
(5.55942 0.0373117 -1.04777)
(5.54857 0.0171831 -1.02633)
(5.49882 -0.0151767 -1.02219)
(5.62689 -0.00794544 -1.05423)
(5.66944 0.0118262 -1.05978)
(5.41073 0.00984557 -1.00677)
(6.17659 0.023783 -1.06726)
(6.39014 0.0197534 -1.1043)
(6.30682 -0.0177535 -1.08494)
(6.2605 0.0140277 -1.08255)
(6.27341 0.0307743 -1.09401)
(6.28497 0.0381618 -1.06553)
(6.77605 -0.104821 -0.114273)
(7.08315 -0.0298244 -0.421997)
(6.9813 0.0403106 -0.347889)
(6.83278 0.112628 -0.111436)
(7.06118 -0.103181 -0.125801)
(6.86576 -0.0554459 -0.446982)
(3.25196 -0.159743 2.29699)
(4.29954 -0.102651 2.29286)
(3.93778 0.100087 2.37244)
(3.17823 0.141878 2.28513)
(3.42264 -0.162186 2.11367)
(4.48303 -0.122476 2.33158)
(-1.10782 -0.0790122 3.6743)
(-1.25487 -0.0788096 4.77982)
(-1.21461 0.0891059 4.78357)
(-1.12653 0.013972 3.50829)
(-1.12875 -0.132806 3.19144)
(-1.11751 -0.175187 4.93274)
(-1.66547 0.00970025 -1.99164)
(-0.353008 0.479368 -2.13152)
(0.118197 -0.523203 -2.18607)
(-2.39899 -0.298214 -1.81658)
(-3.13281 0.0211624 -1.96577)
(-0.309483 0.831614 -2.06417)
(-1.89617 -0.100986 -0.192359)
(-1.47698 0.224057 0.141172)
(-1.19513 0.320974 -0.173867)
(-1.34962 0.65173 -0.443059)
(-1.5801 -0.0182772 -1.02995)
(-0.547619 0.212045 -0.00380717)
(0.947926 -0.183264 -0.474896)
(0.780042 -0.16485 -0.223951)
(0.76224 -0.0787696 -0.105765)
(0.949401 0.0783528 -0.447347)
(1.08019 -0.185245 -0.506897)
(0.922891 -0.0398114 0.589321)
(3.95835 -0.0938133 -1.92856)
(3.8266 -0.0645975 -1.77298)
(3.84842 -0.058223 -1.74996)
(3.96553 -0.0486408 -1.95346)
(4.04384 -0.036828 -2.08255)
(4.14407 0.0378162 -1.16675)
(7.77318 -0.0524484 -2.72191)
(7.67663 -0.0254195 -2.63331)
(7.74474 -0.0198836 -2.62964)
(7.70423 -0.042254 -2.74212)
(7.65489 0.00801706 -2.84258)
(7.95446 0.0460331 -2.40206)
(12.371 -0.11008 -3.03884)
(12.3084 -0.0732033 -3.12843)
(12.3414 0.0511403 -3.1266)
(12.3288 0.0891835 -3.02522)
(12.3037 -0.111726 -3.07597)
(12.4984 -0.10801 -3.05926)
(17.3752 -0.234721 -2.35395)
(16.8407 -0.143221 -2.56302)
(16.9931 0.134566 -2.55571)
(17.2074 0.270617 -2.37277)
(17.4713 -0.379003 -2.37412)
(16.7158 -0.363959 -2.5916)
(23.0028 0.222575 -0.732528)
(22.2963 0.192795 -0.868308)
(22.2247 -0.146138 -0.868646)
(23.1482 0.0685509 -0.787312)
(23.6911 -0.0164891 -0.74226)
(21.6919 0.00934354 -0.914433)
(17.2308 0.329921 0.834009)
(21.3321 0.363755 0.706043)
(19.9893 -0.374104 0.702188)
(18.702 -0.085192 0.832465)
(18.9719 0.378136 0.801871)
(20.5994 0.560181 0.744476)
(8.37569 -0.0983027 3.33695)
(10.9494 0.0240009 2.19387)
(10.1686 -0.0438511 2.54723)
(8.98851 0.156089 3.3546)
(9.01289 0.185421 3.18858)
(10.89 0.229238 1.95964)
(0.105779 -0.518936 9.90538)
(4.46429 -0.199582 8.99821)
(2.76157 0.157521 9.04606)
(0.647615 0.407092 9.93943)
(1.08104 -0.390917 10.2904)
(5.8644 -0.0641695 8.67336)
(-3.56752 -0.601967 1.33558)
(-3.96293 -0.333657 1.01416)
(-3.79177 0.338681 0.919164)
(-3.69547 0.191773 1.49646)
(-4.10452 -1.02006 1.82108)
(-3.85734 -0.710179 1.06461)
(-0.624572 0.173776 -0.523477)
(-0.55063 -0.0904048 -0.104072)
(-0.954464 -0.202129 -0.562034)
(-0.646983 0.549807 -0.264884)
(0.0346876 -0.132875 -0.00507018)
(-0.351338 0.116225 -0.315101)
(-1.86092 0.261112 -0.532944)
(-1.01949 -0.0651021 -0.0150473)
(-0.869332 -0.0690337 -0.51619)
(-0.885199 1.01116 -0.463809)
(-0.817304 0.127356 0.317209)
(-1.81058 -0.115162 -0.225601)
(-2.73285 0.287739 -0.0298286)
(-1.68818 0.601617 -0.0184063)
(-0.58334 0.648483 -0.581579)
(-0.774337 0.504241 -0.405898)
(-1.91019 -0.412252 0.452075)
(-2.67308 -0.211339 -0.0577277)
(-2.16815 0.469675 0.249372)
(-1.16893 1.3139 0.216895)
(-1.12169 0.909142 0.8892)
(-2.49065 0.0718368 0.431741)
(-2.15982 -0.371441 0.355491)
(-2.73206 -0.271507 0.161604)
(-0.0679262 0.400528 0.0941685)
(0.669057 0.805318 -0.22557)
(1.31154 0.179658 -1.06572)
(0.164112 0.337049 -0.505514)
(-1.85314 0.169296 0.76197)
(-2.50364 -0.200351 0.882272)
(0.978139 0.0432152 -0.329882)
(1.87232 0.361795 -1.34645)
(1.84821 0.156401 -1.84174)
(1.56149 -0.270403 -1.20188)
(1.83126 -0.506791 -0.724018)
(1.42191 0.110102 -0.775347)
(2.65519 -0.00449238 -0.691699)
(3.17959 0.323848 -1.65347)
(2.6161 0.577219 -1.83031)
(0.807564 0.249105 -0.201577)
(2.81969 -0.727604 -1.12527)
(2.38015 0.184397 -1.30525)
(3.15258 -0.120152 -0.409485)
(3.77728 0.186854 -1.56927)
(3.88345 0.439691 -2.02739)
(1.87312 0.500969 0.813889)
(4.30749 -0.908814 -0.960147)
(3.05097 0.158686 -1.04375)
(3.01431 -0.282525 0.108921)
(3.8921 -0.0418764 -1.39482)
(4.25732 0.207702 -2.0728)
(4.63323 0.309563 -0.699377)
(5.46884 -1.09888 -1.69682)
(3.125 0.272377 -0.908575)
(2.6274 -0.276961 0.79019)
(3.47452 -0.152026 -1.07768)
(4.23693 -0.352907 -2.04692)
(5.47102 -0.493389 -2.19308)
(5.34649 -0.864148 -2.3634)
(2.85705 0.634053 -0.840369)
(2.36726 -0.0908061 0.388504)
(2.44213 -0.00373479 -0.354643)
(3.2161 -0.849509 -1.67866)
(3.65961 -0.745916 -2.29554)
(3.69508 -0.291505 -2.79003)
(2.05511 0.812815 -0.656147)
(0.817084 -0.16064 0.128117)
(1.21559 -0.128295 -0.105241)
(1.47526 -0.456866 -0.818604)
(1.77084 -0.170874 -1.37099)
(1.49227 -0.0307404 -1.31827)
(0.589741 0.371827 -0.106162)
(-0.232635 -0.212015 -2.25395)
(-0.626183 -0.123008 -0.499397)
(-0.226026 -0.810782 -2.89852)
(-0.452914 0.410024 -1.37013)
(-0.113757 -0.00714136 0.013349)
(-0.225956 0.188701 -1.93202)
(-1.74181 -0.751784 -2.22981)
(-1.85849 -0.0352501 -0.0968983)
(-1.78807 -0.78665 -1.87355)
(-1.39661 0.69954 0.105756)
(-1.46484 -0.0873215 0.347631)
(-1.85544 0.642018 -2.31367)
(-2.51394 -0.724322 -2.15455)
(-2.94784 0.0683443 0.00499814)
(-2.72267 0.00149518 0.401362)
(-1.81037 0.209571 0.851544)
(-2.86545 -0.423236 -0.133773)
(-3.19424 0.626188 -2.22451)
(-3.56829 -0.286741 -1.56292)
(-3.91854 0.470003 0.725815)
(-3.9039 0.527948 3.44576)
(-3.80802 -0.218288 2.02907)
(-3.35909 -0.643627 0.453452)
(-3.9526 0.321385 -1.05449)
(-4.29769 0.240185 -8.05094e-05)
(-3.93702 1.09742 2.30541)
(-2.68202 -0.108614 4.09937)
(-3.06991 -0.879322 3.53331)
(-4.0436 -0.654558 3.07465)
(-4.54383 -0.0529008 2.19951)
(-4.01571 0.46287 1.71774)
(-4.08326 1.36176 3.30012)
(-2.4761 -0.274774 3.70555)
(-1.15737 -1.16933 3.14828)
(-0.503295 -0.259497 3.15957)
(-2.23825 0.540839 3.78632)
(-2.23542 0.735568 1.88114)
(-3.08287 1.19186 2.50275)
(-0.367195 -1.20902 3.09842)
(2.47262 -0.308051 3.79885)
(4.32113 -0.231215 2.79387)
(-2.21813 1.42545 2.03526)
(-1.06373 0.600808 0.512531)
(-6.48014 2.34938 1.31445)
(-2.37509 -0.390738 2.2498)
(3.23769 0.823525 5.00859)
(6.17229 -0.626755 3.16357)
(-3.90189 1.55323 0.247646)
(3.04956 -0.0877537 0.0260483)
(0.310123 2.05207 -0.0656424)
(-3.71015 2.54832 1.63452)
(2.99998 1.22297 3.78812)
(5.16786 -1.04731 2.08924)
(-4.54367 0.259373 -1.64997)
(3.4685 -0.378716 -0.168368)
(2.8429 0.915106 0.0707749)
(-3.50549 1.90597 1.89011)
(2.28335 0.660154 2.18521)
(4.32095 -1.63641 -0.96908)
(0.941685 0.952566 -0.374905)
(2.48958 -0.314739 -2.63075)
(4.63791 -0.215139 -0.0690124)
(3.07047 -1.33711 1.07922)
(2.33954 0.87835 -3.07009)
(3.77043 -0.711801 -5.86835)
(1.1635 1.67845 -0.293853)
(2.26965 0.292904 -3.37898)
(2.87914 0.499448 -3.67252)
(2.8036 0.0941913 -3.6787)
(3.76936 0.574308 -4.26936)
(3.36782 -0.681969 -3.94238)
(0.949325 -0.214006 -1.55717)
(0.62859 -0.793511 -2.3032)
(0.0702667 -0.838876 -1.64956)
(1.34655 -1.35499 -4.17462)
(0.852933 -0.69768 -3.65728)
(0.150666 0.491727 -1.05106)
(0.607928 0.90536 -2.0501)
(-1.53314 -1.6387 -0.930698)
(-1.11781 -0.593332 -2.53038)
(-1.16998 -1.3542 -3.83267)
(-1.08931 -0.488865 -2.89329)
(-1.22969 0.704796 -1.6661)
(-1.62216 1.71598 -1.71068)
(-1.89052 -2.1672 -0.792729)
(-1.82698 -0.863638 -2.88167)
(-2.01126 -0.945365 -2.7543)
(-2.17325 0.436613 -0.995432)
(-2.48264 1.3296 -1.63122)
(-3.10476 2.02574 -1.18397)
(-2.77591 -1.65981 -2.2309)
(-3.45581 -0.667458 -1.70375)
(-4.43948 0.179091 1.84952)
(-3.95213 0.502482 1.85147)
(-4.10257 1.15194 -1.50284)
(-4.58188 1.57405 -1.80994)
(-4.19544 -0.766979 -2.67528)
(-5.29019 0.164596 0.712441)
(-5.71377 0.541868 5.19247)
(-4.74455 -0.26268 4.11614)
(-4.97365 0.0388897 1.31194)
(-5.19872 0.626383 1.54528)
(-5.63608 -0.149348 -1.92018)
(-6.74202 0.629999 2.25401)
(-8.47999 0.183088 6.61072)
(-6.5751 -0.838923 6.46337)
(-5.54536 -0.175674 4.05686)
(-5.35775 0.318319 4.12486)
(-6.85812 -0.125716 -0.618296)
(-8.78639 0.189331 2.873)
(-9.0148 -1.12458 4.79111)
(-4.85203 -0.795383 3.39833)
(-4.41256 0.337104 2.98016)
(-4.99874 0.491185 2.10417)
(-6.7263 -0.462948 -0.645906)
(-9.52686 -0.639664 1.43034)
(-5.48162 -1.84838 1.2379)
(1.30545 -0.283548 3.22847)
(-0.140708 -0.176373 -0.365428)
(-3.2165 0.686522 -0.856406)
(-6.31129 -0.529186 -0.868392)
(-8.73343 -0.0402777 -0.122539)
(-4.96466 -0.240673 0.577594)
(0.48683 -0.252439 4.68602)
(0.956402 -1.27133 -0.437616)
(-1.03735 0.737559 1.32945)
(-4.52315 -0.74359 -1.00983)
(-5.01907 0.49409 1.1714)
(-6.20959 1.57335 3.4)
(-0.668314 0.966234 4.81832)
(1.96112 -0.347655 -2.1765)
(0.352241 0.857237 2.19662)
(-5.11213 -0.805805 0.575637)
(-0.778722 0.0713164 0.464059)
(-0.341521 -0.0561522 1.15594)
(0.987251 1.5504 -3.19663)
(3.42567 -0.202203 -6.12909)
(-1.97611 1.00613 0.823012)
(2.96985 0.70455 -4.36661)
(3.62559 1.09878 -5.58765)
(3.32157 0.709095 -5.08274)
(3.66539 0.73758 -4.43118)
(3.49897 -0.68589 -4.39769)
(2.40579 -0.925861 -3.46934)
(0.675114 -0.478417 0.460251)
(0.791697 -0.989911 -0.895979)
(1.72422 -0.836802 -3.28759)
(1.23445 -1.06165 -5.93261)
(0.480754 0.390383 -4.9963)
(0.434406 1.23804 -0.290106)
(-2.30897 -0.719565 1.32544)
(-1.56763 0.130588 -3.62962)
(-1.74923 -0.394197 -3.57128)
(-0.985233 -0.0484792 -6.90573)
(-1.13523 0.00628428 -7.09038)
(-2.26503 1.10046 -0.406027)
(-3.02229 -0.950557 3.04275)
(-1.57038 0.152967 -5.17791)
(-0.414196 -1.00921 -4.75416)
(0.865966 0.841819 -7.37757)
(-0.536518 0.259428 -6.44652)
(-2.60051 1.72387 1.19237)
(-3.30698 -0.913173 0.381539)
(-1.96562 -1.04626 -5.53875)
(-2.9486 -1.0579 -3.10251)
(-3.63201 1.00899 -2.04327)
(-2.79089 1.9564 -3.26883)
(-3.53128 1.67439 2.45188)
(-2.67299 -0.808863 -2.31488)
(-4.07951 -0.630539 -3.97757)
(-5.72974 -0.0913863 1.49893)
(-5.46422 0.767099 2.19671)
(-4.54471 1.28911 -0.0420659)
(-4.34692 0.804657 2.87908)
(-3.573 -0.740258 -0.94925)
(-6.34571 -0.46577 -0.845955)
(-7.77287 -0.227346 4.70865)
(-6.51342 0.262063 4.81635)
(-5.58929 0.47698 3.01096)
(-4.68878 0.204012 4.36207)
(-3.91017 -1.16169 1.29063)
(-7.62924 -0.682385 1.19403)
(-8.97618 -1.2228 5.93953)
(-5.89458 -0.475643 5.08105)
(-5.18099 0.00895568 4.51207)
(-3.63339 0.116633 4.27986)
(-4.16925 -1.52311 2.34403)
(-7.137 -1.78353 2.55461)
(-4.99706 -1.93362 3.76599)
(-1.14668 -0.884463 3.76994)
(-1.56339 -0.317778 3.32415)
(-0.942142 -0.0237867 3.02512)
(-5.93749 -0.802362 2.41204)
(-5.96784 -1.46881 2.50563)
(-3.16647 -1.94182 3.10242)
(-0.823895 -1.6234 3.72369)
(0.139569 -1.27909 1.10246)
(0.840433 -0.252145 1.71928)
(-5.05203 0.0200035 2.31874)
(-5.04081 0.0937461 2.94527)
(-4.98043 -0.383502 5.04769)
(-1.23764 -0.362432 4.8194)
(1.42566 -0.0208594 -1.85804)
(2.24559 0.032552 0.0881839)
(-6.1632 0.460404 3.02523)
(-7.79467 1.72823 3.676)
(-7.66302 1.42165 4.83135)
(-1.95845 1.96734 -1.03941)
(2.87734 0.0198618 -4.64107)
(-5.8826 -0.709669 2.36795)
(3.73667 0.15665 -3.77332)
(3.69331 0.474896 -3.75594)
(3.60379 0.85092 -3.71807)
(4.10573 1.01683 -4.25624)
(3.88805 -0.291552 -4.2466)
(3.33807 -0.737972 -3.55502)
(-2.96017 -0.00739637 -0.173634)
(-2.73705 0.317416 0.15899)
(-1.98957 -0.141459 0.384322)
(-3.14046 -0.0178251 -0.220339)
(-3.42363 -0.0718685 -0.609037)
(-2.00734 0.280681 0.372634)
(-2.9894 -0.153256 0.967452)
(-2.8182 0.0329135 1.6735)
(-2.29913 0.0443694 2.1095)
(-3.00466 0.297516 1.0939)
(-3.30791 -0.276908 0.716604)
(-2.49388 -0.132804 1.723)
(-2.93272 -0.224149 3.67242)
(-3.00456 -0.148235 3.17327)
(-2.68465 0.143099 3.09143)
(-2.89191 0.429372 3.75932)
(-3.13493 -0.108858 3.76765)
(-2.80374 -0.139429 3.59294)
(-1.45869 -0.044127 -2.9307)
(-2.16992 -0.0407246 -2.71686)
(-2.54528 0.109576 -2.43866)
(-1.24245 0.249232 -2.85142)
(-0.790796 -0.229119 -3.37366)
(-2.65721 -0.24366 -1.91098)
(-0.101795 -0.0338716 -3.60634)
(-0.40458 -0.101093 -3.43093)
(-0.74044 -0.0148143 -3.08805)
(0.0411366 0.215306 -3.49941)
(0.150595 -0.145018 -3.97521)
(-1.26443 -0.13827 -2.69314)
(0.0385001 -0.0112858 -5.47294)
(0.0751651 -0.0738636 -5.46833)
(0.0477143 -0.0180285 -5.36168)
(0.0500269 0.0834049 -5.43441)
(0.0524068 -0.0568202 -5.62141)
(-0.160761 -0.118941 -5.10221)
(0.465163 0.0165578 -4.30439)
(0.305126 0.0467179 -4.68454)
(0.302764 -0.172113 -4.56517)
(0.53303 -0.250816 -4.39092)
(0.599123 -0.0483448 -4.39388)
(-0.212152 0.124489 -4.29036)
(0.420749 0.0618297 -4.23088)
(0.475282 0.0957088 -4.41642)
(0.513848 -0.0451607 -4.33501)
(0.454535 -0.0530494 -4.29998)
(0.422168 0.113429 -4.31236)
(0.503548 0.16197 -4.25543)
(-0.215859 0.0121052 -4.78097)
(-0.201179 0.00834885 -4.84675)
(-0.178817 0.00500708 -4.84921)
(-0.211029 0.0112279 -4.80312)
(-0.246365 0.0269782 -4.79868)
(-0.142379 0.0131739 -4.83977)
(0.986112 0.00584621 -5.38098)
(0.953165 -0.00144734 -5.7003)
(0.977482 -0.0556059 -5.6159)
(1.01206 -0.0907499 -5.52321)
(1.01306 -0.0144872 -5.48698)
(0.895791 0.0465609 -5.63102)
(0.875939 0.0433598 -4.48935)
(0.881411 0.0208254 -4.53716)
(0.862623 -0.024447 -4.47432)
(0.88409 -0.0228912 -4.52553)
(0.865701 0.0171998 -4.53248)
(0.853652 0.04855 -4.43688)
(0.0158231 0.00523915 -5.01036)
(0.0128585 -0.00462147 -5.04184)
(0.00766823 5.19941e-05 -5.02877)
(0.0121256 0.00829612 -5.01899)
(-0.000194017 -0.0104749 -5.01122)
(0.012562 -0.0118225 -5.00615)
(2.10142 0.00366374 -7.06877)
(2.1233 -0.00207054 -7.28963)
(2.20541 -0.0204998 -7.21229)
(2.00947 -0.0564389 -7.17069)
(1.90499 -0.0017411 -7.17761)
(2.10443 0.0371176 -7.18762)
(1.03219 0.051098 -5.48224)
(1.11846 0.0326202 -5.51279)
(1.13358 -0.0342518 -5.44952)
(1.01707 -0.0855972 -5.52869)
(0.921852 0.0739464 -5.5422)
(1.15738 0.124354 -5.43706)
(-0.125175 0.0123841 -5.45741)
(-0.111223 0.00602785 -5.53614)
(-0.110614 -0.0071333 -5.52094)
(-0.119035 -0.0265353 -5.48349)
(-0.152737 0.0308056 -5.45255)
(-0.0676064 0.0474825 -5.52124)
(2.83208 -0.052471 -9.13501)
(2.84513 -0.0320148 -9.46095)
(2.95213 0.0362734 -9.45693)
(2.71319 0.131995 -9.12415)
(2.50274 -0.141671 -9.16494)
(3.0819 -0.114856 -9.33226)
(0.411626 0.0576868 -7.02362)
(0.740306 0.0441083 -7.15318)
(0.828691 -0.0414418 -7.13093)
(0.355766 -0.0512134 -7.05401)
(-0.00443025 0.0880726 -6.87058)
(1.11489 0.169803 -7.25528)
(-0.784175 0.0409327 -5.87746)
(-0.633543 0.036618 -6.01566)
(-0.606238 -0.0398803 -6.0277)
(-0.810025 -0.0926888 -5.93831)
(-1.01538 0.134092 -5.82185)
(-0.413712 0.181326 -6.10202)
(3.28382 -0.100904 -8.44534)
(2.71962 -0.0158822 -9.27896)
(2.80459 0.0536314 -9.16751)
(3.2451 0.419428 -8.51108)
(3.3732 -0.504646 -8.51487)
(2.59713 -0.349601 -9.411)
(-2.2224 0.163975 -6.96511)
(-1.86651 0.170356 -7.79956)
(-1.82323 -0.0880033 -7.72093)
(-2.21487 0.179935 -7.01794)
(-2.50115 -0.111257 -6.39353)
(-1.20218 0.0588771 -8.45331)
(-2.82715 0.117622 -5.38413)
(-2.39319 0.126335 -5.71967)
(-2.34128 -0.103776 -5.75756)
(-2.91397 -0.0353533 -5.42721)
(-3.42693 0.198796 -4.9575)
(-1.71904 0.249586 -6.22783)
(7.89671 0.186043 -1.16686)
(6.87737 0.206517 -2.39357)
(6.84548 -0.146528 -2.03739)
(8.1062 0.260018 -1.70272)
(8.57834 -0.318467 -1.71163)
(5.97929 -0.0364601 -2.4527)
(-2.16829 0.273194 -0.199836)
(-1.39914 0.294735 -2.24118)
(-1.6083 -0.19728 -1.91266)
(-1.64217 0.218439 -0.511621)
(-1.6253 -0.211577 0.19492)
(-1.65619 0.0239965 -3.19152)
(-5.59682 0.210463 -0.446381)
(-4.75804 0.280117 -1.40243)
(-4.85411 -0.201313 -1.39713)
(-5.61938 0.10558 -0.455333)
(-5.96029 0.114982 0.481773)
(-4.00208 0.199741 -2.48872)
(6.58747 0.314531 7.14637)
(10.0695 0.395503 6.47347)
(8.92137 -0.393325 6.7135)
(8.17252 -0.0686114 6.80415)
(8.13528 0.241142 6.86602)
(9.3178 0.601803 6.4823)
(-2.77681 0.10201 10.3681)
(0.0903284 0.249148 8.51167)
(-0.756274 -0.27521 8.97826)
(-1.81174 0.100496 10.0426)
(-2.12828 0.090907 10.5593)
(-0.162719 0.389119 7.93084)
(-5.44988 0.0369417 7.6803)
(-4.00918 0.167981 6.5026)
(-4.397 -0.168492 6.62697)
(-5.28571 0.128686 7.62624)
(-5.60792 -0.0234789 8.41942)
(-3.68934 0.120518 5.49123)
(1.15897 -0.161909 13.9083)
(5.82117 0.0604833 12.045)
(4.43949 -0.072644 12.5152)
(2.25303 0.33343 13.7423)
(1.69537 0.326199 14.1289)
(5.58479 0.396362 11.6233)
(-3.97497 -0.267654 17.4341)
(-0.503996 0.0199588 16.0247)
(-1.65306 -0.00555392 16.376)
(-3.50934 0.393082 17.384)
(-3.9569 0.0354093 18.0027)
(-0.173454 0.186959 15.1684)
(-4.39256 -0.196918 12.9049)
(-2.98426 0.0186071 12.548)
(-3.45567 -0.00829321 12.4785)
(-4.38031 0.206881 12.9216)
(-4.60277 -0.144201 13.6122)
(-2.44253 -0.014988 11.7359)
(-3.08895 -0.47639 14.5001)
(0.31408 -0.174706 15.4603)
(-1.52127 0.0367886 14.8225)
(-2.82206 0.350696 14.7439)
(-2.49432 -0.37757 15.2152)
(1.63229 -0.131741 15.4355)
(-2.89598 -0.505324 15.3486)
(-1.94864 -0.160461 16.8416)
(-2.89354 0.10657 15.8862)
(-2.78264 0.147427 15.7401)
(-2.71957 -0.609745 16.4959)
(-0.97468 -0.426049 16.681)
(-1.05165 -0.293351 9.92122)
(-1.32649 -0.0956365 10.9588)
(-1.40517 0.0981344 10.2161)
(-1.022 0.0262213 10.3248)
(-1.14833 -0.386551 11.0125)
(-1.08191 -0.329442 10.908)
(-3.15381 -0.146733 0.0596424)
(-3.12798 -0.0587514 0.137673)
(-3.11224 0.0849112 0.0604687)
(-3.17758 -0.0768455 0.147401)
(-3.26715 -0.248639 0.189022)
(-3.12575 -0.195966 0.289462)
(1.43904 -0.116664 1.64369)
(1.19263 -0.0169567 2.22578)
(1.51404 0.0065073 1.82494)
(1.1584 -0.156876 1.88636)
(0.981757 -0.246601 2.01966)
(0.655131 -0.186591 2.71551)
(1.68444 -0.0262911 -0.471258)
(1.67747 0.00947309 -0.382554)
(1.64231 -0.0103878 -0.509132)
(1.72979 -0.0524554 -0.327207)
(1.73132 -0.0648801 -0.277203)
(1.66943 -0.06101 -0.12535)
(2.12907 0.0478583 0.0532829)
(2.18912 0.0798326 -0.0411069)
(2.14218 0.000490045 -0.104543)
(2.22234 -0.0335607 0.0439891)
(2.33275 -0.0518396 0.0710162)
(2.27225 -0.0416692 0.047433)
(0.472589 0.0101564 -4.02376)
(0.221423 -0.0708175 -4.1382)
(-0.218872 -0.144375 -3.91139)
(-0.291529 -0.0991082 -4.03781)
(-0.365354 -0.0686767 -4.14078)
(-0.218351 -0.0247183 -4.10973)
(-0.811374 -0.0166444 -0.0614137)
(-0.947951 -0.0587832 -0.291482)
(-1.18498 0.0881844 -0.338618)
(-1.05655 0.322493 0.105475)
(-0.765923 0.212541 0.455075)
(-0.723723 0.0413029 0.470696)
(0.437175 -0.00207652 -0.21204)
(0.459193 -0.0126526 -0.232232)
(0.483452 -0.00344662 -0.238032)
(0.466242 0.00684314 -0.262856)
(0.46202 -0.00348476 -0.272891)
(0.454921 -0.00270989 -0.260842)
(0.0678121 -0.0542329 -1.95986)
(0.10425 -0.142616 -2.02745)
(0.0406846 -0.138542 -2.02187)
(-0.055829 -0.0884945 -2.02523)
(-0.0955682 -0.0269414 -2.11174)
(-0.141415 0.0132848 -2.08955)
(0.341072 0.00175147 -0.595975)
(0.344666 0.0016503 -0.561921)
(0.304667 0.054948 -0.443952)
(0.397979 0.122942 -0.429275)
(0.460535 0.0911299 -0.441686)
(0.462042 0.0203966 -0.488616)
(0.255191 -0.000191407 0.105622)
(0.260873 -0.000391671 0.104144)
(0.259877 0.0026924 0.100527)
(0.257795 0.00415468 0.106942)
(0.255382 -0.000682559 0.105231)
(0.255304 -0.00128511 0.0961018)
(0.345983 -0.0177805 -0.822351)
(0.307014 -0.0544167 -0.854537)
(0.23785 -0.0868658 -0.878548)
(0.189363 -0.0862365 -0.865317)
(0.152478 -0.0591299 -0.860123)
(0.155671 -0.0223719 -0.832472)
(-0.165263 0.00768892 -0.600493)
(-0.168774 0.0222181 -0.618759)
(-0.175874 0.0374539 -0.585518)
(-0.145867 0.0413802 -0.567019)
(-0.102516 0.0244355 -0.556803)
(-0.087821 0.00526607 -0.544445)
(-0.240505 -0.0019196 0.115321)
(-0.237815 -0.00394923 0.114103)
(-0.23584 -0.00354546 0.112244)
(-0.236553 -0.0033939 0.11448)
(-0.236224 -0.00489879 0.116)
(-0.230937 -0.00256065 0.105212)
(0.100208 -0.0165529 -0.952968)
(0.103309 -0.0352678 -0.962559)
(0.0938677 -0.03231 -0.965379)
(0.0775583 -0.0253733 -0.968153)
(0.0710743 -0.0158684 -0.970246)
(0.0575255 -0.00377489 -0.968758)
(0.140899 0.00321955 -0.728954)
(0.14392 0.0126867 -0.73951)
(0.150694 0.023643 -0.724291)
(0.171022 0.029858 -0.721377)
(0.184591 0.0232772 -0.720234)
(0.190569 0.00745925 -0.718355)
(-0.483833 -0.00312767 -0.176833)
(-0.480076 -0.00551334 -0.178111)
(-0.482856 -0.00433705 -0.180051)
(-0.488832 -0.00477421 -0.179232)
(-0.492388 -0.00701113 -0.178735)
(-0.486077 -0.00377843 -0.186215)
(-0.0548598 -0.0122118 -2.12231)
(-0.0482225 -0.0212011 -2.13909)
(-0.0495338 -0.0174225 -2.15103)
(-0.0949003 -0.0225582 -2.1434)
(-0.112793 -0.0153598 -2.14674)
(-0.104953 -0.00212188 -2.14442)
(-0.314073 0.00296244 -0.152422)
(-0.30913 0.00899811 -0.15617)
(-0.308183 0.00397981 -0.137114)
(-0.280131 -0.00133714 -0.109388)
(-0.25787 0.000930479 -0.0837032)
(-0.244791 -2.73212e-05 -0.0872978)
(-2.06223 -0.00603457 -0.0695579)
(-2.03524 -0.00603075 -0.0549443)
(-2.05792 0.00844355 -0.0563642)
(-2.05217 0.0123049 -0.0788979)
(-2.0398 -0.0045755 -0.0859052)
(-1.99963 -0.00844053 -0.0680591)
(0.385374 0.00968744 -3.7783)
(0.473619 -0.00683879 -3.69637)
(0.460787 0.0170951 -3.75169)
(0.456801 0.0390016 -3.75156)
(0.523787 0.0376755 -3.74719)
(0.564635 0.0174563 -3.55743)
(1.26537 0.0028499 -0.196478)
(1.26451 0.00725667 -0.196602)
(1.2572 -0.0173401 -0.178256)
(1.31866 -0.0370486 -0.221749)
(1.34995 -0.0121162 -0.264215)
(1.34148 -0.00243392 -0.224827)
(0.688716 0.0279331 -1.32189)
(-0.708315 1.02433 -1.05821)
(0.434774 1.47401 -2.4942)
(0.5914 0.148752 -5.1054)
(0.223601 -0.220579 -6.52597)
(0.416795 -0.177927 0.240747)
(0.740741 0.127085 -2.16839)
(-0.122507 0.422889 -3.82109)
(0.70891 0.727338 -1.9221)
(0.499075 -0.430645 -2.82163)
(0.493316 -0.642336 -3.79676)
(0.641644 -0.67164 -2.66043)
(0.172076 0.168606 -2.02197)
(-0.0924017 -0.00205919 -2.92255)
(0.921093 -0.058857 -0.425469)
(0.251637 -0.186886 -2.30138)
(-0.0181943 -0.024404 -3.44501)
(0.211241 -0.21476 -2.41993)
(-0.804696 0.362667 -2.3071)
(-0.548719 0.918675 -4.3507)
(-0.448915 1.09763 -4.90928)
(0.250836 0.470986 -5.30774)
(0.483509 -0.57355 -5.24086)
(-1.9027 -0.0304851 -1.42111)
(0.605656 0.375704 -3.8373)
(0.394412 0.476133 -4.61909)
(0.158069 0.131927 -4.55273)
(0.609524 -0.470166 -3.96658)
(1.18453 -0.7134 -4.49215)
(0.866116 -0.421268 -3.72233)
(0.0418325 0.0479469 -3.53751)
(0.0335979 0.107441 -3.64549)
(0.0378117 -0.0922133 -3.8536)
(0.0757534 -0.188632 -3.93843)
(0.0848985 -0.128114 -3.95325)
(0.265016 -0.0851973 -3.31777)
(-2.12315 0.775677 0.403468)
(-1.47204 1.64793 -3.25977)
(-1.55457 1.62521 -4.49601)
(-0.346774 0.556713 -6.11356)
(0.552636 -1.11205 -3.78894)
(-2.05986 -0.00840633 1.39403)
(1.24577 0.68261 -3.18302)
(0.695128 0.768692 -4.78992)
(0.203824 0.377314 -4.33962)
(0.520216 -0.824963 -3.86851)
(1.74471 -1.30971 -4.01067)
(1.28315 -0.665839 -2.65282)
(0.529419 0.132706 -2.79731)
(0.239558 0.0312008 -3.3889)
(0.423233 -0.189136 -3.32691)
(0.31305 -0.265913 -3.70253)
(0.507621 -0.215822 -3.5506)
(0.904197 -0.084774 -2.71131)
(-0.958479 1.21749 0.655993)
(-1.37965 2.21329 -3.4853)
(-2.72961 1.5883 -7.75336)
(-1.61056 0.355193 -9.95767)
(-0.120368 -1.60392 -3.62331)
(-1.73128 -0.661563 3.82338)
(1.53633 0.731424 -3.53894)
(0.506933 1.18905 -4.77269)
(-0.65541 0.502981 -4.84231)
(0.41515 -1.46523 -3.93415)
(2.37239 -2.06951 -2.36699)
(1.58084 -0.953501 -1.35561)
(0.810648 0.0136483 -2.51231)
(0.555319 -0.010633 -3.31437)
(0.542646 -0.270424 -3.55092)
(0.570548 -0.561338 -3.47157)
(1.19484 -0.498557 -2.62335)
(1.10241 -0.177184 -2.08635)
(1.58783 1.0174 -0.190706)
(-1.76627 0.0892692 -4.64995)
(-4.97608 -0.412216 -2.03737)
(-5.06609 0.760893 -0.549716)
(-1.38324 -0.908552 -0.255425)