/*--------------------------------*- C++ -*----------------------------------*\
| =========                 |                                                 |
| \\      /  F ield         | OpenFOAM: The Open Source CFD Toolbox           |
|  \\    /   O peration     | Version:  v1612+                                |
|   \\  /    A nd           | Web:      www.OpenFOAM.com                      |
|    \\/     M anipulation  |                                                 |
\*---------------------------------------------------------------------------*/
FoamFile
{
    version     2.0;
    format      ascii;
    class       volScalarField;
    location    "6.9";
    object      alpha.water;
}
// * * * * * * * * * * * * * * * * * * * * * * * * * * * * * * * * * * * * * //

dimensions      [0 0 0 0 0 0 0];

internalField   nonuniform List<scalar> 
320
(
1
1
1
1
1.6673e-05
1.63458e-05
1.69686e-05
1.67959e-05
1.63674e-05
1.69876e-05
1.89831e-05
1.90362e-05
1.70766e-05
1.61989e-05
1.47785e-05
1.62579e-05
0.999979
0.999988
0.999988
0.999985
0.999983
0.999981
0.999981
0.99998
0.99998
0.999983
0.999991
0.99998
1
1
1
1
1
1
1
1
1
1
1
1
1
1
1
1
1
1
1
1
1
1
1
1
1
1
1
1
1.63693e-05
1.62967e-05
1.5124e-05
1.71636e-05
1.36173e-05
1.37899e-05
1.44511e-05
1.32833e-05
1.6639e-05
1.59018e-05
1.3293e-05
1.31741e-05
1.67416e-05
1.58206e-05
1.44056e-05
1.43075e-05
1.49225e-05
1.62458e-05
1.66146e-05
1.54183e-05
0.999983
0.999978
0.999988
0.999981
0.999991
0.999992
0.999993
0.999993
0.999982
0.999986
0.999992
0.999993
0.999982
0.999991
0.999991
0.999991
0.999992
0.999984
0.999982
0.99999
1
1
1
1
1
1
1
1
1
1
1
1
1
1
1
1
1
1
1
1
1
1
1
1
1
1
1
1
1
1
1
1
1
1
1
1
1
1
1
1
1
1
1
1
1
1
1
1
1
1
1
1
1
1
1
1
1
1
1
1
1
1
1
1
1
1
1
1
1
1
1
1
1
1
1
1
1.67126e-05
1.76548e-05
1.69075e-05
1.40778e-05
1.52132e-05
1.51013e-05
1.76564e-05
1.71868e-05
1.49811e-05
1.75886e-05
1.73657e-05
1.62123e-05
1.68661e-05
1.61327e-05
1.55987e-05
1.66861e-05
1.66422e-05
1.79863e-05
1.70543e-05
1.78235e-05
1.71686e-05
1.68613e-05
1.68344e-05
1.64138e-05
1.73349e-05
1.80358e-05
1.77249e-05
2.0553e-05
0.999982
0.999981
0.999979
0.999988
0.999984
0.999983
0.999975
0.999982
0.999984
0.999978
0.999981
0.999982
0.999977
0.999984
0.99998
0.999977
0.999977
0.999983
0.999984
0.999979
0.999978
0.999979
0.99998
0.999981
0.999984
0.99998
0.999981
0.999977
1
1
1
1
1
1
1
1
1
1
1
1
1
1
1
1
1
1
1
1
1
1
1
1
1
1
1
1
1
1
1
1
1
1
1
1
1
1
1
1
1
1
1
1
1
1
1
1
1
1
1
1
1
1
1
1
1
1
1
1
1
1
1
1
1
1
1
1
1
1
1
1
1
1
1
1
1
1
1
1
1
1
1
1
1.83043e-05
1.74602e-05
1.65899e-05
1.67654e-05
0.999981
0.999983
0.999985
0.999986
)
;

boundaryField
{
    top_fluid_surface
    {
        type            inletOutlet;
        inletValue      uniform 0;
        value           nonuniform List<scalar> 
64
(
0
0
0
0
0
0
0
0
0
1.61989e-05
1.47785e-05
0
0
0
1.5124e-05
0
1.36173e-05
1.37899e-05
1.44511e-05
1.32833e-05
0
1.59018e-05
1.3293e-05
1.31741e-05
0
1.58206e-05
1.44056e-05
1.43075e-05
1.49225e-05
0
0
1.54183e-05
0
0
0
1.40778e-05
1.52132e-05
1.51013e-05
0
0
1.49811e-05
0
0
0
0
1.61327e-05
1.55987e-05
0
0
0
0
0
0
0
1.68344e-05
0
0
0
0
0
0
0
0
0
)
;
    }
    bottom_fluid_surface
    {
        type            zeroGradient;
    }
    lateral_surface_1
    {
        type            zeroGradient;
    }
    lateral_surface_2
    {
        type            zeroGradient;
    }
    lateral_surface_3
    {
        type            zeroGradient;
    }
    lateral_surface_4
    {
        type            zeroGradient;
    }
}


// ************************************************************************* //
