/*--------------------------------*- C++ -*----------------------------------*\
| =========                 |                                                 |
| \\      /  F ield         | OpenFOAM: The Open Source CFD Toolbox           |
|  \\    /   O peration     | Version:  v1612+                                |
|   \\  /    A nd           | Web:      www.OpenFOAM.com                      |
|    \\/     M anipulation  |                                                 |
\*---------------------------------------------------------------------------*/
FoamFile
{
    version     2.0;
    format      ascii;
    class       volVectorField;
    location    "6.9";
    object      U;
}
// * * * * * * * * * * * * * * * * * * * * * * * * * * * * * * * * * * * * * //

dimensions      [0 1 -1 0 0 0 0];

internalField   nonuniform List<vector> 
320
(
(1.63004e-06 -1.29249e-05 2.11887e-05)
(-4.70517e-06 -1.05418e-05 -1.478e-05)
(-1.7431e-05 -7.96122e-06 -1.3982e-05)
(4.58586e-06 1.95745e-05 -1.31283e-05)
(0.00060047 -0.000214427 -5.54878e-05)
(0.000355674 -0.000358768 -3.58464e-05)
(0.000533449 -0.000188312 -6.46792e-05)
(0.000359382 3.51785e-06 -2.47877e-05)
(0.000457445 2.38495e-05 -1.72336e-05)
(0.000307848 0.000203162 -8.8204e-05)
(0.000257477 0.000146034 -0.000270507)
(1.9696e-05 -7.78402e-06 -0.000242459)
(-0.000389854 0.000131569 -0.000100099)
(-7.55293e-05 -0.000278456 -7.16507e-06)
(-0.000213772 0.000182886 0.000175413)
(0.00017828 0.000103078 -3.48511e-05)
(1.91384e-05 -2.49855e-06 3.36753e-05)
(1.95703e-05 9.96629e-07 2.35558e-05)
(3.76288e-05 -1.36116e-06 -2.30054e-06)
(8.23364e-06 -2.93796e-06 -1.46894e-05)
(2.06952e-05 -1.13217e-05 4.73945e-06)
(9.54816e-06 1.75733e-05 3.38841e-05)
(-1.55856e-05 5.0585e-06 3.18561e-05)
(3.71061e-06 -1.83828e-05 -1.46766e-06)
(-2.09139e-05 2.4849e-05 4.71963e-05)
(-1.536e-05 -3.82164e-05 3.54756e-05)
(-2.49063e-05 -1.26547e-08 -4.65293e-05)
(-9.71115e-06 2.54959e-06 1.9879e-05)
(-6.6246e-06 -4.75066e-07 2.02861e-05)
(-8.11372e-06 -5.25796e-06 2.05892e-05)
(-1.54313e-05 -2.52324e-06 -1.16605e-06)
(9.26634e-07 -2.23742e-07 -1.47872e-05)
(-7.62315e-06 5.25307e-06 3.40574e-06)
(-3.64861e-06 -9.2837e-06 1.97405e-05)
(8.50894e-06 -1.60114e-06 1.87282e-05)
(4.99233e-07 1.13802e-05 -3.29672e-06)
(1.53651e-05 -1.31808e-05 2.95269e-05)
(1.05823e-05 2.07041e-05 2.39623e-05)
(1.67967e-05 2.58386e-07 -2.63311e-05)
(9.18591e-06 -6.62302e-06 1.22363e-05)
(1.15036e-06 -7.34192e-06 6.75348e-06)
(-2.6089e-06 -6.72723e-06 -7.0045e-06)
(-8.99083e-06 -4.54557e-06 -2.95918e-06)
(3.22528e-06 1.07348e-05 -8.58136e-06)
(-2.34492e-06 -2.76215e-07 6.21862e-06)
(-3.76365e-06 -3.41167e-06 -5.65736e-07)
(-8.64782e-06 -2.13828e-06 -5.18409e-07)
(4.01687e-07 -3.53161e-07 1.437e-06)
(-4.02714e-06 3.60717e-06 1.84078e-07)
(-2.06251e-06 -6.15422e-06 6.15785e-06)
(5.54382e-06 -1.72521e-06 5.54844e-06)
(8.57378e-07 6.64324e-06 9.07112e-07)
(8.85157e-06 -8.23734e-06 6.58262e-06)
(6.36221e-06 1.10272e-05 3.87395e-06)
(9.49933e-06 -8.13475e-08 -7.94711e-06)
(5.9838e-06 -3.3256e-06 3.1738e-06)
(1.88033e-05 9.40354e-05 -6.38926e-07)
(0.000514829 0.000136513 -1.71095e-05)
(0.000252946 -0.000111716 0.000112544)
(0.000319284 -1.7735e-05 -7.41792e-05)
(0.00033386 0.00023948 0.000357242)
(0.000510177 -0.000319889 0.000358711)
(0.000248682 -6.99648e-05 0.000256584)
(0.000228645 -0.000367702 0.000393542)
(0.000267485 -0.000391539 -2.63738e-05)
(-8.32876e-05 0.000144364 3.06008e-05)
(-8.09584e-05 0.000258069 0.00034994)
(0.000444101 0.000279355 0.000373839)
(0.000440864 0.000229341 -8.63013e-05)
(-0.000153168 5.95555e-05 0.000102388)
(0.000330076 -0.000139394 0.000223223)
(2.40619e-05 6.89058e-05 0.000224767)
(0.000309672 0.000222896 0.000169143)
(0.000414207 0.000380843 -9.82693e-06)
(0.000457713 1.76923e-05 -6.75718e-05)
(0.000560424 0.000209775 0.000108706)
(-2.50794e-05 -2.08554e-05 -1.34165e-05)
(9.72025e-07 2.13365e-06 2.6227e-05)
(1.00315e-05 -1.93549e-05 1.01558e-05)
(1.45753e-05 -3.70376e-06 5.72519e-06)
(-1.72627e-06 3.3354e-05 -5.32287e-05)
(1.69542e-05 -5.34776e-06 -7.3591e-05)
(-1.38909e-05 -1.90645e-06 -5.3255e-05)
(-1.41337e-05 -3.26206e-05 -9.07034e-05)
(2.55376e-06 -3.99865e-05 7.70149e-06)
(-1.7579e-05 -1.06128e-05 1.77075e-05)
(-2.43521e-05 1.5135e-05 -5.1696e-05)
(3.1298e-05 -1.46602e-06 -6.52308e-05)
(1.43875e-05 -5.97283e-06 4.73489e-05)
(-2.32553e-05 -1.51202e-06 -4.24854e-05)
(2.24717e-05 -3.13763e-05 -3.24438e-05)
(-2.22161e-05 -1.04876e-05 -4.87063e-05)
(8.267e-06 1.14479e-05 -5.8002e-05)
(1.61405e-05 2.69484e-05 -1.12556e-05)
(-6.74156e-07 -2.67126e-06 -2.03935e-06)
(3.26064e-05 8.07317e-06 -4.41695e-05)
(1.73432e-05 8.02561e-06 -4.32948e-06)
(2.64832e-07 -1.1905e-06 1.39297e-05)
(-2.65653e-06 8.59927e-06 1.18629e-05)
(-3.40378e-06 -1.85279e-06 2.46972e-06)
(6.07799e-06 -2.0432e-05 -2.5535e-05)
(-3.47886e-06 -9.22561e-07 -2.79189e-05)
(1.06804e-05 -2.73254e-06 -2.77133e-05)
(9.87867e-06 1.50041e-05 -4.23006e-05)
(-1.48358e-06 2.07608e-05 5.88039e-06)
(8.375e-06 4.15495e-06 1.58185e-05)
(1.47393e-05 -8.636e-06 -3.33216e-05)
(-1.60791e-05 7.29426e-07 -3.36791e-05)
(-5.84833e-06 4.5721e-06 3.19372e-05)
(1.48168e-05 -1.05663e-06 -2.52713e-05)
(-7.71219e-06 2.00798e-05 -2.27831e-05)
(1.8712e-05 7.14574e-06 -3.06168e-05)
(-3.21135e-08 -6.53177e-06 -3.63194e-05)
(-8.29971e-06 -1.43225e-05 -7.77413e-06)
(4.21852e-07 7.13351e-08 -4.89322e-06)
(-1.14515e-05 -5.50707e-06 -3.37112e-05)
(1.00633e-05 4.9399e-06 -3.18703e-06)
(1.23651e-06 3.64258e-08 6.08343e-06)
(-7.46749e-07 5.85758e-06 -2.49202e-06)
(-2.2912e-06 3.64394e-07 3.12971e-06)
(3.89279e-06 -1.10541e-05 -7.3746e-06)
(-2.38226e-06 -7.18705e-07 -1.32598e-05)
(5.81387e-06 -2.10634e-06 -8.25671e-06)
(6.10468e-06 8.27077e-06 -1.53367e-05)
(-1.32063e-06 1.10452e-05 2.02349e-06)
(4.69075e-06 1.86491e-06 -1.48769e-07)
(8.74373e-06 -5.92443e-06 -7.47189e-06)
(-9.57273e-06 -5.38518e-07 -1.10584e-05)
(-2.47829e-06 2.75461e-06 5.77127e-06)
(9.6995e-06 -9.97432e-07 -6.97756e-06)
(-3.55421e-06 1.06863e-05 -4.89296e-06)
(1.176e-05 3.30629e-06 -8.72716e-06)
(4.81322e-07 -3.89807e-06 -9.90883e-06)
(-4.33567e-06 -7.7206e-06 -3.6518e-06)
(1.32088e-06 2.8786e-07 -2.15797e-07)
(-6.72886e-06 -3.37556e-06 -5.92024e-06)
(3.45506e-07 -4.10041e-06 1.92528e-06)
(7.87282e-07 -2.78226e-06 -1.56603e-06)
(-5.09809e-06 -2.24774e-06 -1.20347e-06)
(1.22317e-06 6.39061e-06 -1.09384e-06)
(-2.8294e-06 -8.55673e-07 2.21378e-06)
(-1.79105e-06 -3.21075e-07 2.92397e-06)
(-2.84117e-06 -6.8719e-07 -2.59315e-09)
(1.91051e-06 -1.08621e-06 -1.38161e-06)
(-1.14944e-06 8.41254e-09 6.70997e-07)
(-2.94266e-07 -2.50647e-06 1.85026e-06)
(3.04345e-06 4.80408e-07 2.44768e-06)
(1.07858e-06 2.15073e-06 -4.28377e-07)
(5.68987e-06 -2.72545e-06 2.81542e-06)
(3.49414e-06 5.65748e-06 2.90048e-06)
(6.30709e-06 -5.1356e-07 -2.20369e-06)
(3.33277e-06 -1.01403e-06 2.33821e-06)
(5.70295e-06 2.34028e-06 -4.35549e-07)
(-3.47435e-07 -1.23045e-06 1.05673e-06)
(6.18805e-07 1.44016e-06 1.28515e-06)
(1.5916e-06 -1.83133e-06 -7.71866e-08)
(1.15557e-06 -5.78242e-06 -2.53247e-06)
(-1.50153e-06 -2.1654e-09 -2.94635e-06)
(1.65026e-06 -1.09052e-06 -3.25088e-06)
(1.27789e-06 4.18581e-06 -4.21481e-06)
(-1.36966e-07 5.23629e-06 5.36833e-07)
(1.57505e-06 3.86532e-07 1.38855e-06)
(3.6065e-06 -3.19923e-06 -3.415e-06)
(-3.43406e-06 -1.53909e-07 -3.61296e-06)
(-1.89222e-06 1.01266e-06 2.95595e-06)
(4.07384e-06 7.05298e-07 -2.93458e-06)
(-1.97248e-06 5.34917e-06 -2.57979e-06)
(5.02017e-06 1.57106e-06 -3.64864e-06)
(-4.40331e-07 -1.63055e-06 -4.1029e-06)
(-1.52328e-06 -4.26182e-06 -1.34665e-06)
(-7.99058e-07 -1.45982e-06 -9.34917e-07)
(-3.71046e-06 -1.90907e-06 -3.44081e-06)
(0.000758054 0.000189309 -5.90148e-05)
(0.000251283 0.000129627 -0.000105179)
(0.000807413 -4.30091e-05 -9.31371e-05)
(0.00051147 -0.000165188 0.000262911)
(0.000184946 -0.000300271 0.000176734)
(0.000181096 -2.9588e-05 0.000143713)
(-0.000501579 -0.000148152 -0.000141629)
(-0.000624221 0.000308524 -6.21961e-05)
(-0.000433645 -0.000272089 0.000210289)
(-0.000576289 -0.000275208 -0.00018732)
(-0.000639697 4.35765e-05 -0.000189151)
(-0.000169568 -0.000106967 -2.84537e-05)
(-0.000354775 0.000185413 -0.000100346)
(-0.000128196 -0.000116071 4.00726e-05)
(0.000197242 -0.000343795 3.49511e-05)
(0.000173532 -0.000395226 -4.80836e-05)
(0.000285451 -0.000595981 -5.68748e-05)
(0.000237444 -0.000240108 -0.000121962)
(-2.37334e-05 -0.000394832 -0.000110642)
(0.000157132 -0.000368464 -0.000162807)
(-1.86956e-05 -0.000223239 -0.000115599)
(0.00012631 -7.39311e-05 -5.60399e-05)
(4.58485e-05 0.00011065 7.50874e-06)
(0.00016861 0.000112793 -6.76058e-05)
(-6.4352e-05 0.000332031 -8.89527e-05)
(0.000118118 0.000244581 -0.000129864)
(0.000164296 0.000396611 -0.000192335)
(0.000304459 0.000329369 -0.000509449)
(3.85334e-05 2.23325e-05 1.55516e-05)
(-3.7749e-06 4.43578e-06 -1.69479e-05)
(1.76379e-05 1.03087e-06 2.16011e-05)
(2.54128e-05 -1.22332e-05 -4.7686e-05)
(-1.50738e-05 -1.43483e-05 -2.78905e-05)
(-2.21567e-05 1.74154e-05 1.88537e-05)
(-3.2801e-05 6.08362e-06 6.53745e-05)
(-4.41319e-05 3.53974e-05 2.96915e-05)
(-3.0757e-05 -1.35284e-05 -2.82468e-05)
(-5.23117e-05 -3.4018e-05 6.06962e-05)
(-6.28549e-05 5.11947e-06 7.42203e-05)
(-1.45851e-05 1.41268e-05 1.36416e-05)
(-8.75252e-06 2.02599e-05 -5.25396e-07)
(1.62855e-05 2.42557e-06 -2.30512e-05)
(7.67536e-06 -2.26074e-05 2.88937e-05)
(3.98973e-07 -2.28301e-05 -1.56633e-06)
(5.51993e-06 -4.73571e-05 3.28728e-05)
(3.75856e-06 2.94443e-06 1.27939e-05)
(4.48568e-06 -3.67256e-05 1.7533e-05)
(9.69117e-06 -2.47948e-05 3.53786e-05)
(1.2452e-05 -2.39459e-05 5.86114e-05)
(1.33011e-05 -3.34211e-05 -9.49831e-06)
(1.0409e-05 1.06441e-05 -4.85711e-05)
(3.44299e-05 1.34005e-07 3.18889e-05)
(-9.00905e-07 -8.95053e-06 3.53103e-06)
(-1.46401e-06 1.90166e-05 -1.85542e-07)
(2.0783e-05 1.83518e-05 3.6488e-05)
(8.81828e-06 1.03666e-05 3.68375e-05)
(-1.29259e-05 -1.19495e-05 5.96285e-06)
(4.8714e-06 -9.2169e-07 -8.35718e-06)
(-7.19827e-06 5.20869e-07 6.76868e-06)
(-7.45401e-06 6.54309e-06 -2.47358e-05)
(1.35949e-05 5.31734e-06 -1.88456e-05)
(1.58567e-05 -1.04579e-05 2.01714e-05)
(1.78923e-05 -4.45851e-06 4.29647e-05)
(2.38917e-05 -2.11823e-05 2.10789e-05)
(1.71425e-05 2.07957e-06 -1.34083e-05)
(2.68952e-05 1.31365e-05 2.93115e-05)
(3.30083e-05 -6.91247e-06 4.84199e-05)
(4.98483e-06 -1.0796e-05 3.10897e-06)
(1.45374e-06 -9.83966e-06 -2.34393e-06)
(-9.00577e-06 -2.89622e-07 -1.72575e-05)
(-2.68751e-06 1.0168e-05 1.52238e-05)
(-2.24901e-07 1.07718e-05 -2.37851e-06)
(-4.69782e-06 2.51315e-05 1.84461e-05)
(2.28631e-06 -6.07546e-07 7.6307e-06)
(-1.42518e-07 1.6997e-05 4.55403e-06)
(-5.63428e-06 1.43521e-05 1.91044e-05)
(-5.05251e-06 1.49213e-05 2.94107e-05)
(-4.48379e-06 2.32909e-05 -8.42485e-06)
(-1.84115e-06 -5.49806e-06 -3.63082e-05)
(-1.71285e-05 -6.30824e-06 1.70113e-05)
(-1.61939e-06 7.11232e-07 4.14804e-06)
(-2.09581e-06 -9.77507e-06 -2.72197e-06)
(-1.14655e-05 -5.32302e-06 2.1712e-05)
(-1.91364e-06 -2.39801e-06 1.21761e-05)
(-7.03659e-06 -7.03759e-06 2.85807e-06)
(2.572e-06 -5.84828e-07 -3.42309e-06)
(-3.26284e-06 4.53573e-07 5.42556e-06)
(-4.09192e-06 3.91461e-06 -8.0332e-06)
(8.26358e-06 3.79868e-06 -4.75454e-07)
(1.00348e-05 -6.64013e-06 1.3322e-06)
(9.41289e-06 -2.34367e-06 1.21812e-05)
(1.37094e-05 -1.20524e-05 8.16733e-06)
(8.41441e-06 -2.17338e-07 -2.6418e-06)
(1.42107e-05 8.13271e-06 1.01916e-05)
(1.86527e-05 -3.52711e-06 8.52468e-06)
(2.41336e-06 -7.56757e-06 4.64241e-06)
(4.03096e-08 -6.09672e-06 -2.6507e-07)
(-5.54814e-06 -6.9764e-07 -1.63212e-06)
(-1.49316e-06 4.89077e-06 5.30178e-06)
(3.40793e-07 5.48622e-06 5.75479e-07)
(-3.13498e-06 1.32933e-05 6.31157e-06)
(1.31639e-06 -9.51057e-07 4.16504e-06)
(9.20026e-07 9.49865e-06 4.58344e-06)
(-2.44131e-06 7.82813e-06 5.75563e-06)
(-2.62388e-06 8.38573e-06 9.69103e-06)
(-2.06634e-06 1.32036e-05 -9.83079e-07)
(-1.06646e-07 -4.20225e-06 -7.17318e-06)
(-9.57434e-06 -5.06783e-06 3.32587e-06)
(-1.2764e-06 7.58108e-07 -2.00977e-06)
(-1.09592e-06 -5.71874e-06 1.46071e-06)
(-7.28303e-06 -3.41791e-06 4.15617e-06)
(-1.13839e-06 -8.92983e-07 5.42394e-06)
(-4.39089e-06 -3.18872e-06 3.5908e-07)
(2.65415e-06 -6.6657e-07 -7.28319e-07)
(-1.9293e-06 -1.39952e-07 5.64692e-07)
(-1.19018e-06 9.15294e-07 -1.66981e-06)
(4.38141e-06 1.66906e-06 -2.18493e-06)
(3.04299e-06 -1.87454e-06 2.25924e-06)
(6.89846e-06 -2.18398e-07 4.66989e-06)
(8.55462e-06 -6.37581e-06 2.65732e-06)
(6.30508e-06 -1.92516e-07 -9.82771e-07)
(8.36426e-06 1.69312e-06 2.53907e-06)
(9.08865e-06 -1.77879e-06 5.30794e-06)
(2.39968e-06 -2.20927e-06 4.94435e-07)
(1.64318e-06 -3.50412e-06 -1.80148e-07)
(-1.49096e-06 1.19811e-06 -1.96676e-06)
(-4.41883e-07 4.33227e-06 1.84753e-06)
(2.46122e-07 3.21506e-06 -9.61109e-07)
(-1.1684e-06 7.69259e-06 1.97255e-06)
(2.19388e-07 9.49434e-07 1.06881e-06)
(1.35336e-06 5.581e-06 1.0212e-06)
(-4.69726e-07 3.66988e-06 1.59204e-06)
(-1.23819e-06 4.07821e-06 2.96808e-06)
(-8.29857e-07 6.19514e-06 -1.2778e-06)
(-3.92209e-07 -1.19336e-06 -3.89299e-06)
(-3.59424e-06 -8.8588e-07 1.7598e-06)
(3.52459e-07 -8.72269e-07 1.08873e-07)
(-2.04717e-07 -3.20122e-06 -8.19372e-08)
(-1.38898e-06 -1.25163e-06 2.46033e-06)
(4.52705e-07 -1.34706e-06 2.1003e-06)
(5.33049e-05 0.000127307 -0.000237774)
(0.000278109 6.62566e-06 -9.70754e-05)
(0.000425837 4.46119e-05 -1.6325e-05)
(0.00023047 -0.000315367 -4.34131e-05)
(-5.81591e-07 2.12954e-05 4.28103e-05)
(1.11704e-05 1.50326e-05 -2.84059e-05)
(3.41872e-05 1.54354e-05 -1.9915e-05)
(-4.66119e-06 -3.3926e-05 -2.92242e-05)
)
;

boundaryField
{
    top_fluid_surface
    {
        type            pressureInletOutletVelocity;
        value           nonuniform List<vector> 
64
(
(0 0 -5.54878e-05)
(0 0 -3.58464e-05)
(0 0 -6.46792e-05)
(0 0 -2.47877e-05)
(0 0 -1.72336e-05)
(0 0 -8.8204e-05)
(0 0 -0.000270507)
(0 0 -0.000242459)
(0 0 -0.000100099)
(-7.55293e-05 -0.000278456 -7.16507e-06)
(-0.000213772 0.000182886 0.000175413)
(0 0 -3.48511e-05)
(0 0 -6.38926e-07)
(0 0 -1.71095e-05)
(0.000252946 -0.000111716 0.000112544)
(0 0 -7.41792e-05)
(0.00033386 0.00023948 0.000357242)
(0.000510177 -0.000319889 0.000358711)
(0.000248682 -6.99648e-05 0.000256584)
(0.000228645 -0.000367702 0.000393542)
(0 0 -2.63738e-05)
(-8.32876e-05 0.000144364 3.06008e-05)
(-8.09584e-05 0.000258069 0.00034994)
(0.000444101 0.000279355 0.000373839)
(0 0 -8.63013e-05)
(-0.000153168 5.95555e-05 0.000102388)
(0.000330076 -0.000139394 0.000223223)
(2.40619e-05 6.89058e-05 0.000224767)
(0.000309672 0.000222896 0.000169143)
(0 0 -9.82693e-06)
(0 0 -6.75718e-05)
(0.000560424 0.000209775 0.000108706)
(0 0 -5.90148e-05)
(0 0 -0.000105179)
(0 0 -9.31371e-05)
(0.00051147 -0.000165188 0.000262911)
(0.000184946 -0.000300271 0.000176734)
(0.000181096 -2.9588e-05 0.000143713)
(0 0 -0.000141629)
(0 0 -6.21961e-05)
(-0.000433645 -0.000272089 0.000210289)
(0 0 -0.00018732)
(0 0 -0.000189151)
(0 0 -2.84537e-05)
(0 0 -0.000100346)
(-0.000128196 -0.000116071 4.00726e-05)
(0.000197242 -0.000343795 3.49511e-05)
(0 0 -4.80836e-05)
(0 0 -5.68748e-05)
(0 0 -0.000121962)
(0 0 -0.000110642)
(0 0 -0.000162807)
(0 0 -0.000115599)
(0 0 -5.60399e-05)
(4.58485e-05 0.00011065 7.50874e-06)
(0 0 -6.76058e-05)
(0 0 -8.89527e-05)
(0 0 -0.000129864)
(0 0 -0.000192335)
(0 0 -0.000509449)
(0 0 -0.000237774)
(0 0 -9.70754e-05)
(0 0 -1.6325e-05)
(0 0 -4.34131e-05)
)
;
    }
    bottom_fluid_surface
    {
        type            noSlip;
    }
    lateral_surface_1
    {
        type            noSlip;
    }
    lateral_surface_2
    {
        type            noSlip;
    }
    lateral_surface_3
    {
        type            noSlip;
    }
    lateral_surface_4
    {
        type            noSlip;
    }
}


// ************************************************************************* //
