/*--------------------------------*- C++ -*----------------------------------*\
| =========                 |                                                 |
| \\      /  F ield         | OpenFOAM: The Open Source CFD Toolbox           |
|  \\    /   O peration     | Version:  v1612+                                |
|   \\  /    A nd           | Web:      www.OpenFOAM.com                      |
|    \\/     M anipulation  |                                                 |
\*---------------------------------------------------------------------------*/
FoamFile
{
    version     2.0;
    format      ascii;
    class       surfaceScalarField;
    location    "4.7";
    object      alphaPhi;
}
// * * * * * * * * * * * * * * * * * * * * * * * * * * * * * * * * * * * * * //

dimensions      [0 3 -1 0 0 0 0];

internalField   nonuniform List<scalar> 
2916
(
-6.45743e-06
0.0644697
-1.71467e-07
-5.02509e-06
0.0644707
-1.713e-07
-1.16633e-06
0.0644707
-1.71356e-07
8.53759e-07
0.0644708
-1.71373e-07
2.64739e-06
0.0644706
-1.7132e-07
0.0644698
-1.71532e-07
-5.23632e-06
0.128659
-4.29634e-07
-4.85568e-06
0.128664
-4.29539e-07
-8.18654e-07
0.128663
-4.29596e-07
1.11996e-06
0.128663
-4.29588e-07
1.68931e-06
0.128663
-4.29518e-07
0.128661
-4.29756e-07
-2.43991e-06
0.195539
-6.08778e-08
-3.54123e-06
0.195548
-6.08842e-08
-4.59247e-07
0.195546
-6.08812e-08
1.35824e-07
0.195547
-6.09109e-08
-8.01582e-07
0.195548
-6.09146e-08
0.195543
-6.08546e-08
1.62089e-06
0.205077
0.0172231
-1.43112e-06
0.205094
0.0172234
-7.93787e-07
0.20509
0.0172219
-1.95959e-06
0.20509
0.0172234
-4.66815e-06
0.205093
0.0172235
0.205081
0.017221
1.15381e-06
0.0119983
0.125469
-1.43074e-06
0.0120313
0.125465
-2.69892e-06
0.0120243
0.125465
-5.59465e-06
0.0120244
0.125466
-7.86353e-06
0.0120319
0.125464
0.0120074
0.125463
8.42918e-06
-0.498536
0.332374
-3.1279e-07
-0.498504
0.332391
-4.29027e-06
-0.498504
0.332382
-5.95103e-06
-0.498502
0.332379
-1.39137e-05
-0.498495
0.332385
-0.498529
0.332374
1.14734e-06
-1.08126
0.581607
1.28747e-05
-1.08125
0.581618
5.36576e-06
-1.08122
0.581615
-3.76996e-06
-1.08122
0.581617
-1.1367e-05
-1.08122
0.58162
-1.08126
0.581612
-1.3171e-05
-1.54772
0.465415
1.89236e-05
-1.54777
0.46543
1.3447e-05
-1.54771
0.465432
4.36232e-07
-1.54771
0.465436
-5.3946e-06
-1.54772
0.465443
-1.54775
0.465419
8.08746e-06
-1.68019
0.131407
2.43223e-05
-1.68031
0.131473
1.3593e-05
-1.68022
0.131473
-2.94846e-07
-1.68022
0.131478
-1.0923e-05
-1.68026
0.131497
-1.68022
0.131409
0.000125206
-1.35614
-0.325213
2.73306e-05
-1.35628
-0.324972
-1.24203e-05
-1.35619
-0.325035
-2.03854e-05
-1.3562
-0.325054
-6.92958e-05
-1.35626
-0.324993
-1.35616
-0.325169
0.000227573
-0.64275
-0.714587
9.80508e-06
-0.642795
-0.714239
-4.06424e-05
-0.642756
-0.714354
-3.65269e-05
-0.642777
-0.714398
-0.000147298
-0.642809
-0.714306
-0.642745
-0.714536
-2.05374e-05
-0.643501
-3.26396e-05
-0.643555
-1.53613e-05
-0.643546
-2.13832e-05
-0.643543
-5.38739e-05
-0.643548
-0.643571
-2.39212e-12
3.21677e-08
-3.1544e-07
-9.77783e-13
3.21648e-08
-3.15277e-07
6.8283e-14
3.21657e-08
-3.15334e-07
1.18311e-12
3.2166e-08
-3.15346e-07
2.70441e-12
3.21651e-08
-3.15287e-07
3.21685e-08
-3.15491e-07
-3.39054e-12
7.03907e-08
-6.06713e-07
-1.53294e-12
7.03882e-08
-6.06627e-07
1.91993e-13
7.03896e-08
-6.06683e-07
2.24471e-12
7.03889e-08
-6.06663e-07
4.30595e-12
7.03867e-08
-6.06577e-07
7.03929e-08
-6.06804e-07
-2.72314e-12
7.47684e-08
-2.04116e-07
-5.12913e-13
7.47672e-08
-2.04127e-07
-1.10693e-13
7.47688e-08
-2.04111e-07
1.90869e-12
7.47668e-08
-2.04127e-07
4.53427e-12
7.47654e-08
-2.04124e-07
7.47669e-08
-2.04052e-07
-5.33397e-08
0.00896194
4.6602e-05
-1.85229e-08
0.00896146
4.67376e-05
4.10095e-09
0.00896106
4.66714e-05
2.31301e-08
0.00896166
4.66674e-05
3.96396e-08
0.00896151
4.67139e-05
0.00896081
4.66853e-05
-1.09695e-07
0.038727
-0.00116827
-3.46502e-07
0.038753
-0.00116645
2.68878e-07
0.038742
-0.00116723
-1.60147e-07
0.0387419
-0.00116727
-9.70835e-07
0.0387506
-0.00116664
0.038734
-0.00116724
3.6754e-05
-0.177535
-0.0233549
-1.95787e-06
-0.177511
-0.0233549
-6.05106e-06
-0.177512
-0.0233546
-2.03256e-06
-0.177504
-0.0233502
-2.7108e-05
-0.177495
-0.0233525
-0.177522
-0.0233501
4.41985e-05
-0.887558
0.254012
1.14517e-05
-0.887525
0.254083
1.43805e-07
-0.88751
0.254045
-7.61724e-06
-0.887502
0.254042
-4.33537e-05
-0.887481
0.254063
-0.887561
0.254016
4.75931e-05
-1.14216
0.462293
2.03203e-07
-1.1423
0.462557
7.58166e-08
-1.14222
0.462438
3.96996e-06
-1.14221
0.462439
-3.30779e-05
-1.14224
0.462529
-1.14222
0.462355
0.000165692
-1.06074
0.0487948
5.37014e-06
-1.06088
0.0491926
-8.06698e-06
-1.06079
0.0490322
2.21298e-05
-1.0608
0.0490141
-4.80921e-05
-1.06084
0.0491454
-1.06077
0.0488842
0.000529235
-0.765248
-0.622188
1.42838e-05
-0.765091
-0.621197
-6.46807e-05
-0.765106
-0.621588
5.39039e-06
-0.765185
-0.62169
-0.000207617
-0.765185
-0.621386
-0.765138
-0.621956
0.000233004
-0.384381
-1.08722
-3.48568e-05
-0.384111
-1.08655
-8.37654e-05
-0.384166
-1.08682
-2.15253e-05
-0.384264
-1.08694
-5.26223e-05
-0.384271
-1.08676
-0.384198
-1.0871
-0.000313487
-1.0261
-7.76228e-05
-1.02635
-3.46354e-05
-1.02625
-1.40153e-05
-1.02632
0.000160699
-1.02644
-1.02617
-2.87931e-12
-1.58198e-07
-9.25495e-08
3.33287e-13
-1.58126e-07
-9.24672e-08
1.62428e-12
-1.58151e-07
-9.24918e-08
3.2269e-12
-1.5815e-07
-9.24992e-08
5.99147e-12
-1.58122e-07
-9.24693e-08
-1.58221e-07
-9.25699e-08
-1.79628e-11
7.75264e-08
-3.85492e-07
3.50416e-12
7.75112e-08
-3.85434e-07
9.61449e-12
7.75302e-08
-3.85465e-07
1.78939e-11
7.75163e-08
-3.85481e-07
3.81147e-11
7.74953e-08
-3.85408e-07
7.75676e-08
-3.85533e-07
-1.92781e-11
-1.04866e-07
-1.63369e-07
-4.20668e-12
-1.04982e-07
-1.63317e-07
1.17618e-12
-1.04926e-07
-1.63327e-07
6.81412e-12
-1.04938e-07
-1.63333e-07
2.16539e-11
-1.04963e-07
-1.6332e-07
-1.04731e-07
-1.63364e-07
3.69898e-09
4.62165e-05
-1.00808e-06
-2.93548e-10
4.63616e-05
-1.01026e-06
-2.65572e-10
4.62912e-05
-1.00977e-06
3.61863e-10
4.62869e-05
-1.0102e-06
-1.04735e-09
4.63359e-05
-1.01064e-06
4.63036e-05
-1.00878e-06
4.48778e-07
-0.00132781
0.000104403
4.81267e-08
-0.00132452
0.000103975
-1.97585e-08
-0.00132588
0.000104143
-2.12283e-08
-0.00132613
0.000104268
-1.72501e-07
-0.00132512
0.000104109
-0.00132622
0.000104239
1.27656e-05
-0.0225504
-0.00512776
-1.55525e-06
-0.0225263
-0.00512011
-2.07827e-06
-0.022537
-0.00512459
-4.3e-07
-0.0225376
-0.00512219
-8.89322e-06
-0.022531
-0.00511954
-0.0225427
-0.00512403
5.11776e-05
-0.537265
-0.00187528
-1.3142e-06
-0.537247
-0.00189053
-7.24776e-06
-0.537251
-0.00188396
-2.87575e-06
-0.537242
-0.00188111
-4.10971e-05
-0.537242
-0.00188683
-0.537223
-0.00187953
0.000280591
-0.706584
-0.044795
5.04839e-06
-0.706609
-0.0442886
-2.16521e-05
-0.706594
-0.0445193
1.54429e-05
-0.706607
-0.044561
-0.00015321
-0.706618
-0.0443695
-0.706586
-0.044681
0.000329387
-0.497459
-0.18426
-3.0512e-06
-0.497057
-0.18398
-2.44155e-05
-0.497232
-0.1841
2.82251e-05
-0.497291
-0.184152
-0.000180903
-0.497178
-0.18402
-0.497353
-0.184218
-0.000222891
-0.224593
-0.287156
-2.40304e-05
-0.223808
-0.287599
2.51103e-05
-0.224181
-0.287393
-1.18582e-06
-0.224191
-0.287386
8.55799e-05
-0.223934
-0.287507
-0.224493
-0.287306
-0.000731772
-0.140064
-0.00631974
-6.39152e-05
-0.139434
-0.00630996
3.93855e-05
-0.139723
-0.00632109
-2.56671e-05
-0.139727
-0.00630958
0.000310012
-0.139544
-0.00630061
-0.139949
-0.00634094
-0.000328926
-0.151808
-7.47472e-05
-0.148607
-7.68017e-05
-0.150539
1.32163e-06
-0.150123
0.000300883
-0.148756
-0.153006
-1.0343e-12
-4.52648e-08
-1.25244e-08
1.16108e-13
-4.5262e-08
-1.25094e-08
2.31838e-13
-4.52601e-08
-1.25144e-08
5.40281e-13
-4.52615e-08
-1.25138e-08
1.66306e-12
-4.52571e-08
-1.25038e-08
-4.52619e-08
-1.25276e-08
-1.33154e-11
3.96535e-08
-1.73818e-07
6.51428e-12
3.96242e-08
-1.73756e-07
7.55829e-12
3.96478e-08
-1.73786e-07
5.35486e-12
3.96224e-08
-1.73763e-07
1.30908e-11
3.96542e-08
-1.73716e-07
3.96486e-08
-1.7382e-07
-7.81747e-12
1.75695e-07
-9.34297e-09
-2.21142e-13
1.75427e-07
-9.34235e-09
3.64974e-13
1.75535e-07
-9.34142e-09
-1.24307e-12
1.75656e-07
-9.33845e-09
2.31135e-12
1.75533e-07
-9.33893e-09
1.75565e-07
-9.34897e-09
1.98867e-10
-1.00668e-06
-3.2995e-08
1.39707e-11
-1.00812e-06
-3.29987e-08
-3.98297e-11
-1.00762e-06
-3.30029e-08
-3.69407e-11
-1.00775e-06
-3.30175e-08
-1.06549e-10
-1.00827e-06
-3.30152e-08
-1.00744e-06
-3.29991e-08
8.59727e-08
8.64782e-05
1.17423e-05
5.02561e-10
8.62226e-05
1.17586e-05
-1.52975e-08
8.63258e-05
1.17497e-05
6.31541e-09
8.64088e-05
1.17482e-05
-2.76592e-08
8.63039e-05
1.17565e-05
8.63868e-05
1.17361e-05
8.016e-07
-0.00863049
0.000309876
-3.91243e-07
-0.00855483
0.000306412
-6.90947e-07
-0.0085908
0.00030777
-7.98348e-08
-0.00859786
0.000309773
-3.87067e-07
-0.00856922
0.000308116
-0.00860414
0.000309242
-4.3984e-05
-0.263858
8.70691e-05
-1.25135e-05
-0.263761
8.72228e-05
9.85522e-06
-0.263783
8.71191e-05
5.25759e-06
-0.2639
8.71773e-05
9.03457e-06
-0.263856
8.72997e-05
-0.263836
8.74023e-05
-0.000224333
-0.221965
-3.27368e-06
-1.22686e-05
-0.221952
-3.32801e-06
4.19982e-05
-0.221936
-3.30176e-06
9.77516e-06
-0.222022
-3.28903e-06
8.66979e-05
-0.22201
-3.31098e-06
-0.221999
-3.28552e-06
-0.000334344
-0.0902352
-9.9755e-05
-1.2809e-05
-0.0903086
-9.98062e-05
4.97739e-05
-0.0902743
-9.97983e-05
5.19896e-07
-0.090285
-9.97402e-05
0.000146319
-0.0902937
-9.98203e-05
-0.0903184
-9.96754e-05
-0.000133092
0.00109791
-0.0013615
-7.08781e-06
0.00109648
-0.00136258
2.35503e-05
0.00109861
-0.00136237
-2.74132e-06
0.00109623
-0.00136173
4.28663e-05
0.00109444
-0.00136317
0.00110169
-0.00136065
-3.47294e-07
-0.000973679
-0.00100289
8.96206e-09
-0.000958748
-0.00100395
6.16741e-08
-0.00097052
-0.00100382
-2.79093e-08
-0.000963214
-0.00100297
1.24146e-07
-0.000954206
-0.00100393
-0.00098897
-0.00100306
2.4327e-06
-0.0291964
6.19613e-08
-0.0291328
-1.81719e-06
-0.0291695
9.03192e-07
-0.0291694
4.78282e-06
-0.02918
-0.029182
1.60418e-12
-5.02162e-08
4.86755e-09
4.41044e-12
-5.16667e-08
4.9584e-09
7.40016e-12
-4.84278e-08
4.67059e-09
9.81702e-12
-5.2049e-08
4.9399e-09
4.28429e-11
-5.65161e-08
5.29169e-09
-4.11967e-08
3.96127e-09
-1.16514e-10
-5.63494e-07
4.15547e-07
5.35091e-10
-5.75596e-07
4.22876e-07
-1.3008e-09
-5.3125e-07
3.9319e-07
1.28411e-09
-5.67441e-07
4.1623e-07
1.49493e-08
-6.24216e-07
4.5014e-07
-4.30489e-07
3.28178e-07
-1.33174e-08
-3.04841e-05
2.65984e-05
1.17407e-07
-3.10568e-05
2.6931e-05
-3.69113e-08
-2.87994e-05
2.5406e-05
1.66621e-07
-2.99078e-05
2.5996e-05
1.14151e-06
-3.21909e-05
2.7234e-05
-2.41178e-05
2.2356e-05
7.31599e-08
-0.000416384
0.000299719
4.87051e-06
-0.000427623
0.000303436
3.29155e-06
-0.000392968
0.000288435
5.48131e-06
-0.000407217
0.000294864
1.5604e-05
-0.000426905
0.00030058
-0.000336273
0.000263148
3.21998e-07
-0.0114359
0.00189649
4.7381e-05
-0.0109858
0.00189579
4.6672e-05
-0.00817726
0.00181524
4.53026e-05
-0.00825438
0.00182193
5.08189e-05
-0.0082049
0.00182132
-0.00447634
0.00176205
0.000351855
-0.117314
-0.000707841
0.000534576
-0.117061
-0.000648571
0.00101461
-0.112126
-0.000592737
0.000829055
-0.108717
-0.00052373
-0.000487491
-0.116352
-0.000226863
-0.102569
-0.000357284
0.00152191
-0.164199
-0.00860899
0.00169962
-0.164514
-0.00837126
0.00401999
-0.164074
-0.00884187
0.00333772
-0.163778
-0.00766838
-0.00330441
-0.170834
-0.00633472
-0.163764
-0.00900774
0.00200671
-0.179188
-0.0284795
0.00224851
-0.179474
-0.0274197
0.0061388
-0.184369
-0.030069
0.00476749
-0.183262
-0.0235614
-0.00678654
-0.186439
-0.0160885
-0.189812
-0.0314844
0.000248159
-0.0992483
-0.126552
0.000116244
-0.0999696
-0.12788
0.00218324
-0.103997
-0.133858
-0.00023153
-0.101702
-0.129277
-0.00411746
-0.103807
-0.129492
-0.108198
-0.140483
1.15792e-06
0.0258686
-0.163727
-8.88418e-05
0.0255138
-0.167809
0.00302396
0.0249525
-0.175839
-0.00080365
0.0238795
-0.157899
-0.00712676
0.0214139
-0.15632
0.0230791
-0.186498
0.000226353
0.00373485
-0.0054006
0.000541904
0.00364832
-0.00563954
0.00196482
0.00352229
-0.011249
0.000345914
0.00321757
9.22692e-05
-0.00283158
0.00306318
0.00234909
0.0031903
-0.0187079
5.39813e-05
0.00329107
0.000133845
0.00322444
0.000340798
0.00300931
8.46056e-05
0.0031988
-0.000206409
0.00314191
0.00273587
-4.01439e-13
-5.6439e-10
2.52756e-09
-2.65077e-14
-6.47408e-10
2.60509e-09
8.25631e-13
-5.67445e-10
2.42755e-09
1.49504e-12
-8.86358e-10
2.72504e-09
1.00727e-11
-1.08163e-09
2.97913e-09
-3.99478e-10
1.98711e-09
-4.22431e-10
1.8738e-07
1.97384e-07
-2.01787e-10
1.85866e-07
2.04516e-07
-1.56189e-09
1.75395e-07
1.88726e-07
3.73739e-10
1.60425e-07
2.20993e-07
7.34301e-09
1.62796e-07
2.44052e-07
1.57482e-07
1.49544e-07
-7.73771e-08
2.06146e-05
4.60334e-06
-9.92092e-09
2.0596e-05
4.75501e-06
-2.01712e-07
1.96797e-05
4.49471e-06
6.69309e-08
1.90587e-05
5.11858e-06
8.35232e-07
1.92816e-05
5.4763e-06
1.8175e-05
3.70081e-06
-3.37976e-06
-0.00151968
0.000333323
-5.10212e-07
-0.00154911
0.000338072
-2.90045e-06
-0.00148106
0.000328803
-1.29004e-06
-0.00152981
0.000347046
6.99055e-06
-0.00158664
0.000354578
-0.00138026
0.000299283
-1.66495e-05
-0.00224172
0.000204863
-2.00481e-05
-0.00229378
0.000206266
-1.24477e-05
-0.00227476
0.000213037
-4.79489e-05
-0.00223172
0.000206045
-6.73935e-05
-0.00239696
0.000205983
-0.00229671
0.000227012
-2.12583e-06
-0.000835575
2.10709e-07
-1.22076e-05
-0.000860969
2.27372e-07
-2.65569e-05
-0.000853837
1.82825e-07
-2.98392e-05
-0.000770659
4.46478e-07
-1.11117e-05
-0.000650235
9.32875e-07
-0.000894032
2.60718e-08
1.59154e-05
-0.00941617
-4.45469e-05
3.7883e-06
-0.00917414
-4.62107e-05
-1.31643e-05
-0.00963193
-4.70611e-05
1.44045e-05
-0.00842683
-3.99491e-05
1.42139e-05
-0.00695605
-2.85205e-05
-0.00983971
-4.80099e-05
3.23683e-05
-0.0375628
-0.00150942
-4.76498e-05
-0.0352055
-0.00148643
-0.000166142
-0.036773
-0.0015261
5.50457e-05
-0.0281126
-0.00122497
8.81525e-05
-0.0176109
-0.00064877
-0.0380022
-0.00154796
0.000159121
-0.171323
-0.0441169
-0.000413184
-0.17512
-0.0444895
-0.000543308
-0.180868
-0.0459785
0.000387432
-0.16539
-0.0404899
0.000167838
-0.151527
-0.0326859
-0.189002
-0.0483228
-0.0007237
-0.171116
-0.257127
-0.00255004
-0.173877
-0.260641
-0.00395693
-0.183794
-0.26487
-0.00217826
-0.156797
-0.262394
0.00174707
-0.146247
-0.258642
-0.191841
-0.275619
-0.000183898
-0.00207704
-0.266742
-0.00122667
-0.00206881
-0.271807
-0.00256918
-0.00204842
-0.287707
-0.000241135
-0.00224287
-0.243742
0.00108519
-0.00274097
-0.191895
-0.00207664
-0.304401
2.35283e-05
0.000839254
5.98662e-05
0.00080685
9.66521e-05
0.000643477
8.66494e-05
0.000749257
-5.37762e-05
0.000370337
0.000388783
-8.48302e-14
1.22068e-09
1.48024e-10
-6.78769e-14
1.27036e-09
1.52219e-10
-3.21391e-14
1.17214e-09
1.42903e-10
3.97064e-14
1.40456e-09
1.56661e-10
5.02251e-13
1.55816e-09
1.69653e-10
9.05783e-10
1.19572e-10
-2.69318e-11
1.25004e-07
4.44941e-09
-2.25578e-11
1.306e-07
4.57866e-09
-6.94511e-11
1.19098e-07
4.31577e-09
-2.62783e-12
1.48162e-07
4.62718e-09
2.4155e-10
1.65938e-07
4.95269e-09
8.88134e-08
3.78542e-09
-4.03003e-09
-4.07319e-06
2.59442e-07
-2.3338e-09
-4.37533e-06
2.77673e-07
-1.22372e-08
-3.59679e-06
2.35096e-07
1.507e-09
-5.3367e-06
3.53341e-07
3.8646e-08
-6.48915e-06
4.29058e-07
-1.79183e-06
1.41722e-07
-4.16872e-07
-2.38573e-05
3.2855e-06
-2.14232e-07
-2.57177e-05
3.34129e-06
-6.23249e-07
-2.36727e-05
3.22325e-06
2.14819e-08
-2.75338e-05
3.43362e-06
1.19717e-06
-3.03812e-05
3.54957e-06
-1.93735e-05
2.87508e-06
-1.37712e-06
-1.46945e-06
1.52317e-06
-1.2774e-06
-1.63565e-06
1.514e-06
-6.09981e-07
-1.59981e-06
1.65264e-06
-1.95012e-06
-1.52591e-06
1.36174e-06
-2.61142e-06
-2.02025e-06
1.26792e-06
-1.50131e-06
2.05299e-06
-6.30338e-08
-8.31296e-07
-8.3564e-07
-7.9763e-08
-9.52597e-07
-8.72963e-07
-1.60006e-08
-9.44123e-07
-9.31716e-07
-1.4495e-07
-8.03262e-07
-7.25363e-07
-1.93395e-07
-6.20856e-07
-8.55308e-07
-9.25347e-07
-1.06543e-06
-2.71945e-08
-4.51122e-05
-2.49495e-07
-3.63886e-08
-4.69091e-05
-2.53919e-07
-9.47831e-08
-4.76985e-05
-2.56219e-07
-8.08596e-08
-4.05423e-05
-2.38066e-07
5.01032e-08
-2.9077e-05
-2.04433e-07
-4.86285e-05
-2.61941e-07
-1.03529e-06
-0.00155348
-9.14675e-09
-1.86096e-06
-0.0015325
-8.85372e-09
-6.23251e-06
-0.00156941
-8.97789e-09
-2.5097e-06
-0.00126922
-8.10632e-09
5.0291e-06
-0.000685368
-5.37374e-09
-0.00159155
-8.97419e-09
1.12183e-06
-0.0449345
-0.000700804
2.39802e-05
-0.0452602
-0.000748105
8.23336e-05
-0.0468283
-0.00074563
6.38914e-05
-0.0409611
-0.000739928
-0.000150165
-0.0323382
-0.00078401
-0.0492209
-0.00081508
-0.000459853
-0.252944
-0.0686482
-0.00132896
-0.258186
-0.069766
-0.00280425
-0.264201
-0.0721709
-0.000905277
-0.257115
-0.0641718
0.00107487
-0.212952
-0.0498765
-0.272049
-0.0748302
-0.00112244
-0.0647363
-0.420375
-0.00603756
-0.0697663
-0.423994
-0.0198998
-0.0874868
-0.42137
-0.014412
-0.0418557
-0.430961
0.027217
-0.00015874
-0.43269
-0.102097
-0.425577
2.06684e-05
-0.169628
-0.0016935
-0.183137
-0.00529735
-0.214941
3.37029e-06
-0.123974
1.8454e-05
2.20539e-05
-0.244958
-2.10087e-15
-1.17648e-11
3.74771e-12
-2.14023e-15
-1.18309e-11
3.86023e-12
-1.97197e-15
-1.17389e-11
3.6275e-12
-3.25369e-16
-1.09852e-11
4.02429e-12
7.19998e-15
-1.09427e-11
4.37044e-12
-1.13058e-11
3.00405e-12
-5.53359e-13
4.83893e-10
1.14946e-10
-5.19625e-13
5.05033e-10
1.19201e-10
-9.23895e-13
4.6076e-10
1.10616e-10
-2.59506e-13
5.83175e-10
1.25486e-10
2.55929e-12
6.5057e-10
1.37043e-10
3.41297e-10
9.06449e-11
-5.78325e-11
7.55429e-08
2.58478e-09
-5.26752e-11
7.64568e-08
2.64658e-09
-1.61323e-10
7.39351e-08
2.52395e-09
-2.29553e-11
7.88722e-08
2.7581e-09
3.85231e-10
8.12142e-08
2.92679e-09
6.65084e-08
2.21476e-09
-1.23556e-08
2.89523e-06
9.40777e-08
-9.01288e-09
2.91567e-06
9.62207e-08
-2.72061e-08
2.86067e-06
9.18189e-08
2.02046e-10
2.93752e-06
1.00067e-07
5.18137e-08
2.96756e-06
1.05105e-07
2.63591e-06
8.00758e-08
-2.88156e-08
4.24895e-06
8.08953e-08
-2.82894e-08
4.23223e-06
8.08192e-08
-1.11332e-08
4.28445e-06
8.41338e-08
-2.32048e-08
4.12082e-06
7.62895e-08
-3.83947e-08
4.05594e-06
7.31865e-08
4.39743e-06
9.48524e-08
-1.02223e-09
2.738e-07
1.45289e-08
-9.38055e-10
2.72772e-07
1.26948e-08
4.17758e-09
2.73463e-07
1.07388e-08
-4.00687e-09
2.66716e-07
1.85064e-08
-1.43027e-08
2.44563e-07
1.15164e-08
2.75471e-07
6.34069e-09
1.31128e-11
1.06614e-08
-2.60723e-09
1.37155e-11
1.04039e-08
-2.55189e-09
9.11966e-11
1.05265e-08
-2.53007e-09
-2.64033e-11
9.9121e-09
-2.58003e-09
-2.04623e-10
8.36246e-09
-2.47545e-09
1.06325e-08
-2.51884e-09
-1.26502e-12
1.73128e-09
-2.04167e-10
-2.35876e-12
1.76618e-09
-1.94323e-10
-3.19531e-12
1.76468e-09
-1.93919e-10
-6.27814e-12
2.03646e-09
-1.91157e-10
-1.91433e-12
3.17807e-09
-1.80585e-10
1.89031e-09
-1.8989e-10
-1.65892e-07
-0.000700637
3.12708e-10
-1.01118e-07
-0.000748167
1.48742e-10
1.3027e-07
-0.000745859
1.7884e-10
-3.41465e-07
-0.000739455
1.90183e-10
-5.73664e-07
-0.000783779
-1.06494e-11
-0.000815653
1.83163e-10
-3.12228e-05
-0.067381
-0.00190097
-3.59908e-05
-0.0685637
-0.00190992
3.27407e-05
-0.0710003
-0.00195395
5.63592e-05
-0.0631083
-0.00178762
-7.0408e-05
-0.0490728
-0.00143363
-0.0737001
-0.00198879
-0.000222934
-0.321204
-0.124657
-0.00538703
-0.323339
-0.125481
-0.0148604
-0.323073
-0.125443
-0.00407238
-0.342616
-0.126841
0.0134368
-0.327496
-0.120603
-0.331443
-0.126516
-0.00155104
-0.433604
-0.0196133
-0.433096
-0.0698186
-0.432707
-0.0585438
-0.422762
0.0929467
-0.423469
-0.427509
2.18635e-13
-4.28215e-10
-2.59067e-08
5.69628e-14
-4.26379e-10
-2.58705e-08
-2.06552e-14
-4.26987e-10
-2.58815e-08
-9.62344e-14
-4.26848e-10
-2.588e-08
-2.62186e-13
-4.25595e-10
-2.58582e-08
-4.28552e-10
-2.59133e-08
2.84749e-15
3.4659e-17
-4.64662e-14
8.87026e-16
3.80764e-17
-4.63421e-14
-2.08682e-16
3.91159e-17
-4.63844e-14
-1.26958e-15
3.8219e-17
-4.64141e-14
-3.56589e-15
3.79872e-17
-4.63433e-14
3.89252e-17
-4.6464e-14
-1.47071e-21
-3.60975e-18
-5.22167e-22
-3.60098e-18
5.56142e-23
-3.60389e-18
6.86461e-22
-3.60756e-18
2.00547e-21
-3.60333e-18
-3.60993e-18
-1.37249e-12
-3.22374e-11
-3.30616e-09
-4.50669e-13
-3.21929e-11
-3.29743e-09
-3.06066e-12
-3.22094e-11
-3.29931e-09
-6.12335e-12
-3.22333e-11
-3.29692e-09
-7.63198e-12
-3.22092e-11
-3.29083e-09
-3.22265e-11
-3.30944e-09
2.26848e-18
-7.80837e-15
-3.22769e-11
-1.48222e-18
-7.79007e-15
-3.22322e-11
-9.40051e-18
-7.7962e-15
-3.22488e-11
-1.50443e-17
-7.80373e-15
-3.22728e-11
-2.19684e-17
-7.79461e-15
-3.22485e-11
-7.80779e-15
-3.2266e-11
2.01041e-21
-7.81499e-15
5.53857e-22
-7.79668e-15
-5.13123e-22
-7.80282e-15
-1.35367e-21
-7.81035e-15
-3.07757e-21
-7.80123e-15
-7.81441e-15
-3.12594e-13
-2.1999e-10
-1.29476e-08
-5.95154e-14
-2.19826e-10
-1.29386e-08
-6.64448e-14
-2.19914e-10
-1.29393e-08
-9.97617e-14
-2.20067e-10
-1.29342e-08
6.01398e-14
-2.19959e-10
-1.29286e-08
-2.19971e-10
-1.29571e-08
-7.11953e-15
-2.11329e-13
-2.53192e-10
-1.8399e-15
-2.1102e-13
-2.52996e-10
-2.82156e-15
-2.11176e-13
-2.53093e-10
-3.15776e-15
-2.11398e-13
-2.53272e-10
3.64779e-16
-2.1118e-13
-2.53143e-10
-2.11263e-13
-2.53169e-10
2.34219e-19
-2.19159e-13
-6.19051e-19
-2.18831e-13
-2.34752e-18
-2.18992e-13
-2.80325e-18
-2.19223e-13
-3.94709e-18
-2.18994e-13
-2.19096e-13
-4.35149e-12
-1.14529e-09
-5.36344e-08
1.73887e-12
-1.1452e-09
-5.36469e-08
-1.52927e-13
-1.14575e-09
-5.36413e-08
-1.76925e-12
-1.1462e-09
-5.36559e-08
2.10953e-12
-1.14601e-09
-5.36544e-08
-1.14469e-09
-5.36576e-08
-5.35724e-13
1.43542e-10
-2.0831e-09
-7.62481e-14
1.43144e-10
-2.08282e-09
-1.09572e-13
1.43253e-10
-2.08318e-09
-5.99334e-14
1.43419e-10
-2.08447e-09
2.18535e-13
1.43242e-10
-2.08389e-09
1.4359e-10
-2.08281e-09
-1.92128e-15
-1.65503e-10
-1.40721e-15
-1.6489e-10
-2.72395e-15
-1.6509e-10
-2.09578e-15
-1.65353e-10
-2.08073e-15
-1.65088e-10
-1.65472e-10
8.09402e-09
1.40478e-06
4.11522e-06
4.36042e-10
1.40649e-06
4.15133e-06
-8.76675e-10
1.40534e-06
4.1351e-06
7.29511e-10
1.40553e-06
4.12791e-06
-3.53813e-09
1.40661e-06
4.14249e-06
1.40421e-06
4.11699e-06
2.60494e-10
5.65915e-08
1.30426e-06
8.26531e-12
5.66789e-08
1.30644e-06
-2.50786e-11
5.66121e-08
1.30508e-06
1.48007e-11
5.66202e-08
1.3052e-06
-1.60012e-10
5.66801e-08
1.30628e-06
5.65478e-08
1.30385e-06
1.48268e-12
5.12044e-08
-7.90343e-14
5.12321e-08
-3.44733e-13
5.12047e-08
-1.81322e-14
5.12237e-08
-1.23046e-12
5.12403e-08
5.11864e-08
-1.38181e-07
3.93474e-05
-0.000110097
-3.01712e-08
3.93742e-05
-0.000109879
-4.16146e-08
3.93584e-05
-0.000109923
-5.90104e-08
3.9375e-05
-0.000110085
2.29188e-08
3.93797e-05
-0.000110032
3.93517e-05
-0.000110125
-1.35796e-08
1.13151e-05
2.64622e-05
-9.86642e-09
1.13139e-05
2.64833e-05
-1.06023e-08
1.13122e-05
2.64699e-05
-1.34844e-08
1.132e-05
2.64785e-05
-1.091e-08
1.13186e-05
2.64839e-05
1.13147e-05
2.6447e-05
-4.08684e-11
4.18664e-06
-2.22664e-10
4.18917e-06
-2.74128e-10
4.18687e-06
-4.97419e-10
4.1891e-06
-7.03101e-10
4.19002e-06
4.18534e-06
-2.24797e-07
-2.17993e-05
-5.641e-06
-5.02078e-08
-2.18331e-05
-5.64018e-06
-3.84823e-08
-2.1822e-05
-5.64093e-06
-1.43656e-07
-2.18079e-05
-5.64092e-06
-6.0802e-08
-2.18188e-05
-5.63993e-06
-2.17828e-05
-5.6411e-06
1.10278e-11
3.19135e-05
1.32075e-06
-3.47842e-09
3.19393e-05
1.34168e-06
-5.24952e-09
3.19168e-05
1.33152e-06
-4.29598e-09
3.19444e-05
1.32416e-06
-7.00119e-10
3.19513e-05
1.33084e-06
3.19192e-05
1.30778e-06
-2.07787e-11
9.33264e-06
-1.806e-10
9.35251e-06
-2.59609e-10
9.34146e-06
-3.18817e-10
9.34485e-06
5.99084e-10
9.34605e-06
9.32694e-06
1.01691e-09
-3.17706e-06
-1.0273e-05
-3.22458e-10
-3.23849e-06
-1.02681e-05
-5.52026e-10
-3.21678e-06
-1.02708e-05
-8.05546e-10
-3.20729e-06
-1.02667e-05
-1.57973e-09
-3.22164e-06
-1.02695e-05
-3.20189e-06
-1.02641e-05
1.80461e-08
5.85628e-06
-1.01499e-05
-2.55384e-10
5.88844e-06
-1.01679e-05
-3.88665e-09
5.86963e-06
-1.0158e-05
-1.62167e-09
5.87146e-06
-1.01636e-05
-9.01024e-09
5.87881e-06
-1.01692e-05
5.84838e-06
-1.01618e-05
2.7389e-09
4.96414e-06
4.37986e-10
4.97758e-06
2.31826e-10
4.97169e-06
5.29431e-10
4.97045e-06
9.42071e-10
4.97112e-06
4.95938e-06
8.30557e-10
-2.21425e-05
-8.98919e-05
-4.38637e-10
-2.22006e-05
-8.98826e-05
-6.02231e-10
-2.21775e-05
-8.9907e-05
-1.36847e-09
-2.21671e-05
-8.98612e-05
-2.51602e-09
-2.21821e-05
-8.99381e-05
-2.21596e-05
-8.98239e-05
2.31754e-08
-1.07134e-05
-2.81725e-07
4.84073e-10
-1.07461e-05
-2.74893e-07
-2.98737e-09
-1.07329e-05
-2.67993e-07
-1.43163e-09
-1.073e-05
-2.61955e-07
-1.3251e-08
-1.07257e-05
-2.60422e-07
-1.06929e-05
-2.60445e-07
4.73892e-11
7.94603e-07
2.98356e-10
7.9905e-07
4.24375e-10
7.97415e-07
4.12799e-10
7.97252e-07
7.95633e-10
7.97114e-07
7.92393e-07
1.00901e-08
-6.05661e-08
-0.00145092
-6.31962e-09
-6.34613e-08
-0.00145196
3.26262e-09
-6.27805e-08
-0.00145182
-4.9168e-09
-5.98794e-08
-0.00145114
-3.86759e-08
-4.80649e-08
-0.00145266
-4.72866e-08
-0.00145011
2.02886e-11
-6.61798e-08
-6.46779e-08
-8.19323e-13
-6.71358e-08
-6.49391e-08
-2.43137e-12
-6.69646e-08
-6.51425e-08
-2.47213e-13
-6.70002e-08
-6.53274e-08
-5.24752e-12
-6.68906e-08
-6.5337e-08
-6.6243e-08
-6.52393e-08
-5.40626e-13
7.3529e-07
2.16717e-12
7.38866e-07
8.8565e-13
7.37098e-07
4.31429e-12
7.36484e-07
1.72299e-11
7.3604e-07
7.31933e-07
1.79738e-07
-2.56319e-05
-0.00242661
2.48995e-08
-2.56431e-05
-0.00242835
-3.85083e-10
-2.56307e-05
-0.00242822
6.20567e-08
-2.56139e-05
-0.00242681
1.81478e-07
-2.56005e-05
-0.00242938
-2.55673e-05
-0.00242568
3.68577e-11
-2.51938e-05
-3.49963e-08
5.0441e-11
-2.5202e-05
-3.48847e-08
2.08298e-10
-2.52005e-05
-3.50396e-08
1.24611e-10
-2.51999e-05
-3.49203e-08
-1.4695e-10
-2.5205e-05
-3.48242e-08
-2.51967e-05
-3.54608e-08
-3.4378e-10
2.41255e-06
2.14653e-10
2.408e-06
-1.20194e-09
2.41047e-06
1.20167e-09
2.40774e-06
6.12384e-09
2.40152e-06
2.41762e-06
-2.60829e-06
-7.85535e-06
-0.0965807
-5.39282e-06
-7.81786e-06
-0.0965644
-1.26779e-05
-7.8348e-06
-0.0965799
-1.4204e-06
-7.81828e-06
-0.0966006
2.56981e-05
-7.79747e-06
-0.0966657
-7.90041e-06
-0.0965273
-3.86863e-12
-7.89183e-06
1.9097e-17
1.92015e-12
-7.85425e-06
2.42152e-17
5.66374e-11
-7.8714e-06
9.53854e-16
-1.00003e-12
-7.85464e-06
3.64131e-15
-1.53799e-10
-7.83363e-06
1.87505e-18
-7.93758e-06
5.93159e-18
6.77615e-10
3.67228e-27
6.46562e-10
5.98077e-27
8.31575e-10
5.03431e-27
3.42145e-10
1.80539e-26
-1.836e-09
2.90003e-26
2.20773e-26
-0.000272829
-0.000257421
-0.36034
0.442062
-0.00033169
-0.000288073
-0.360338
0.441997
-0.000895982
-0.000312677
-0.360285
0.442513
-0.000372403
-0.000158764
-0.360112
0.441
0.00118731
-8.2917e-05
-0.360077
0.439837
-0.000389232
-0.360467
0.443291
-6.29957e-08
-1.68561e-06
-0.000262788
8.46222e-06
-9.98652e-09
3.44465e-27
-0.000297506
9.37993e-06
1.14527e-07
1.58793e-26
-0.000322972
1.01702e-05
-6.25701e-09
-7.15876e-16
-0.000163831
5.1877e-06
-2.45162e-07
-5.35524e-12
-8.53832e-05
2.70504e-06
1.75569e-26
-0.000402032
1.2555e-05
2.68453e-29
4.91922e-25
5.70818e-08
4.94121e-29
2.07664e-25
-2.49113e-27
-7.80512e-29
9.61896e-25
-1.149e-26
-7.96934e-16
3.59442e-25
8.10584e-17
3.2426e-28
2.54981e-25
1.28622e-13
3.6719e-25
-1.25228e-26
-2.9225e-05
-0.000381429
-0.278217
-0.000102042
-0.000301069
-0.278279
-0.000183651
-0.000334714
-0.27832
1.94158e-05
-0.000552241
-0.278196
0.000420199
-0.000660891
-0.278184
-9.7015e-05
-0.278316
-5.7758e-07
9.12684e-25
9.12121e-14
-2.53164e-07
3.89106e-25
7.35138e-14
-7.36028e-08
1.80196e-24
1.38574e-13
-3.90451e-08
6.67208e-25
1.18551e-14
2.15677e-07
4.73695e-25
8.46007e-13
6.83891e-25
1.0246e-15
1.6675e-27
-8.1276e-26
4.78548e-27
-3.50764e-26
3.05408e-27
-1.62126e-25
1.82445e-27
-5.98968e-26
1.40677e-27
-4.15699e-26
-6.21301e-26
-4.46014e-05
2.8886e-14
-0.192627
-0.000169401
2.32725e-14
-0.192758
-0.000314489
4.36166e-14
-0.192351
-1.45875e-05
3.82552e-15
-0.193768
0.000658014
2.7707e-13
-0.194417
3.19968e-16
-0.191951
7.44471e-17
1.95364e-24
3.00843e-18
5.57449e-16
1.85376e-24
4.32946e-18
1.15891e-16
1.93535e-24
2.10503e-16
8.16013e-16
1.70599e-24
7.76666e-16
-1.90353e-14
3.37417e-24
2.75358e-24
1.07534e-24
2.11481e-24
1.69185e-27
-2.91059e-25
2.60337e-27
-2.78836e-25
7.30332e-27
-2.89942e-25
2.31531e-27
-2.58475e-25
-1.9474e-26
-5.09809e-25
-1.64038e-25
-6.09612e-05
2.3623e-18
-0.0688781
-0.000147523
3.40349e-18
-0.0688851
-0.000243053
1.65072e-16
-0.0689081
6.99608e-06
6.13746e-16
-0.0688755
0.00044017
2.19247e-24
-0.0690088
1.65104e-24
-0.0687576
3.11236e-20
5.37741e-24
-6.16763e-20
1.56345e-18
6.72397e-24
-8.78771e-20
1.78379e-17
7.29974e-24
-4.20568e-18
1.66525e-26
7.35613e-24
-1.85411e-17
-1.29018e-25
7.06329e-24
-8.24767e-26
5.26807e-24
-3.10781e-26
3.49258e-27
-1.52643e-24
1.03359e-27
-1.90154e-24
-1.48631e-29
-2.08502e-24
2.9813e-27
-2.05834e-24
2.59742e-28
-1.93031e-24
-1.54462e-24
-8.01425e-05
1.31235e-16
0.0320232
-0.000123411
1.83586e-16
0.0320459
-0.000332582
8.55558e-15
0.0320428
-2.74818e-06
3.30283e-14
0.0320957
0.000751877
1.95441e-24
0.0321377
1.53859e-24
0.0320234
6.28914e-19
7.2144e-25
-1.18869e-16
3.15564e-17
1.13022e-24
-1.6627e-16
4.05676e-16
9.84815e-25
-7.77248e-15
4.43127e-27
3.13763e-24
-2.98158e-14
-6.31438e-26
4.94991e-24
-1.75994e-24
3.7309e-24
-1.40631e-24
1.55699e-28
-3.84119e-25
-1.5438e-28
-6.00002e-25
-1.96129e-28
-5.25799e-25
6.58044e-28
-1.65646e-24
4.26232e-28
-2.574e-24
-2.02185e-24
-3.85926e-05
5.48704e-17
-7.94899e-05
6.96132e-17
-0.000201006
2.73462e-15
-1.40551e-05
1.0489e-14
0.000451099
5.41752e-18
1.69339e-17
4.45523e-20
8.71373e-26
1.29256e-18
1.41449e-25
1.34826e-17
1.19253e-25
2.25231e-21
4.25628e-25
-1.79958e-20
6.77372e-25
5.2689e-25
-7.40828e-30
-2.34639e-29
-7.39395e-29
-4.06627e-29
5.80298e-28
-2.82139e-17
4.05828e-14
1.7791e-14
-3.43367e-17
4.00236e-14
1.87416e-14
-3.49179e-17
3.94959e-14
1.65649e-14
-1.67168e-17
3.77195e-14
2.08056e-14
5.31322e-17
3.6479e-14
2.42214e-14
3.23032e-14
1.18303e-14
-4.642e-19
2.10023e-14
2.7957e-16
-6.08813e-19
2.06992e-14
2.87845e-16
-6.30054e-19
2.05364e-14
2.67842e-16
-3.41214e-19
1.88417e-14
3.03914e-16
4.36544e-19
1.71714e-14
3.35188e-16
1.68411e-14
2.13806e-16
-1.21446e-20
1.6569e-17
-1.85903e-20
1.66078e-17
-2.04079e-20
1.6088e-17
-1.45478e-20
1.61082e-17
-1.06527e-21
1.58707e-17
1.31718e-17
-6.57981e-15
2.40539e-12
5.09149e-11
-7.19788e-15
2.47198e-12
5.28225e-11
-8.90127e-15
2.31921e-12
4.82642e-11
-4.44624e-15
2.61299e-12
5.74563e-11
1.48042e-14
2.82649e-12
6.34436e-11
1.91152e-12
3.70919e-11