/*--------------------------------*- C++ -*----------------------------------*\
| =========                 |                                                 |
| \\      /  F ield         | OpenFOAM: The Open Source CFD Toolbox           |
|  \\    /   O peration     | Version:  v1612+                                |
|   \\  /    A nd           | Web:      www.OpenFOAM.com                      |
|    \\/     M anipulation  |                                                 |
\*---------------------------------------------------------------------------*/
FoamFile
{
    version     2.0;
    format      ascii;
    class       volScalarField;
    location    "4.7";
    object      alpha.water;
}
// * * * * * * * * * * * * * * * * * * * * * * * * * * * * * * * * * * * * * //

dimensions      [0 0 0 0 0 0 0];

internalField   nonuniform List<scalar> 
1116
(
0.399445
0.399445
0.399446
0.399445
0.399445
0.39945
0.405998
0.405997
0.405998
0.405997
0.405997
0.406003
0.428288
0.428287
0.428288
0.428286
0.428288
0.428293
0.490321
0.49032
0.490321
0.49032
0.490322
0.490326
0.632803
0.632801
0.632803
0.632803
0.632804
0.632809
0.852974
0.852972
0.852973
0.852973
0.852973
0.852977
0.97411
0.97411
0.97411
0.97411
0.97411
0.97411
0.974113
0.974113
0.974113
0.974113
0.974113
0.974113
0.974105
0.974105
0.974105
0.974105
0.974105
0.974105
0.97409
0.97409
0.97409
0.97409
0.97409
0.97409
0.97406
0.97406
0.97406
0.97406
0.97406
0.97406
0.974094
0.974094
0.974094
0.974094
0.974094
0.974094
2.35222e-08
2.35221e-08
2.35221e-08
2.35221e-08
2.3522e-08
2.35216e-08
2.2541e-08
2.25409e-08
2.25409e-08
2.25407e-08
2.25402e-08
2.25398e-08
2.25409e-08
2.25409e-08
2.25407e-08
2.25402e-08
2.25398e-08
2.25398e-08
0.000525529
0.000525601
0.000525436
0.000525554
0.00052561
0.000525399
0.0172359
0.0172321
0.0172334
0.0172341
0.0172326
0.017234
0.159734
0.159731
0.159729
0.159727
0.159726
0.159727
0.639582
0.639595
0.63958
0.639576
0.639579
0.639577
0.962966
0.962973
0.962966
0.962966
0.962968
0.962967
0.974095
0.974095
0.974095
0.974095
0.974095
0.974095
0.97407
0.974071
0.97407
0.97407
0.97407
0.97407
0.973899
0.973902
0.973901
0.9739
0.973901
0.973901
0.973928
0.973927
0.973928
0.973927
0.973927
0.973929
1.33041e-07
1.3295e-07
1.32976e-07
1.32983e-07
1.32954e-07
1.33064e-07
3.29699e-07
3.29637e-07
3.29658e-07
3.29654e-07
3.29623e-07
3.29736e-07
2.2541e-08
2.25409e-08
2.25409e-08
2.25407e-08
2.25402e-08
2.25398e-08
9.62749e-08
9.62573e-08
9.62494e-08
9.62576e-08
9.6256e-08
9.62447e-08
5.91714e-06
5.91539e-06
5.91463e-06
5.91553e-06
5.91562e-06
5.91587e-06
0.000490391
0.000490051
0.000490189
0.000490214
0.000490105
0.000490211
0.140495
0.140519
0.140504
0.140497
0.140509
0.140483
0.516498
0.516681
0.516592
0.516583
0.516642
0.516526
0.661232
0.661522
0.661388
0.661376
0.661464
0.661302
0.626701
0.627083
0.626917
0.626888
0.626995
0.626824
0.53033
0.530635
0.530523
0.530457
0.530498
0.530525
0.558199
0.557956
0.558099
0.55808
0.557947
0.558307
5.49977e-08
5.49159e-08
5.49369e-08
5.49414e-08
5.49142e-08
5.50115e-08
4.21378e-07
4.21382e-07
4.21386e-07
4.21391e-07
4.21396e-07
4.21396e-07
7.6773e-08
7.6713e-08
7.67251e-08
7.6712e-08
7.67088e-08
7.67977e-08
6.64346e-08
6.63341e-08
6.63601e-08
6.63503e-08
6.63311e-08
6.64383e-08
6.67765e-07
6.66518e-07
6.67013e-07
6.6743e-07
6.66949e-07
6.67328e-07
0.000112522
0.000111245
0.000111835
0.000111987
0.000111507
0.000112078
0.0440326
0.0439788
0.0440003
0.0440234
0.0440004
0.0440155
0.106426
0.106492
0.106451
0.106484
0.106503
0.106448
0.107673
0.107798
0.10773
0.107755
0.107794
0.107716
0.0328092
0.032931
0.0328743
0.0328711
0.0329055
0.0328586
8.93851e-05
8.94172e-05
8.93177e-05
8.92751e-05
8.93172e-05
8.92746e-05
0.000178519
0.000178459
0.000178424
0.000178282
0.00017824
0.000178508
3.46739e-09
3.54725e-09
3.34904e-09
3.6318e-09
3.89966e-09
2.81708e-09
8.10766e-09
8.25397e-09
7.76585e-09
8.18581e-09
8.75048e-09
6.58278e-09
3.2871e-07
3.33522e-07
3.1302e-07
3.23236e-07
3.44372e-07
2.69333e-07
9.92092e-06
1.00605e-05
9.46581e-06
9.73542e-06
1.02142e-05
8.31067e-06
0.000388623
0.000373817
0.000275797
0.000292112
0.000275515
0.000163576
0.0187174
0.0187223
0.018057
0.0181492
0.0183011
0.016829
0.0341166
0.0343004
0.0347843
0.0344223
0.0352754
0.0356269
0.0357369
0.0360223
0.0366703
0.0363339
0.0371339
0.0382534
0.0364554
0.0367106
0.0376012
0.0374156
0.0382534
0.0392773
0.0354491
0.0353188
0.0362026
0.0337414
0.0330101
0.0377186
0.00968976
0.00962751
0.00998638
0.0099524
0.0100074
0.0107037
0.000187047
0.000163055
0.000138762
0.000116073
8.03912e-05
0.000109952
2.06109e-10
2.11432e-10
1.99213e-10
2.20117e-10
2.37186e-10
1.65532e-10
2.36751e-09
2.42572e-09
2.28538e-09
2.47744e-09
2.66802e-09
1.9244e-09
1.40739e-07
1.44145e-07
1.35801e-07
1.47084e-07
1.5778e-07
1.15143e-07
0.000146064
0.000148028
0.000141692
0.000149457
0.000154128
0.000125649
0.000609549
0.00061269
0.00060432
0.000604953
0.000604514
0.00058731
0.000371054
0.00037307
0.000379996
0.000353825
0.000349877
0.000406417
5.27405e-07
5.62191e-07
5.6486e-07
4.89207e-07
3.59909e-07
5.77967e-07
0.00284748
0.00252534
0.00262286
0.00163597
0.000564655
0.00244007
0.0363627
0.0365448
0.0376366
0.0333354
0.0304074
0.039376
0.0559611
0.0574627
0.059098
0.0584908
0.0607857
0.0625025
0.054345
0.054627
0.0592696
0.0418973
0.0280135
0.0627759
0.000163068
0.00013877
0.000116074
8.03912e-05
5.53912e-05
8.03912e-05
4.61864e-12
4.7641e-12
4.44172e-12
5.03695e-12
5.51156e-12
3.60297e-12
1.40187e-10
1.44313e-10
1.35077e-10
1.50813e-10
1.6408e-10
1.11189e-10
2.29292e-07
2.43769e-07
2.07337e-07
2.98264e-07
3.50876e-07
1.20877e-07
2.586e-05
2.62717e-05
2.52962e-05
2.73379e-05
2.82883e-05
2.205e-05
5.21827e-05
5.22094e-05
5.29293e-05
5.12274e-05
5.03834e-05
5.43079e-05
1.36362e-07
1.35572e-07
1.36517e-07
1.339e-07
1.3201e-07
1.38512e-07
4.64789e-09
4.58155e-09
4.62956e-09
4.51325e-09
4.47863e-09
4.71696e-09
-2.27124e-10
-4.04663e-10
-6.07524e-10
-2.59487e-09
-3.12383e-09
9.66725e-11
1.09658e-05
1.21021e-05
1.18378e-05
1.25587e-05
1.67654e-05
1.33378e-05
0.0503302
0.0506569
0.0526351
0.0456472
0.0311224
0.0547821
0.108805
0.109648
0.109786
0.110731
0.109045
0.11141
0.0245712
0.0273909
0.0393315
0.00912484
5.53912e-05
0.0492655
1.42639e-13
1.4717e-13
1.36982e-13
1.56097e-13
1.71045e-13
1.10546e-13
4.57109e-12
4.71438e-12
4.39735e-12
4.98128e-12
5.44879e-12
3.57004e-12
3.52053e-09
3.93358e-09
2.9514e-09
5.86635e-09
7.71235e-09
1.09462e-09
2.25324e-08
2.33083e-08
2.14856e-08
2.52051e-08
2.77287e-08
1.72048e-08
8.65233e-08
8.70946e-08
8.73938e-08
8.54899e-08
8.48854e-08
8.84704e-08
1.47205e-07
1.43584e-07
1.41111e-07
1.51042e-07
1.4075e-07
1.35447e-07
4.06621e-10
3.06925e-10
2.73455e-10
4.91476e-10
7.29732e-10
2.02068e-10
1.11782e-11
1.05886e-11
1.02541e-11
1.09644e-11
1.49197e-11
9.51069e-12
-6.29375e-11
-3.91106e-10
-7.2969e-10
-1.03932e-09
-1.04012e-09
-3.57652e-10
1.10305e-05
1.21916e-05
1.18997e-05
1.27181e-05
1.72762e-05
1.33739e-05
0.10987
0.110874
0.111171
0.112134
0.107563
0.112563
0.207062
0.207215
0.207333
0.207333
0.207269
0.207009
3.73305e-09
3.72768e-09
3.72959e-09
3.72844e-09
3.72311e-09
3.73363e-09
9.25469e-11
9.13353e-11
9.17171e-11
9.16517e-11
9.09262e-11
9.27582e-11
-7.83548e-17
-8.60583e-17
-8.84114e-17
-8.63846e-17
-8.58568e-17
-8.79993e-17
1.74772e-07
1.74426e-07
1.74521e-07
1.74505e-07
1.74321e-07
1.74807e-07
8.09532e-17
8.07593e-17
8.08233e-17
8.09021e-17
8.08071e-17
8.09493e-17
9.80447e-19
9.79855e-19
9.79962e-19
9.80114e-19
9.79976e-19
9.80648e-19
4.42948e-11
4.42317e-11
4.42558e-11
4.42879e-11
4.42541e-11
4.42771e-11
9.10842e-14
9.08678e-14
9.09413e-14
9.10261e-14
9.0919e-14
9.10662e-14
1.10671e-17
1.1013e-17
1.1054e-17
1.10351e-17
1.10245e-17
1.10398e-17
1.00114e-09
1.00081e-09
1.001e-09
1.00162e-09
1.00128e-09
1.00114e-09
3.88712e-11
3.87796e-11
3.88137e-11
3.88463e-11
3.88017e-11
3.88543e-11
8.94665e-14
8.92535e-14
8.93255e-14
8.94087e-14
8.93036e-14
8.94489e-14
7.12065e-08
7.1128e-08
7.11616e-08
7.12047e-08
7.11651e-08
7.11826e-08
3.57105e-09
3.56479e-09
3.56725e-09
3.56973e-09
3.56668e-09
3.5689e-09
3.88711e-11
3.878e-11
3.88137e-11
3.88463e-11
3.88019e-11
3.88543e-11
2.59757e-05
2.5649e-05
2.57842e-05
2.59531e-05
2.57981e-05
2.59228e-05
2.30265e-07
2.29716e-07
2.29931e-07
2.30082e-07
2.29849e-07
2.30058e-07
6.20076e-09
6.18442e-09
6.19079e-09
6.1955e-09
6.18813e-09
6.19611e-09
1.6915e-06
1.69184e-06
1.69182e-06
1.69169e-06
1.69146e-06
1.69124e-06
3.58158e-06
3.58722e-06
3.58302e-06
3.58457e-06
3.58784e-06
3.5827e-06
2.83594e-06
2.83398e-06
2.8344e-06
2.83647e-06
2.83564e-06
2.83588e-06
1.69597e-06
1.69632e-06
1.6963e-06
1.69619e-06
1.69594e-06
1.69572e-06
7.84489e-06
7.86751e-06
7.85808e-06
7.855e-06
7.85977e-06
7.83893e-06
5.46711e-06
5.48068e-06
5.47461e-06
5.47503e-06
5.47593e-06
5.46591e-06
8.55879e-07
8.56156e-07
8.55878e-07
8.55612e-07
8.55502e-07
8.55252e-07
7.37581e-06
7.3757e-06
7.37528e-06
7.37449e-06
7.37327e-06
7.37048e-06
9.93389e-07
1.00405e-06
9.99587e-07
9.9877e-07
9.98976e-07
9.88656e-07
1.12067e-08
1.09679e-08
1.06954e-08
1.04384e-08
1.03136e-08
1.0308e-08
5.5513e-09
5.41659e-09
5.27878e-09
5.15964e-09
5.154e-09
5.154e-09
1.24479e-10
1.41184e-10
1.31166e-10
1.2171e-10
1.16949e-10
1.3157e-10
1.61533e-07
1.61432e-07
1.61058e-07
1.60637e-07
1.60265e-07
1.60015e-07
1.22062e-08
1.21689e-08
1.18417e-08
1.15083e-08
1.12345e-08
1.13613e-08
7.07957e-06
7.07976e-06
7.07971e-06
7.07989e-06
7.08016e-06
7.08032e-06
0.011384
0.0113838
0.0113815
0.0113847
0.0114007
0.011364
-1.93152e-10
-1.92695e-10
-1.93146e-10
-1.92075e-10
-1.91216e-10
-1.94297e-10
2.45245e-06
2.43935e-06
2.44522e-06
2.43924e-06
2.4306e-06
2.46832e-06
0.309474
0.309489
0.30951
0.309502
0.309528
0.309597
2.53904e-08
4.39102e-20
4.77396e-20
1.16457e-17
1.51743e-13
5.73464e-20
6.29059e-13
-6.05252e-27
-2.8029e-26
7.90482e-27
1.48084e-13
-3.12732e-26
0.309965
0.309978
0.309993
0.310028
0.310056
0.310056
0.000234644
0.000270302
0.000291428
0.000139657
6.26337e-05
0.000371447
-2.29438e-24
-9.79526e-25
-4.53448e-24
-1.68835e-24
-1.19475e-24
-1.74356e-24
0.309492
0.309506
0.309536
0.309486
0.309484
0.309634
-9.69662e-14
-7.81394e-14
-1.4648e-13
-1.27906e-14
-9.22813e-13
-1.08019e-15
-2.71583e-24
-2.58105e-24
-2.6891e-24
-2.37515e-24
-4.64486e-24
-1.52734e-24
0.295824
0.295798
0.296036
0.295352
0.294963
0.296368
-5.80497e-18
-8.36506e-18
-4.05718e-16
-1.50555e-15
-5.37708e-24
-4.06649e-24
-5.76912e-24
-7.19289e-24
-7.86544e-24
-7.78767e-24
-7.34026e-24
-5.79087e-24
0.256019
0.256041
0.25616
0.255988
0.255984
0.256235
-2.70918e-16
-3.78762e-16
-1.7678e-14
-6.79199e-14
-4.00263e-24
-3.19623e-24
-7.92018e-25
-1.23785e-24
-1.08331e-24
-3.41857e-24
-5.3252e-24
-4.15491e-24
0.2037
0.203691
0.203762
0.203689
0.203738
0.20376
-4.09247e-17
-5.19097e-17
-2.03973e-15
-7.81572e-15
-4.03308e-18
-1.26448e-17
-6.3707e-26
-1.0334e-25
-8.72015e-26
-3.10652e-25
-4.93168e-25
-3.86329e-25
5.86451e-15
6.02216e-15
5.64295e-15
6.31555e-15
6.90575e-15
4.56842e-15
9.95879e-16
9.84027e-16
9.67599e-16
9.64134e-16
9.58419e-16
7.93761e-16
9.73396e-16
9.58733e-16
9.52207e-16
8.71932e-16
7.87779e-16
7.84214e-16
1.17444e-13
1.21495e-13
1.12231e-13
1.29568e-13
1.43669e-13
8.85438e-14
1.05755e-13
1.08057e-13
1.02253e-13
1.14025e-13
1.22598e-13
8.46664e-14
5.66757e-15
5.76754e-15
5.48528e-15
6.0944e-15
6.52886e-15
4.56322e-15
1.64798e-11
1.70142e-11
1.57984e-11
1.81273e-11
1.98861e-11
1.27244e-11
1.02083e-12
1.05092e-12
9.80581e-13
1.11724e-12
1.21851e-12
7.95632e-13
8.17778e-14
8.22262e-14
8.08794e-14
8.33587e-14
8.42321e-14
7.39239e-14
9.78026e-10
1.01212e-09
9.32757e-10
1.09518e-09
1.20646e-09
7.45878e-10
4.21091e-11
4.33895e-11
4.05515e-11
4.62885e-11
5.04892e-11
3.34789e-11
1.94562e-12
2.00632e-12
1.86349e-12
2.15464e-12
2.35274e-12
1.51033e-12
2.6e-09
2.62014e-09
2.62555e-09
2.57517e-09
2.55986e-09
2.65393e-09
7.05167e-11
7.10481e-11
7.10426e-11
7.00387e-11
6.96437e-11
7.16358e-11
9.82533e-12
9.85914e-12
9.74139e-12
9.88336e-12
9.82708e-12
9.68376e-12
8.70658e-09
8.66403e-09
8.48131e-09
8.99173e-09
8.5023e-09
8.10262e-09
3.34957e-11
3.4091e-11
3.38955e-11
3.38467e-11
3.4193e-11
3.40502e-11
6.16544e-12
6.17479e-12
6.08585e-12
6.21021e-12
6.23272e-12
6.08371e-12
7.7777e-10
7.47923e-10
7.24654e-10
7.95007e-10
8.02068e-10
6.90756e-10
1.21884e-11
1.225e-11
1.2216e-11
1.10254e-11
1.05115e-11
1.26266e-11
5.3411e-12
5.34833e-12
5.2601e-12
5.38222e-12
5.39569e-12
5.26682e-12
-2.45819e-13
-2.47459e-13
-2.4423e-13
-2.98375e-13
3.02055e-12
-2.49935e-13
1.23071e-11
1.23201e-11
1.1986e-11
1.26027e-11
1.26166e-11
1.17719e-11
4.21137e-12
4.2604e-12
4.155e-12
4.33203e-12
4.40905e-12
4.16864e-12
-2.02532e-10
-9.56183e-11
-1.15047e-10
-1.22661e-10
-7.84646e-16
-1.16078e-10
1.16756e-12
1.05341e-12
1.12242e-12
9.80592e-13
8.38278e-13
7.90639e-13
8.47487e-22
9.16489e-22
9.09145e-22
1.15698e-16
7.27035e-22
7.19236e-22
-2.33132e-07
-2.52065e-07
-2.4633e-07
-2.71099e-07
-2.8445e-07
-2.7361e-07
4.62397e-10
-5.33061e-12
-8.34199e-12
1.14834e-09
2.50217e-09
4.80087e-10
1.63501e-07
1.56116e-07
1.46266e-07
1.64165e-07
1.6393e-07
1.6373e-07
-8.6247e-09
-5.04508e-08
-1.16584e-07
-2.61582e-08
-4.37863e-08
-9.06928e-08
7.37881e-10
7.99423e-10
8.4639e-10
1.20425e-09
1.94239e-09
4.69088e-09
2.79835e-11
9.78247e-10
1.17293e-08
1.69901e-09
8.7351e-08
5.2676e-08
0.185076
0.184635
0.183685
0.188742
0.190497
0.183492
8.16105e-10
4.58524e-10
6.37661e-10
6.46072e-10
2.47404e-09
3.29903e-09
1.02147e-06
8.18929e-07
6.82347e-07
2.45547e-06
5.52579e-06
5.89814e-07
)
;

boundaryField
{
    seabed_topleft_surface
    {
        type            zeroGradient;
    }
    seabed_topright_surface
    {
        type            zeroGradient;
    }
    breakwater_top_surface
    {
        type            zeroGradient;
    }
    breakwater_left_surface
    {
        type            zeroGradient;
    }
    breakwater_right_surface
    {
        type            zeroGradient;
    }
    water_front_surface
    {
        type            zeroGradient;
    }
    water_back_surface
    {
        type            zeroGradient;
    }
    water_left_surface
    {
        type            zeroGradient;
    }
    water_right_surface
    {
        type            zeroGradient;
    }
    water_top_surface
    {
        type            inletOutlet;
        inletValue      uniform 0;
        value           nonuniform List<scalar> 
180
(
0
0
0
0
0
0
0
0
0
0
0
0
0
0
0
0
0
0
8.94665e-14
8.92535e-14
8.93255e-14
8.94087e-14
8.93036e-14
8.94489e-14
3.88711e-11
3.878e-11
3.88137e-11
3.88463e-11
3.88019e-11
3.88543e-11
6.20076e-09
6.18442e-09
6.19079e-09
6.1955e-09
6.18813e-09
6.19611e-09
2.83594e-06
2.83398e-06
2.8344e-06
2.83647e-06
2.83564e-06
2.83588e-06
5.46711e-06
5.48068e-06
5.47461e-06
5.47503e-06
5.47593e-06
5.46591e-06
0
0
0
0
0
0
0
0
0
0
0
0
0
0
0
0
0
0
0
0
0
0
0
0
0
0
0
0
0
0
0
0
0
0
0
0
0
0
0
0
0
0
0
0
0
0
0
0
0
0
0
0
0
0
0
0
0
0
0
0
9.73396e-16
9.58733e-16
9.52207e-16
8.71932e-16
7.87779e-16
7.84214e-16
5.66757e-15
5.76754e-15
5.48528e-15
6.0944e-15
6.52886e-15
4.56322e-15
8.17778e-14
8.22262e-14
8.08794e-14
8.33587e-14
8.42321e-14
7.39239e-14
1.94562e-12
2.00632e-12
1.86349e-12
2.15464e-12
2.35274e-12
1.51033e-12
9.82533e-12
9.85914e-12
9.74139e-12
9.88336e-12
9.82708e-12
9.68376e-12
6.16544e-12
6.17479e-12
6.08585e-12
6.21021e-12
6.23272e-12
6.08371e-12
5.3411e-12
5.34833e-12
5.2601e-12
5.38222e-12
5.39569e-12
5.26682e-12
0
0
0
0
0
0
0
0
0
0
0
0
0
0
0
0
0
0
0
0
0
0
0
0
0
0
0
0
0
0
)
;
    }
}


// ************************************************************************* //
