/*--------------------------------*- C++ -*----------------------------------*\
| =========                 |                                                 |
| \\      /  F ield         | OpenFOAM: The Open Source CFD Toolbox           |
|  \\    /   O peration     | Version:  v1612+                                |
|   \\  /    A nd           | Web:      www.OpenFOAM.com                      |
|    \\/     M anipulation  |                                                 |
\*---------------------------------------------------------------------------*/
FoamFile
{
    version     2.0;
    format      ascii;
    class       volScalarField;
    location    "4.7";
    object      p;
}
// * * * * * * * * * * * * * * * * * * * * * * * * * * * * * * * * * * * * * //

dimensions      [1 -1 -2 0 0 0 0];

internalField   nonuniform List<scalar> 
1116
(
2001.35
2001.35
2001.36
2001.35
2001.35
2001.37
2040.53
2040.53
2040.53
2040.52
2040.53
2040.55
2154.75
2154.74
2154.74
2154.74
2154.74
2154.77
2498.47
2498.46
2498.45
2498.45
2498.46
2498.47
3798.57
3798.55
3798.54
3798.55
3798.56
3798.57
7098.55
7098.44
7098.46
7098.46
7098.44
7098.5
12338.8
12338.8
12338.8
12338.8
12338.8
12338.8
16496.9
16496.9
16496.9
16496.9
16496.9
16496.9
18488.7
18489.1
18488.9
18489
18489
18488.8
20363.9
20364
20364
20364
20364
20363.9
22944.1
22943.7
22943.8
22943.9
22943.8
22944.1
23462.2
23462.1
23462.2
23462.2
23462.3
23462.5
10.0113
10.0115
10.0113
10.0112
10.011
10.0108
18.2056
18.2056
18.2054
18.2053
18.2052
18.205
45.7948
45.7948
45.7946
45.7946
45.7946
45.7946
82.6401
82.6391
82.6389
82.6388
82.6391
82.6404
149.786
149.759
149.766
149.765
149.762
149.781
831.05
830.648
830.805
830.827
830.701
830.932
3529.26
3529.2
3529.19
3529.19
3529.19
3529.25
7052.37
7052.03
7052.22
7052.28
7052.15
7052.31
7425.28
7425.69
7425.74
7425.76
7425.76
7425.4
9435.22
9434.45
9434.84
9434.88
9434.7
9434.87
11376.8
11375.5
11376
11376
11375.7
11376.8
12033.1
12032.7
12032.9
12032.9
12032.9
12033.9
14.6742
14.6739
14.6737
14.6735
14.6735
14.6735
15.9042
15.9041
15.9039
15.9038
15.9037
15.9035
20.1732
20.1736
20.1737
20.1736
20.1734
20.1728
15.9662
15.9624
15.9646
15.9641
15.9624
15.9626
28.0638
28.0592
28.0579
28.0573
28.0572
28.0572
87.4581
87.3783
87.3986
87.4042
87.3855
87.4274
272.641
272.462
272.537
272.53
272.486
272.633
3075.45
3075.07
3075.26
3075.31
3075.14
3075.37
4334.47
4334.4
4334.45
4334.53
4334.47
4334.64
3640.1
3642.04
3641.29
3641.14
3641.59
3640.97
2664.36
2665.7
2665.23
2664.89
2665.04
2665.37
2708.9
2707.15
2708.19
2707.9
2706.96
2709.7
-8.20344
-8.20339
-8.20358
-8.20353
-8.20335
-8.20336
-4.9003
-4.90026
-4.90037
-4.90025
-4.9
-4.89995
1.61569
1.61495
1.61491
1.61488
1.61486
1.61518
8.17843
8.16924
8.1702
8.17004
8.16842
8.17217
20.7254
20.7219
20.7222
20.7229
20.7221
20.7227
15.1647
15.1487
15.1508
15.158
15.1543
15.158
75.5883
75.4068
75.467
75.5329
75.468
75.5426
420.621
420.897
420.72
420.878
420.955
420.716
452.473
452.961
452.683
452.821
452.977
452.672
-57.7447
-57.5885
-57.6232
-57.7237
-57.7173
-57.3993
1.01577
0.966641
0.975835
0.977752
0.977373
1.03322
10.4427
10.6339
10.5722
10.5097
10.487
10.2588
49.3395
49.3269
49.2996
49.2642
49.2516
49.1661
52.7704
52.7628
52.6874
52.6155
52.6307
52.3446
58.8006
58.7816
58.508
58.2734
58.1944
57.6624
61.1793
61.0335
60.1603
59.6137
59.1699
57.9577
52.7885
52.9953
51.7071
51.3118
51.1166
49.3932
29.9999
31.9945
33.5998
35.13
36.6437
37.1769
125.304
123.222
123.731
116.573
103.158
125.003
849.953
831.323
816.163
769.549
695.572
791.009
2393.2
2386.12
2393.63
2375.63
2357.9
2402.61
1711.88
1704.31
1725.46
1656.96
1640.89
1771.96
935.256
933.137
931.597
923.805
915.674
930.307
931.618
930.83
929.358
924.129
921.261
924.185
33.277
33.2737
33.2633
33.247
33.2552
33.1889
34.0411
34.0617
34.0155
34.027
34.1051
33.8409
32.1286
32.2269
32.0942
32.1355
32.2645
31.8451
0.062402
0.206956
0.276154
0.406574
0.657153
0.738592
-95.7332
-95.1554
-93.855
-93.0604
-91.8554
-90.1854
-173.729
-173.256
-172.591
-170.877
-169.507
-171.213
-109.418
-110.073
-110.706
-111.381
-113.1
-111.756
14.7809
14.2994
13.9471
12.1258
9.49949
13.6446
225.899
221.145
222.968
202.354
174.381
224.877
396.271
391.206
392.382
345.24
326.492
411.939
416.918
416.707
425.977
412.393
390.898
445.756
762.783
762.084
760.773
760.091
751.717
756.51
10.4037
10.4052
10.4038
10.4003
10.4086
10.3814
7.9182
7.93074
7.92633
7.94108
7.98345
7.88574
-0.460824
-0.402552
-0.420801
-0.345972
-0.243406
-0.469459
-30.409
-30.3598
-30.259
-30.2412
-30.1717
-29.8849
-87.4037
-87.2609
-86.9281
-86.7412
-86.5242
-86.4526
-103.909
-103.895
-103.737
-103.484
-103.341
-103.672
-85.6353
-85.5631
-85.5666
-84.7532
-83.6827
-85.7303
-48.9281
-48.7786
-48.6446
-47.8201
-46.7264
-48.5389
-23.7531
-24.5518
-25.0219
-26.6223
-29.7623
-26.7743
82.2592
82.1111
87.7357
65.8781
42.8203
89.9138
419.292
428.527
438.71
439.134
560.449
466.619
754.78
757.878
747.357
743.524
738.86
733.676
-11.74
-11.7386
-11.7377
-11.7371
-11.7332
-11.741
-14.9689
-14.9634
-14.9601
-14.9528
-14.9399
-14.9629
-22.8974
-22.8794
-22.8729
-22.841
-22.8016
-22.871
-42.2972
-42.2776
-42.2482
-42.2253
-42.1723
-42.1044
-73.5739
-73.6067
-73.4783
-73.5309
-73.4404
-73.1066
-95.5372
-95.6424
-95.4496
-95.5395
-95.3522
-94.8885
-80.2286
-80.2826
-80.221
-80.1524
-80.0872
-80.1037
-56.2694
-56.2345
-56.1517
-55.9948
-55.6695
-55.9918
-48.5509
-48.5628
-48.5457
-48.5695
-48.5761
-48.5526
-30.9454
-30.2417
-29.7815
-33.1915
-35.1897
-29.5172
31.849
41.8564
49.3735
4.55606
-20.2475
52.0312
-1091.42
-1067.57
-1027.49
-896.531
-161.482
-824.588
-21.5459
-21.5459
-21.5458
-21.5457
-21.5454
-21.5451
-41.3823
-41.3823
-41.3822
-41.3821
-41.3821
-41.3821
-59.1154
-59.1155
-59.1155
-59.1156
-59.1156
-59.1157
-20.8483
-20.848
-20.8479
-20.8476
-20.8473
-20.8472
-40.8378
-40.8375
-40.8375
-40.8374
-40.8373
-40.8374
-59.1781
-59.1781
-59.1781
-59.1781
-59.1781
-59.1781
-20.1108
-20.1103
-20.1104
-20.1103
-20.11
-20.1101
-40.0929
-40.0923
-40.0924
-40.0923
-40.0921
-40.0923
-59.6468
-59.6468
-59.6468
-59.6467
-59.6467
-59.6466
-22.0637
-22.0604
-22.0615
-22.0615
-22.0605
-22.0627
-40.5877
-40.5854
-40.5862
-40.5861
-40.5855
-40.5866
-59.734
-59.7337
-59.7339
-59.7339
-59.7341
-59.7344
-14.1733
-14.1754
-14.1729
-14.1711
-14.1734
-14.1725
-46.8108
-46.8113
-46.811
-46.8106
-46.8121
-46.8118
-66.3348
-66.3367
-66.3365
-66.3364
-66.3374
-66.3365
-72.6374
-72.5998
-72.6124
-72.6173
-72.6069
-72.6257
-85.986
-85.9831
-85.9871
-85.9874
-85.9867
-85.9912
-78.849
-78.8505
-78.8521
-78.8518
-78.8521
-78.8548
-128.234
-128.231
-128.232
-128.234
-128.232
-128.233
-122.623
-122.637
-122.634
-122.633
-122.635
-122.633
-89.1132
-89.1151
-89.1144
-89.1162
-89.1158
-89.1171
-124.03
-124.023
-124.022
-124.022
-124.023
-124.027
-128.46
-128.469
-128.465
-128.467
-128.471
-128.469
-84.7887
-84.7895
-84.7875
-84.7896
-84.7889
-84.7888
-106.387
-106.376
-106.379
-106.379
-106.377
-106.375
-105.102
-105.104
-105.102
-105.104
-105.105
-105.1
-80.4552
-80.454
-80.4537
-80.4546
-80.4538
-80.4557
-93.5823
-93.5974
-93.595
-93.6006
-93.6019
-93.5675
-82.8038
-82.8052
-82.8045
-82.8065
-82.8065
-82.7988
-77.4688
-77.4679
-77.4678
-77.468
-77.4675
-77.4697
-30.384
-30.3871
-30.3909
-30.3942
-30.3924
-30.3885
-52.1753
-52.1744
-52.1761
-52.1771
-52.1768
-52.1745
-72.2187
-72.2177
-72.2181
-72.2182
-72.2184
-72.2181
40.8663
40.8925
40.8981
40.8555
40.8571
40.8582
-37.2632
-37.2626
-37.261
-37.2607
-37.2636
-37.2555
-73.0724
-73.0726
-73.0724
-73.0744
-73.0783
-73.0665
1452.28
1452.4
1452.52
1453.32
1454.45
1452.78
-49.9413
-49.916
-49.8836
-50.0096
-50.0506
-49.7367
-69.472
-69.4537
-69.4332
-69.4128
-69.3796
-69.3704
1478.96
1479.08
1479.32
1478.87
1478.77
1479.67
-52.2706
-52.26
-52.2502
-52.2808
-52.3059
-52.1616
-68.2502
-68.2361
-68.2313
-68.1963
-68.1654
-68.2061
1479.33
1479.31
1479.62
1479
1479.02
1479.79
-51.7922
-51.8103
-51.7851
-51.7599
-51.7453
-51.8024
-66.7578
-66.7492
-66.7455
-66.7226
-66.7018
-66.7449
1411.2
1411.11
1412.12
1409.15
1407.55
1413.4
-49.8017
-49.8017
-49.8009
-49.7958
-49.7815
-49.8379
-67.3317
-67.3261
-67.3242
-67.3139
-67.3026
-67.3368
1211.17
1211.34
1211.79
1211.17
1211.45
1211.94
-45.7826
-45.7836
-45.7728
-45.7773
-45.7787
-45.7291
-68.3625
-68.3542
-68.3573
-68.3428
-68.3153
-68.3728
931.924
931.929
932.211
931.9
932.191
932.142
-41.543
-41.5417
-41.537
-41.5331
-41.5298
-41.5218
-73.6081
-73.606
-73.6045
-73.6047
-73.6019
-73.5988
-30.239
-30.2383
-30.2375
-30.2368
-30.2357
-30.2372
-46.3305
-46.3303
-46.3299
-46.3295
-46.329
-46.3295
-61.3952
-61.3952
-61.3951
-61.395
-61.3949
-61.395
-32.6374
-32.6354
-32.633
-32.6299
-32.626
-32.6309
-47.5896
-47.5888
-47.5877
-47.5862
-47.5848
-47.586
-61.7314
-61.7312
-61.7309
-61.7305
-61.7302
-61.7304
-37.7267
-37.7209
-37.7149
-37.7041
-37.6919
-37.7063
-50.1423
-50.14
-50.1367
-50.1323
-50.1279
-50.132
-62.4381
-62.4375
-62.4367
-62.4355
-62.4345
-62.4353
-46.7841
-46.7733
-46.7605
-46.7389
-46.7117
-46.7086
-54.0592
-54.0536
-54.0476
-54.0366
-54.0261
-54.0348
-63.46
-63.4586
-63.4571
-63.4545
-63.4521
-63.4548
-59.4664
-59.4623
-59.4222
-59.4043
-59.3612
-59.2609
-59.0622
-59.0538
-59.0435
-59.028
-59.0136
-59.0109
-64.6114
-64.6091
-64.6072
-64.6033
-64.6001
-64.6019
-67.3621
-67.3693
-67.3195
-67.2815
-67.2412
-67.2354
-63.46
-63.4554
-63.4465
-63.436
-63.4248
-63.4223
-65.6767
-65.6749
-65.672
-65.6682
-65.6647
-65.6638
-64.0724
-64.0682
-64.0362
-63.987
-63.9121
-64.0168
-63.5985
-63.5981
-63.5948
-63.5895
-63.5873
-63.5866
-65.4547
-65.4513
-65.4448
-65.4358
-65.426
-65.432
-56.8375
-56.8248
-56.8004
-56.7446
-56.6713
-56.7701
-62.0095
-62.006
-61.997
-61.9871
-61.9754
-61.9728
-65.7588
-65.7563
-65.7521
-65.747
-65.7417
-65.7438
-50.8624
-50.9156
-50.9239
-50.9091
-50.8255
-51.0092
-60.068
-60.0648
-60.0495
-60.0559
-60.0393
-60.0271
-65.7562
-65.755
-65.7505
-65.7444
-65.7332
-65.749
-49.0742
-49.0393
-49.0301
-49.0261
-48.8553
-48.9974
-60.3131
-60.2864
-60.2456
-60.2895
-60.2502
-60.1309
-66.6416
-66.6351
-66.6233
-66.6023
-66.5664
-66.6164
-51.0453
-51.0276
-51.3562
-49.1638
-46.2159
-51.0031
-57.9476
-57.8925
-57.7825
-57.5762
-57.2083
-57.4325
-68.6077
-68.5914
-68.5522
-68.4577
-68.3679
-68.4728
800.993
799.474
795.441
822.065
834.757
797.108
-54.4276
-54.3575
-54.2575
-54.1599
-53.8789
-53.9077
-76.7966
-76.7368
-76.6671
-76.5232
-76.3473
-76.4451
)
;

boundaryField
{
    seabed_topleft_surface
    {
        type            calculated;
        value           nonuniform List<scalar> 
72
(
3970.32
3970.32
3970.33
3970.32
3970.32
3970.36
4041.71
4041.71
4041.72
4041.7
4041.71
4041.76
4265.53
4265.52
4265.53
4265.52
4265.53
4265.58
4914.27
4914.25
4914.25
4914.25
4914.27
4914.3
6914.94
6914.91
6914.92
6914.92
6914.93
6914.98
11297.5
11297.4
11297.4
11297.4
11297.4
11297.5
17133.4
17133.4
17133.4
17133.4
17133.4
17133.4
21291.5
21291.5
21291.5
21291.5
21291.5
21291.5
23283.2
23283.6
23283.5
23283.5
23283.5
23283.3
25158.4
25158.5
25158.5
25158.5
25158.4
25158.3
27738.5
27738
27738.1
27738.2
27738.1
27738.4
28256.6
28256.6
28256.7
28256.7
28256.8
28257
)
;
    }
    seabed_topright_surface
    {
        type            calculated;
        value           nonuniform List<scalar> 
72
(
54.2614
54.2488
54.2215
54.186
54.1735
54.088
57.6923
57.6847
57.6093
57.5374
57.5526
57.2665
63.7241
63.7051
63.4314
63.1969
63.1179
62.5856
66.15
66.0048
65.1287
64.5834
64.142
62.9204
59.6212
59.7552
57.985
57.67
57.3931
55.1193
126.954
128.973
127.307
129.29
131.551
124.846
297.975
296.796
299.684
290.747
281.527
305.1
1030.59
1013.36
1001.39
953.123
883.079
984.02
2577.37
2571.55
2583.44
2564.52
2550.91
2600.65
1891.11
1882.89
1908.39
1827.79
1808.12
1962.34
987.822
985.397
985.621
977.662
969.802
987.859
937.46
936.553
934.962
929.621
926.578
929.647
)
;
    }
    breakwater_top_surface
    {
        type            calculated;
        value           nonuniform List<scalar> 
36
(
2973.63
2973.84
2974.05
2974.82
2976.07
2974.75
3002.72
3002.91
3003.22
3002.95
3002.98
3003.88
3000.77
3000.82
3001.28
3000.42
3000.43
3001.93
2865.67
2865.46
2867.63
2861.31
2857.8
2870.54
2470.59
2470.87
2471.9
2470.45
2470.7
2472.42
1934.98
1934.94
1935.57
1934.9
1935.43
1935.49
)
;
    }
    breakwater_left_surface
    {
        type            calculated;
        value           nonuniform List<scalar> 
24
(
23478.6
23478.5
23478.6
23478.7
23478.7
23478.9
12049.1
12048.8
12048.9
12049
12049
12049.9
2717.94
2716.19
2717.23
2716.95
2716
2718.74
10.4614
10.6526
10.5909
10.5284
10.5057
10.2775
)
;
    }
    breakwater_right_surface
    {
        type            calculated;
        value           nonuniform List<scalar> 
24
(
931.638
930.849
929.377
924.147
921.279
924.204
762.802
762.103
760.791
760.108
751.734
756.527
755.194
758.337
748.009
743.688
738.877
734.489
-1088.12
-1064.27
-1024.18
-893.227
-158.179
-821.29
)
;
    }
    water_front_surface
    {
        type            calculated;
        value           nonuniform List<scalar> 
186
(
2001.35
2040.53
2154.75
2498.47
3798.57
7098.55
12338.8
16496.9
18488.7
20363.9
22944.1
23462.2
10.0113
18.2056
45.7948
82.6401
149.786
831.05
3529.26
7052.37
7425.28
9435.22
11376.8
12033.1
14.6742
15.9042
20.1732
15.9662
28.0638
87.4581
272.641
3075.45
4334.47
3640.1
2664.36
2708.9
-8.20344
-4.9003
1.61569
8.17843
20.7254
15.1647
75.5883
420.621
452.473
-57.7447
1.01577
10.4427
49.3395
52.7704
58.8006
61.1793
52.7885
29.9999
125.304
849.953
2393.2
1711.88
935.256
931.618
33.277
34.0411
32.1286
0.062402
-95.7332
-173.729
-109.418
14.7809
225.899
396.271
416.918
762.783
10.4037
7.9182
-0.460824
-30.409
-87.4037
-103.909
-85.6353
-48.9281
-23.7531
82.2592
419.292
754.78
-11.74
-14.9689
-22.8974
-42.2972
-73.5739
-95.5372
-80.2286
-56.2694
-48.5509
-30.9454
31.849
-1091.42
-21.5459
-41.3823
-59.1154
-20.8483
-40.8378
-59.1781
-20.1108
-40.0929
-59.6468
-22.0637
-40.5877
-59.734
-14.1733
-46.8108
-66.3348
-72.6374
-85.986
-78.849
-128.234
-122.623
-89.1132
-124.03
-128.46
-84.7887
-106.387
-105.102
-80.4552
-93.5823
-82.8038
-77.4688
-30.384
-52.1753
-72.2187
40.8663
-37.2632
-73.0724
1452.28
-49.9413
-69.472
1478.96
-52.2706
-68.2502
1479.33
-51.7922
-66.7578
1411.2
-49.8017
-67.3317
1211.17
-45.7826
-68.3625
931.924
-41.543
-73.6081
-30.239
-46.3305
-61.3952
-32.6374
-47.5896
-61.7314
-37.7267
-50.1423
-62.4381
-46.7841
-54.0592
-63.46
-59.4664
-59.0622
-64.6114
-67.3621
-63.46
-65.6767
-64.0724
-63.5985
-65.4547
-56.8375
-62.0095
-65.7588
-50.8624
-60.068
-65.7562
-49.0742
-60.3131
-66.6416
-51.0453
-57.9476
-68.6077
800.993
-54.4276
-76.7966
)
;
    }
    water_back_surface
    {
        type            calculated;
        value           nonuniform List<scalar> 
186
(
2001.37
2040.55
2154.77
2498.47
3798.57
7098.5
12338.8
16496.9
18488.8
20363.9
22944.1
23462.5
10.0108
18.205
45.7946
82.6404
149.781
830.932
3529.25
7052.31
7425.4
9434.87
11376.8
12033.9
14.6735
15.9035
20.1728
15.9626
28.0572
87.4274
272.633
3075.37
4334.64
3640.97
2665.37
2709.7
-8.20336
-4.89995
1.61518
8.17217
20.7227
15.158
75.5426
420.716
452.672
-57.3993
1.03322
10.2588
49.1661
52.3446
57.6624
57.9577
49.3932
37.1769
125.003
791.009
2402.61
1771.96
930.307
924.185
33.1889
33.8409
31.8451
0.738592
-90.1854
-171.213
-111.756
13.6446
224.877
411.939
445.756
756.51
10.3814
7.88574
-0.469459
-29.8849
-86.4526
-103.672
-85.7303
-48.5389
-26.7743
89.9138
466.619
733.676
-11.741
-14.9629
-22.871
-42.1044
-73.1066
-94.8885
-80.1037
-55.9918
-48.5526
-29.5172
52.0312
-824.588
-21.5451
-41.3821
-59.1157
-20.8472
-40.8374
-59.1781
-20.1101
-40.0923
-59.6466
-22.0627
-40.5866
-59.7344
-14.1725
-46.8118
-66.3365
-72.6257
-85.9912
-78.8548
-128.233
-122.633
-89.1171
-124.027
-128.469
-84.7888
-106.375
-105.1
-80.4557
-93.5675
-82.7988
-77.4697
-30.3885
-52.1745
-72.2181
40.8582
-37.2555
-73.0665
1452.78
-49.7367
-69.3704
1479.67
-52.1616
-68.2061
1479.79
-51.8024
-66.7449
1413.4
-49.8379
-67.3368
1211.94
-45.7291
-68.3728
932.142
-41.5218
-73.5988
-30.2372
-46.3295
-61.395
-32.6309
-47.586
-61.7304
-37.7063
-50.132
-62.4353
-46.7086
-54.0348
-63.4548
-59.2609
-59.0109
-64.6019
-67.2354
-63.4223
-65.6638
-64.0168
-63.5866
-65.432
-56.7701
-61.9728
-65.7438
-51.0092
-60.0271
-65.749
-48.9974
-60.1309
-66.6164
-51.0031
-57.4325
-68.4728
797.108
-53.9077
-76.4451
)
;
    }
    water_left_surface
    {
        type            calculated;
        value           nonuniform List<scalar> 
42
(
2008.1
2008.1
2008.1
2008.09
2008.1
2008.11
10.0278
10.028
10.0278
10.0277
10.0275
10.0273
14.6904
14.6901
14.6898
14.6897
14.6897
14.6897
-8.18756
-8.18752
-8.18771
-8.18766
-8.18747
-8.18749
-21.5459
-21.5459
-21.5458
-21.5457
-21.5454
-21.5451
-41.3823
-41.3823
-41.3822
-41.3821
-41.3821
-41.3821
-59.1154
-59.1155
-59.1155
-59.1156
-59.1156
-59.1157
)
;
    }
    water_right_surface
    {
        type            calculated;
        value           nonuniform List<scalar> 
42
(
49.3564
49.3438
49.3165
49.281
49.2685
49.183
33.2935
33.2902
33.2799
33.2635
33.2717
33.2054
10.4199
10.4213
10.42
10.4165
10.4248
10.3975
-11.7241
-11.7227
-11.7218
-11.7212
-11.7174
-11.7251
-30.239
-30.2383
-30.2375
-30.2368
-30.2357
-30.2372
-46.3305
-46.3303
-46.3299
-46.3295
-46.329
-46.3295
-61.3952
-61.3952
-61.3951
-61.395
-61.3949
-61.395
)
;
    }
    water_top_surface
    {
        type            calculated;
        value           nonuniform List<scalar> 
180
(
-68.9108
-68.911
-68.911
-68.9111
-68.9112
-68.9111
-68.8056
-68.8057
-68.8057
-68.8058
-68.8058
-68.8058
-68.67
-68.67
-68.67
-68.67
-68.67
-68.67
-68.67
-68.67
-68.67
-68.67
-68.67
-68.67
-68.67
-68.67
-68.67
-68.67
-68.67
-68.67
-68.6704
-68.6704
-68.6704
-68.6704
-68.6704
-68.6704
-68.8645
-68.8644
-68.8644
-68.8646
-68.8645
-68.8645
-69.0451
-69.046
-69.0456
-69.0456
-69.0457
-69.045
-74.1413
-74.1298
-74.135
-74.1354
-74.1331
-74.1404
-79.0556
-79.0464
-79.0491
-79.0502
-79.0494
-79.0545
-76.2737
-76.2706
-76.2704
-76.2726
-76.2749
-76.2675
-71.9339
-71.9394
-71.9361
-71.9374
-71.9437
-71.928
-71.1009
-71.1362
-71.1194
-71.1136
-71.1993
-71.0689
-70.4602
-70.4624
-70.4578
-70.4421
-70.4456
-70.4335
-71.3652
-71.3641
-71.3605
-71.3933
-71.4781
-71.2366
-73.7783
-73.8025
-73.7448
-73.8828
-74.042
-73.5888
-74.066
-74.0913
-74.0485
-74.1327
-74.2563
-73.9329
-72.0009
-72.0122
-72
-72.0186
-72.0531
-71.9626
-68.67
-68.67
-68.67
-68.67
-68.67
-68.67
-68.67
-68.67
-68.67
-68.67
-68.67
-68.67
-68.67
-68.67
-68.67
-68.67
-68.67
-68.67
-68.67
-68.67
-68.67
-68.67
-68.67
-68.67
-68.67
-68.67
-68.67
-68.67
-68.67
-68.67
-68.67
-68.67
-68.67
-68.67
-68.67
-68.67
-68.67
-68.67
-68.67
-68.67
-68.67
-68.67
-69.6078
-69.6057
-69.6059
-69.6043
-69.6034
-69.6016
-69.3755
-69.3758
-69.3766
-69.3679
-69.3583
-69.3816
-74.1721
-74.1756
-74.1593
-74.1558
-74.1375
-74.1288
-75.0041
-75.0237
-74.9892
-74.9161
-74.8957
-74.9143
-70.8376
-70.8063
-70.8263
-70.6982
-70.4136
-70.8098
)
;
    }
}


// ************************************************************************* //
