/*--------------------------------*- C++ -*----------------------------------*\
| =========                 |                                                 |
| \\      /  F ield         | OpenFOAM: The Open Source CFD Toolbox           |
|  \\    /   O peration     | Version:  v1612+                                |
|   \\  /    A nd           | Web:      www.OpenFOAM.com                      |
|    \\/     M anipulation  |                                                 |
\*---------------------------------------------------------------------------*/
FoamFile
{
    version     2.0;
    format      ascii;
    class       volScalarField;
    location    "4.7";
    object      p_rgh;
}
// * * * * * * * * * * * * * * * * * * * * * * * * * * * * * * * * * * * * * //

dimensions      [1 -1 -2 0 0 0 0];

internalField   nonuniform List<scalar> 
1116
(
3970.32
3970.32
3970.33
3970.32
3970.32
3970.36
4041.71
4041.71
4041.72
4041.7
4041.71
4041.76
4265.53
4265.52
4265.53
4265.52
4265.53
4265.58
4914.27
4914.25
4914.25
4914.25
4914.27
4914.3
6914.94
6914.91
6914.92
6914.92
6914.93
6914.98
11297.5
11297.4
11297.4
11297.4
11297.4
11297.5
17133.4
17133.4
17133.4
17133.4
17133.4
17133.4
21291.5
21291.5
21291.5
21291.5
21291.5
21291.5
23283.2
23283.6
23283.5
23283.5
23283.5
23283.3
25158.4
25158.5
25158.5
25158.5
25158.4
25158.3
27738.5
27738
27738.1
27738.2
27738.1
27738.4
28256.6
28256.6
28256.7
28256.7
28256.8
28257
24.7432
24.7434
24.7432
24.743
24.7429
24.7426
32.9375
32.9375
32.9373
32.9371
32.937
32.9369
60.5266
60.5266
60.5265
60.5265
60.5264
60.5264
105.106
105.106
105.103
105.105
105.106
105.104
418.175
418.091
418.118
418.128
418.102
418.141
3196.55
3196.1
3196.23
3196.23
3196.09
3196.33
12956.6
12956.7
12956.5
12956.4
12956.5
12956.5
21238.9
21238.6
21238.7
21238.8
21238.7
21238.8
21775.6
21776
21776
21776
21776
21775.7
23785.1
23784.4
23784.8
23784.8
23784.6
23784.8
25724.2
25723
25723.4
25723.4
25723.1
25724.3
26380.9
26380.5
26380.7
26380.7
26380.7
26381.7
39.2186
39.2184
39.2181
39.218
39.2179
39.2179
40.4535
40.4534
40.4532
40.4531
40.453
40.4528
44.715
44.7153
44.7154
44.7153
44.7152
44.7146
40.5097
40.506
40.5081
40.5076
40.5059
40.5062
52.7501
52.7454
52.7441
52.7435
52.7434
52.7434
124.022
123.934
123.958
123.964
123.942
123.987
3741.66
3742.07
3741.77
3741.58
3741.83
3741.34
15762.8
15766.9
15764.9
15764.7
15766
15763.4
20570.2
20577.3
20574
20573.8
20575.9
20572.1
19029.2
19040.6
19035.7
19034.9
19038
19033.1
15690.8
15699.6
15696.4
15694.5
15695.6
15696.6
16418.6
16410.9
16415.5
16414.7
16410.5
16422
26.1493
26.1494
26.1492
26.1492
26.1494
26.1494
29.465
29.4651
29.465
29.4651
29.4653
29.4654
35.9692
35.9685
35.9684
35.9684
35.9684
35.9687
42.5316
42.5224
42.5233
42.5232
42.5216
42.5253
55.0992
55.0956
55.0959
55.0966
55.0958
55.0965
53.3769
53.3171
53.3394
53.3519
53.3317
53.355
1620.98
1618.96
1619.76
1620.61
1619.76
1620.35
4107.16
4109.68
4108.09
4109.37
4110.12
4108
4181.79
4186.57
4183.95
4184.94
4186.45
4183.48
1102.5
1106.84
1104.86
1104.65
1105.84
1104.54
38.434
38.386
38.3918
38.3922
38.3933
38.4477
50.9197
51.1088
51.0459
50.9786
50.9544
50.7355
54.2614
54.2488
54.2215
54.186
54.1735
54.088
57.6923
57.6847
57.6093
57.5374
57.5526
57.2665
63.7241
63.7051
63.4314
63.1969
63.1179
62.5856
66.15
66.0048
65.1287
64.5834
64.142
62.9204
59.6212
59.7552
57.985
57.67
57.3931
55.1193
126.954
128.973
127.307
129.29
131.551
124.846
297.975
296.796
299.684
290.747
281.527
305.1
1030.59
1013.36
1001.39
953.123
883.079
984.02
2577.37
2571.55
2583.44
2564.52
2550.91
2600.65
1891.11
1882.89
1908.39
1827.79
1808.12
1962.34
987.822
985.397
985.621
977.662
969.802
987.859
937.46
936.553
934.962
929.621
926.578
929.647
48.0085
48.0052
47.9949
47.9785
47.9867
47.9204
48.7726
48.7932
48.747
48.7586
48.8366
48.5724
46.8622
46.9606
46.8277
46.8692
46.9983
46.5783
16.9435
17.117
17.0929
17.3376
17.6569
17.3193
-72.0311
-71.4071
-70.2299
-69.4259
-68.2274
-66.8105
-153.537
-153.034
-152.267
-150.938
-149.626
-150.5
-94.6783
-95.3328
-95.9658
-96.6419
-98.3629
-97.0155
71.4182
66.1957
67.2787
50.9335
32.5409
64.2861
775.773
773.698
791.589
707.675
636.611
819.097
1234.57
1251.6
1276.85
1220.77
1235.79
1346.51
1231.43
1235.37
1312.97
1043.72
817.899
1384.35
779.914
778.857
777.212
776.005
767.263
772.424
34.9449
34.9463
34.945
34.9415
34.9498
34.9225
32.4594
32.4719
32.4675
32.4823
32.5246
32.4269
24.086
24.1446
24.1255
24.2025
24.3064
24.0747
-5.23385
-5.17453
-5.09762
-5.02973
-4.93693
-4.80308
-61.5831
-61.4397
-61.0892
-60.9441
-60.7478
-60.58
-79.3648
-79.3506
-79.1928
-78.9391
-78.7964
-79.1274
-61.094
-61.0218
-61.0253
-60.2119
-59.1414
-61.189
-24.387
-24.2374
-24.1034
-23.2789
-22.1853
-23.9977
1.05696
0.286077
-0.190504
-1.77325
-4.81006
-1.90611
1340.73
1348.59
1402.71
1209.54
830.379
1457.53
3111.36
3141.26
3154.85
3178.44
3258.4
3222.56
1381.73
1453.95
1736.18
991.776
764.759
1966.04
22.6109
22.6123
22.6132
22.6138
22.6176
22.6099
19.382
19.3875
19.3908
19.398
19.411
19.388
11.4536
11.4716
11.478
11.5101
11.5496
11.4799
-7.94553
-7.92597
-7.89658
-7.87358
-7.82046
-7.75291
-39.22
-39.2528
-39.1244
-39.1771
-39.0866
-38.7527
-61.1813
-61.2866
-61.0939
-61.1834
-60.9965
-60.533
-45.8777
-45.9318
-45.8701
-45.8015
-45.7363
-45.7528
-21.9185
-21.8836
-21.8008
-21.6439
-21.3186
-21.6409
-14.2001
-14.212
-14.1949
-14.2187
-14.2253
-14.2018
3.78397
4.52753
4.97776
1.59581
-0.246003
5.29266
3836.56
3881.02
3898.72
3886.94
3705.28
3949.17
6048.57
6077.67
6121.81
6252.76
6985.62
6313.58
22.5993
22.5992
22.5993
22.5995
22.5998
22.6001
12.5727
12.5727
12.5728
12.5729
12.5729
12.5729
4.64957
4.64952
4.64947
4.64945
4.6494
4.64932
23.3044
23.3047
23.3048
23.3051
23.3054
23.3055
13.1172
13.1175
13.1175
13.1176
13.1177
13.1176
4.58688
4.5869
4.58689
4.58689
4.58687
4.58689
24.0342
24.0347
24.0346
24.0347
24.035
24.0349
13.8621
13.8627
13.8626
13.8627
13.8629
13.8627
4.11817
4.11821
4.11823
4.1183
4.1183
4.11837
22.0813
22.0847
22.0836
22.0836
22.0845
22.0823
13.3673
13.3696
13.3688
13.3689
13.3695
13.3684
4.03099
4.03126
4.03115
4.0311
4.03095
4.03063
29.9748
29.9728
29.9752
29.977
29.9747
29.9756
7.14444
7.14389
7.14419
7.1446
7.14311
7.14339
-2.56982
-2.57167
-2.57149
-2.57135
-2.57239
-2.5715
-27.3469
-27.3237
-27.3303
-27.3277
-27.3242
-27.3375
-32.0186
-32.0158
-32.0197
-32.02
-32.0193
-32.0238
-15.0836
-15.0851
-15.0867
-15.0864
-15.0867
-15.0894
-84.0147
-84.0109
-84.0126
-84.0143
-84.0122
-84.0133
-68.4746
-68.4891
-68.4859
-68.4851
-68.4865
-68.4847
-25.1676
-25.1696
-25.1688
-25.1705
-25.1702
-25.1714
-79.8099
-79.8027
-79.8022
-79.8027
-79.8032
-79.807
-74.0825
-74.0898
-74.0867
-74.0888
-74.0922
-74.0913
-20.6755
-20.6753
-20.6737
-20.6758
-20.6751
-20.6756
-62.2042
-62.1937
-62.1966
-62.1964
-62.1943
-62.1927
-50.7492
-50.7519
-50.7493
-50.7519
-50.7527
-50.7474
-16.6269
-16.625
-16.625
-16.626
-16.6251
-16.6277
-49.4368
-49.4519
-49.4495
-49.4552
-49.4564
-49.4221
-28.8485
-28.8499
-28.8493
-28.8513
-28.8513
-28.8435
-13.7038
-13.7029
-13.7028
-13.703
-13.7025
-13.7047
13.7682
13.765
13.7612
13.7579
13.7597
13.7635
1.78034
1.78129
1.77956
1.77848
1.77882
1.78114
-8.00272
-8.00169
-8.00212
-8.00221
-8.00237
-8.00206
587.054
587.071
586.976
587.077
587.782
586.166
16.6917
16.6924
16.694
16.6943
16.6914
16.6995
-9.15122
-9.15224
-9.15166
-9.15402
-9.15843
-9.14422
15144.5
15145.3
15146.3
15146.8
15149.1
15150.4
4.01505
4.03904
4.07138
3.94545
3.90443
4.21835
-5.70702
-5.6887
-5.66824
-5.64776
-5.61463
-5.60541
15192.8
15193.5
15194.4
15195.5
15196.6
15197.5
14.3319
16.2645
17.4131
9.20184
5.02508
21.8148
-4.48516
-4.47111
-4.4663
-4.43126
-4.40036
-4.44112
15172.3
15172.9
15174.6
15171.8
15171.7
15179.1
2.1628
2.1447
2.16991
2.19512
2.20968
2.15258
-2.99278
-2.98423
-2.98054
-2.95763
-2.93676
-2.97985
14501.5
14500.2
14511.7
14478.6
14459.8
14527.6
4.15332
4.15334
4.15405
4.15917
4.17351
4.1171
-3.56674
-3.56106
-3.55922
-3.54891
-3.53763
-3.57177
12546
12547.1
12552.8
12544.6
12544.7
12556.3
8.17237
8.1714
8.18216
8.17774
8.17631
8.2259
-4.5975
-4.58917
-4.5923
-4.57782
-4.55025
-4.60782
9959.41
9959.03
9962.43
9958.91
9961.33
9962.29
12.412
12.4133
12.418
12.4219
12.4252
12.4332
-9.8431
-9.84099
-9.83948
-9.83972
-9.83689
-9.83383
13.906
13.9067
13.9075
13.9082
13.9093
13.9078
7.62446
7.62469
7.62508
7.62551
7.62596
7.62552
2.36978
2.3698
2.36987
2.36999
2.37011
2.37001
11.5076
11.5096
11.512
11.5151
11.519
11.5141
6.36542
6.36617
6.36734
6.36877
6.37022
6.36897
2.03365
2.03379
2.03408
2.03446
2.03483
2.0346
6.4183
6.4241
6.43013
6.44091
6.45314
6.43867
3.8127
3.81504
3.81825
3.82266
3.82707
3.82304
1.32693
1.32748
1.32832
1.32945
1.33055
1.32971
-2.63909
-2.62828
-2.61547
-2.5939
-2.56664
-2.56361
-0.104171
-0.098555
-0.0925872
-0.0816053
-0.071123
-0.0798155
0.304982
0.306372
0.307877
0.31049
0.312886
0.310246
-15.3213
-15.3172
-15.277
-15.2592
-15.2161
-15.1158
-5.10722
-5.09883
-5.08851
-5.07299
-5.05857
-5.05586
-0.846363
-0.844146
-0.842168
-0.838268
-0.835142
-0.836871
-23.2167
-23.224
-23.1741
-23.1361
-23.0959
-23.0901
-9.50497
-9.50038
-9.49145
-9.48103
-9.4698
-9.46732
-1.91173
-1.90991
-1.90699
-1.90316
-1.89969
-1.89876
-19.9274
-19.9231
-19.8912
-19.8419
-19.7671
-19.8717
-9.64346
-9.64314
-9.63983
-9.63447
-9.63228
-9.63163
-1.68973
-1.68627
-1.67976
-1.67081
-1.66104
-1.66695
-12.6925
-12.6798
-12.6554
-12.5996
-12.5263
-12.6251
-8.05455
-8.051
-8.04196
-8.03215
-8.02038
-8.01776
-1.99383
-1.99134
-1.9871
-1.98204
-1.97674
-1.97883
-6.71744
-6.77065
-6.77889
-6.76408
-6.68049
-6.86423
-6.11295
-6.10981
-6.09453
-6.10085
-6.08427
-6.07205
-1.99119
-1.98996
-1.98547
-1.97943
-1.96819
-1.98398
-4.93944
-4.90546
-4.89596
-4.89303
-4.72289
-4.86445
-6.35804
-6.33142
-6.29062
-6.33445
-6.29506
-6.17583
-2.86621
-2.86017
-2.84901
-2.82686
-2.79091
-2.84102
-6.90067
-6.88482
-7.2163
-5.01992
-2.07285
-6.86208
-3.99256
-3.93743
-3.82743
-3.62112
-3.25321
-3.47728
-4.84265
-4.82634
-4.7865
-4.69255
-4.59737
-4.70443
9007.16
8986.16
8940.26
9189.88
9280
8933.42
-0.472599
-0.402524
-0.302475
-0.204886
0.0762018
0.0474818
-12.9665
-12.9196
-12.8586
-12.6018
-12.2303
-12.6425
)
;

boundaryField
{
    seabed_topleft_surface
    {
        type            fixedFluxPressure;
        gradient        uniform 0;
        value           nonuniform List<scalar> 
72
(
3970.32
3970.32
3970.33
3970.32
3970.32
3970.36
4041.71
4041.71
4041.72
4041.7
4041.71
4041.76
4265.53
4265.52
4265.53
4265.52
4265.53
4265.58
4914.27
4914.25
4914.25
4914.25
4914.27
4914.3
6914.94
6914.91
6914.92
6914.92
6914.93
6914.98
11297.5
11297.4
11297.4
11297.4
11297.4
11297.5
17133.4
17133.4
17133.4
17133.4
17133.4
17133.4
21291.5
21291.5
21291.5
21291.5
21291.5
21291.5
23283.2
23283.6
23283.5
23283.5
23283.5
23283.3
25158.4
25158.5
25158.5
25158.5
25158.4
25158.3
27738.5
27738
27738.1
27738.2
27738.1
27738.4
28256.6
28256.6
28256.7
28256.7
28256.8
28257
)
;
    }
    seabed_topright_surface
    {
        type            fixedFluxPressure;
        gradient        uniform 0;
        value           nonuniform List<scalar> 
72
(
54.2614
54.2488
54.2215
54.186
54.1735
54.088
57.6923
57.6847
57.6093
57.5374
57.5526
57.2665
63.7241
63.7051
63.4314
63.1969
63.1179
62.5856
66.15
66.0048
65.1287
64.5834
64.142
62.9204
59.6212
59.7552
57.985
57.67
57.3931
55.1193
126.954
128.973
127.307
129.29
131.551
124.846
297.975
296.796
299.684
290.747
281.527
305.1
1030.59
1013.36
1001.39
953.123
883.079
984.02
2577.37
2571.55
2583.44
2564.52
2550.91
2600.65
1891.11
1882.89
1908.39
1827.79
1808.12
1962.34
987.822
985.397
985.621
977.662
969.802
987.859
937.46
936.553
934.962
929.621
926.578
929.647
)
;
    }
    breakwater_top_surface
    {
        type            fixedFluxPressure;
        gradient        uniform 0;
        value           nonuniform List<scalar> 
36
(
15144.5
15145.3
15146.3
15146.8
15149.1
15150.4
15192.8
15193.5
15194.4
15195.5
15196.6
15197.5
15172.3
15172.9
15174.6
15171.8
15171.7
15179.1
14501.5
14500.2
14511.7
14478.6
14459.8
14527.6
12546
12547.1
12552.8
12544.6
12544.7
12556.3
9959.41
9959.03
9962.43
9958.91
9961.33
9962.29
)
;
    }
    breakwater_left_surface
    {
        type            fixedFluxPressure;
        gradient        uniform 0;
        value           nonuniform List<scalar> 
24
(
28256.6
28256.6
28256.7
28256.7
28256.8
28257
26380.9
26380.5
26380.7
26380.7
26380.7
26381.7
16418.6
16410.9
16415.5
16414.7
16410.5
16422
50.9197
51.1088
51.0459
50.9786
50.9544
50.7355
)
;
    }
    breakwater_right_surface
    {
        type            fixedFluxPressure;
        gradient        uniform 0;
        value           nonuniform List<scalar> 
24
(
937.46
936.553
934.962
929.621
926.578
929.647
779.914
778.857
777.212
776.005
767.263
772.424
1381.73
1453.95
1736.18
991.776
764.759
1966.04
6048.57
6077.67
6121.81
6252.76
6985.62
6313.58
)
;
    }
    water_front_surface
    {
        type            fixedFluxPressure;
        gradient        uniform 0;
        value           nonuniform List<scalar> 
186
(
3970.32
4041.71
4265.53
4914.27
6914.94
11297.5
17133.4
21291.5
23283.2
25158.4
27738.5
28256.6
24.7432
32.9375
60.5266
105.106
418.175
3196.55
12956.6
21238.9
21775.6
23785.1
25724.2
26380.9
39.2186
40.4535
44.715
40.5097
52.7501
124.022
3741.66
15762.8
20570.2
19029.2
15690.8
16418.6
26.1493
29.465
35.9692
42.5316
55.0992
53.3769
1620.98
4107.16
4181.79
1102.5
38.434
50.9197
54.2614
57.6923
63.7241
66.15
59.6212
126.954
297.975
1030.59
2577.37
1891.11
987.822
937.46
48.0085
48.7726
46.8622
16.9435
-72.0311
-153.537
-94.6783
71.4182
775.773
1234.57
1231.43
779.914
34.9449
32.4594
24.086
-5.23385
-61.5831
-79.3648
-61.094
-24.387
1.05696
1340.73
3111.36
1381.73
22.6109
19.382
11.4536
-7.94553
-39.22
-61.1813
-45.8777
-21.9185
-14.2001
3.78397
3836.56
6048.57
22.5993
12.5727
4.64957
23.3044
13.1172
4.58688
24.0342
13.8621
4.11817
22.0813
13.3673
4.03099
29.9748
7.14444
-2.56982
-27.3469
-32.0186
-15.0836
-84.0147
-68.4746
-25.1676
-79.8099
-74.0825
-20.6755
-62.2042
-50.7492
-16.6269
-49.4368
-28.8485
-13.7038
13.7682
1.78034
-8.00272
587.054
16.6917
-9.15122
15144.5
4.01505
-5.70702
15192.8
14.3319
-4.48516
15172.3
2.1628
-2.99278
14501.5
4.15332
-3.56674
12546
8.17237
-4.5975
9959.41
12.412
-9.8431
13.906
7.62446
2.36978
11.5076
6.36542
2.03365
6.4183
3.8127
1.32693
-2.63909
-0.104171
0.304982
-15.3213
-5.10722
-0.846363
-23.2167
-9.50497
-1.91173
-19.9274
-9.64346
-1.68973
-12.6925
-8.05455
-1.99383
-6.71744
-6.11295
-1.99119
-4.93944
-6.35804
-2.86621
-6.90067
-3.99256
-4.84265
9007.16
-0.472599
-12.9665
)
;
    }
    water_back_surface
    {
        type            fixedFluxPressure;
        gradient        uniform 0;
        value           nonuniform List<scalar> 
186
(
3970.36
4041.76
4265.58
4914.3
6914.98
11297.5
17133.4
21291.5
23283.3
25158.3
27738.4
28257
24.7426
32.9369
60.5264
105.104
418.141
3196.33
12956.5
21238.8
21775.7
23784.8
25724.3
26381.7
39.2179
40.4528
44.7146
40.5062
52.7434
123.987
3741.34
15763.4
20572.1
19033.1
15696.6
16422
26.1494
29.4654
35.9687
42.5253
55.0965
53.355
1620.35
4108
4183.48
1104.54
38.4477
50.7355
54.088
57.2665
62.5856
62.9204
55.1193
124.846
305.1
984.02
2600.65
1962.34
987.859
929.647
47.9204
48.5724
46.5783
17.3193
-66.8105
-150.5
-97.0155
64.2861
819.097
1346.51
1384.35
772.424
34.9225
32.4269
24.0747
-4.80308
-60.58
-79.1274
-61.189
-23.9977
-1.90611
1457.53
3222.56
1966.04
22.6099
19.388
11.4799
-7.75291
-38.7527
-60.533
-45.7528
-21.6409
-14.2018
5.29266
3949.17
6313.58
22.6001
12.5729
4.64932
23.3055
13.1176
4.58689
24.0349
13.8627
4.11837
22.0823
13.3684
4.03063
29.9756
7.14339
-2.5715
-27.3375
-32.0238
-15.0894
-84.0133
-68.4847
-25.1714
-79.807
-74.0913
-20.6756
-62.1927
-50.7474
-16.6277
-49.4221
-28.8435
-13.7047
13.7635
1.78114
-8.00206
586.166
16.6995
-9.14422
15150.4
4.21835
-5.60541
15197.5
21.8148
-4.44112
15179.1
2.15258
-2.97985
14527.6
4.1171
-3.57177
12556.3
8.2259
-4.60782
9962.29
12.4332
-9.83383
13.9078
7.62552
2.37001
11.5141
6.36897
2.0346
6.43867
3.82304
1.32971
-2.56361
-0.0798155
0.310246
-15.1158
-5.05586
-0.836871
-23.0901
-9.46732
-1.89876
-19.8717
-9.63163
-1.66695
-12.6251
-8.01776
-1.97883
-6.86423
-6.07205
-1.98398
-4.86445
-6.17583
-2.84102
-6.86208
-3.47728
-4.70443
8933.42
0.0474818
-12.6425
)
;
    }
    water_left_surface
    {
        type            fixedFluxPressure;
        gradient        uniform 0;
        value           nonuniform List<scalar> 
42
(
3970.32
3970.32
3970.33
3970.32
3970.32
3970.36
24.7432
24.7434
24.7432
24.743
24.7429
24.7426
39.2186
39.2184
39.2181
39.218
39.2179
39.2179
26.1493
26.1494
26.1492
26.1492
26.1494
26.1494
22.5993
22.5992
22.5993
22.5995
22.5998
22.6001
12.5727
12.5727
12.5728
12.5729
12.5729
12.5729
4.64957
4.64952
4.64947
4.64945
4.6494
4.64932
)
;
    }
    water_right_surface
    {
        type            fixedFluxPressure;
        gradient        uniform 0;
        value           nonuniform List<scalar> 
42
(
54.2614
54.2488
54.2215
54.186
54.1735
54.088
48.0085
48.0052
47.9949
47.9785
47.9867
47.9204
34.9449
34.9463
34.945
34.9415
34.9498
34.9225
22.6109
22.6123
22.6132
22.6138
22.6176
22.6099
13.906
13.9067
13.9075
13.9082
13.9093
13.9078
7.62446
7.62469
7.62508
7.62551
7.62596
7.62552
2.36978
2.3698
2.36987
2.36999
2.37011
2.37001
)
;
    }
    water_top_surface
    {
        type            totalPressure;
        rho             rho;
        psi             none;
        gamma           1;
        p0              uniform 0;
        value           nonuniform List<scalar> 
180
(
-0.240829
-0.240963
-0.241008
-0.241071
-0.241152
-0.24111
-0.135568
-0.135693
-0.135734
-0.135771
-0.135815
-0.135766
-2.01724e-05
-1.92955e-05
-1.90381e-05
-1.89196e-05
-1.86265e-05
-1.90977e-05
0
0
0
0
0
0
0
0
0
0
0
0
0
0
0
0
0
0
0
0
0
0
0
0
0
0
0
0
0
0
-5.47128
-5.45984
-5.46502
-5.46538
-5.46314
-5.47044
-10.3856
-10.3764
-10.3791
-10.3802
-10.3794
-10.3845
-7.60374
-7.60056
-7.60041
-7.60262
-7.60486
-7.59747
-3.26386
-3.26944
-3.26612
-3.26738
-3.27366
-3.25798
-2.43094
-2.46618
-2.44939
-2.44361
-2.52927
-2.39895
-1.79022
-1.79242
-1.78782
-1.77213
-1.7756
-1.7635
-2.69516
-2.69411
-2.69047
-2.72325
-2.80812
-2.56658
-5.10835
-5.13249
-5.07477
-5.21279
-5.37198
-4.91884
-5.39602
-5.42132
-5.37849
-5.46269
-5.58628
-5.26294
-3.33091
-3.34221
-3.32997
-3.34862
-3.38314
-3.29262
0
0
0
0
0
0
0
0
0
0
0
0
0
0
0
0
0
0
0
0
0
0
0
0
0
0
0
0
0
0
0
0
0
0
0
0
0
0
0
0
0
0
-0.937789
-0.935707
-0.935934
-0.934299
-0.933374
-0.931611
-0.705525
-0.705779
-0.706565
-0.697924
-0.688321
-0.711637
-5.50213
-5.50557
-5.48933
-5.48584
-5.46749
-5.45877
-6.33409
-6.35369
-6.31924
-6.24609
-6.22572
-6.24432
-2.16757
-2.13634
-2.15627
-2.02817
-1.74357
-2.13982
)
;
    }
}


// ************************************************************************* //
