/*--------------------------------*- C++ -*----------------------------------*\
| =========                 |                                                 |
| \\      /  F ield         | OpenFOAM: The Open Source CFD Toolbox           |
|  \\    /   O peration     | Version:  v1612+                                |
|   \\  /    A nd           | Web:      www.OpenFOAM.com                      |
|    \\/     M anipulation  |                                                 |
\*---------------------------------------------------------------------------*/
FoamFile
{
    version     2.0;
    format      ascii;
    class       volVectorField;
    location    "4.7";
    object      U;
}
// * * * * * * * * * * * * * * * * * * * * * * * * * * * * * * * * * * * * * //

dimensions      [0 1 -1 0 0 0 0];

internalField   nonuniform List<vector> 
1116
(
(0.146324 -1.35451e-05 -0.182501)
(0.146324 -1.68179e-05 -0.182509)
(0.146325 -5.17318e-06 -0.182498)
(0.146326 -2.20416e-06 -0.182497)
(0.146324 5.58616e-06 -0.182507)
(0.146322 1.00131e-05 -0.182496)
(0.441525 -8.7823e-06 -0.319376)
(0.441536 -1.57026e-05 -0.319391)
(0.441533 -5.08907e-06 -0.319374)
(0.441536 -2.61163e-07 -0.319369)
(0.441534 4.70305e-06 -0.319387)
(0.441523 5.48443e-06 -0.319374)
(0.647343 -6.76195e-07 -0.323309)
(0.64737 -1.04282e-05 -0.323329)
(0.647365 -3.69721e-06 -0.323309)
(0.647367 6.5665e-07 -0.323304)
(0.647367 -8.40687e-07 -0.323323)
(0.647347 -2.4965e-06 -0.323314)
(0.682477 7.60204e-06 -0.272126)
(0.682518 -1.86503e-06 -0.272152)
(0.682509 -2.81875e-06 -0.272133)
(0.682509 -9.54526e-07 -0.272129)
(0.682512 -7.51578e-06 -0.272148)
(0.682483 -9.0283e-06 -0.272138)
(0.375409 5.21758e-06 -0.160823)
(0.375475 -1.35545e-06 -0.160852)
(0.37546 -3.28175e-06 -0.160837)
(0.375459 -5.19397e-06 -0.160833)
(0.375472 -1.21462e-05 -0.160851)
(0.375425 -1.08509e-05 -0.160838)
(-0.433878 8.71796e-06 0.10617)
(-0.433799 6.59971e-06 0.106159)
(-0.433813 -4.80326e-06 0.106162)
(-0.433811 -3.91523e-06 0.106163)
(-0.433793 -1.38006e-05 0.106155)
(-0.433855 -1.28571e-05 0.106163)
(-1.5191 -8.97468e-06 0.454317)
(-1.51905 1.15707e-05 0.454326)
(-1.51904 1.13093e-05 0.45432)
(-1.51903 1.52133e-06 0.454323)
(-1.51903 -1.08035e-05 0.454322)
(-1.5191 -9.25441e-06 0.454333)
(-2.7811 -2.9287e-05 0.489445)
(-2.78112 6.17708e-06 0.489506)
(-2.78103 2.48581e-05 0.489491)
(-2.78103 7.62511e-06 0.489494)
(-2.78103 -6.82154e-06 0.48951)
(-2.78114 -4.19763e-06 0.489457)
(-3.69281 1.0662e-05 -0.012695)
(-3.69295 1.84814e-05 -0.0126197)
(-3.6928 1.3573e-05 -0.0126132)
(-3.69279 1.8473e-05 -0.0126064)
(-3.69282 -1.61062e-05 -0.0125901)
(-3.69288 -1.48418e-05 -0.0127172)
(-3.48609 0.000181317 -0.760542)
(-3.48644 0.000107559 -0.760445)
(-3.48622 -6.11763e-05 -0.760433)
(-3.48623 3.41733e-05 -0.760428)
(-3.48634 -7.12558e-05 -0.760422)
(-3.48618 -8.74754e-05 -0.760565)
(-2.25604 0.000266399 -1.22993)
(-2.25628 0.000149023 -1.22979)
(-2.25611 -0.000117577 -1.22982)
(-2.25615 2.9008e-05 -1.22982)
(-2.25627 -0.000121452 -1.2298)
(-2.25607 -0.000148987 -1.22997)
(-0.867696 -1.59316e-05 -0.907978)
(-0.867508 -3.63399e-05 -0.907893)
(-0.867553 -2.44674e-05 -0.907955)
(-0.867599 -6.9816e-06 -0.907943)
(-0.867599 -4.90722e-05 -0.907895)
(-0.867627 -4.52884e-05 -0.908054)
(1.20641 -8.41902e-05 -0.789267)
(1.20643 -8.62395e-05 -0.789384)
(1.20643 3.75278e-06 -0.78942)
(1.20643 1.4164e-05 -0.789403)
(1.20644 0.000103355 -0.789388)
(1.20642 9.24966e-05 -0.78931)
(3.85458 -0.000113769 -0.477569)
(3.85454 -0.000120461 -0.477679)
(3.85455 1.15781e-05 -0.477732)
(3.85453 1.7583e-05 -0.47771)
(3.85453 0.000161243 -0.47768)
(3.85462 0.000130488 -0.477622)
(5.84458 -0.000121973 0.014532)
(5.8445 -8.67559e-05 0.0144571)
(5.84445 2.88751e-05 0.0143944)
(5.84445 -2.67803e-05 0.0144307)
(5.84449 0.000198308 0.0144665)
(5.84466 0.000163397 0.0145041)
(6.65213 -6.88545e-05 0.665431)
(6.65217 -6.78529e-05 0.665465)
(6.65248 2.16604e-05 0.665445)
(6.65215 -2.02024e-05 0.665446)
(6.65208 6.973e-05 0.665465)
(6.65251 5.39208e-05 0.665454)
(2.5161 2.17955e-07 0.977116)
(2.51694 -1.7682e-05 0.97708)
(2.5166 9.15816e-06 0.977084)
(2.51656 -7.69437e-07 0.977088)
(2.51686 -3.93063e-05 0.977076)
(2.51637 -3.78167e-05 0.97707)
(-0.481693 0.000215969 1.61395)
(-0.481437 0.000123592 1.61401)
(-0.481528 -0.000109124 1.61398)
(-0.481493 3.93354e-05 1.61396)
(-0.481416 -9.38943e-05 1.61399)
(-0.481604 -0.000154952 1.61393)
(-1.52072 8.37111e-05 1.66139)
(-1.5205 5.92964e-05 1.66142)
(-1.52056 -2.94545e-05 1.66141)
(-1.52054 3.08746e-05 1.66142)
(-1.52045 -5.18199e-05 1.66143)
(-1.52068 -7.99219e-05 1.66139)
(-2.16494 4.4419e-05 1.18362)
(-2.16503 2.69796e-05 1.18358)
(-2.16493 -2.05338e-05 1.18362)
(-2.16491 2.05199e-05 1.18364)
(-2.16491 -1.63668e-05 1.18364)
(-2.16501 -3.29601e-05 1.18361)
(-2.489 0.00021753 0.339532)
(-2.48931 0.00010275 0.339685)
(-2.48911 -9.37907e-05 0.339687)
(-2.4891 7.31349e-05 0.339696)
(-2.48917 -2.88748e-05 0.339745)
(-2.48911 -7.34176e-05 0.339558)
(-2.0839 0.000614604 -0.758485)
(-2.084 0.00032397 -0.757603)
(-2.08385 -0.000276522 -0.757861)
(-2.08394 0.000125795 -0.757949)
(-2.08399 -0.000122715 -0.757705)
(-2.08387 -0.000234812 -0.7583)
(-1.46969 0.000212232 -1.84142)
(-1.46836 0.000103066 -1.84025)
(-1.46875 -0.000142625 -1.84065)
(-1.4691 -4.76974e-05 -1.84083)
(-1.46889 -2.61768e-05 -1.84049)
(-1.46907 -1.79223e-05 -1.84123)
(-0.931852 -0.000422422 -1.77903)
(-0.931609 -0.000248626 -1.77932)
(-0.931615 0.000104499 -1.77924)
(-0.931725 -0.000172383 -1.77923)
(-0.931862 0.000124688 -1.77929)
(-0.931631 0.000219019 -1.77926)
(-0.683133 -3.09563e-05 -3.44059)
(-0.68301 -9.2613e-06 -3.44108)
(-0.683049 2.23365e-05 -3.44101)
(-0.683034 1.562e-05 -3.441)
(-0.682986 4.25634e-05 -3.44107)
(-0.683124 4.88324e-05 -3.44058)
(-1.96798 -6.74274e-05 -3.50255)
(-1.96783 -2.35152e-05 -3.50304)
(-1.96787 4.53955e-05 -3.50301)
(-1.96787 1.81418e-05 -3.503)
(-1.96782 9.55117e-05 -3.50304)
(-1.96791 0.000102754 -3.50256)
(-1.86887 -0.000135888 -2.77898)
(-1.86882 -8.1023e-05 -2.77962)
(-1.86886 2.97216e-05 -2.7796)
(-1.86884 -2.26225e-05 -2.77959)
(-1.86878 9.6062e-05 -2.77963)
(-1.86864 0.000114667 -2.77906)
(-1.43019 0.000255957 1.49067)
(-1.43076 0.000156054 1.48968)
(-1.43069 -0.00011229 1.48991)
(-1.4306 4.33278e-05 1.48992)
(-1.43064 7.92803e-07 1.48975)
(-1.42996 -7.81206e-05 1.49047)
(2.8093 0.00059111 7.19905)
(2.81516 0.0003322 7.19846)
(2.81277 -0.000193068 7.19879)
(2.81243 0.000134738 7.19874)
(2.81419 -0.000146592 7.19849)
(2.81216 -0.00026094 7.19879)
(-5.99248 0.00136227 5.52369)
(-5.98883 0.000819733 5.52893)
(-5.9904 -0.000678828 5.52652)
(-5.9907 0.000201319 5.52609)
(-5.98956 -0.00054144 5.52792)
(-5.99075 -0.000848868 5.52482)
(-3.83925 0.000413726 2.27678)
(-3.83821 0.000212209 2.27775)
(-3.83873 -0.000201483 2.27733)
(-3.83874 0.000112797 2.2773)
(-3.83843 -0.000171458 2.27763)
(-3.83901 -0.000288314 2.27701)
(-2.64173 0.000581983 1.20118)
(-2.64064 0.000296263 1.20223)
(-2.64115 -0.00026271 1.20176)
(-2.64121 0.00018326 1.20173)
(-2.64086 -0.000149357 1.20209)
(-2.6415 -0.000323877 1.20142)
(-2.11126 0.00054914 -0.105702)
(-2.10961 0.000245821 -0.103743)
(-2.11034 -0.000255702 -0.104594)
(-2.11051 0.000193181 -0.104707)
(-2.11001 -0.000135359 -0.104059)
(-2.11086 -0.000296641 -0.10525)
(-1.53641 -0.000387825 -1.47091)
(-1.53269 -0.000302709 -1.46798)
(-1.53436 0.000162454 -1.46923)
(-1.53469 -6.71883e-05 -1.46953)
(-1.53356 7.95161e-05 -1.4686)
(-1.53556 0.000198071 -1.47021)
(-0.945115 -0.00142751 -2.37188)
(-0.940193 -0.000877115 -2.36977)
(-0.942488 0.000577542 -2.37066)
(-0.942565 -0.000447156 -2.37109)
(-0.941054 0.000366885 -2.37061)
(-0.944281 0.000801594 -2.37123)
(-1.30791 -0.000780569 -2.41418)
(-1.30772 -0.000377253 -2.41523)
(-1.3078 0.000202833 -2.41472)
(-1.30782 -0.000481149 -2.41503)
(-1.30798 0.000450778 -2.41564)
(-1.30771 0.000702134 -2.41407)
(0.0329173 -1.44834e-05 -0.500959)
(0.0328812 -8.20731e-06 -0.501685)
(0.0329014 1.39787e-05 -0.501551)
(0.0328973 -2.7296e-07 -0.501556)
(0.0328864 2.60233e-05 -0.501699)
(0.0329381 1.63309e-05 -0.500946)
(-0.579551 -3.14517e-05 -0.739617)
(-0.579609 -1.11876e-05 -0.740232)
(-0.579576 3.31115e-05 -0.740133)
(-0.579577 8.00969e-07 -0.740139)
(-0.579588 2.67891e-05 -0.740258)
(-0.579508 1.70342e-05 -0.739605)
(-0.730435 -0.000119677 -1.26985)
(-0.730835 -4.86554e-05 -1.27048)
(-0.73065 5.75674e-05 -1.27038)
(-0.730608 -5.02356e-05 -1.27039)
(-0.73069 1.27174e-05 -1.2705)
(-0.730408 4.05616e-05 -1.27002)
(-2.37844 0.000301166 -1.11137)
(-2.37955 0.000253357 -1.11207)
(-2.37912 -7.001e-05 -1.11188)
(-2.37901 -2.59953e-05 -1.11188)
(-2.37928 -0.000129038 -1.11213)
(-2.37869 -0.000155734 -1.11178)
(1.24246 0.00110831 7.9627)
(1.2443 0.000581432 7.96157)
(1.24359 -0.000570862 7.96196)
(1.24309 0.000203442 7.96203)
(1.24359 -0.000128355 7.96133)
(1.24305 -0.000440302 7.96188)
(-5.52284 0.000366095 6.80269)
(-5.51156 0.000154294 6.81885)
(-5.51621 -0.000443203 6.81123)
(-5.51909 -9.60415e-05 6.80963)
(-5.51472 -8.85942e-05 6.81563)
(-5.51924 -0.000203624 6.8078)
(-7.20527 -0.0013395 -1.39913)
(-7.20379 -0.000949431 -1.39416)
(-7.20456 0.000572546 -1.39642)
(-7.20516 -4.10936e-05 -1.39668)
(-7.2044 0.000160851 -1.39491)
(-7.20521 0.000390547 -1.3978)
(-5.60992 -0.0022406 -1.74323)
(-5.60589 -0.00145273 -1.73876)
(-5.60777 0.00111074 -1.74084)
(-5.60838 -0.000237603 -1.74113)
(-5.60688 0.00043386 -1.73942)
(-5.6092 0.000978913 -1.74221)
(-4.15847 -0.00322493 -1.78187)
(-4.15086 -0.00199049 -1.78008)
(-4.15437 0.00161026 -1.78098)
(-4.15508 -0.000616644 -1.78114)
(-4.15242 0.00063936 -1.78021)
(-4.15702 0.00158152 -1.78156)
(-3.26643 -0.00372226 -2.71316)
(-3.25908 -0.00239497 -2.71765)
(-3.26277 0.00191976 -2.71571)
(-3.26266 -0.000636451 -2.71547)
(-3.26015 0.000420775 -2.71685)
(-3.26559 0.00154771 -2.71396)
(1.59002 -0.00114049 -2.79705)
(1.58707 -0.000708558 -2.80291)
(1.58446 0.000767857 -2.80097)
(1.59229 -0.000429492 -2.79983)
(1.59535 -0.000107168 -2.80124)
(1.57791 0.000517461 -2.79991)
(-4.19357 -5.8601e-05 -2.85596)
(-4.19163 0.000285525 -2.8547)
(-4.1934 -0.000148117 -2.85554)
(-4.19288 -0.00118417 -2.85598)
(-4.19191 0.00238079 -2.85598)
(-4.19444 0.00303236 -2.85602)
(0.723573 0.000257685 0.740836)
(0.723815 0.000666858 0.740694)
(0.723633 0.00147042 0.740426)
(0.722552 0.000804755 0.740165)
(0.724423 0.0042647 0.74007)
(0.718364 0.00450979 0.738994)
(2.33363 -0.000158459 1.10204)
(2.33393 0.00128955 1.10062)
(2.33098 0.00293378 1.10102)
(2.32949 -0.00833737 1.09783)
(2.34151 0.0212243 1.10242)
(2.30424 0.0307505 1.09084)
(4.7101 -0.00187412 2.00638)
(4.71467 0.00650501 2.00396)
(4.68465 0.0161404 2.0051)
(4.7213 -0.01258 1.99665)
(4.83133 0.0574547 1.99354)
(4.5283 0.0781666 2.00811)
(9.64812 -0.00289479 1.68042)
(9.69967 0.0201638 1.67569)
(9.59624 0.0416573 1.69977)
(9.6996 0.0231002 1.69367)
(9.95077 0.076296 1.62801)
(9.24733 0.0761063 1.82715)
(14.9008 -0.000240689 -1.18523)
(15.0051 0.0221135 -1.19565)
(14.8197 0.0357912 -1.06982)
(14.8977 0.056137 -1.05002)
(15.0878 0.0445391 -1.1511)
(14.4422 0.0102406 -0.763469)
(16.9589 0.0199505 -4.15804)
(17.0879 0.0266501 -4.19785)
(16.9999 0.0246853 -4.18781)
(16.9959 0.0987805 -4.12797)
(17.1254 0.00234034 -4.26533)
(16.7771 -0.0696768 -4.06228)
(15.6623 0.0370855 -5.06581)
(15.7997 0.0505354 -5.1353)
(15.7266 0.0662486 -5.14801)
(15.7063 0.188596 -5.11735)
(15.8603 -0.027261 -5.29633)
(15.5359 -0.143577 -5.09359)
(12.5678 0.0369981 -5.33059)
(12.6519 0.0577362 -5.40316)
(12.5976 0.102713 -5.44465)
(12.6378 0.234667 -5.42616)
(12.804 -0.0724647 -5.61201)
(12.4286 -0.193262 -5.44961)
(8.6282 0.00536542 -6.36612)
(8.6442 -0.00301397 -6.40241)
(8.65905 0.014927 -6.44322)
(8.6288 0.0593211 -6.39622)
(8.66974 -0.0956848 -6.46397)
(8.60767 -0.0936555 -6.44789)
(4.39317 0.00264313 -7.16973)
(4.40649 -0.0138461 -7.20166)
(4.48054 0.0379477 -7.23065)
(4.20273 0.0981981 -7.12367)
(4.07218 -0.191012 -7.21158)
(4.49375 -0.153543 -7.18155)
(-5.99976 0.0129585 -4.72406)
(-6.01885 0.0240361 -4.77611)
(-5.54058 0.104662 -4.98567)
(-6.72064 0.225959 -4.27766)
(-7.41354 -0.19258 -4.00437)
(-4.94184 -0.209489 -5.03391)
(-8.39026 0.0361482 1.30332)
(-8.47896 0.0944696 1.3734)
(-8.43336 0.343309 1.48113)
(-8.35177 0.380094 1.60462)
(-8.52037 -0.171112 1.98657)
(-8.21851 -0.215802 1.82187)
(0.754451 6.83717e-05 2.27646)
(0.755085 -0.000135779 2.27626)
(0.755236 0.000582169 2.27608)
(0.754944 -3.41058e-05 2.27527)
(0.757279 0.00284126 2.27515)
(0.75138 0.00361978 2.27395)
(2.35931 -0.00177775 3.04657)
(2.36228 -0.000751941 3.046)
(2.36099 -0.00182972 3.04442)
(2.36289 -0.0144175 3.04614)
(2.37543 0.0231164 3.05498)
(2.34453 0.0340745 3.02806)
(3.65712 -0.011881 5.14375)
(3.67402 -0.00136 5.14521)
(3.64129 -0.00233907 5.13451)
(3.71997 -0.0405357 5.14974)
(3.8255 0.0674967 5.16634)
(3.5324 0.0971343 5.09795)
(6.15037 -0.0222885 6.58022)
(6.25634 -0.0126739 6.57949)
(6.1021 -0.00032482 6.58496)
(6.3888 -0.0314391 6.56977)
(6.68856 0.00895191 6.54145)
(5.73643 0.0428826 6.6255)
(10.511 -0.0185309 5.26582)
(10.7104 -0.039641 5.27196)
(10.4972 -0.0342879 5.31791)
(10.7177 -0.0404438 5.25975)
(11.0761 -0.116787 5.29019)
(10.127 -0.0807543 5.38847)
(11.8767 0.00366157 2.97509)
(12.0781 -0.0149329 3.04645)
(11.9413 -0.0633184 3.03563)
(11.9331 -0.0819374 3.03439)
(12.4798 -0.041911 3.3519)
(11.8993 -0.00912079 3.00654)
(10.2504 0.0208111 0.464459)
(10.4032 0.0376906 0.627423)
(10.1746 -0.013181 0.352134)
(10.4407 -0.0306316 0.704875)
(11.2185 0.0800699 1.6505)
(10.086 0.0745069 0.12389)
(9.50413 0.00244077 -2.11407)
(9.55553 0.0076564 -1.93521)
(9.38423 -0.0269623 -2.18213)
(9.68994 -0.0427212 -1.5465)
(10.2753 0.0532907 -0.259102)
(9.29336 0.06256 -2.39051)
(9.453 0.00158932 -7.68921)
(9.47449 0.000935558 -7.69094)
(9.37614 -0.00961786 -7.65115)
(9.54577 -0.0125661 -7.7518)
(9.5971 0.00881142 -7.8139)
(9.29497 0.0164558 -7.66521)
(8.94956 -0.0134589 -8.36076)
(8.96913 -0.0185573 -8.36385)
(8.88275 -0.0510077 -8.31162)
(9.16758 -0.119682 -8.48792)
(9.32741 -0.0116244 -8.73487)
(8.79621 0.0959504 -8.28848)
(5.60057 -0.0124659 -3.89742)
(5.61123 0.00447776 -3.94184)
(5.66724 -0.0271603 -4.1946)
(5.56495 -0.0343841 -3.41829)
(5.47813 -0.00183393 -2.99756)
(5.68805 0.0831457 -4.46934)
(-1.53525 0.0687827 7.16467)
(-1.48937 0.188056 6.90405)
(-0.956343 0.497979 5.60062)
(-2.22103 1.00819 9.08647)
(-3.02052 -0.0206044 9.60176)
(-0.548363 -0.58487 4.26713)
(0.389247 -0.000146699 3.47197)
(0.389675 -0.000417152 3.47199)
(0.389856 -5.53838e-05 3.47203)
(0.39017 -0.000338731 3.47146)
(0.39158 0.00121215 3.47158)
(0.388305 0.00175637 3.47042)
(1.11562 -0.00104889 4.13539)
(1.11809 -0.00145834 4.13589)
(1.11798 -0.00203063 4.13529)
(1.11993 -0.00703391 4.13671)
(1.12584 0.00858003 4.1425)
(1.11209 0.0137426 4.12638)
(1.18685 -0.00773466 5.93927)
(1.19449 -0.00363887 5.94492)
(1.18562 -0.00866563 5.93429)
(1.21069 -0.0306245 5.95698)
(1.24193 0.0388977 5.9811)
(1.16097 0.056643 5.89826)
(0.384002 -0.0201176 7.91437)
(0.429214 -0.00990582 7.9289)
(0.360321 -0.0103001 7.91163)
(0.522052 -0.0363566 7.94745)
(0.655793 0.0285538 7.96772)
(0.204472 0.0508341 7.88865)
(1.03157 -0.0244955 6.26195)
(1.15552 -0.0299124 6.26759)
(1.01552 -0.0162416 6.30549)
(1.26266 -0.0199991 6.25566)
(1.43714 -0.0568896 6.28019)
(0.744646 -0.038914 6.41369)
(2.13309 -0.0151334 -0.929709)
(2.28482 -0.0349747 -0.925586)
(2.21062 -0.0121679 -0.863585)
(2.26495 -0.0125123 -0.994066)
(2.40509 -0.071846 -0.92515)
(2.04317 -0.0458424 -0.72973)
(2.28057 -0.0125279 -4.76166)
(2.40626 -0.0371894 -4.76304)
(2.41418 -0.0565135 -4.73267)
(2.30742 -0.143745 -4.91668)
(2.37632 -0.01077 -5.03088)
(2.39547 0.110554 -4.69937)
(2.71945 -0.0111825 -3.51793)
(2.74754 -0.0200761 -3.53753)
(2.70218 -0.0714967 -3.51349)
(2.69052 -0.143516 -3.4974)
(2.70404 0.05576 -3.45099)
(2.65606 0.124621 -3.45766)
(4.88861 -0.000343921 -6.9581)
(4.93935 -0.00267574 -6.9716)
(4.90387 0.0352461 -6.94283)
(4.89559 0.0486056 -7.08908)
(4.85149 -0.0257504 -7.55379)
(4.90713 -0.0485794 -6.93907)
(7.54096 -0.0125214 -8.68778)
(7.57965 -0.00984696 -8.66345)
(7.50634 -0.0253021 -8.61016)
(7.71677 -0.0875909 -8.74869)
(7.92094 0.00674838 -9.31662)
(7.47662 0.0768223 -8.55479)
(6.65153 -0.0242294 -6.50034)
(6.67592 0.00589297 -6.53316)
(6.60057 -0.118349 -6.60684)
(6.825 -0.299774 -6.3441)
(7.26955 0.101717 -6.3765)
(6.54823 0.316109 -6.66945)
(2.4215 -0.030299 -0.505526)
(2.46619 0.0370626 -0.742045)
(2.51116 -0.144753 -1.22715)
(2.31154 -0.366152 0.114964)
(2.55475 0.391181 5.25714)
(2.54604 0.386541 -1.6779)
(0.103145 -0.000134496 3.95654)
(0.10334 -0.000299804 3.95673)
(0.103441 -0.000219781 3.95681)
(0.103642 -0.00032769 3.95668)
(0.104104 0.000404755 3.95689)
(0.103066 0.00067206 3.95594)
(0.18374 -0.000477113 4.34489)
(0.184726 -0.000889071 4.34548)
(0.184795 -0.000929451 4.34558)
(0.186021 -0.00195495 4.34605)
(0.188124 0.00170185 4.34816)
(0.183304 0.00311474 4.34271)
(-0.258047 -0.00238524 5.17898)
(-0.255185 -0.00226146 5.18222)
(-0.256544 -0.00416874 5.17944)
(-0.252429 -0.0103733 5.18798)
(-0.248105 0.00980311 5.19883)
(-0.257972 0.0156581 5.16673)
(-1.85435 -0.00871368 6.21216)
(-1.84744 -0.0043473 6.22274)
(-1.85678 -0.00829049 6.21044)
(-1.83168 -0.0215437 6.23983)
(-1.81191 0.020236 6.25987)
(-1.86975 0.0297091 6.18626)
(-3.70361 -0.0120217 5.35082)
(-3.67779 -0.00893031 5.36571)
(-3.71214 -0.00381191 5.36272)
(-3.63298 -0.00845161 5.37271)
(-3.59072 -0.0122017 5.38315)
(-3.77466 -0.00798708 5.37073)
(-4.14702 -0.00383091 1.75131)
(-4.11079 -0.01033 1.76312)
(-4.13543 0.00575451 1.77032)
(-4.09054 0.0113547 1.73867)
(-4.08993 -0.0512837 1.73767)
(-4.1781 -0.0479874 1.77525)
(-3.45891 0.00320904 -0.985632)
(-3.43163 -0.000566749 -0.970575)
(-3.43456 0.00760433 -0.961683)
(-3.43291 0.0251041 -0.977483)
(-3.47586 -0.035935 -0.938345)
(-3.4181 -0.0473666 -0.967498)
(-1.69804 -0.00377558 -2.03138)
(-1.68827 -0.0101856 -2.01415)
(-1.68544 -0.0159112 -2.01177)
(-1.69397 -0.0209835 -1.97782)
(-1.73708 -0.022575 -1.9267)
(-1.65918 -0.0110975 -2.01913)
(-0.807874 -0.00691304 -2.83516)
(-0.722401 -0.00735022 -2.8888)
(-0.756796 0.00145598 -2.90958)
(-0.814962 0.0028712 -2.88764)
(-0.612192 -0.0201598 -2.83037)
(-0.680485 -0.0123361 -3.0254)
(4.26069 -0.0128976 -6.99148)
(4.33349 -0.00106894 -6.98577)
(4.36122 -0.00943304 -6.9989)
(4.3145 -0.0052733 -6.8907)
(4.47172 0.00854378 -6.47196)
(4.47 0.0101869 -6.98306)
(5.61325 -0.0119521 -6.85297)
(5.642 0.00660137 -6.84933)
(5.63692 -0.0901409 -6.8675)
(5.7748 -0.198502 -6.71216)
(6.05494 0.0979401 -6.58759)
(5.71112 0.184427 -6.84698)
(3.57334 -0.0138338 -3.54291)
(3.59209 -0.00226459 -3.54858)
(3.61225 -0.20324 -3.58783)
(3.57688 -0.492455 -3.3904)
(3.72058 0.137678 -3.30526)
(3.65962 0.438101 -3.59428)
(-0.136729 5.39115e-05 -1.70753)
(-0.136789 4.67169e-05 -1.7079)
(-0.136778 -1.64286e-05 -1.70784)
(-0.136782 5.53631e-06 -1.70784)
(-0.136793 -5.54957e-05 -1.70791)
(-0.136745 -6.44594e-05 -1.70753)
(-0.135189 3.2908e-05 -0.596399)
(-0.135191 2.49329e-05 -0.596651)
(-0.13519 -7.88328e-06 -0.59661)
(-0.135193 3.89863e-06 -0.596609)
(-0.135195 -2.80421e-05 -0.596656)
(-0.135201 -3.81332e-05 -0.596397)
(-0.0207526 1.63605e-05 -0.696699)
(-0.0207529 1.52985e-05 -0.696852)
(-0.0207535 -1.8705e-06 -0.696827)
(-0.0207544 1.93945e-06 -0.696821)
(-0.0207544 -1.68656e-05 -0.696845)
(-0.0207555 -1.88344e-05 -0.696696)
(-0.602979 -1.22254e-05 -1.67005)
(-0.603127 -6.62467e-07 -1.67033)
(-0.603104 -1.28725e-05 -1.67031)
(-0.603116 -2.08379e-05 -1.67031)
(-0.603151 -4.52177e-05 -1.67037)
(-0.60302 -3.74352e-05 -1.67005)
(-0.492116 7.67668e-06 -0.480018)
(-0.492116 3.59293e-06 -0.480222)
(-0.492114 -1.46381e-05 -0.480201)
(-0.492121 -1.35006e-05 -0.4802)
(-0.492123 -3.31079e-05 -0.480243)
(-0.492132 -3.34524e-05 -0.480016)
(-0.0616869 1.17301e-05 -0.523039)
(-0.0616863 9.63872e-06 -0.52319)
(-0.0616869 -4.16866e-06 -0.52318)
(-0.0616904 -5.57424e-07 -0.523178)
(-0.061691 -1.55213e-05 -0.523205)
(-0.0616976 -1.73303e-05 -0.523057)
(-0.912943 -0.000185539 -1.25695)
(-0.913603 -0.00011955 -1.25729)
(-0.913427 2.12024e-05 -1.25727)
(-0.913434 -9.23495e-05 -1.25728)
(-0.913591 -1.87032e-06 -1.25733)
(-0.913209 5.75897e-05 -1.25701)
(-0.85948 -8.82077e-05 -0.307952)
(-0.859575 -6.26063e-05 -0.308084)
(-0.859525 -8.15127e-06 -0.308076)
(-0.859544 -5.3936e-05 -0.30807)
(-0.859571 -9.2365e-06 -0.308092)
(-0.859577 1.59555e-05 -0.307923)
(-0.11012 2.98283e-06 0.00465126)
(-0.110112 -1.68005e-07 0.00454336)
(-0.110111 -1.14458e-05 0.0045386)
(-0.110117 -1.26015e-05 0.00454565)
(-0.110112 -2.39521e-05 0.00453011)
(-0.110133 -2.24834e-05 0.00467214)
(-2.13936 3.22544e-06 0.223504)
(-2.14109 -1.68964e-05 0.223092)
(-2.14052 1.518e-06 0.223146)
(-2.14053 -5.86924e-06 0.223215)
(-2.141 8.41447e-06 0.223075)
(-2.14019 1.41653e-06 0.223446)
(-1.67018 -6.87454e-05 -0.108041)
(-1.67092 -6.20888e-05 -0.108212)
(-1.67061 -1.38575e-05 -0.108203)
(-1.67068 -2.23717e-05 -0.108141)
(-1.67085 2.28038e-05 -0.108221)
(-1.67059 1.93619e-05 -0.107919)
(-0.257348 -2.20079e-05 0.587323)
(-0.257321 -1.8788e-05 0.587344)
(-0.257297 -2.32693e-05 0.587317)
(-0.257341 -3.01779e-05 0.587356)
(-0.257322 -2.16059e-05 0.587363)
(-0.257442 -2.14515e-05 0.587473)
(-0.390824 0.00161623 7.07872)
(-0.393506 0.000932816 7.07741)
(-0.392307 -0.000690855 7.07787)
(-0.392278 0.000399939 7.07819)
(-0.393223 -0.000272589 7.07732)
(-0.391938 -0.000790438 7.07812)
(-1.55791 0.00101239 4.45668)
(-1.55993 0.000535363 4.45593)
(-1.55907 -0.000448217 4.4561)
(-1.55913 0.000319384 4.45642)
(-1.55975 -0.000267825 4.45591)
(-1.55864 -0.000650629 4.45686)
(-1.09674 0.000201503 1.75166)
(-1.09717 0.000121595 1.75155)
(-1.09698 -0.000111185 1.75155)
(-1.09705 5.25928e-05 1.75177)
(-1.09711 -7.75077e-05 1.75164)
(-1.0969 -0.000183311 1.75218)
(0.800073 -0.000708836 11.8205)
(0.80978 -0.000667045 11.8286)
(0.805776 -5.92607e-05 11.8249)
(0.803327 -0.000330376 11.8238)
(0.807089 1.87778e-05 11.8267)
(0.801837 0.000214415 11.8233)
(4.42432 -0.000564026 12.9496)
(4.43041 -0.00071867 12.9531)
(4.42773 -0.00033551 12.9514)
(4.42659 -0.000426588 12.9509)
(4.42899 -0.000608784 12.9523)
(4.42409 -0.000462342 12.9508)
(2.65918 -9.40048e-06 8.36715)
(2.66077 -0.000153614 8.3687)
(2.66001 -0.000165069 8.36787)
(2.65969 -8.063e-05 8.36795)
(2.66034 -0.000438424 8.36865)
(2.65878 -0.000478322 8.36809)
(-4.88155 -0.000874012 1.54313)
(-4.88038 -0.0006605 1.54492)
(-4.88097 0.000228548 1.54307)
(-4.88201 -0.000440284 1.54266)
(-4.88172 -0.000462892 1.54469)
(-4.88346 -7.08354e-05 1.5428)
(0.964014 -0.000142786 8.25612)
(0.965132 -7.2579e-05 8.2607)
(0.96452 -0.000186336 8.25812)
(0.963676 -0.000655517 8.25773)
(0.964117 -0.000238798 8.26009)
(0.961309 0.000102067 8.25606)
(3.39899 -3.47161e-05 7.68263)
(3.40013 2.81929e-07 7.68728)
(3.3994 1.27311e-06 7.68465)
(3.39916 -0.000184908 7.68428)
(3.39964 0.000100794 7.68616)
(3.3973 0.000174638 7.68389)
(-8.01386 0.000815534 -2.688)
(-8.00678 0.000119295 -2.70988)
(-8.01008 -0.000512462 -2.70142)
(-8.01109 -1.29002e-05 -2.69816)
(-8.00919 -0.000915961 -2.70406)
(-8.01435 -0.000945618 -2.69444)
(-0.799645 0.00234489 1.12664)
(-0.795957 0.00136522 1.12923)
(-0.79731 -0.00120906 1.12738)
(-0.798786 0.000160535 1.12698)
(-0.798205 -0.000627939 1.12814)
(-0.801085 -0.00111114 1.1231)
(3.32713 0.000529592 1.27072)
(3.32826 0.000332681 1.27546)
(3.32757 -7.70393e-05 1.2725)
(3.32734 0.000111531 1.27212)
(3.32733 0.000159094 1.27343)
(3.32584 9.80054e-05 1.26957)
(-7.90691 0.00104483 -3.29445)
(-7.90235 9.55147e-06 -3.31922)
(-7.90432 -0.000561204 -3.30892)
(-7.9047 0.000181599 -3.30601)
(-7.90351 -0.00111267 -3.31365)
(-7.90646 -0.00101778 -3.30065)
(-1.39508 0.00330004 -3.78362)
(-1.39806 0.00174947 -3.78049)
(-1.39645 -0.00152169 -3.78214)
(-1.39709 0.000605278 -3.78268)
(-1.39766 -0.00107269 -3.78124)
(-1.3976 -0.00167795 -3.78749)
(2.40877 -4.72761e-05 -3.30819)
(2.40998 0.000118832 -3.30461)
(2.40938 0.000362292 -3.30627)
(2.4092 0.000231083 -3.30665)
(2.40887 0.000602214 -3.30628)
(2.40743 0.000539341 -3.30864)
(-5.82163 0.0011816 -4.89588)
(-5.81998 2.29147e-05 -4.91327)
(-5.82102 -0.000427803 -4.9052)
(-5.82032 0.000495187 -4.90467)
(-5.82026 -0.00129667 -4.91087)
(-5.82169 -0.00117466 -4.89725)
(-0.374699 0.00192667 -5.48913)
(-0.372228 0.000727972 -5.48895)
(-0.373156 -0.000750616 -5.48933)
(-0.374049 0.000230341 -5.48931)
(-0.373735 -0.000376658 -5.48851)
(-0.376327 -0.000175958 -5.49083)
(1.35682 -9.19858e-05 -4.55733)
(1.35667 1.81382e-05 -4.55533)
(1.35652 0.000161511 -4.55614)
(1.35657 -0.000100575 -4.5567)
(1.35636 0.000562163 -4.55666)
(1.35495 0.000710349 -4.55751)
(-5.77869 0.000530888 -3.16923)
(-5.78158 0.000177133 -3.17039)
(-5.78132 -0.00013085 -3.17028)
(-5.77915 2.72847e-05 -3.16959)
(-5.77962 0.000214178 -3.17034)
(-5.78016 0.000372761 -3.16962)
(-0.679597 0.000294934 -4.74152)
(-0.68161 -4.11137e-05 -4.74131)
(-0.681324 0.00030718 -4.74178)
(-0.681384 0.00087994 -4.74168)
(-0.682805 -0.000195959 -4.7429)
(-0.680466 -0.000562934 -4.74055)
(0.99934 -5.10376e-05 -3.89826)
(0.998161 -9.68888e-06 -3.89757)
(0.998639 3.60033e-05 -3.89793)
(0.998291 -0.000311198 -3.89873)
(0.996861 0.000587903 -3.89925)
(0.999507 0.00091359 -3.89753)
(-4.65846 -0.000246036 -1.87077)
(-4.65948 -0.000120682 -1.87131)
(-4.65969 -0.000514009 -1.87102)
(-4.65859 -0.00161114 -1.8715)
(-4.65773 0.00149412 -1.8734)
(-4.66049 0.00249059 -1.86953)
(-0.771118 0.000132512 -6.14398)
(-0.770591 -0.000237185 -6.14556)
(-0.77253 0.000263081 -6.14493)
(-0.768979 0.00101719 -6.1475)
(-0.766511 -0.00120096 -6.15238)
(-0.775397 -0.00136309 -6.13977)
(0.6854 0.000167644 -2.55398)
(0.683909 0.000306993 -2.55623)
(0.684905 0.000242991 -2.55517)
(0.683549 0.000376754 -2.55577)
(0.680667 -0.000340134 -2.55832)
(0.687798 -0.000629676 -2.55228)
(2.75339 -0.00127756 -0.508042)
(2.74989 -0.00136518 -0.507616)
(2.75037 -0.00210337 -0.505166)
(2.75197 -0.00678562 -0.518639)
(2.755 0.00346553 -0.525944)
(2.74387 0.00740585 -0.50398)
(2.66671 -0.00746337 -1.99595)
(2.64202 -0.0152679 -2.00611)
(2.64763 0.0146841 -1.9962)
(2.63857 0.0163195 -2.00783)
(2.62992 -0.0289132 -2.01361)
(2.62113 -0.0223029 -1.9864)
(1.07701 -0.00512761 -2.20433)
(1.0652 -0.00707649 -2.22022)
(1.06648 0.00124521 -2.21261)
(1.06404 0.00599707 -2.20996)
(1.05929 -0.0137328 -2.24834)
(1.05957 -0.0160805 -2.18961)
(2.01925 -2.30227e-05 -0.632133)
(2.0206 -0.00027253 -0.633326)
(2.02061 -0.000571345 -0.633679)
(2.0185 -0.0013718 -0.630253)
(2.01694 0.00151489 -0.626855)
(2.02238 0.00277095 -0.636303)
(1.98135 -0.00260455 -0.842895)
(1.99536 -0.00450605 -0.837168)
(2.01336 0.00141445 -0.839183)
(1.92165 -0.00281669 -0.841167)
(1.87114 -0.000680538 -0.848287)
(2.04537 0.00992065 -0.820986)
(-0.051679 -0.00219975 -1.89151)
(-0.0507712 -0.00204181 -1.89262)
(-0.0518712 -0.00262632 -1.89014)
(-0.0498591 -0.00227365 -1.88177)
(-0.0455909 -0.0012183 -1.88357)
(-0.0533587 -0.00221765 -1.87713)
(1.5296 -0.000239598 -0.153208)
(1.5294 -0.000307942 -0.154054)
(1.52932 -0.00092646 -0.154297)
(1.5295 -0.00257104 -0.152022)
(1.52998 0.00239253 -0.148879)
(1.52793 0.00420844 -0.156853)
(1.65515 -0.00214937 -1.81083)
(1.64678 -0.00212421 -1.80795)
(1.65176 -0.00723961 -1.81025)
(1.6466 -0.0241613 -1.80817)
(1.63866 0.0219128 -1.81726)
(1.64563 0.0424367 -1.79163)
(-0.119714 -0.000687113 -2.32093)
(-0.122421 -0.000843102 -2.32043)
(-0.121352 -0.00307414 -2.31884)
(-0.122485 -0.00406211 -2.33289)
(-0.124125 0.00333835 -2.36895)
(-0.120013 0.00458943 -2.26476)
(0.798815 -0.000480847 0.178071)
(0.798962 -0.000289692 0.177124)
(0.799026 -0.000719168 0.176815)
(0.798531 -0.00213978 0.178968)
(0.798817 0.00203207 0.181896)
(0.798339 0.00341203 0.174073)
(0.492572 -0.00569725 -2.5175)
(0.4953 -0.00434705 -2.51929)
(0.495257 -0.00750487 -2.51153)
(0.488256 -0.0273057 -2.53373)
(0.481206 0.0205265 -2.55372)
(0.504758 0.044532 -2.4872)
(-0.267179 -0.000469116 -3.19552)
(-0.267573 -0.000714184 -3.20307)
(-0.267969 8.93464e-05 -3.18503)
(-0.269264 -9.27924e-05 -3.22805)
(-0.270053 -0.000431497 -3.27697)
(-0.268638 -0.000303634 -3.13573)
(-0.08131 -0.000657207 0.390041)
(-0.0814665 -0.000254796 0.388983)
(-0.0815253 -0.0011071 0.389065)
(-0.0809071 -0.00313614 0.39001)
(-0.0797697 0.00312961 0.391372)
(-0.0823987 0.00484168 0.387827)
(-0.505311 -0.00320302 -2.80895)
(-0.507181 -0.00221456 -2.81094)
(-0.507303 -0.00251476 -2.80483)
(-0.510785 -0.0171096 -2.82256)
(-0.517111 0.0131105 -2.84108)
(-0.504472 0.0324427 -2.78424)
(-0.937319 -0.000220838 -3.28424)
(-0.936214 -5.91251e-05 -3.29191)
(-0.938777 -4.91997e-05 -3.27895)
(-0.934848 0.000275691 -3.30458)
(-0.928972 0.000124374 -3.34182)
(-0.944652 -0.00122217 -3.24371)
(-1.216 -0.000497772 0.600746)
(-1.21625 -0.000180951 0.599539)
(-1.21607 -0.000853418 0.600086)
(-1.21641 -0.00248386 0.600008)
(-1.21631 0.00236841 0.598628)
(-1.21596 0.00369574 0.601535)
(-1.08297 -0.00128404 -7.14446)
(-1.08264 -0.00154211 -7.14516)
(-1.08515 -0.000232642 -7.14308)
(-1.08123 -0.00520719 -7.15096)
(-1.07943 0.00314875 -7.15735)
(-1.0883 0.0106123 -7.13539)
(-0.690737 0.000157951 -2.58001)
(-0.690706 0.000189529 -2.58455)
(-0.690788 0.000507889 -2.57998)
(-0.691473 0.00164914 -2.58725)
(-0.69236 -0.00128223 -2.60062)
(-0.690329 -0.00296456 -2.56564)
(-0.0211375 -6.41949e-05 3.97511)
(-0.0210636 -0.000146582 3.97533)
(-0.0210216 -0.000146767 3.97539)
(-0.0209505 -0.000163215 3.97542)
(-0.020852 8.24288e-05 3.97557)
(-0.0210696 0.000176231 3.97502)
(-0.0395061 -2.76338e-05 3.8489)
(-0.0394787 -6.56662e-05 3.84912)
(-0.0394615 -7.12431e-05 3.84915)
(-0.0394369 -6.51866e-05 3.84918)
(-0.0394166 7.23336e-06 3.84923)
(-0.0394572 3.59607e-05 3.84896)
(-0.0158677 -8.28513e-06 3.75678)
(-0.015859 -2.06151e-05 3.75699)
(-0.0158551 -2.40613e-05 3.75701)
(-0.0158495 -2.18437e-05 3.75703)
(-0.0158467 -6.69736e-06 3.75704)
(-0.0158536 1.8338e-06 3.75683)
(-0.157976 -0.000187368 4.11317)
(-0.157696 -0.00036645 4.11358)
(-0.157621 -0.000378292 4.1137)
(-0.157225 -0.000483691 4.11389)
(-0.156751 0.000232596 4.11443)
(-0.157826 0.00052013 4.11296)
(-0.168209 -6.81509e-05 3.85011)
(-0.168119 -0.000141463 3.85039)
(-0.168076 -0.000161392 3.85045)