/*--------------------------------*- C++ -*----------------------------------*\
| =========                 |                                                 |
| \\      /  F ield         | OpenFOAM: The Open Source CFD Toolbox           |
|  \\    /   O peration     | Version:  v1612+                                |
|   \\  /    A nd           | Web:      www.OpenFOAM.com                      |
|    \\/     M anipulation  |                                                 |
\*---------------------------------------------------------------------------*/
FoamFile
{
    version     2.0;
    format      ascii;
    class       volScalarField;
    location    "8.8";
    object      p;
}
// * * * * * * * * * * * * * * * * * * * * * * * * * * * * * * * * * * * * * //

dimensions      [1 -1 -2 0 0 0 0];

internalField   nonuniform List<scalar> 
1116
(
7287.19
7279.33
7281.33
7286.48
7286.98
7283.87
7737.48
7729.92
7725.69
7730.54
7733.38
7725.04
8967.47
8967.68
8964.24
8960.69
8959.69
8963.87
10654.2
10658.3
10659.2
10658
10661.8
10668.8
12089.2
12093.4
12094.8
12091.9
12093.1
12098.7
12985.1
12986.3
12988.6
12985.7
12986.2
12988.2
13492.4
13491.2
13493.4
13493.7
13493.5
13495
13801.2
13800.3
13801.9
13803
13802.5
13804.8
13819.5
13826.1
13825
13824.7
13828.9
13837.3
13029.5
13034.2
13035
13036.2
13039.2
13050.7
12426
12423.3
12423.4
12432.4
12434.1
12429.1
13668.2
13662.8
13664.7
13677.7
13667.2
13655.2
1405.11
1393.81
1390.87
1409.88
1407.96
1398.23
1489.7
1483.97
1477.45
1477.12
1460.57
1484.16
2034.48
2027.85
2020.87
2035.95
2032.46
2035.63
3060.64
3070.52
3070.96
3064.33
3068.35
3091.16
4086.06
4091.86
4094.23
4089.21
4097.42
4087.76
4663.9
4664.68
4670.19
4665.9
4669.56
4662.19
4993.2
4991.64
4996.6
4997.73
4996.98
4995.07
5230.46
5235.3
5236.44
5237.47
5235.62
5235.8
5681.73
5692.08
5689.43
5682.93
5673.15
5706.56
6681.29
6666.66
6668.39
6688.33
6676.55
6688.21
8759.79
8734.82
8741
8771.82
8770.58
8710.28
12057.8
11976.3
11998.3
12097.9
12122.5
11864.3
-49.196
-49.1605
-49.0232
-48.6303
-48.3623
-48.8434
-60.913
-60.9369
-61.4351
-62.1499
-62.3572
-62.4334
-52.5363
-52.7756
-52.9666
-52.6587
-53.179
-54.4862
0.0552366
0.0740079
0.20532
0.637134
0.696899
0.726488
104.332
103.17
102.87
105.801
106.662
104.462
166.601
166.998
167.334
167.806
166.97
169.148
270.368
269.032
269.217
273.379
269.054
272.22
391.782
393.635
393.674
396.072
394.558
395.037
501.856
481.589
488.049
503.108
503.55
498.95
1277.21
1262.82
1272.17
1262.73
1291.88
1280.56
2766.73
2880.97
2836.74
2779.07
2803.03
2917.35
4341.41
4831.59
4663.05
4440.54
4869.34
4682.36
-37.5822
-37.2714
-37.2873
-37.2289
-37.2893
-37.3694
-44.1931
-44.1866
-44.2643
-44.396
-44.4389
-44.7578
-40.9067
-40.7284
-40.9173
-41.0125
-41.135
-40.5474
-21.8905
-21.9791
-21.9012
-21.8365
-21.7058
-21.5445
-11.2167
-10.9761
-10.9542
-11.0061
-10.9504
-10.5359
-6.57235
-6.48766
-6.50051
-6.44276
-6.40326
-6.43556
-0.957471
-0.462399
-0.621736
-0.763506
-0.824932
-0.722161
-0.70946
-0.49327
-1.0039
-0.179617
0.565124
-1.63181
0.298034
-0.560535
-0.912925
0.115718
0.18488
-2.03504
98.1616
82.8546
86.878
92.7067
89.6798
78.7735
336.63
206.893
260.811
310.12
290.796
220.2
1113.7
1140.44
1153.56
1144.22
1145.02
1127.61
1538.47
1528.8
1501.37
1480.16
1530.31
1587.06
1493.43
1471.38
1441.02
1449.55
1509.29
1589.54
1439.78
1393.49
1438.74
1486.25
1486.9
1553.39
1447.68
1403.89
1424.15
1505.21
1490.71
1555.16
1466.63
1465.34
1447.13
1503.87
1544.52
1579.21
1405.72
1380.38
1353.47
1327.16
1320.3
1362.44
1153.02
1082.25
999.901
857.031
878.426
926.955
670.666
631.483
573.057
526.18
533.481
539.689
349.374
352.236
335.765
352.621
314.492
312.256
218.668
206.668
210.444
214.502
181.512
212.581
202.373
194.397
205.701
245.266
255.771
248.927
211.165
200.492
223.849
270.399
284.17
282.56
546.418
533.118
340.35
424.142
544.575
616.15
435.027
404.697
321.153
404.38
542.09
578.628
441.931
397.66
457.275
547.848
564.584
556.678
540.127
438.884
525.187
572.396
590.949
605.109
532.71
410.683
529.494
563.34
596.11
742.175
539.005
399.367
432.367
468.66
508.638
544.828
376.047
268.388
257.027
310.556
372.367
347.565
238.807
181.608
118.719
167.127
145.912
142.929
128.348
94.2059
66.4743
79.7631
59.4533
51.9878
60.0469
49.4061
42.1372
42.7512
37.1
37.7448
43.2184
43.936
53.1762
58.1987
67.4811
78.7811
46.7712
50.3432
57.9694
70.7558
77.3316
72.4297
33.187
11.5081
-8.23648
1.83283
39.9487
119.795
0.710864
-1.14809
-2.55173
-0.562507
5.55447
31.6601
8.11627
0.371422
-0.309794
9.69914
19.1057
25.5736
22.762
4.14483
54.8723
90.5477
51.7256
51.5247
44.001
90.1888
373.434
385.444
297.703
216.569
67.8586
91.7764
164.919
193.156
208.656
316.215
85.1248
83.0062
91.1543
130.37
132.927
104.714
49.2444
34.2919
29.9305
49.9128
57.64
61.3567
14.6754
24.8736
22.0607
26.636
26.9262
30.4404
14.5875
11.9561
15.0936
18.6903
23.7424
24.7333
21.292
12.7715
10.3824
12.2568
22.8844
25.5903
23.9123
11.0955
-0.165158
2.09378
5.72669
3.06424
-34.2566
-32.7912
-32.3564
-33.7309
-34.9857
-35.0172
-33.6012
-31.9912
-32.3356
-33.3704
-33.8796
-33.63
-35.8066
-36.8924
-35.2935
-34.8926
-34.7733
-33.2075
-40.6878
-45.3135
-38.5906
-36.4582
-40.74
-37.6643
-39.7519
-46.7097
-27.8181
-20.5752
-42.2792
-38.2469
-37.7635
-38.7313
27.726
84.3571
9.44337
1.1379
-36.6383
-34.5665
16.2484
39.7921
-3.10287
7.92246
-31.0269
-26.9924
0.216002
11.1881
14.1962
21.2201
-10.6883
-8.17567
-4.54562
-1.45797
1.86903
6.23513
-6.52917
-11.9964
-14.6161
-12.6352
-7.29815
-4.39381
4.62531
-3.02505
-12.0656
-15.447
-11.8641
-4.15371
3.63689
-11.1904
-27.7004
-35.462
-50.7942
-27.7678
-49.8829
-49.9572
-50.0639
-49.6789
-49.6831
-49.751
-60.4266
-60.2126
-60.2391
-60.2506
-60.3535
-60.7402
-71.5199
-71.1941
-70.9526
-71.7982
-71.8437
-72.1256
-49.5337
-49.5851
-49.7557
-49.69
-49.826
-49.8261
-60.0095
-60.0743
-60.1041
-59.9555
-60.0132
-59.9006
-73.0145
-72.9324
-72.7718
-72.9312
-73.218
-72.7705
-43.015
-42.9478
-42.9394
-42.9797
-43.055
-42.5831
-55.4965
-55.5169
-55.5099
-55.5127
-55.497
-55.4405
-66.5245
-66.5752
-66.5443
-66.5771
-66.564
-66.5606
-29.7027
-29.5985
-29.515
-29.492
-29.5102
-29.0097
-50.464
-50.475
-50.454
-50.4377
-50.4705
-50.2958
-64.5789
-64.5751
-64.5398
-64.5541
-64.5498
-64.4699
-20.889
-20.6358
-20.648
-20.7541
-20.9588
-20.4053
-45.845
-45.8298
-45.8153
-45.8444
-45.8765
-45.7539
-63.4801
-63.4973
-63.474
-63.4833
-63.47
-63.4311
-22.5001
-22.2581
-22.2636
-22.2273
-22.3356
-21.9795
-46.3688
-46.1495
-46.1086
-46.1595
-46.1909
-45.8435
-64.9072
-64.9294
-64.8935
-64.9335
-64.9242
-64.8529
-24.9778
-24.2806
-24.5196
-24.2397
-24.6457
-24.0092
-51.0774
-50.0925
-50.1212
-50.2401
-50.3705
-49.3156
-67.8491
-68.1727
-68.1338
-68.0706
-67.8462
-68.0162
-34.925
-32.358
-32.5405
-31.8135
-31.5937
-31.8516
-69.8117
-64.1684
-64.9589
-65.7763
-65.5619
-60.9061
-72.2832
-72.6691
-72.3049
-72.0164
-72.4463
-72.6635
-63.7823
-62.2053
-61.5174
-60.3844
-59.3556
-61.3953
-107.533
-99.7357
-100.817
-100.934
-100.344
-97.5033
-86.6577
-85.4955
-85.6126
-85.704
-85.7609
-83.794
-22.6264
-22.8346
-24.2843
-26.7058
-26.5344
-25.258
-67.1325
-67.1144
-67.872
-68.6069
-68.676
-67.6864
-81.4402
-79.4173
-80.273
-81.2544
-80.6466
-77.0674
6.09289
7.82458
9.99113
4.48472
2.8144
6.05816
-26.5798
-22.1558
-23.3019
-25.6995
-26.3292
-20.1823
-70.8642
-70.1901
-70.2453
-69.6866
-70.0086
-69.7546
146.349
133.765
142.004
147.905
138.094
134.776
-39.4629
-36.9236
-37.1546
-39.5702
-41.4981
-35.6243
-63.7706
-64.2198
-63.5882
-63.39
-63.4399
-63.9856
59.5665
59.7725
56.8543
50.7581
52.2404
55.7593
-48.4345
-48.9925
-51.0796
-51.0226
-49.2987
-48.4316
-66.7802
-66.8253
-67.152
-66.2905
-65.8177
-65.724
72.4349
71.3579
70.9208
70.9113
71.0192
71.3514
-47.6824
-47.8849
-48.259
-48.3282
-47.8377
-47.5287
-66.7826
-66.6929
-66.5907
-66.1461
-66.1396
-66.088
74.4152
74.3061
73.9444
74.0409
74.313
74.2815
-47.2262
-47.2959
-47.4388
-47.3644
-47.1723
-47.0522
-67.3606
-67.2998
-67.17
-66.8685
-66.9017
-66.9074
74.3934
74.0331
74.0021
73.9631
73.798
73.6677
-46.7613
-46.7044
-46.6508
-46.6692
-46.6225
-46.5276
-66.8491
-66.8395
-66.8121
-66.634
-66.6163
-66.64
74.0656
73.8822
73.6274
74.01
73.4733
73.073
-45.2989
-45.142
-45.0694
-45.3717
-45.3527
-45.0501
-66.866
-67.0249
-66.8377
-66.4809
-66.489
-66.8082
76.2775
71.2207
75.9004
77.3344
77.0949
73.5696
-47.9742
-47.4004
-46.924
-47.4357
-47.3298
-46.7375
-64.1897
-64.0917
-63.9765
-63.9646
-63.9447
-63.9468
-43.1581
-42.9569
-39.7508
-41.1162
-43.6627
-45.1829
-54.3747
-54.477
-54.1601
-54.0816
-54.6532
-54.8533
-65.9401
-66.2539
-65.8806
-66.259
-66.6359
-66.5202
-43.0712
-42.2037
-40.4915
-41.6893
-43.6711
-45.4018
-54.8273
-54.7966
-54.889
-55.1803
-55.6852
-55.9011
-66.8665
-67.1154
-67.228
-67.3457
-67.6494
-67.4716
-44.1556
-43.8302
-42.9095
-44.4124
-46.5523
-47.0901
-54.6884
-55.0047
-55.6028
-56.2554
-57.199
-57.577
-66.7873
-67.4778
-67.4085
-67.8383
-67.9321
-67.5511
-44.7375
-47.5138
-49.0826
-49.4706
-53.6524
-51.2083
-53.5986
-55.0416
-56.5999
-57.8954
-59.2649
-59.2836
-67.2936
-68.2294
-68.4446
-68.4217
-68.0834
-67.428
-48.2035
-54.5777
-55.8979
-55.4095
-60.1676
-59.5291
-56.3165
-57.6243
-59.4761
-62.5426
-63.5733
-63.7711
-67.4534
-68.7147
-68.8026
-67.9491
-67.4672
-67.1687
-57.5397
-59.9386
-58.6882
-59.7348
-77.3494
-76.5323
-68.9624
-72.9106
-79.1039
-81.8575
-81.7647
-80.0848
-70.1734
-71.4299
-73.3026
-72.6259
-70.5685
-69.9715
-81.0397
-89.4326
-88.3821
-88.8224
-95.9937
-80.5279
-80.0873
-87.1859
-91.2148
-93.8572
-91.3817
-86.6796
-72.4696
-73.4084
-73.9188
-73.3422
-73.2719
-73.2364
-60.5684
-75.1741
-39.5369
-26.4447
-32.0331
-32.3374
-69.4967
-77.5554
-73.171
-67.052
-65.3566
-63.5115
-72.3905
-74.2926
-80.1157
-77.4384
-74.2397
-72.4786
-25.1468
-32.209
-26.178
-22.8816
-19.5924
-19.8735
-46.6562
-50.9209
-49.8106
-49.0043
-46.8178
-48.6356
-65.8393
-66.2006
-66.0337
-66.7073
-65.2339
-65.2912
-21.9919
-28.146
-32.5348
-35.7348
-34.1039
-30.9053
-42.9602
-46.2227
-49.8553
-54.6517
-55.2619
-51.7566
-64.9524
-65.2234
-65.3359
-65.8338
-65.3081
-64.5728
-14.4686
-16.7939
-22.4491
-27.7821
-30.3395
-23.1609
-47.2811
-47.5721
-48.8096
-50.4826
-50.3215
-48.6368
-65.9279
-66.2817
-66.1987
-64.9587
-62.9426
-61.8577
1.80149
-0.201376
-8.62736
-19.5655
-29.8604
-21.0852
-52.1155
-51.9094
-54.7638
-55.344
-54.5512
-54.3063
-65.0044
-64.6171
-66.4059
-64.5895
-63.4639
-64.3219
)
;

boundaryField
{
    seabed_topleft_surface
    {
        type            calculated;
        value           nonuniform List<scalar> 
72
(
10964
10959.6
10969.3
10956.9
10948.4
10972.4
11639.7
11632.6
11630.2
11630.1
11628.6
11631.1
13575.9
13578.3
13574.2
13569.8
13567.3
13575
15444.2
15448.3
15449.3
15448.1
15451.9
15458.8
16879.4
16883.6
16884.9
16882.1
16883.3
16888.9
17775.3
17776.4
17778.8
17775.9
17776.4
17778.3
18269.4
18265.5
18268.6
18270
18267.9
18271.8
18110.5
18109.7
18113.1
18109.2
18103.4
18122.4
17718.5
17709.9
17715.4
17716.9
17727.8
17726.8
16864.8
16864.9
16866.1
16871.5
16883.6
16883.9
16007.7
15993.4
15996.6
16015.7
16018.1
15997.5
16998.1
16989.5
16990.2
17007
16992.3
16979.4
)
;
    }
    seabed_topright_surface
    {
        type            calculated;
        value           nonuniform List<scalar> 
72
(
2013.84
2004.37
1976.78
1955.67
1995.09
2062.62
1969.15
1947.16
1916.67
1925.28
1985.01
2065.23
1915.79
1869.42
1914.53
1961.99
1962.64
2029.12
1923.91
1879.9
1720.58
1900.75
1966.47
2030.9
1942.63
1903.38
1657.74
1788.03
1936.26
2013.4
1707.89
1672.8
1660.71
1634.4
1562.89
1607
1456.75
1375.5
1262.62
1009.92
1006.54
1181.45
954.962
924.02
788.244
561.307
598.464
751.369
485.164
595.89
518.924
400.249
371.511
491.415
274.764
276.251
390.485
319.687
236.079
390.458
269.036
224.299
317.757
407.686
384.985
426.496
286.898
232.771
324.829
438.196
457.756
459.56
)
;
    }
    breakwater_top_surface
    {
        type            calculated;
        value           nonuniform List<scalar> 
36
(
177.298
177.973
175.967
168.69
167.472
170.312
197.813
195.637
194.453
193.304
192.433
192.878
201.712
201.497
200.824
200.792
201.01
200.971
201.344
200.552
200.393
200.272
199.862
199.499
194.034
194.686
193.191
193.6
192.831
193.392
196.242
191.535
195.794
196.924
196.624
193.518
)
;
    }
    breakwater_left_surface
    {
        type            calculated;
        value           nonuniform List<scalar> 
24
(
13679.6
13674.2
13676.1
13689.1
13678.6
13666.6
12065.9
11984.1
12006.3
12105.9
12130.3
11872.1
4345.75
4836.12
4667.52
4444.89
4873.85
4686.7
1113.98
1140.85
1153.92
1144.5
1145.38
1127.98
)
;
    }
    breakwater_right_surface
    {
        type            calculated;
        value           nonuniform List<scalar> 
24
(
211.425
200.602
224.195
270.974
284.764
283.167
46.901
50.4118
58.0248
70.7746
77.3505
72.5077
23.9397
11.1369
-0.103673
2.20767
5.84145
3.11051
3.77022
-11.0608
-27.5902
-35.3244
-50.6563
-27.6298
)
;
    }
    water_front_surface
    {
        type            calculated;
        value           nonuniform List<scalar> 
186
(
7287.19
7737.48
8967.47
10654.2
12089.2
12985.1
13492.4
13801.2
13819.5
13029.5
12426
13668.2
1405.11
1489.7
2034.48
3060.64
4086.06
4663.9
4993.2
5230.46
5681.73
6681.29
8759.79
12057.8
-49.196
-60.913
-52.5363
0.0552366
104.332
166.601
270.368
391.782
501.856
1277.21
2766.73
4341.41
-37.5822
-44.1931
-40.9067
-21.8905
-11.2167
-6.57235
-0.957471
-0.70946
0.298034
98.1616
336.63
1113.7
1538.47
1493.43
1439.78
1447.68
1466.63
1405.72
1153.02
670.666
349.374
218.668
202.373
211.165
546.418
435.027
441.931
540.127
532.71
539.005
376.047
238.807
128.348
60.0469
43.2184
46.7712
33.187
0.710864
8.11627
22.762
44.001
67.8586
85.1248
49.2444
14.6754
14.5875
21.292
23.9123
-34.2566
-33.6012
-35.8066
-40.6878
-39.7519
-37.7635
-36.6383
-31.0269
-10.6883
-6.52917
4.62531
3.63689
-49.8829
-60.4266
-71.5199
-49.5337
-60.0095
-73.0145
-43.015
-55.4965
-66.5245
-29.7027
-50.464
-64.5789
-20.889
-45.845
-63.4801
-22.5001
-46.3688
-64.9072
-24.9778
-51.0774
-67.8491
-34.925
-69.8117
-72.2832
-63.7823
-107.533
-86.6577
-22.6264
-67.1325
-81.4402
6.09289
-26.5798
-70.8642
146.349
-39.4629
-63.7706
59.5665
-48.4345
-66.7802
72.4349
-47.6824
-66.7826
74.4152
-47.2262
-67.3606
74.3934
-46.7613
-66.8491
74.0656
-45.2989
-66.866
76.2775
-47.9742
-64.1897
-43.1581
-54.3747
-65.9401
-43.0712
-54.8273
-66.8665
-44.1556
-54.6884
-66.7873
-44.7375
-53.5986
-67.2936
-48.2035
-56.3165
-67.4534
-57.5397
-68.9624
-70.1734
-81.0397
-80.0873
-72.4696
-60.5684
-69.4967
-72.3905
-25.1468
-46.6562
-65.8393
-21.9919
-42.9602
-64.9524
-14.4686
-47.2811
-65.9279
1.80149
-52.1155
-65.0044
)
;
    }
    water_back_surface
    {
        type            calculated;
        value           nonuniform List<scalar> 
186
(
7283.87
7725.04
8963.87
10668.8
12098.7
12988.2
13495
13804.8
13837.3
13050.7
12429.1
13655.2
1398.23
1484.16
2035.63
3091.16
4087.76
4662.19
4995.07
5235.8
5706.56
6688.21
8710.28
11864.3
-48.8434
-62.4334
-54.4862
0.726488
104.462
169.148
272.22
395.037
498.95
1280.56
2917.35
4682.36
-37.3694
-44.7578
-40.5474
-21.5445
-10.5359
-6.43556
-0.722161
-1.63181
-2.03504
78.7735
220.2
1127.61
1587.06
1589.54
1553.39
1555.16
1579.21
1362.44
926.955
539.689
312.256
212.581
248.927
282.56
616.15
578.628
556.678
605.109
742.175
544.828
347.565
142.929
51.9878
37.7448
78.7811
72.4297
119.795
31.6601
25.5736
51.5247
216.569
316.215
104.714
61.3567
30.4404
24.7333
25.5903
3.06424
-35.0172
-33.63
-33.2075
-37.6643
-38.2469
1.1379
7.92246
21.2201
6.23513
-4.39381
-4.15371
-27.7678
-49.751
-60.7402
-72.1256
-49.8261
-59.9006
-72.7705
-42.5831
-55.4405
-66.5606
-29.0097
-50.2958
-64.4699
-20.4053
-45.7539
-63.4311
-21.9795
-45.8435
-64.8529
-24.0092
-49.3156
-68.0162
-31.8516
-60.9061
-72.6635
-61.3953
-97.5033
-83.794
-25.258
-67.6864
-77.0674
6.05816
-20.1823
-69.7546
134.776
-35.6243
-63.9856
55.7593
-48.4316
-65.724
71.3514
-47.5287
-66.088
74.2815
-47.0522
-66.9074
73.6677
-46.5276
-66.64
73.073
-45.0501
-66.8082
73.5696
-46.7375
-63.9468
-45.1829
-54.8533
-66.5202
-45.4018
-55.9011
-67.4716
-47.0901
-57.577
-67.5511
-51.2083
-59.2836
-67.428
-59.5291
-63.7711
-67.1687
-76.5323
-80.0848
-69.9715
-80.5279
-86.6796
-73.2364
-32.3374
-63.5115
-72.4786
-19.8735
-48.6356
-65.2912
-30.9053
-51.7566
-64.5728
-23.1609
-48.6368
-61.8577
-21.0852
-54.3063
-64.3219
)
;
    }
    water_left_surface
    {
        type            calculated;
        value           nonuniform List<scalar> 
42
(
7299.78
7291.93
7293.96
7299.05
7299.52
7296.5
1409.89
1398.55
1395.59
1414.67
1412.74
1402.99
-49.1798
-49.1443
-49.007
-48.6141
-48.3461
-48.8272
-37.5651
-37.255
-37.271
-37.2123
-37.2723
-37.3532
-49.8829
-49.9572
-50.0639
-49.6789
-49.6831
-49.751
-60.4266
-60.2126
-60.2391
-60.2506
-60.3535
-60.7402
-71.5199
-71.1941
-70.9526
-71.7982
-71.8437
-72.1256
)
;
    }
    water_right_surface
    {
        type            calculated;
        value           nonuniform List<scalar> 
42
(
1540.1
1530.43
1503
1481.79
1531.9
1588.69
548.013
534.577
341.39
425.433
546.154
617.746
33.4657
11.6296
-8.22029
1.84901
40.2655
120.359
-34.2407
-32.7753
-32.3405
-33.7151
-34.9698
-35.0013
-43.1581
-42.9569
-39.7508
-41.1162
-43.6627
-45.1829
-54.3747
-54.477
-54.1601
-54.0816
-54.6532
-54.8533
-65.9401
-66.2539
-65.8806
-66.259
-66.6359
-66.5202
)
;
    }
    water_top_surface
    {
        type            calculated;
        value           nonuniform List<scalar> 
180
(
-81.4684
-76.3351
-73.8271
-80.7523
-80.7841
-80.5001
-78.7441
-78.5856
-78.3181
-78.6277
-79.1833
-78.0505
-73.0389
-73.1285
-73.1439
-73.0768
-73.0619
-73.1458
-73.1054
-73.1445
-73.1241
-73.1047
-73.1282
-73.0333
-73.8499
-73.9577
-73.9306
-73.8933
-73.854
-73.9181
-76.5469
-76.7315
-76.6341
-76.6837
-76.6379
-76.5668
-81.401
-82.1412
-81.7839
-81.7965
-81.2266
-81.5085
-75.7679
-88.4451
-86.7895
-80.2916
-77.9286
-89.9749
-69.5404
-70.5674
-69.2313
-69.2317
-69.1745
-73.0939
-72.553
-69.6219
-70.1468
-71.9452
-71.179
-69.664
-69.5007
-69.6934
-69.1599
-69.2247
-68.967
-69.7755
-71.3507
-71.2945
-72.0189
-71.6471
-72.4728
-70.6321
-68.6701
-68.7362
-68.6782
-68.6995
-68.6702
-68.67
-68.6702
-68.6702
-68.6708
-68.6705
-68.67
-68.67
-68.6882
-68.6909
-68.6808
-68.6749
-68.6739
-68.6728
-68.7266
-68.7274
-68.7187
-68.7119
-68.7095
-68.708
-68.67
-68.67
-68.67
-68.67
-68.67
-68.6701
-68.7764
-68.8092
-68.76
-68.7787
-68.8329
-68.7897
-70.574
-71.4178
-69.372
-71.0922
-72.5193
-71.3504
-72.696
-73.046
-73.4781
-73.7403
-73.9171
-73.0291
-71.6371
-72.4679
-72.8883
-73.7585
-73.7636
-72.8868
-71.2952
-72.4087
-73.5753
-74.3503
-73.3212
-72.3192
-71.2872
-73.8533
-75.4399
-75.0976
-72.4964
-71.2551
-70.3549
-75.1287
-78.0322
-73.8586
-70.522
-69.1647
-68.713
-69.7582
-71.3345
-68.7547
-68.8118
-68.6777
-68.7309
-68.6986
-105.894
-75.9604
-68.7039
-68.6787
-69.5988
-69.1182
-69.44
-68.699
-68.708
-68.6711
-69.8335
-69.3909
-68.7472
-68.6762
-68.6708
-68.671
-71.4439
-70.7535
-68.983
-68.6749
-68.6708
-68.7329
-69.1097
-68.8418
-68.7194
-68.6756
-68.6714
-68.6755
)
;
    }
}


// ************************************************************************* //
