/*--------------------------------*- C++ -*----------------------------------*\
| =========                 |                                                 |
| \\      /  F ield         | OpenFOAM: The Open Source CFD Toolbox           |
|  \\    /   O peration     | Version:  v1612+                                |
|   \\  /    A nd           | Web:      www.OpenFOAM.com                      |
|    \\/     M anipulation  |                                                 |
\*---------------------------------------------------------------------------*/
FoamFile
{
    version     2.0;
    format      ascii;
    class       surfaceScalarField;
    location    "8.8";
    object      phi;
}
// * * * * * * * * * * * * * * * * * * * * * * * * * * * * * * * * * * * * * //

dimensions      [0 3 -1 0 0 0 0];

internalField   nonuniform List<scalar> 
2916
(
-0.00693746
0.158984
-0.152046
0.00826807
0.137079
-0.152284
0.0347751
0.129137
-0.155644
0.015674
0.172096
-0.152995
-0.0252281
0.191041
-0.150139
0.131921
-0.157149
0.00553406
0.224426
-0.0709768
-0.00222776
0.211
-0.0661595
-0.017017
0.205292
-0.0613652
-0.00593745
0.225357
-0.064341
0.00829867
0.236199
-0.0593944
0.201312
-0.0610923
0.00643333
0.260597
-0.0426037
-0.000350696
0.254088
-0.036304
-0.0146832
0.250978
-0.0313533
-0.00617916
0.259878
-0.0430247
0.0104663
0.266479
-0.046925
0.246345
-0.0345666
0.00285333
0.293138
-0.0353947
-0.000110148
0.290067
-0.0330158
-0.00710134
0.289341
-0.0313718
-0.00353808
0.292785
-0.0364702
0.00640023
0.296611
-0.0400701
0.287492
-0.0347469
-0.000151296
0.342757
-0.0494673
-0.000582563
0.339322
-0.0488236
-0.00180566
0.340508
-0.0499439
-0.00168706
0.341427
-0.0487604
0.000336035
0.343539
-0.0489515
0.339646
-0.0518175
-0.000934197
0.397487
-0.0537966
-0.000815863
0.392137
-0.052933
-7.16957e-05
0.393947
-0.0541837
-0.00139342
0.395708
-0.05296
-0.00348577
0.397892
-0.0522607
0.392667
-0.0565073
0.000899759
0.462981
-0.0663933
-0.000755388
0.460022
-0.0662304
-0.0010812
0.461071
-0.066798
-0.00134492
0.462255
-0.0662827
-0.00145753
0.461957
-0.063952
0.460498
-0.0692886
0.000202759
0.494598
-0.03182
-0.00120835
0.497279
-0.035846
-0.00145475
0.497155
-0.035838
-0.00193471
0.49522
-0.032486
-0.00176319
0.489871
-0.0280855
0.498333
-0.0395986
-0.00437408
0.402794
0.096178
-0.000898891
0.401958
0.0918458
-7.65063e-05
0.402412
0.0939206
-0.00288948
0.403645
0.094388
-0.00510767
0.399675
0.0924137
0.40255
0.0906757
-0.000963946
0.205855
0.197904
-0.000715412
0.191839
0.209871
-0.0012848
0.193987
0.208995
0.00229236
0.20601
0.194058
0.00158936
0.208675
0.191704
0.187701
0.216439
0.0047204
0.0499938
0.151141
0.00194477
0.0304098
0.164204
-0.000962789
0.0319492
0.164945
0.00623355
0.0504214
0.148392
0.00807199
0.0600554
0.146781
0.0250281
0.170745
0.00345972
0.0465341
0.0013215
0.0325479
0.00295131
0.0303193
0.00395856
0.0494142
0.00484324
0.0591709
0.0298713
0.00616437
0.254622
-0.412833
-0.0226829
0.309999
-0.433436
-0.0593275
0.321143
-0.440142
-0.0257761
0.214443
-0.400989
0.0263405
0.172699
-0.374955
0.30202
-0.432828
0.0187892
0.443461
-0.278605
0.0142544
0.467654
-0.219279
0.0133821
0.470578
-0.209928
0.017174
0.442957
-0.296647
0.00590621
0.44958
-0.325007
0.46059
-0.213757
0.0190397
0.482366
-0.100549
0.0114798
0.488568
-0.0496581
-2.52119e-05
0.48541
-0.0346804
0.00788073
0.489285
-0.0972583
0.0196281
0.504591
-0.113684
0.483533
-0.0378812
0.00505665
0.597959
-0.156044
0.002526
0.599018
-0.140936
-0.00413741
0.596063
-0.135362
0.00231377
0.6015
-0.155137
0.0155059
0.610146
-0.158818
0.593651
-0.129359
0.000129075
0.797946
-0.249584
-0.000780513
0.798307
-0.247203
-0.00142922
0.796988
-0.25022
0.000376363
0.798932
-0.247998
0.00603145
0.802655
-0.247115
0.792877
-0.245013
0.000233413
1.01414
-0.270228
-0.00168907
1.01526
-0.267963
-0.00177145
1.0134
-0.270511
-0.00179111
1.01569
-0.269696
5.5165e-05
1.01815
-0.269598
1.0112
-0.274771
0.00177526
1.2324
-0.286424
-0.00147904
1.23963
-0.287351
-0.00285831
1.235
-0.287024
-0.00193102
1.23663
-0.288149
-0.000409313
1.23804
-0.285373
1.23442
-0.29292
0.00240467
1.43891
-0.24074
-0.000507268
1.45534
-0.248644
-0.00288324
1.44838
-0.246838
-0.00148464
1.44629
-0.243547
0.00290428
1.44793
-0.242364
1.44706
-0.249338
6.52845e-05
1.56189
-0.0268633
0.000274672
1.57242
-0.0254417
0.00129706
1.56678
-0.0255052
-0.00277593
1.57058
-0.0258269
-0.00907777
1.57573
-0.0290755
1.56031
-0.0316514
-0.00130017
1.54954
0.211558
-0.000385764
1.54185
0.239532
0.000772731
1.54081
0.233806
-0.00278436
1.56017
0.208018
-0.0173385
1.56841
0.213572
1.51575
0.243663
-0.025085
1.32955
0.396212
0.0084907
1.29939
0.373086
0.0260753
1.29842
0.389753
0.00176599
1.34707
0.385805
-0.0198138
1.36935
0.367423
1.27073
0.395952
-0.0722784
1.44836
0.00628351
1.25338
0.0306548
1.30437
-0.0301447
1.45728
-0.00729142
1.40567
1.29331
0.0890686
1.10373
-1.60563
-0.156568
1.48392
-1.67172
-0.476618
1.53828
-1.65837
-0.209428
0.934072
-1.60225
0.344654
0.747595
-1.67663
1.53401
-1.62219
0.0538488
2.16383
-1.39255
0.151037
2.41147
-1.24402
0.279244
2.43762
-1.23747
0.151198
2.21135
-1.44588
0.117692
2.18215
-1.72605
2.55031
-1.11236
0.0328475
2.3564
-0.325968
0.141798
2.5525
-0.299647
0.199217
2.55473
-0.209208
0.189457
2.46607
-0.342219
0.219205
2.4331
-0.394383
2.72272
0.00890792
-0.0180686
1.81948
0.398942
-0.022501
1.93048
0.485515
-0.0403414
1.91609
0.521113
0.00751794
1.85899
0.40408
0.15152
1.78832
0.341948
2.0036
0.741279
-0.0230142
1.60166
-0.00875229
-0.0211005
1.61966
0.0617052
-0.0355643
1.6203
0.0600297
-0.00767759
1.59374
-0.0106353
0.0533463
1.56549
-0.0853062
1.65429
0.157646
-0.0159358
2.03839
-0.691018
-0.0176645
2.04772
-0.694297
-0.0102642
2.04484
-0.702453
-0.00922531
2.02564
-0.702642
-0.0116092
2.02597
-0.727692
2.06212
-0.694208
-0.0286373
2.63191
-0.851304
-0.0119986
2.63072
-0.88699
0.0115322
2.62461
-0.890326
-0.0052658
2.6192
-0.864905
-0.055822
2.6517
-0.860552
2.60285
-0.889472
-0.0705181
2.9508
-0.489117
-0.015202
2.93903
-0.61227
0.036813
2.92609
-0.600328
-0.019293
2.95189
-0.520132
-0.0927768
3.02098
-0.538151
2.85756
-0.596821
-0.0289967
2.8849
0.068038
-0.0127243
2.88494
0.0123801
0.0336959
2.86178
-0.0076166
-0.0297366
2.91273
0.0767613
-0.103691
2.9644
0.101459
2.79663
-0.0744128
0.0445867
2.94187
0.109996
-0.000491835
2.98255
0.187002
-0.00658045
2.94658
0.155099
0.000247482
2.98664
0.12729
-0.00789379
3.03124
0.154873
2.87496
0.157436
0.00433004
2.70562
0.628138
0.00316066
2.82145
0.535347
-0.000459954
2.76984
0.570105
0.00295885
2.73438
0.634643
-0.0180453
2.82916
0.5905
2.68644
0.566427
-0.332842
4.48682
0.0692392
3.67275
0.245473
3.89798
-0.133405
4.57054
-0.246408
4.34783
3.73334
0.106392
-0.934678
-0.77734
0.0972094
-0.902417
-0.760118
-0.0454866
-0.817761
-0.697915
0.0471478
-0.922082
-0.772803
0.237589
-0.934427
-0.932647
-0.759655
-0.624943
-0.0290695
-0.743444
-1.55472
0.123994
-0.811502
-1.488
0.322137
-0.834562
-1.41882
0.168136
-0.703417
-1.51055
-0.0109517
-0.641543
-1.83985
-0.720673
-1.1623
-0.0825782
-0.0361542
-0.950682
-0.0505927
-0.0485759
-1.09456
-0.0531003
-0.0302074
-1.01106
-0.0505946
-0.0440706
-1.00408
-0.0208893
-0.0310986
-1.03454
0.0346138
-0.76727
-0.0727349
0.994546
-0.559024
-0.0451738
0.973643
-0.564266
-0.0204953
0.983544
-0.517318
-0.0384701
0.977757
-0.599774
-0.0418022
0.984784
-0.670603
1.0243
-0.290208
-0.0395698
2.12866
-1.1033
-0.0254185
2.10116
-1.07996
-0.0490829
2.12472
-1.05749
-0.0344285
2.09288
-1.14041
0.017212
2.07114
-1.2233
2.15779
-0.958632
-0.0171164
3.22296
-1.7682
-0.0147613
3.19216
-1.78765
-0.0589604
3.23353
-1.76706
-0.0107678
3.16047
-1.81842
0.0971532
3.08947
-1.85395
3.29989
-1.73915
-0.06376
4.75752
-2.3221
-0.000826769
4.64456
-2.40232
0.0231768
4.70075
-2.38155
0.0243935
4.65045
-2.35611
0.0304638
4.55567
-2.33281
4.78252
-2.34164
-0.365281
6.91976
-2.28608
-0.0716997
6.60857
-2.86986
0.0861525
6.74195
-2.79938
-0.116821
6.7717
-2.43841
-0.154652
6.70347
-2.64812
6.72144
-2.69039
-0.452801
7.17635
0.264248
-0.0802607
6.37132
-0.122908
0.0752951
6.64857
-0.0697889
-0.182989
7.04589
0.0608552
-0.2266
6.91473
-0.0661839
6.50583
-0.0854012
0.30608
3.44746
3.53281
-0.158705
4.38833
2.63477
-0.209003
3.90819
2.94577
0.0382077
3.54963
3.37634
0.236928
3.66373
3.20715
4.20999
2.6902
0.282825
0.256203
3.53657
-0.146728
1.47776
3.87546
-0.320672
0.956777
3.69546
0.0960081
0.255309
3.51228
0.508872
0.480128
3.36124
1.33668
3.94861
-0.421269
5.16429
0.0514725
4.67777
0.328609
4.57762
-0.120422
5.27488
-0.356303
5.06384
4.71372
-0.0363145
0.528069
-0.491754
-0.214373
0.484931
-0.306873
0.0287049
0.513206
-0.756283
0.0367209
0.467103
-0.475119
-0.198179
0.237782
-0.00288185
0.383627
-0.581807
-0.0171323
0.967626
-0.422425
-0.24201
0.840869
-0.131061
0.173025
0.619099
-0.520928
0.375079
0.445459
-0.18041
-0.100307
0.589793
0.123374
0.897143
-0.613822
0.204223
1.113
-0.349601
0.0531563
1.04009
-0.0481559
0.27779
0.599462
-0.204997
0.222764
0.539793
-0.0393089
-0.254645
0.980089
0.0871132
1.18435
-0.541848
0.572464
0.912538
-0.371998
0.748924
0.76766
0.0959708
0.246046
0.182534
0.919806
-0.212889
0.601165
0.397563
-0.422836
1.2352
-0.0451658
1.44034
-0.678826
0.604552
0.637742
-0.329756
0.759128
0.320957
0.292128
0.164315
-0.0109239
0.78827
-0.198306
0.48573
0.478057
-0.314662
1.07062
0.280939
1.38869
-0.263018
0.616102
0.189634
-0.167994
0.946056
-0.23573
0.226734
0.636608
-0.109628
0.408152
-0.360229
1.01555
0.467012
-0.499077
0.797395
0.412071
0.614491
0.275124
0.66791
-0.427818
-0.0504583
1.24139
-0.924084
0.114874
1.59903
-0.867619
0.400349
-0.111844
1.66597
1.06046
-0.627082
0.323108
0.989526
-0.37289
0.360298
0.168172
-0.850466
0.254476
0.404139
-1.32628
0.166226
0.94353
-1.63692
0.229913
0.240575
0.149948
2.21898
-0.0914135
-0.964242
1.61934
-0.99176
0.527457
-0.0980723
-0.911022
0.158629
-0.168154
-1.13655
-0.119644
-0.164576
-1.74284
0.102337
0.222662
-1.59774
1.36045
0.145446
-1.76901
0.881981
-1.15094
0.304626
-0.133144
-1.13114
0.353263
-0.757004
-1.14649
0.633803
-0.835665
-1.52364
-0.14054
-0.497537
-1.98186
0.045991
-0.164662
-2.04957
-0.0523101
-1.09996
-0.215641
-0.258114
-0.780961
-0.0920657
-1.12013
-0.944534
0.660053
-1.19866
-0.951574
-0.493536
-0.647878
-1.19371
-1.33893
0.143711
-1.09782
-1.74334
-0.618224
-0.338027
-0.174233
-0.606729
-0.772233
-0.346535
-0.611286
-1.11252
-0.187024
-1.61798
0.0366242
-1.32147
-0.5816
-0.380784
0.473466
-0.584436
-0.396974
0.46671
-0.757394
-0.99941
0.200607
-0.354454
-0.629062
0.289117
-1.13459
-0.136868
0.317456
-0.812531
0.345532
-1.06421
-0.486853
0.83917
-0.301277
-0.495626
0.850834
-0.506412
-0.952097
0.609045
-0.472895
-0.635373
0.504805
-0.712823
0.0828895
0.68295
-0.960382
0.87762
-1.06302
-0.582774
1.09407
-0.0217222
-0.649293
1.13272
-0.263522
-0.574857
0.887298
-0.557684
-0.175744
0.899866
-0.833484
0.369164
1.09714
-0.871982
1.22944
-0.524501
-0.640528
1.49401
-0.131413
-0.439316
1.51376
-0.486283
-0.0336587
1.01085
0.390594
0.00531892
1.38243
-0.123975
0.462007
1.62516
-1.02987
1.71396
-0.70134
-0.249634
1.90319
-0.489306
-0.063101
2.00587
-0.386514
-0.243174
1.10919
0.870011
-0.460482
1.58656
0.491234
-0.0385569
2.04092
-0.556751
2.24556
-0.833181
0.507217
2.17568
-0.947699
0.424489
2.42319
-0.107861
-0.640767
1.27315
1.30945
-1.16383
1.57163
1.005
-0.321464
1.30149
0.309136
2.16749
0.0317336
1.28417
1.79867
-0.957619
1.29639
2.26659
0.259252
0.0541744
1.34987
1.56585
-0.865188
1.44622
2.10524
-0.14635
-0.0119053
1.58409
1.58846
0.792976
2.2182
0.209462
-0.37451
2.39128
1.53382
0.725916
0.472703
1.53247
1.96588
0.742213
0.0444795
3.35121
0.879937
-1.46304
2.93275
1.49312
1.50273
1.41861
-0.864566
-0.185957
2.19419
-0.546593
1.18519
0.807584
1.07122
1.95021
0.80281
-0.968677
2.37838
0.708836
-1.77393
1.28684
1.60525
0.901335
0.133125
-0.624285
-0.0201431
1.13928
-2.25023
1.33128
1.12134
-0.978804
1.92742
0.00366315
-1.45366
1.64865
-0.331822
-1.72241
0.231653
0.29872
0.759064
0.0600701
-0.536482
-0.23994
-0.152528
-1.63863
0.261046
-0.0602851
-1.36736
-0.197228
-0.478948
-1.40669
-0.967237
-0.136649
-1.16263
-2.64542
-0.275956
0.1
0.705248
-1.84846
0.902965
-2.18288
0.711668
-2.28858
0.069956
-2.38296
-0.397809
-2.01634
-1.25537
-0.484308
0.374869
-0.474997
-0.245493
0.310631
-1.30684
-1.48148
0.0660939
0.815438
-1.67047
0.162628
-1.10823
-0.0944805
0.318496
-2.70702
0.39753
-1.55622
-0.757569
0.768986
0.0621749
-0.83853
0.546419
-0.66124
-1.52175
-0.0387236
0.315149
-1.17728
0.140336
-1.03501
0.0539343
0.431802
-2.3049
0.903077
-1.51463
-0.87542
0.827634
0.79505
-1.1351
0.630712
-0.0881423
-1.25847
-0.20623
-0.266811
-0.281881
0.261308
-1.93104
0.594116
0.593031
-1.90921
0.96662
0.00607263
-1.93156
0.989846
1.63793
-2.08714
1.09375
-0.793746
-0.745392
1.22788
-2.38527
0.856996
1.29697
-2.76203
1.80993
1.23691
-2.62669
1.23658
0.838631
-2.45565
1.62191
1.33429
-1.69798
1.98388
-2.03431
-0.282508
2.17215
-1.48972
0.681735
2.07883
-1.25487
1.6709
2.18814
-2.49715
2.17178
-0.0974742
-1.36994
2.40142
-0.357274
-0.675231
2.78278
-1.60147
-0.490729
2.42892
0.868175
-0.172991
2.11478
0.651318
0.517479
2.3005
-0.49369
2.83604
-0.115048
-0.340958
3.16341
-1.37864
-0.178328
3.47452
-0.595116
-1.16307
2.77011
2.2094
-0.544687
1.36599
2.23564
0.385117
1.74873
1.20605
3.32494
0.689186
0.131666
3.75794
-1.10071
0.0863482
3.88985
0.355907
-0.800679
2.13423
3.48878
0.0221933
-0.0120875
3.90641
0.465274
1.039
3.1994
3.61757
1.67538
-0.179535
4.04918
-0.297659
0.212824
3.38514
1.29753
-0.843643
1.93858
3.20233
-1.01007
-0.391064
2.92379
-0.688124
0.22976
1.77413
2.27833
1.55245
-0.122403
3.65682
0.494623
0.536118
1.89393
2.16398
0.480897
0.75718
3.16404
-0.955901
-0.341464
3.03585
-0.27893
-0.876163
0.660604
0.627453
2.13101
0.886862
1.47461
1.0554
1.57014
0.053465
1.41823
1.59255
-0.620615
1.15816
0.572582
-0.851166
0.562429
0.319399
-1.05794
-2.21046
-0.223898
1.27075
1.53523
-1.90908
1.86896
-2.46315
1.24434
-2.28458
0.350674
-2.34045
-0.522361
-2.20124
-2.00162
-0.216722
0.189914
-0.448189
-0.253335
0.0915064
-1.36173
0.603438
-0.0814807
0.0401462
0.990548
-0.02522
-1.47012
0.820569
0.0154684
-2.55251
0.27107
-1.00672
-0.217088
1.05638
-0.587211
0.175988
0.916738
-1.87955
0.846323
0.824558
-1.26123
1.10085
0.48059
-1.79534
0.746053
0.491883
-2.42652
0.953161
-1.45067
-0.115617
1.4609
0.506155
0.195785
1.7644
-1.24721
0.751123
1.39953
-1.39712
0.888406
0.524389
-2.11212
0.378345
1.21675
-2.12401
1.59765
-0.260067
0.348379
1.39143
1.35902
0.714317
1.79323
-1.18851
1.04357
1.30965
-2.62463
1.19013
0.657605
-3.04181
0.368093
1.47582
-2.06372
1.58536
1.21901
-0.0893946
1.74885
1.06627
-0.726836
2.18971
-1.79334
0.330834
1.99448
-3.23222
1.60514
1.97997
-3.85154
1.16555
1.71616
-2.29789
1.64387
1.00956
-0.686105
1.99827
0.079404
-1.60134
2.85374
-1.35028
-0.105227
2.90613
-1.53959
0.989899
2.69408
-1.15791
1.19825
2.51402
-1.4999
2.43394
0.293137
-1.29023
2.39237
-0.482501
-1.47114
3.3307
-0.891165
-0.641303
2.80938
1.47631
0.626734
1.79823
1.86345
0.93673
2.43808
0.971998
2.87307
1.18678
-1.42638
2.94045
-0.222404
-2.02087
3.64779
0.633309
-1.46196
1.94493
3.79432
-0.189323
0.504986
3.92703
0.36472
2.26888
2.81455
2.7489
2.16427
-1.26883
3.37074
0.540878
-1.88438
3.92778
1.6331
-2.39862
1.90466
3.75684
-2.24896
0.440483
2.83864
-1.36745
0.965165
2.19634
1.10782
1.82609
-0.457386
2.96098
1.36177
-0.294978
3.66817
2.26117
-0.85397
2.26228
3.36541
-1.67786
1.15032
3.1499
-0.689787
-0.373458
1.01116
0.98117
1.56787
1.27332
0.989263
1.7538
2.49927
1.40633
2.45412
2.37268
0.954646
2.59238
0.938773
0.601943
2.54472
-0.49281
-0.840593
-0.311739
0.668226
1.09088
0.638424
-1.55825
1.03959
-1.45799
1.05088
-1.34122
0.777181
-1.46481
-0.424926
-1.83973
-1.75832
0.0926011
-0.0540866
-0.815855
0.0572382
0.20586
-0.930616
-0.085982
0.374552
-0.929249
-0.0692176
0.0335037
-0.823072
-0.032479
-0.163284
-0.806103
0.366739
-1.02416
-0.0920475
0.699355
-0.661393
-0.00885462
0.755088
-0.632421
0.0726596
0.874562
-0.581523
0.00382427
0.754714
-0.652375
-0.0961552
0.639682
-0.702988
0.95418
-0.683597
-0.268877
-0.540997
-0.0366315
-0.510484
0.398176
-0.449184
0.241647
-0.536015
0.0209962
-0.576558
-0.533932
-0.0214334
-1.8215
-0.527636
-0.0147933
-1.8098
-0.615457
0.0580327
-1.72361
-0.697279
0.00339386
-1.75638
-0.522599
-0.154504
-1.99388
-0.494179
-1.49458
-0.846391
-0.0360008
-2.14616
-0.30074
-0.0643218
-2.12835
-0.285549
0.0138614
-2.08264
-0.300684
0.0150017
-2.12186
-0.288041
-0.130933
-2.24828
-0.302657
-1.95999
-0.349116
-0.0233353
-0.228519
-0.0302498
-0.215802
0.0290149
-0.207676
0.0215736
-0.229151
-0.0797796
-0.236466
-0.221769
0.0470831
-1.28464
-0.240764
-0.00588821
-1.40892
-0.248129
-0.108941
-1.37123
-0.234058
-0.0630098
-1.33058
-0.242026
0.00427168
-1.33923
-0.256764
-1.32289
-0.2865
0.0481755
-1.48502
-0.148531
0.0223437
-1.52369
-0.144952
0.00481356
-1.51662
-0.137758
0.0354563
-1.50366
-0.145607
0.0553015
-1.50261
-0.159123
-1.5052
-0.111501
0.00498855
-0.122314
-0.000572686
-0.121499
0.0083908
-0.118352
0.000798262
-0.121925
-0.00911338
-0.128589
-0.120537
-0.0363078
-1.13269
0.369207
-0.0358698
-1.18492
0.372085
-0.0112689
-1.15934
0.383361
-0.0603169
-1.15875
0.366001
-0.158768
-1.18121
0.35229
-1.11842
0.382948
0.0195474
-1.47596
0.175194
-0.00196783
-1.48241
0.174057
0.000391553
-1.47087
0.171409
-0.00273
-1.47798
0.176736
-0.025614
-1.48484
0.167397
-1.43998
0.184445
-0.0041378
0.0118081
-0.00683448
0.0115532
0.000707297
0.0121846
-0.00580283
0.0122649
-0.019667
0.0101403
0.0125328
-0.0300766
-1.43414
0.73012
-0.0153735
-1.46845
0.745872
-0.00999447
-1.44588
0.766377
-0.0291166
-1.45532
0.700031
-0.0761419
-1.47017
0.646192
-1.43153
0.779711
0.0146254
-1.67406
0.400492
-0.000859836
-1.69013
0.411218
-0.0072576
-1.68021
0.412138
-0.00289959
-1.68144
0.398496
0.00808743
-1.68
0.366232
-1.66609
0.427086
0.00108635
0.0724784
-0.00220297
0.0782324
-0.000203797
0.0789692
-0.00477274
0.0783435
-0.00870805
0.0704644
0.0846036
-0.018298
-1.99188
0.972095
-0.0121402
-2.02093
0.972992
-0.0363986
-1.99521
1.01879
-0.00833396
-2.02538
0.878933
0.0352532
-2.03465
0.783308
-1.9836
1.05941
0.00864273
-2.15818
0.558153
-0.00510241
-2.18048
0.584516
-0.0322847
-2.16214
0.606248
-0.012719
-2.17863
0.532179
0.0352184
-2.17658
0.460223
-2.14418
0.622888
0.0129107
0.0401012
0.00175627
0.0725044
-0.00676225
0.0760824
-0.00644878
0.0567956
0.00542443
0.0332826
0.0881237
-0.0534744
-2.70803
1.4115
-0.00879331
-2.80118
1.32716
0.00393734
-2.76455
1.38906
0.0227534
-2.73663
1.24064
-0.0129615
-2.66381
1.15001
-2.74137
1.44617
0.0413874
-2.87382
0.682557
0.0152778
-2.9454
0.754852
-0.0602024
-2.89892
0.816095
-0.0063174
-2.90204
0.643703
0.0660855
-2.81628
0.540286
-2.86938
0.81699
0.0844379
-0.208978
0.0180628
-0.0178368
-0.0406895
-0.0116428
-0.0105692
-0.1224
0.0868783
-0.187663
0.0311149
-0.67718
-2.79238
2.59498
-0.148308
-3.64694
1.57536
0.195589
-3.5206
1.76638
-0.219439
-2.99206
2.20932
-0.684374
-3.1294
2.09622
-3.52171
1.59312
-0.366719
-2.68848
0.945374
0.0170727
-3.85067
0.5748
0.262084
-3.72949
0.779977
-0.0923878
-3.10085
1.10696
-0.702973
-2.91515
0.936628
-3.8486
0.440915
0.205384
-1.07231
0.0395289
-0.348795
-0.00587853
-0.484635
0.0963061
-0.738041
0.0951466
-0.780151
-0.23861
-0.358878
0.891646
2.32646
-0.400918
-0.831344
2.32583
-0.381714
-0.612096
2.28948
-0.24309
-0.194969
2.32652
-0.0700037
-0.447338
2.30429
-0.777156
2.21487
-0.22801
2.52849
-0.463462
0.120329
-1.28959
0.684705
0.162662
-0.38525
0.510798
-0.275694
1.05207
0.29828
-0.992624
0.886599
0.319627
-1.65913
0.330265
0.0483197
-2.68889
0.132407
-0.627335
0.211103
-1.19754
-0.0227289
-1.96934
-0.491938
-1.85784
-0.75904
0.139835
6.34102
-0.621583
-0.157718
4.9066
0.351564
-0.148719
5.34468
-0.118428
0.135894
5.87477
-0.456517
0.355864
5.7696
-0.478126
5.13024
0.130708
-0.056329
8.30517
-2.37128
-0.149218
6.77854
-1.09435
-0.138124
7.26358
-1.4192
0.151014
7.82396
-1.94004
0.29011
7.85286
-1.90274
7.05855
-1.30794
-0.379201
-2.76817
-0.049358
-1.68638
0.0682311
-1.98986
-0.0487497
-2.42613
-0.262351
-2.40323
-1.73701
-0.116758
6.07096
-3.03922
-0.147935
7.2762
-3.01799
0.0510591
6.47916
-3.10112
0.176057
6.01468
-3.08391
0.124261
6.1065
-3.17159
7.22722
-3.02364
-0.591291
5.86224
-1.57127
-0.0109349
7.43561
-1.83412
0.274966
6.51518
-1.74112
-0.0570819
5.98027
-1.57359
-0.508537
6.33405
-1.67883
7.16005
-1.7493
-0.614778
-1.34003
-0.0747844
-1.68224
0.196787
-1.57305
-0.128562
-1.38093
-0.500996
-1.48977
-1.58221
0.362399
2.18527
-0.422598
-5.29817e-05
2.57085
-0.548618
-0.281719
2.23492
-0.476761
0.141064
2.17518
-0.40699
0.379132
2.1034
-0.449214
2.58449
-0.515283
0.0328888
0.155963
0.425153
0.0526685
0.324608
0.392341
-0.0339216
0.111668
0.468731
-0.0341409
0.13189
0.469917
-0.0678184
0.0568861
0.401355
0.403134
0.364229
0.0817611
-0.0294584
0.000524705
-0.0414496
-0.0520954
-0.0215494
-0.00386101
0.00208343
0.0400193
-0.0121693
-0.0711007
0.0516373
-0.734749
-0.57677
1.25988
0.0456636
-0.766235
-0.597171
1.36938
-0.0132144
-0.754115
-0.609631
1.42262
-0.0670126
-0.68283
-0.636205
1.37283
-0.0626455
-0.75204
-0.655926
1.4036
-0.75849
-0.626922
1.32277
0.0492152
-0.484516
0.0254745
-0.324922
0.0518819
-0.554194
-0.00444745
-0.210259
-0.114524
-0.498586
-0.00905005
-0.0800723
-0.113781
-0.385537
0.199316
-0.497351
-0.0234525
-0.414985
0.37089
-0.798273
-0.401376
0.389985
-0.770551
-0.131528
0.18669
-0.521164
-0.161718
0.215791
-0.596108
-0.0588818
0.344161
-0.882157
0.145489
0.488065
-1.16342
0.119079
0.366891
-0.94047
0.326561
-0.84975
-0.000972299
-0.414056
-0.161742
-0.00612242
-0.419816
-0.172205
0.00187479
-0.436643
-0.180985
0.00605563
-0.466043
-0.174343
0.000891856
-0.483456
-0.167306
-0.46106
-0.16497
-0.047244
-0.217043
-0.124294
-0.104935
-0.222551
-0.144021
-0.180881
-0.231816
-0.13793
-0.172546
-0.22899
-0.0460716
-0.086348
-0.219117
0.0203534
-0.200544
0.0431203
-0.0251794
0.0263211
-0.0415622
0.0402099
-0.0138943
0.0942705
0.0633508
0.120871
0.0373472
0.0646113
0.0541581
0.00159025
-0.160357
-0.00297536
0.00307853
-0.166569
-0.00712506
0.000984524
-0.173554
-0.00533655
-0.000624724
-0.168428
-0.00430567
-0.000205646
-0.164876
-0.00284908
-0.160879
-0.00429694
-0.0110173
-0.0948793
-0.178753
-0.0426299
-0.101165
-0.177812
-0.0923362
-0.09872
-0.163058
-0.0866142
-0.0911706
-0.129052
-0.0467535
-0.0870511
-0.0973346
-0.0807524
-0.0837619
-0.0142982
0.0380952
-0.0217235
0.0429062
-0.00246736
0.0527274
0.0304773
0.0558959
0.0188743
0.0454495
0.0442852
0.000647525
-0.157573
0.153951
0.00014792
-0.158489
0.151863
0.000455745
-0.158016
0.152372
0.000395271
-0.157651
0.153406
-0.000610303
-0.159473
0.157629
-0.158484
0.153577
-0.0267975
-0.114459
-0.19507
-0.0420044
-0.115197
-0.205897
-0.0360937
-0.111046
-0.21594
-0.0229012
-0.108707
-0.19119
-0.012329
-0.108877
-0.158506
-0.105742
-0.148835
-0.000669796
0.0633169
-0.00108561
0.0679848
-0.00108101
0.0726569
0.00873703
0.0599129
0.00801613
0.0570901
0.0647526
-0.00460904
-0.133108
0.291667
0.00101941
-0.162348
0.308583
0.00173601
-0.153319
0.304973
-0.000573928
-0.127848
0.283563
-0.00334719
-0.129969
0.290371
-0.166294
0.316523
-0.00932034
0.0429963
-0.361854
-0.0204715
0.0189133
-0.37601
-0.006337
0.029088
-0.412482
0.00434541
0.0595864
-0.389309
0.00672682
0.0578838
-0.348743
0.0247164
-0.333119
0.0110969
-0.0251547
-0.0038925
-0.0153523
-0.0122105
-0.0175289
0.0119696
-0.0423573
0.027013
-0.038004
-0.015486
0.0169206
-0.147851
-0.0102239
-0.212891
-0.0031581
-0.178853
0.0127484
-0.139333
0.0191713
-0.165266
-0.179589
0.0238683
-0.108424
-0.0289936
-0.1437
-0.0333541
-0.118246
0.0112982
-0.10338
0.0351109
-0.136468
-0.113368
0.0024021
-0.0101787
-0.0136619
0.00948079
0.0244119
0.421804
-0.774815
-0.0951805
0.458626
-1.43666
0.0380951
1.21217
-0.81256
0.0991641
0.893042
-1.18352
0.0325211
0.156475
-1.76464
-0.0513015
-0.946248
0.0960029
0.235506
-0.906652
-0.103668
0.157117
-1.36648
0.00821649
0.035452
-0.615774
-0.0751228
-0.10629
-1.07308
0.0313015
-0.330012
-1.54321
0.00228787
-1.21192
-0.0643416
0.0984477
0.0575022
-0.0601445
0.0652978
0.0178943
-0.0399851
0.0923609
0.0507966
-0.0181252
0.0704539
0.028906
0.383689
-1.42649
0.360414
0.341429
-1.9784
0.179199
0.780685
-1.85897
0.257652
0.660467
-1.87421
0.231607
0.227728
-2.11697
0.0718863
-1.65825
0.53131
0.256038
-1.51175
-0.274454
0.15171
-1.66537
-0.20048
-0.0619703
-1.6583
-0.0621178
-0.110378
-1.75109
-0.0434174
-0.15697
-1.89836
-0.169735
-1.66878
-0.210787
0.0840571
-0.000693717
0.0484867
0.0387764
0.0224127
0.00679525
0.0338387
0.0113236
-0.0388091
-0.00229724
-0.0785794
0.783393
-0.716911
0.800086
0.935392
-1.91187
0.691863
1.05841
-2.01543
0.752943
0.476504
-2.0107
0.712086
-0.172781
-2.13761
0.734765
-1.24832
1.34678
0.599499
-1.26338
-0.327481
0.394369
-1.67909
-0.228132
-0.040452
-1.64065
-0.00207876
-0.218521
-1.82332
-0.0527264
-0.270364
-1.97323
-0.282273
-1.62919
-0.100277
0.132853
-0.0717558
0.00142213
-0.0101052
-0.0078636
-0.0494581
-0.0287201
-0.0641263
-0.111556
-0.166485
-0.248408
1.70257
-0.466446
0.922984
2.07094
-1.90476
1.03975
1.31082
-2.24893
1.13737
0.102623
-2.14657
1.02505
-0.758337
-1.79278
1.32478
-0.336962
2.14442
0.708821
-1.27301
-0.229737
0.436648
-1.82194
-0.0387798
-0.215614
-1.89835
0.299603
-0.653572
-1.92582
0.164478
-0.690375
-1.89086
-0.147389
-1.45027
0.322655
0.103093
-0.192619
-0.107197
-0.128845
-0.218066
-0.136746
-0.224981
-0.160893
-0.202972
-0.431642
-0.442686
2.28971
-0.874499
0.574038
2.49572
-2.01268
1.05308
1.56257
-2.68583
1.52414
0.0295072
-2.78564
1.49221
-0.764903
-1.50446
1.32576
0.211777
2.1773
0.7046
-1.45227
-0.356562
0.612403
-2.16231
0.203049
-0.11417
-2.27228
0.612632
-1.19286
-1.93483
0.392356
-1.21503
-1.51466
-0.115014
-1.04559
0.364993
-0.0184613
-0.3787
-0.228417
-0.335989
-0.408673
-0.24553
-0.329038
-0.255264
-0.228957
-0.563502
-0.497902
1.08329
-0.925187
0.495351
0.67984
-1.90974
2.01599
0.612449
-2.73285
2.78479
0.410963
-2.16032
2.69611
-0.33377
-1.15897
1.72956
0.554604
1.58207
0.607748
-1.33015
-0.55935
0.418735
-2.22617
0.708496
-0.288558
-2.73508
1.32216
-1.07078
-2.0478
1.06206
-1.23808
-1.10623
-0.000446139
-0.16948
-0.148998
-0.0369588
-0.676412
-0.0586862
-0.623416
-0.305735
-0.426535
-0.440084
-0.452745
-0.461676
-0.633755
-0.612662
-0.483441
-0.427436
0.923726
-1.14226
-0.868843
2.65249
-0.380343
0.37343
3.12575
0.648404
0.969501
2.56131
0.371478
0.868687
2.10979
1.57318
1.56715
-0.432799
-0.211697
-0.342288
-0.891148
-0.91044
1.20844
-0.666133
-0.63651
2.10708
-0.312629
0.223793
1.45426
-0.703761
0.881395
0.377978
1.36712
-0.6467
-0.240608
-0.702169
-0.554852
-0.46702
-0.556505
0.0897807
-0.349753
-0.279642
-0.345876
-0.5218
-0.820427
-1.86624
0.737662
1.8299
-2.64868
1.11603
2.95221
-1.34562
3.15161
2.46539
-0.0185235
3.47426
1.68698
0.22977
3.17578
1.50027
3.07996
0.881222
-1.68234
1.58869
0.489031
-2.47713
1.67785
1.44141
-1.54548
2.71898
1.60805
-0.444962
3.01774
0.810269
-0.237181
3.14725
0.198728
2.77803
-0.58195
-0.364793
-0.338613
-0.777961
-0.0452339
-1.19842
0.20384
-0.658458
-0.351981
-0.274582
-0.423675
-0.555941
-2.07313
1.97719
2.46673
-3.1752
2.41449
3.27287
-2.90045
3.93977
2.00772
-2.31911
3.09787
0.846404
-1.1182
2.51331
-0.017617
2.04061
-0.451496
-1.3918
2.68156
1.17646
-2.46289
2.99592
1.93108
-1.81556
3.47874
1.42174
-0.940433
2.46775
0.56526
-0.0832556
1.95551
-0.100654
1.66636
-0.29096
0.0468713
-0.0450705
-0.297836
0.406717
-0.127094
0.482308
0.123396
-0.0208257
0.26918
-0.185668
-0.120451
-0.312701
2.42787
1.71333
-0.682134
2.91787
2.98561
-1.03367
3.43207
2.2926
-1.50044
2.96035
1.50272
-1.51836
1.23766
-0.226196
0.889971
-1.29196
0.628678
2.50104
0.474607
0.551689
3.22962
1.69631
0.359874
3.20596
1.83966
0.193647
2.31118
1.38066
-0.0656493
1.04733
0.348965
0.799417
-0.266055
0.582974
-0.115534
0.924653
0.36872
0.700973
1.03297
0.342796
0.780701
0.170029
0.252831
0.194971
1.18758
2.57342
-0.293885
2.52068
3.53999
0.566639
3.02964
3.73158
0.64444
2.58844
3.77401
0.71463
0.185654
2.2678
-0.402953
1.07172
-1.08714
0.824968
1.94314
0.279926
2.11217
3.03815
0.910952
2.83441
3.64837
1.20064
2.66059
3.61886
1.70963
1.35989
2.6025
1.31497
1.53064
0.634914
0.276689
0.101739
0.932776
0.280317
1.17671
1.07694
0.965409
1.28752
0.595317
0.92401
0.854787
-0.00324064
-0.589008
0.333955
0.140838
0.56443
0.495366
0.613082
0.573997
0.291847
-0.517846
-1.23085
-0.178371
-0.455633
0.43137
0.231789
0.92872
1.11859
1.33336
1.38163
1.00902
0.323198
-0.357464
-0.355347
-0.111235
0.174544
0.490245
0.446553
)
;

boundaryField
{
    seabed_topleft_surface
    {
        type            calculated;
        value           uniform 0;
    }
    seabed_topright_surface
    {
        type            calculated;
        value           uniform 0;
    }
    breakwater_top_surface
    {
        type            calculated;
        value           uniform 0;
    }
    breakwater_left_surface
    {
        type            calculated;
        value           uniform 0;
    }
    breakwater_right_surface
    {
        type            calculated;
        value           uniform 0;
    }
    water_front_surface
    {
        type            calculated;
        value           uniform 0;
    }
    water_back_surface
    {
        type            calculated;
        value           uniform 0;
    }
    water_left_surface
    {
        type            calculated;
        value           uniform 0;
    }
    water_right_surface
    {
        type            calculated;
        value           uniform 0;
    }
    water_top_surface
    {
        type            calculated;
        value           nonuniform List<scalar> 
180
(
1.50923
1.03333
0.888938
1.44726
1.43689
1.50911
-2.4353
-2.41611
-2.38341
-2.42128
-2.48701
-2.35193
-1.59622
-1.61243
-1.61491
-1.60329
-1.60058
-1.61554
-1.60594
-1.61277
-1.60895
-1.60566
-1.60971
-1.59272
-1.73582
-1.75352
-1.749
-1.74295
-1.73638
-1.74687
-2.13872
-2.1636
-2.15073
-2.1574
-2.15127
-2.14228
-2.70918
-2.78869
-2.75244
-2.75297
-2.69278
-2.7255
-2.03053
-3.35386
-3.21109
-2.58739
-2.3215
-3.48373
4.09676
-1.09514
0.248959
2.51721
2.4335
-1.63064
8.76364
7.50774
7.93831
8.39773
8.61185
7.77417
5.04888
6.89147
5.82679
5.26042
5.79302
6.50426
-1.23637
-1.23495
-1.38721
-1.29936
-1.4646
-1.06796
-0.0185151