/*--------------------------------*- C++ -*----------------------------------*\
| =========                 |                                                 |
| \\      /  F ield         | OpenFOAM: The Open Source CFD Toolbox           |
|  \\    /   O peration     | Version:  v1612+                                |
|   \\  /    A nd           | Web:      www.OpenFOAM.com                      |
|    \\/     M anipulation  |                                                 |
\*---------------------------------------------------------------------------*/
FoamFile
{
    version     2.0;
    format      ascii;
    class       volScalarField;
    location    "8.4";
    object      alpha.water;
}
// * * * * * * * * * * * * * * * * * * * * * * * * * * * * * * * * * * * * * //

dimensions      [0 0 0 0 0 0 0];

internalField   nonuniform List<scalar> 
1116
(
0.742788
0.742369
0.743239
0.74202
0.741512
0.743464
0.815005
0.814862
0.81493
0.814817
0.814893
0.814882
0.961896
0.961914
0.961705
0.962012
0.962211
0.961665
0.974092
0.974092
0.974092
0.974092
0.974092
0.974092
0.974093
0.974093
0.974093
0.974093
0.974093
0.974093
0.974093
0.974093
0.974093
0.974093
0.974093
0.974093
0.920358
0.919473
0.919848
0.919925
0.919086
0.920809
0.830454
0.829353
0.830197
0.829221
0.829408
0.830572
0.789875
0.788529
0.789088
0.789563
0.790888
0.789265
0.752455
0.751122
0.751194
0.752882
0.754085
0.750819
0.71662
0.714631
0.714398
0.717257
0.71831
0.713762
0.666047
0.668042
0.667875
0.665603
0.664292
0.668631
0.538574
0.542769
0.544792
0.537442
0.533199
0.543354
0.488516
0.4786
0.472783
0.489618
0.496592
0.473391
0.594221
0.590453
0.587315
0.595516
0.599544
0.588208
0.797477
0.799096
0.799314
0.797586
0.79687
0.80041
0.944859
0.945579
0.946643
0.944396
0.943571
0.947127
0.961014
0.960573
0.961184
0.960702
0.960995
0.960919
0.936167
0.937819
0.93762
0.936542
0.936367
0.936723
0.692578
0.704221
0.701409
0.697454
0.694067
0.70893
0.277203
0.277752
0.276787
0.278353
0.278425
0.277842
0.253048
0.232777
0.236395
0.252763
0.259149
0.221192
0.238687
0.23921
0.239237
0.237819
0.23839
0.234791
0.117776
0.133152
0.132684
0.115512
0.110518
0.1358
0.0150712
0.0163351
0.017256
0.0141702
0.0123991
0.016486
8.52957e-06
3.68877e-06
2.62611e-06
4.52707e-06
3.07628e-06
8.70686e-07
0.00610029
0.00437266
0.00396969
0.0060181
0.00651566
0.00402974
0.044221
0.0424656
0.0425513
0.0441403
0.0445438
0.0430404
0.131684
0.131508
0.132196
0.131695
0.130944
0.135405
0.233748
0.235207
0.234865
0.234634
0.232859
0.238601
0.247082
0.245636
0.246975
0.24612
0.245294
0.247378
0.282669
0.276801
0.28061
0.278468
0.277571
0.279459
0.286076
0.285833
0.286121
0.287286
0.287438
0.28625
0.132558
0.147376
0.142536
0.130666
0.135592
0.148024
0.0262902
0.0251847
0.0239425
0.0271194
0.0290363
0.0246847
0.0167457
0.0103007
0.0105011
0.0178613
0.0208784
0.00938423
3.91771e-06
3.23299e-06
2.62611e-06
2.75733e-06
1.78741e-06
8.70686e-07
1.17243e-05
3.08579e-06
1.86439e-06
5.39416e-06
4.04587e-06
1.87045e-07
5.01904e-13
4.06093e-13
4.0942e-13
5.82877e-13
7.46092e-12
1.53626e-11
4.06093e-13
4.07807e-13
4.07807e-13
4.0942e-13
1.64411e-12
2.40285e-12
4.12255e-13
4.06093e-13
4.0942e-13
4.22291e-13
5.59259e-13
1.91887e-12
5.4203e-13
4.12255e-13
4.22291e-13
5.59259e-13
1.06193e-11
5.40634e-12
6.47112e-08
5.96893e-08
5.44524e-08
6.77047e-08
6.96007e-08
4.61672e-08
1.29393e-07
1.244e-07
1.22087e-07
1.28895e-07
1.22674e-07
1.07515e-07
0.00253115
1.32299e-07
0.000118074
0.00163354
0.00144215
1.22658e-07
0.00541381
0.00531489
0.00585125
0.00481598
0.00391967
0.00555682
0.000309186
0.000260214
0.000284553
0.000312788
0.00033454
0.000247313
0.00490592
0.00622943
0.00626776
0.00458427
0.00386359
0.00642929
0.0946859
0.0946964
0.0947039
0.0940737
0.0925719
0.0946564
0.0946964
0.0947039
0.0947333
0.0947043
0.0946895
0.094673
0.0946863
0.0946965
0.0860757
0.0946951
0.0946759
0.0946629
0.0946679
0.0749538
0.0281893
0.0623717
0.0768259
0.0943135
0.0798284
0.0472362
0.061681
0.0619881
0.0343225
0.0343225
0.0495334
0.056314
0.0593064
0.0606303
0.0600252
0.053359
0.0550338
0.0524875
0.0326263
0.0182089
0.0336007
0.0525607
0.0550338
0.0503869
0.0332678
0.00360395
0.0115513
0.0401752
0.0508244
0.0507403
0.0360878
0.0053305
0.0141041
0.0421386
0.0182358
0.0505551
0.0340115
0.0186182
0.0152548
0.042385
0.0191142
0.0178672
0.0336844
0.0352537
0.0289082
0.042385
0.0206973
0.0107327
0.0262366
0.0417548
0.042348
0.042385
0.0946789
0.0946868
0.0947294
0.09465
0.0946402
0.0946459
0.0926719
0.0947194
0.0947471
0.0947154
0.0946753
0.0946827
0.0942075
0.0946869
0.0872173
0.0946515
0.0946637
0.0946484
0.0946506
0.0841632
0.0272868
0.062729
0.0946565
0.0947582
0.0941105
0.0406168
0.0245327
0.032063
0.039954
0.0509352
0.0260597
0.0137997
0.0170012
0.0117701
0.01248
0.0139758
0.00177594
0.00266534
0.00332039
0.00412924
0.00366186
0.00154008
0.000525711
5.68128e-05
0.000549226
0.00366556
0.00259598
3.0523e-05
0.0094775
0.00218485
4.71812e-06
0.00198815
0.000591917
3.0523e-05
0.0108497
1.21059e-06
8.50535e-07
0.000391889
0.000109098
0.0020023
0.00478941
0.000424276
4.71842e-06
1.88846e-05
6.42725e-05
0.00550256
0.00920682
0.00322979
0.000872044
0.000124087
0.000226937
0.0068515
0.0476437
0.0695504
0.0677198
0.086768
0.0937756
0.0839566
0.0163265
0.039072
0.0245029
0.0526711
0.081089
0.0554428
0.0168444
0.0457148
0.0591854
0.0900079
0.0931518
0.0335055
0.0375398
0.0720167
0.078923
0.093698
0.0945855
0.0385405
0.0443179
0.0675711
0.0233632
0.0339339
0.0590774
0.0370868
0.0220955
0.0171441
0.000222756
0.000195478
0.000737432
0.00671238
8.29983e-05
5.63799e-05
7.79289e-05
0.00010156
2.37805e-05
3.10712e-05
2.43111e-06
5.38961e-06
0.000112193
0.000696222
9.94993e-06
2.55496e-05
4.9455e-07
1.20781e-06
1.49986e-05
2.37433e-06
3.42077e-05
0.000248737
4.08667e-07
4.34095e-07
2.82252e-07
8.09053e-07
7.98032e-05
0.000434815
4.64571e-07
0.000719169
0.000474949
0.00215234
0.00309015
2.50986e-05
0.000807887
0.0040514
0.00516822
0.00711805
0.00676761
0.00191197
4.84455e-08
1.06094e-08
3.79138e-08
0.00192976
0.011014
0.00241036
7.575e-08
3.7914e-08
4.50967e-08
2.83537e-08
1.04842e-07
0.00186533
1.29678e-07
9.85449e-08
6.3534e-08
6.05809e-08
0.000812848
0.00371271
1.05082e-05
3.63141e-07
0.0200082
0.0499363
0.0180466
0.00077642
2.08433e-05
0.0215659
0.0341266
0.0412969
0.0220718
0.00646631
0.00225081
0.0219969
0.00656613
0.00133292
0.00531857
0.00321518
0.000877853
0.00278319
1.36174e-05
1.53558e-05
9.94985e-06
5.62269e-05
7.005e-06
3.99838e-06
9.32618e-07
1.528e-06
7.3574e-06
6.45495e-05
4.0861e-07
4.29367e-07
4.46879e-07
2.85281e-07
5.30861e-05
0.000218479
3.50263e-07
2.62806e-07
2.37605e-07
2.41589e-07
6.9717e-07
2.94825e-05
4.08658e-07
4.04191e-07
2.81968e-07
0.000803781
0.00151033
1.49368e-06
0.00753521
0.00683884
0.0078686
0.00796094
0.00796094
0.00735209
0.000240903
0.000121014
8.876e-05
0.000228766
0.000266456
0.000111398
0.00029601
0.000135796
8.73807e-05
0.000285197
0.000285197
0.000171217
0.000295637
0.000207776
0.00015763
0.000284216
0.000284798
0.000283502
0.00013747
0.000124652
0.000123498
6.34215e-05
5.19896e-05
0.00011036
7.89208e-05
4.79107e-05
7.90125e-05
2.2371e-05
7.16676e-05
7.85825e-05
6.21752e-31
3.1549e-31
1.9381e-31
8.16024e-31
2.87928e-30
7.79019e-32
3.25728e-12
2.07716e-13
2.14575e-13
5.48356e-12
1.41614e-11
1.20143e-12
-7.46196e-14
3.61792e-17
2.16194e-17
-1.14482e-14
-2.93717e-12
6.41581e-18
-6.29145e-21
1.00168e-17
1.11549e-17
-3.5305e-20
-2.89449e-19
1.88069e-18
1.16199e-11
3.69408e-13
3.66484e-13
9.61307e-12
4.33276e-11
2.24188e-12
1.24441e-13
4.86117e-14
3.287e-14
1.33984e-13
4.10904e-13
8.77061e-15
2.22568e-14
2.48074e-15
3.43493e-15
1.98157e-14
2.42012e-14
9.48151e-18
5.405e-13
4.10726e-13
4.20927e-13
4.99619e-13
1.30432e-12
2.22068e-12
9.32516e-13
3.63866e-13
2.84205e-13
1.01926e-12
7.24669e-12
1.57554e-12
-1.44913e-14
-2.91569e-15
-7.06889e-16
-1.12371e-14
-5.53333e-14
-9.2749e-16
2.17386e-06
1.8623e-06
1.69544e-06
2.33605e-06
3.10861e-06
1.45414e-06
2.89416e-06
2.55246e-06
2.28932e-06
3.07648e-06
4.60765e-06
1.84748e-06
-4.11611e-14
-2.15002e-16
-1.63458e-15
-3.56443e-14
-1.19687e-11
-4.80607e-17
3.45553e-06
4.46286e-06
3.86181e-06
3.52459e-06
4.45429e-06
3.60114e-06
1.44124e-05
1.42102e-05
1.44491e-05
1.46847e-05
1.44491e-05
8.40064e-06
1.11957e-06
5.39044e-07
9.28959e-08
1.11194e-06
2.95236e-06
1.16893e-07
1.28932e-07
2.66122e-07
1.34918e-07
1.3481e-07
1.28864e-07
1.51997e-07
1.42584e-05
7.96288e-06
8.38854e-06
1.45619e-05
1.24204e-05
4.61183e-06
9.78652e-06
7.63679e-06
7.08601e-06
9.54137e-06
9.54546e-06
4.77378e-06
2.25758e-07
2.53944e-07
2.3845e-07
2.41147e-07
2.71725e-07
2.09581e-07
5.4381e-06
6.54231e-06
6.42166e-06
7.90813e-06
3.048e-06
4.08924e-06
1.13397e-05
1.04501e-05
1.02186e-05
1.19577e-05
6.30747e-06
6.10103e-06
5.8367e-05
9.56822e-07
1.18218e-05
5.28472e-05
5.02622e-05
2.42173e-06
1.55544e-05
7.9191e-06
9.94022e-06
1.56934e-05
1.30017e-05
4.62446e-06
9.74996e-06
8.75382e-06
8.38265e-06
1.03284e-05
6.77619e-06
5.47536e-06
0.000128657
6.27287e-05
6.98535e-05
0.000127189
0.000131713
5.62618e-05
0.000112479
8.19471e-05
8.46346e-05
0.000117378
0.000137156
6.5418e-05
3.50783e-06
2.21289e-06
2.23942e-06
4.27821e-06
5.63175e-06
3.10699e-06
0.00990812
0.00974016
0.0098715
0.00992393
0.0101378
0.00953251
3.85798e-05
6.16332e-05
1.99973e-05
9.61165e-05
0.000144316
0.000189664
3.99548e-07
1.44548e-07
2.41158e-07
2.45466e-07
1.55125e-07
-1.90646e-11
0.0280956
0.0278659
0.0274561
0.0275213
0.0274371
0.0273186
1.44975e-13
1.58332e-13
8.83879e-13
7.94245e-13
3.12597e-13
4.16492e-15
-2.10427e-15
-1.08921e-14
-1.4669e-14
1.16708e-09
2.64555e-12
1.06649e-16
0.0299486
0.0296515
0.0294693
0.0292452
0.0292082
0.0293195
6.52528e-14
4.09392e-14
1.20553e-14
4.08346e-14
4.07477e-15
9.01489e-17
-1.0015e-16
-1.34912e-16
-2.38394e-16
1.18343e-17
1.43124e-17
2.59384e-17
0.0303564
0.030329
0.0302761
0.0302382
0.0302027
0.0301812
1.30485e-13
1.64386e-26
4.6953e-27
1.62205e-26
2.16246e-26
2.7368e-26
-4.13178e-27
-3.89135e-27
-4.24263e-27
-3.86203e-27
-6.7286e-27
-2.67679e-27
0.0296766
0.0296785
0.0296438
0.0295924
0.0295293
0.0295686
2.20133e-24
3.90222e-24
1.28058e-24
4.87003e-24
7.0331e-24
8.75984e-24
-3.33803e-27
-3.70065e-27
-4.06111e-27
-3.85723e-27
-4.42342e-27
-2.93363e-27
0.0281112
0.0281787
0.0281536
0.0280028
0.027862
0.028052
5.63069e-12
1.01e-11
3.33549e-12
1.2676e-11
1.8303e-11
2.30597e-11
3.9455e-18
4.12149e-18
8.5252e-18
7.57942e-18
9.42638e-18
9.24518e-18
0.0275695
0.0274471
0.0274345
0.02754
0.0274615
0.0273341
2.0296e-09
3.53765e-09
1.22562e-09
5.11121e-09
7.71683e-09
9.72258e-09
4.12178e-09
3.99494e-11
2.60249e-09
8.13169e-11
1.07299e-10
1.13944e-10
1.1413e-07
1.06094e-08
1.06339e-08
1.94765e-08
2.99647e-08
4.8861e-08
1.53332e-06
1.06094e-08
2.71195e-05
1.51077e-07
7.41219e-07
2.88371e-06
4.45509e-25
1.3913e-08
5.8285e-14
1.02732e-17
4.19947e-22
2.1581e-20
9.78373e-06
2.19314e-06
1.94731e-08
2.42244e-08
2.83537e-08
5.65023e-08
3.11763e-05
3.69371e-06
4.52281e-08
1.35145e-08
6.64982e-06
2.11777e-05
1.6955e-24
3.41134e-21
5.28956e-08
1.31444e-08
1.23371e-20
2.71486e-19
4.84582e-05
9.28127e-06
4.50414e-08
2.83536e-08
6.0545e-08
3.30826e-07
3.67547e-05
1.1322e-05
6.43857e-08
7.38414e-07
9.41216e-06
2.60064e-05
2.15115e-22
5.17743e-14
2.77881e-07
6.19683e-08
9.82281e-19
5.69641e-07
0.000124515
1.56477e-07
7.33785e-08
5.67093e-08
8.49258e-08
3.84691e-07
2.52676e-06
4.06166e-05
1.09176e-07
8.4923e-08
1.93663e-06
9.78511e-10
2.7991e-19
5.86512e-19
1.19892e-07
6.34001e-07
1.24156e-07
-6.76395e-12
0.000335516
0.000495275
0.0107392
0.0109835
0.000969501
4.28206e-06
5.60574e-05
0.00055146
0.00126896
0.00152692
4.86717e-07
6.62378e-08
4.9445e-18
-8.87909e-15
-1.71299e-13
3.27311e-07
5.49826e-07
9.15129e-10
0.0008796
0.005576
0.00958825
0.00419414
0.00157705
0.000437496
9.98227e-05
0.000996424
0.00283571
0.00155922
1.64875e-05
6.0105e-07
5.58248e-08
2.27213e-07
7.06457e-07
1.65542e-06
3.31375e-07
1.12859e-07
0.00039091
0.00178388
0.000339411
7.71409e-06
0.00012216
5.51869e-05
4.08445e-05
0.000289383
7.79717e-05
9.05695e-06
1.29002e-05
1.10029e-05
1.12189e-07
1.42662e-07
1.62759e-06
7.80125e-07
1.72306e-08
1.65544e-08
6.56906e-06
1.00553e-06
2.82917e-07
9.49561e-08
5.60065e-06
2.65654e-05
5.53247e-07
7.69418e-07
6.63451e-08
4.34014e-08
8.81341e-07
7.47867e-08
9.85662e-08
8.53697e-08
4.81737e-08
4.17985e-08
1.7884e-09
2.95741e-09
3.80582e-07
2.62006e-07
2.37075e-07
2.18109e-07
3.47791e-07
3.25221e-06
3.49751e-07
3.19043e-07
7.3452e-07
6.20352e-07
3.89929e-08
2.82925e-10
6.38187e-07
9.62157e-07
8.42028e-07
2.34508e-07
1.01859e-09
2.75398e-09
2.62624e-07
2.37533e-07
2.37591e-07
2.18215e-07
8.45082e-09
1.43658e-10
2.57346e-05
1.04153e-05
2.27116e-06
4.66797e-07
2.79231e-10
8.81484e-11
6.97268e-06
7.76949e-06
3.6973e-06
1.88074e-07
5.04839e-11
9.89899e-11
4.02468e-07
2.61504e-07
2.36731e-07
2.40471e-07
5.55557e-07
-4.38011e-09
8.4716e-05
4.36779e-05
1.45193e-05
2.29079e-06
1.95856e-08
7.63858e-11
5.76177e-06
7.05182e-06
1.04188e-05
3.06113e-07
-1.86841e-12
-6.245e-15
0.00786988
0.00702938
0.00581156
0.00702504
0.00710379
0.00764364
1.78323e-10
3.00303e-10
1.05612e-09
4.35563e-10
1.21268e-10
1.71562e-12
6.0367e-07
4.67385e-07
1.39848e-06
9.45086e-08
-1.93782e-16
5.69876e-18
)
;

boundaryField
{
    seabed_topleft_surface
    {
        type            zeroGradient;
    }
    seabed_topright_surface
    {
        type            zeroGradient;
    }
    breakwater_top_surface
    {
        type            zeroGradient;
    }
    breakwater_left_surface
    {
        type            zeroGradient;
    }
    breakwater_right_surface
    {
        type            zeroGradient;
    }
    water_front_surface
    {
        type            zeroGradient;
    }
    water_back_surface
    {
        type            zeroGradient;
    }
    water_left_surface
    {
        type            zeroGradient;
    }
    water_right_surface
    {
        type            zeroGradient;
    }
    water_top_surface
    {
        type            inletOutlet;
        inletValue      uniform 0;
        value           nonuniform List<scalar> 
180
(
0.000295637
0.000207776
0.00015763
0.000284216
0.000284798
0.000283502
0
0
0
0
0
0
0
0
0
0
0
0
0
0
0
0
0
0
0
0
0
0
0
0
0
0
0
0
0
0
0
0
0
0
0
0
9.78652e-06
7.63679e-06
7.08601e-06
9.54137e-06
9.54546e-06
4.77378e-06
1.13397e-05
1.04501e-05
1.02186e-05
1.19577e-05
6.30747e-06
6.10103e-06
9.74996e-06
8.75382e-06
8.38265e-06
1.03284e-05
6.77619e-06
5.47536e-06
3.50783e-06
2.21289e-06
2.23942e-06
4.27821e-06
5.63175e-06
3.10699e-06
0
0
0
0
0
0
0
0
0
1.16708e-09
2.64555e-12
1.06649e-16
0
0
0
0
0
0
0
0
0
0
0
0
0
0
0
0
0
0
0
0
0
0
0
0
4.12178e-09
3.99494e-11
2.60249e-09
8.13169e-11
1.07299e-10
1.13944e-10
0
0
0
0
0
0
0
0
0
0
0
0
0
0
0
0
0
0
0
0
0
0
0
0
0
0
0
3.27311e-07
5.49826e-07
9.15129e-10
5.58248e-08
2.27213e-07
7.06457e-07
1.65542e-06
3.31375e-07
1.12859e-07
1.12189e-07
1.42662e-07
1.62759e-06
7.80125e-07
1.72306e-08
1.65544e-08
9.85662e-08
8.53697e-08
4.81737e-08
4.17985e-08
1.7884e-09
2.95741e-09
6.38187e-07
9.62157e-07
8.42028e-07
2.34508e-07
1.01859e-09
2.75398e-09
6.97268e-06
7.76949e-06
3.6973e-06
1.88074e-07
5.04839e-11
9.89899e-11
5.76177e-06
7.05182e-06
1.04188e-05
3.06113e-07
0
0
0
0
0
0
0
0
)
;
    }
}


// ************************************************************************* //
