/*--------------------------------*- C++ -*----------------------------------*\
| =========                 |                                                 |
| \\      /  F ield         | OpenFOAM: The Open Source CFD Toolbox           |
|  \\    /   O peration     | Version:  v1612+                                |
|   \\  /    A nd           | Web:      www.OpenFOAM.com                      |
|    \\/     M anipulation  |                                                 |
\*---------------------------------------------------------------------------*/
FoamFile
{
    version     2.0;
    format      ascii;
    class       volScalarField;
    location    "8.4";
    object      p_rgh;
}
// * * * * * * * * * * * * * * * * * * * * * * * * * * * * * * * * * * * * * //

dimensions      [1 -1 -2 0 0 0 0];

internalField   nonuniform List<scalar> 
1116
(
14016.8
14013.4
14015.3
14001.8
14000.7
14005.1
14569.8
14544.1
14544.3
14570.7
14618.6
14532.6
16188.5
16179.4
16176.8
16185.9
16199.3
16170.1
17678.8
17677.9
17677.9
17679.1
17681.1
17678.1
18910
18910.9
18911.6
18912.5
18913.4
18916
19515
19515
19516
19517.4
19518.2
19520.3
19082.7
19075.6
19078.6
19080
19077.2
19085.6
17466.6
17459.1
17463.2
17459.9
17462.6
17468.9
14676.7
14668.6
14667.8
14669.2
14673.1
14673.1
12045.6
12019.5
12015.5
12030.3
12035.2
11988.6
10130.5
10117.4
10109.7
10119.9
10123.8
10088.7
8623.69
8630.55
8628.67
8615.46
8611.87
8633.43
10967.5
11067.4
11094.1
10953.4
10877.5
11064.9
9629.64
9460.59
9352.02
9636.68
9752.64
9356.44
11780.2
11692.2
11626.2
11804.8
11887.2
11629.6
16087.9
16102.9
16105
16090.7
16085.5
16120.4
19571.1
19580.1
19597.7
19565.4
19553
19614.1
20512.8
20506.3
20516
20509.8
20514.8
20518.3
19854.4
19880.9
19879.1
19859.1
19858.9
19866.1
15243.6
15411.5
15369.6
15311.8
15260.1
15480.9
7930.08
7920.03
7897.09
7926.52
7918.11
7906.38
6780.29
6450.73
6491.65
6737.77
6824.18
6231.63
5385.64
5390.09
5381.77
5366.35
5398.33
5321.46
3324.41
3509.42
3507.1
3308.09
3261.73
3550.73
448.713
489.91
515.197
428.128
375.628
496.917
13.9523
18.653
16.5799
8.7587
3.22163
14.2243
218.967
173.639
161.82
217.912
234.367
163.892
1323.19
1275.54
1275.7
1322.1
1332.84
1290.03
3902.92
3900.31
3918.71
3905.17
3883.92
4007.5
6919.21
6966.18
6956.6
6945.54
6896.43
7059.93
7218.68
7186.98
7224.4
7191.61
7169.78
7239.07
8176.59
8014.26
8121.8
8054.65
8031.36
8093.62
8342.85
8319.42
8297.29
8311.04
8288.73
8327.48
4401.73
4755.16
4619.42
4356.63
4494.51
4767.36
1140.45
1111.79
1079.36
1160.88
1205.64
1099.74
1000.21
850.631
851.516
1030.32
1108.4
832.24
10.4614
10.7724
10.5582
10.9397
11.0509
10.9784
6.46361
6.1908
5.55073
5.42298
5.06169
4.78171
12.5934
12.9797
13.2831
13.3751
13.2519
13.9124
3.67253
3.50896
3.21278
3.41221
3.40705
3.16846
-10.8597
-10.9017
-11.0216
-11.0401
-11.0981
-11.2367
-38.3094
-37.7901
-37.8536
-37.9465
-38.0705
-37.2671
-104.252
-105.035
-104.965
-103.665
-103.627
-103.674
-93.3662
-102.211
-100.799
-94.985
-93.0682
-102.613
122.32
33.2185
38.3398
89.9043
83.1685
30.1987
369.142
370.305
387.521
349.836
311.225
360.938
235.377
234.317
235.61
236.94
233.376
232.338
424.885
500.611
494.506
423.742
398.389
521.42
2890.03
2837.04
2910.34
2856.85
2842.05
2888.28
2748.06
2673.51
2789.07
2726.56
2699.82
2803.04
2601.7
2523.43
2588.94
2670.18
2620.14
2662.98
2561.72
2387.19
2107.19
2351.92
2409.28
2485.29
2218.65
1977.55
1946.25
1948.24
1843.13
1855.22
1305.95
1266.97
1230.57
1181.63
1274.26
1237.82
766.694
715.39
607.358
482.684
600.604
674.334
586.002
522.458
427.346
273.117
306.716
429.35
526.583
517.964
394.298
232.317
255.279
435.656
324.788
492.621
369.532
265.686
238.973
438.463
341.442
317.497
394.631
433.658
434.167
498.696
361.021
312.466
402.065
517.926
533.019
522.445
2718.25
2767.28
2828.04
2816.37
2790.37
2805.17
2375.44
2487.5
2481.7
2512.34
2548.08
2585.61
2328.29
2353.75
2432.76
2478.08
2480.99
2517.33
2384.96
2210.85
1514.88
2009.73
2456.53
2469.7
2095.74
1271.25
996.642
1136.3
1383.77
1532.24
637.433
427.483
449.089
375.369
427.626
422.337
89.9684
85.0231
91.0135
133.756
127.245
75.8685
41.142
29.2807
24.1762
91.4773
65.0275
22.3492
199.752
68.6417
23.8575
59.96
29.8983
25.1561
207.005
26.8355
30.6345
35.9571
33.7286
73.0067
116.111
54.5595
49.8258
55.031
66.2818
145.051
184.676
105.804
78.8502
78.674
79.0762
166.266
1422.41
2047.08
2045.62
2667.98
2833.91
2529.43
509.133
1155.25
749.95
1562.54
2388.16
1690.97
535.997
1333.16
1744.22
2804.5
2794.47
1228.99
1127.98
2032.87
2308.53
2636.73
2578.51
1213.45
1304.31
1884.46
764.343
1002.32
1608.07
1085.88
596.754
488.539
78.776
80.0342
92.4936
232.209
34.7323
38.5199
43.4972
50.203
46.0199
45
27.6493
28.4387
32.2356
53.2646
38.064
38.1155
23.8176
24.1418
17.4585
20.084
24.8027
31.6694
20.0636
21.6672
19.3397
18.4756
25.1336
33.564
26.3065
43.8568
35.5417
75.8957
97.9529
20.2484
29.4417
92.0121
119.469
183.792
169.827
51.8525
3.14507
-0.669243
1.32741
74.5156
401.383
91.0721
-3.23335
-4.63415
-1.19435
3.16097
1.88052
62.4967
-4.88452
-7.73061
-0.922803
14.6738
15.5524
106.345
-11.2559
-10.7235
709.856
1818.27
583.525
4.13312
-23.7412
731.28
1196.27
1431.2
750.38
214.644
39.9239
720.494
234.886
71.116
202.742
130.244
41.2722
113.169
27.3891
29.1169
28.5665
30.7904
21.604
22.2043
24.7164
26.0816
25.2117
27.5495
17.224
15.6363
11.9159
15.4911
17.5399
26.314
8.77633
7.30728
2.178
5.6919
8.14517
8.23366
21.6672
16.7954
9.63172
31.8292
60.9801
12.4862
262.098
223.424
247.412
241.904
230.037
243.114
19.531
14.3681
12.5347
19.5169
21.0797
14.2728
12.4311
4.30167
1.71144
12.3445
12.1637
6.33601
7.97104
2.62516
-0.264818
7.37589
7.34061
5.97524
13.9449
13.3253
12.7942
9.88754
9.11231
11.8103
1.37712
-0.246905
1.44201
-1.65351
0.93202
1.52098
-12.8402
-12.6978
-12.2215
-12.5896
-13.0078
-12.0817
6.43132
6.73037
6.6806
6.70991
6.79165
7.04228
-3.58883
-3.68289
-3.80142
-3.56536
-3.55197
-3.74733
-8.64468
-8.76667
-8.74435
-8.76844
-8.81119
-8.92589
-0.144372
0.233251
0.233047
0.0616141
0.0187633
0.878411
-8.65289
-8.65627
-8.6138
-8.66918
-8.63196
-8.53467
-10.2417
-10.3185
-10.2378
-10.2791
-10.2434
-10.2303
-14.1315
-13.8076
-13.8561
-14.0064
-14.1943
-13.4995
-18.2409
-18.2802
-18.2671
-18.4152
-18.7132
-18.4775
-12.5968
-12.7178
-12.648
-12.6784
-12.4845
-12.8337
-43.2918
-42.1697
-42.383
-42.612
-43.2959
-41.2729
-36.6163
-36.175
-36.2169
-36.5154
-36.5998
-35.3303
-14.7919
-15.0824
-15.0395
-14.8704
-14.1861
-15.5508
-125.994
-123.45
-123.701
-124.399
-125.648
-121.061
-90.8362
-90.2805
-90.3118
-91.3708
-92.6378
-88.7609
-17.6612
-18.5356
-18.4809
-18.1899
-17.9107
-19.7519
-176.225
-178.936
-177.517
-176.224
-175.656
-175.59
-117.049
-118.012
-117.385
-118.421
-119.036
-115.508
-19.1855
-19.728
-19.6375
-20.2515
-21.3469
-21.2336
-109.26
-106.456
-106.035
-107.927
-107.355
-106.133
-90.8582
-91.4763
-90.6917
-90.9723
-91.3214
-89.8881
-24.3334
-25.5651
-25.1189
-25.0087
-25.5465
-25.3988
-5.76157
-7.26152
-6.72317
-6.04734
-8.66001
-10.7942
-31.5292
-32.4025
-31.9052
-31.1682
-32.047
-33.0727
-14.9295
-15.5524
-15.4315
-15.006
-15.4029
-15.7603
89.4294
86.523
86.5597
91.9623
90.8943
86.3068
16.9697
17.3059
16.1959
18.9445
20.4558
17.9607
-5.88019
-5.36316
-5.76373
-5.89282
-6.05908
-6.03271
495.269
505.197
502.679
500.813
517.743
511.622
-10.7993
-8.38992
-11.8998
-7.77998
-4.66833
-0.0551866
-4.88304
-4.75517
-4.98884
-5.05197
-5.35192
-5.22209
1362.24
1350.55
1331.9
1335.8
1332.21
1325.84
5.23011
5.0564
5.18028
5.55641
5.8253
5.94229
-4.29989
-4.30357
-3.95838
-3.94213
-3.95807
-3.96581
1461.01
1446.86
1438.59
1428.1
1426.17
1431.35
3.79815
3.89678
4.14059
4.40327
4.62192
4.67422
-3.04837
-2.99502
-2.84271
-2.80331
-2.90238
-2.92554
1482.94
1481.54
1478.98
1477.28
1475.65
1474.49
3.58737
3.61113
3.68325
3.76065
3.80753
3.83918
-3.56134
-3.54757
-3.51804
-3.50709
-3.52783
-3.53968
1451
1451.06
1449.31
1446.72
1443.63
1445.45
2.32351
2.34194
2.33857
2.30046
2.27259
2.25726
-3.0708
-3.06611
-3.07236
-3.10073
-3.12362
-3.1331
1375.87
1379.19
1377.78
1370.52
1363.96
1372.9
1.92224
1.94013
1.89781
1.77716
1.71526
1.64293
-2.54093
-2.53245
-2.56282
-2.54805
-2.54247
-2.53992
1338.97
1334.62
1333.65
1336.59
1332.77
1328.51
1.0913
1.121
1.11802
-0.0100528
-0.571811
-0.842194
-3.32202
-3.20735
-3.3277
-3.37353
-3.43039
-3.34918
-1.97044
-4.4798
-5.47685
-6.03597
-9.90591
-9.20342
-1.98401
-2.59177
-1.91506
-3.91489
-5.50452
-3.54773
-4.53873
-5.09043
-4.80284
-4.85344
-5.17755
-4.80308
-6.26875
-7.62091
-7.56632
-8.07568
-11.6296
-12.8321
-3.44745
-4.89777
-5.63151
-6.33666
-7.35202
-6.94161
-6.32967
-6.84509
-7.3829
-6.80138
-6.68213
-5.89524
-7.3739
-12.9878
-13.6635
-18.6853
-25.9941
-24.2324
-2.00619
-4.09597
-5.78782
-8.63661
-10.2364
-9.21206
-4.2821
-5.22027
-5.31115
-5.00147
-4.43302
-3.64788
-14.1454
-21.2351
-27.0624
-36.9436
-46.9671
-39.2803
-11.5454
-12.4877
-18.9657
-24.2576
-23.3142
-19.0773
-4.20587
-5.29652
-5.81141
-5.20791
-3.22723
-2.31974
-34.1955
-32.7075
425.093
432.038
-11.0786
-44.6917
-21.5055
-2.27138
32.299
45.2279
-31.7737
-26.9182
-5.00651
-6.31849
-6.64328
-5.0629
-3.84304
-2.88938
-11.9143
173.707
371.338
167.838
50.3769
8.18962
-14.6104
25.725
125.951
65.4491
-16.0482
-12.3115
-4.41435
-5.85333
-5.56644
-4.81452
-3.90526
-2.69262
18.5555
76.0648
22.2766
11.8729
17.1417
14.4278
1.82726
13.8813
5.99334
4.19294
2.95165
3.03283
-2.10908
-3.32643
-1.13381
-0.674678
-0.641061
-0.478522
17.0796
15.6095
16.8845
16.5751
16.2479
16.2784
8.0868
6.9858
7.06984
7.26263
6.40588
4.79177
0.44917
0.176806
0.569884
1.01143
1.1159
0.932237
15.294
13.9164
9.75436
9.16702
9.24084
9.44298
7.43922
6.3915
4.34053
3.41162
2.86677
2.39961
0.831963
0.719023
0.97439
1.68383
2.06201
2.25513
11.1628
9.65439
4.53578
2.05456
3.42159
5.7357
5.69016
4.53731
2.72908
1.92729
2.30426
3.17609
-0.115768
-0.136066
0.301443
1.58035
1.9286
1.79328
15.9072
15.2731
12.2071
6.08594
6.91744
10.9333
4.34226
2.31482
1.85663
2.56002
3.34738
3.52285
1.08536
0.88873
1.38795
2.95081
3.12336
2.90969
378.507
341.74
288.255
333.711
327.124
349.525
-1.66015
-1.68071
-0.39924
-0.0176519
0.0842752
0.536524
-2.85219
-2.30706
-1.16705
-1.69774
-1.95747
-2.03457
)
;

boundaryField
{
    seabed_topleft_surface
    {
        type            fixedFluxPressure;
        gradient        uniform 0;
        value           nonuniform List<scalar> 
72
(
14016.8
14013.4
14015.3
14001.8
14000.7
14005.1
14569.8
14544.1
14544.3
14570.7
14618.6
14532.6
16188.5
16179.4
16176.8
16185.9
16199.3
16170.1
17678.8
17677.9
17677.9
17679.1
17681.1
17678.1
18910
18910.9
18911.6
18912.5
18913.4
18916
19515
19515
19516
19517.4
19518.2
19520.3
19082.7
19075.6
19078.6
19080
19077.2
19085.6
17466.6
17459.1
17463.2
17459.9
17462.6
17468.9
14676.7
14668.6
14667.8
14669.2
14673.1
14673.1
12045.6
12019.5
12015.5
12030.3
12035.2
11988.6
10130.5
10117.4
10109.7
10119.9
10123.8
10088.7
8623.69
8630.55
8628.67
8615.46
8611.87
8633.43
)
;
    }
    seabed_topright_surface
    {
        type            fixedFluxPressure;
        gradient        uniform 0;
        value           nonuniform List<scalar> 
72
(
2890.03
2837.04
2910.34
2856.85
2842.05
2888.28
2748.06
2673.51
2789.07
2726.56
2699.82
2803.04
2601.7
2523.43
2588.94
2670.18
2620.14
2662.98
2561.72
2387.19
2107.19
2351.92
2409.28
2485.29
2218.65
1977.55
1946.25
1948.24
1843.13
1855.22
1305.95
1266.97
1230.57
1181.63
1274.26
1237.82
766.694
715.39
607.358
482.684
600.604
674.334
586.002
522.458
427.346
273.117
306.716
429.35
526.583
517.964
394.298
232.317
255.279
435.656
324.788
492.621
369.532
265.686
238.973
438.463
341.442
317.497
394.631
433.658
434.167
498.696
361.021
312.466
402.065
517.926
533.019
522.445
)
;
    }
    breakwater_top_surface
    {
        type            fixedFluxPressure;
        gradient        uniform 0;
        value           nonuniform List<scalar> 
36
(
1362.24
1350.55
1331.9
1335.8
1332.21
1325.84
1461.01
1446.86
1438.59
1428.1
1426.17
1431.35
1482.94
1481.54
1478.98
1477.28
1475.65
1474.49
1451
1451.06
1449.31
1446.72
1443.63
1445.45
1375.87
1379.19
1377.78
1370.52
1363.96
1372.9
1338.97
1334.62
1333.65
1336.59
1332.77
1328.51
)
;
    }
    breakwater_left_surface
    {
        type            fixedFluxPressure;
        gradient        uniform 0;
        value           nonuniform List<scalar> 
24
(
8623.69
8630.55
8628.67
8615.46
8611.87
8633.43
3324.41
3509.42
3507.1
3308.09
3261.73
3550.73
1000.21
850.631
851.516
1030.32
1108.4
832.24
424.885
500.611
494.506
423.742
398.389
521.42
)
;
    }
    breakwater_right_surface
    {
        type            fixedFluxPressure;
        gradient        uniform 0;
        value           nonuniform List<scalar> 
24
(
361.021
312.466
402.065
517.926
533.019
522.445
184.676
105.804
78.8502
78.674
79.0762
166.266
29.4417
92.0121
119.469
183.792
169.827
51.8525
262.098
223.424
247.412
241.904
230.037
243.114
)
;
    }
    water_front_surface
    {
        type            fixedFluxPressure;
        gradient        uniform 0;
        value           nonuniform List<scalar> 
186
(
14016.8
14569.8
16188.5
17678.8
18910
19515
19082.7
17466.6
14676.7
12045.6
10130.5
8623.69
10967.5
9629.64
11780.2
16087.9
19571.1
20512.8
19854.4
15243.6
7930.08
6780.29
5385.64
3324.41
448.713
13.9523
218.967
1323.19
3902.92
6919.21
7218.68
8176.59
8342.85
4401.73
1140.45
1000.21
10.4614
6.46361
12.5934
3.67253
-10.8597
-38.3094
-104.252
-93.3662
122.32
369.142
235.377
424.885
2890.03
2748.06
2601.7
2561.72
2218.65
1305.95
766.694
586.002
526.583
324.788
341.442
361.021
2718.25
2375.44
2328.29
2384.96
2095.74
637.433
89.9684
41.142
199.752
207.005
116.111
184.676
1422.41
509.133
535.997
1127.98
1304.31
596.754
34.7323
27.6493
23.8176
20.0636
26.3065
29.4417
3.14507
-3.23335
-4.88452
-11.2559
-23.7412
39.9239
41.2722
21.604
17.224
8.77633
21.6672
262.098
19.531
12.4311
7.97104
13.9449
1.37712
-12.8402
6.43132
-3.58883
-8.64468
-0.144372
-8.65289
-10.2417
-14.1315
-18.2409
-12.5968
-43.2918
-36.6163
-14.7919
-125.994
-90.8362
-17.6612
-176.225
-117.049
-19.1855
-109.26
-90.8582
-24.3334
-5.76157
-31.5292
-14.9295
89.4294
16.9697
-5.88019
495.269
-10.7993
-4.88304
1362.24
5.23011
-4.29989
1461.01
3.79815
-3.04837
1482.94
3.58737
-3.56134
1451
2.32351
-3.0708
1375.87
1.92224
-2.54093
1338.97
1.0913
-3.32202
-1.97044
-1.98401
-4.53873
-6.26875
-3.44745
-6.32967
-7.3739
-2.00619
-4.2821
-14.1454
-11.5454
-4.20587
-34.1955
-21.5055
-5.00651
-11.9143
-14.6104
-4.41435
18.5555
1.82726
-2.10908
17.0796
8.0868
0.44917
15.294
7.43922
0.831963
11.1628
5.69016
-0.115768
15.9072
4.34226
1.08536
378.507
-1.66015
-2.85219
)
;
    }
    water_back_surface
    {
        type            fixedFluxPressure;
        gradient        uniform 0;
        value           nonuniform List<scalar> 
186
(
14005.1
14532.6
16170.1
17678.1
18916
19520.3
19085.6
17468.9
14673.1
11988.6
10088.7
8633.43
11064.9
9356.44
11629.6
16120.4
19614.1
20518.3
19866.1
15480.9
7906.38
6231.63
5321.46
3550.73
496.917
14.2243
163.892
1290.03
4007.5
7059.93
7239.07
8093.62
8327.48
4767.36
1099.74
832.24
10.9784
4.78171
13.9124
3.16846
-11.2367
-37.2671
-103.674
-102.613
30.1987
360.938
232.338
521.42
2888.28
2803.04
2662.98
2485.29
1855.22
1237.82
674.334
429.35
435.656
438.463
498.696
522.445
2805.17
2585.61
2517.33
2469.7
1532.24
422.337
75.8685
22.3492
25.1561
73.0067
145.051
166.266
2529.43
1690.97
1228.99
1213.45
1085.88
232.209
45
38.1155
31.6694
33.564
20.2484
51.8525
91.0721
62.4967
106.345
4.13312
214.644
130.244
30.7904
27.5495
26.314
8.23366
12.4862
243.114
14.2728
6.33601
5.97524
11.8103
1.52098
-12.0817
7.04228
-3.74733
-8.92589
0.878411
-8.53467
-10.2303
-13.4995
-18.4775
-12.8337
-41.2729
-35.3303
-15.5508
-121.061
-88.7609
-19.7519
-175.59
-115.508
-21.2336
-106.133
-89.8881
-25.3988
-10.7942
-33.0727
-15.7603
86.3068
17.9607
-6.03271
511.622
-0.0551866
-5.22209
1325.84
5.94229
-3.96581
1431.35
4.67422
-2.92554
1474.49
3.83918
-3.53968
1445.45
2.25726
-3.1331
1372.9
1.64293
-2.53992
1328.51
-0.842194
-3.34918
-9.20342
-3.54773
-4.80308
-12.8321
-6.94161
-5.89524
-24.2324
-9.21206
-3.64788
-39.2803
-19.0773
-2.31974
-44.6917
-26.9182
-2.88938
8.18962
-12.3115
-2.69262
14.4278
3.03283
-0.478522
16.2784
4.79177
0.932237
9.44298
2.39961
2.25513
5.7357
3.17609
1.79328
10.9333
3.52285
2.90969
349.525
0.536524
-2.03457
)
;
    }
    water_left_surface
    {
        type            fixedFluxPressure;
        gradient        uniform 0;
        value           nonuniform List<scalar> 
42
(
14016.8
14013.4
14015.3
14001.8
14000.7
14005.1
10967.5
11067.4
11094.1
10953.4
10877.5
11064.9
448.713
489.91
515.197
428.128
375.628
496.917
10.4614
10.7724
10.5582
10.9397
11.0509
10.9784
19.531
14.3681
12.5347
19.5169
21.0797
14.2728
12.4311
4.30167
1.71144
12.3445
12.1637
6.33601
7.97104
2.62516
-0.264818
7.37589
7.34061
5.97524
)
;
    }
    water_right_surface
    {
        type            fixedFluxPressure;
        gradient        uniform 0;
        value           nonuniform List<scalar> 
42
(
2890.03
2837.04
2910.34
2856.85
2842.05
2888.28
2718.25
2767.28
2828.04
2816.37
2790.37
2805.17
1422.41
2047.08
2045.62
2667.98
2833.91
2529.43
3.14507
-0.669243
1.32741
74.5156
401.383
91.0721
-1.97044
-4.4798
-5.47685
-6.03597
-9.90591
-9.20342
-1.98401
-2.59177
-1.91506
-3.91489
-5.50452
-3.54773
-4.53873
-5.09043
-4.80284
-4.85344
-5.17755
-4.80308
)
;
    }
    water_top_surface
    {
        type            totalPressure;
        rho             rho;
        psi             none;
        gamma           1;
        p0              uniform 0;
        value           nonuniform List<scalar> 
180
(
0
0
0
0
0
0
-15.703
-15.6795
-15.0123
-15.5007
-16.5968
-13.3792
-12.9111
-13.3025
-13.2983
-13.0354
-13.0162
-13.2156
-13.5527
-13.748
-13.6663
-13.6159
-13.5675
-13.5518
-15.2525
-15.7358
-15.6417
-15.3903
-15.1895
-15.6351
-16.1355
-17.0876
-17.2326
-16.4599
-15.6623
-17.9212
-9.42641
-10.6701
-10.9687
-9.51841
-7.56317
-13.602
0
0
0
0
0
-0.047769
0
0
0
0
0
0
0
0
0
0
0
0
0
0
0
0
0
0
-0.0402576
-0.0337793
-0.0487125
-0.0167064
-0.0114826
-0.00508025
-0.0016766
-0.0340187
-0.0429184
0
0
0
-0.203448
-0.18452
-0.123188
-0.122099
-0.128359
-0.153907
-0.175632
-0.187236
-0.169193
-0.159402
-0.153825
-0.147218
-0.239395
-0.247408
-0.237169
-0.234469
-0.233114
-0.23169
-0.00585333
-0.00658213
-0.00476871
-0.0024705
-0.001087
-0.00138478
0
0
0
0
0
0
-1.90546
-4.41457
-0.0130425
-2.42585
-6.04714
-2.78901
-6.45418
-6.87384
-7.70552
-7.97676
-8.00693
-5.44888
-3.9294
-6.04802
-5.6596
-6.99763
-6.29244
-3.36363
-2.90293
-5.24685
-5.86901
-5.24211
-2.81807
-1.80397
-0.0319894
-0.543237
-0.676572
-0.0377555
0
0
0
0
0
0
0
0
0
0
0
0
0
0
0
0
0
0
0
0
0
0
0
0
0
0
0
0
0
0
0
0
0
0
0
0
-0.00192628
-0.0045299
-0.722823
-1.12401
-0.49931
-0.519718
-0.518911
-0.429839
)
;
    }
}


// ************************************************************************* //
