/*--------------------------------*- C++ -*----------------------------------*\
| =========                 |                                                 |
| \\      /  F ield         | OpenFOAM: The Open Source CFD Toolbox           |
|  \\    /   O peration     | Version:  v1612+                                |
|   \\  /    A nd           | Web:      www.OpenFOAM.com                      |
|    \\/     M anipulation  |                                                 |
\*---------------------------------------------------------------------------*/
FoamFile
{
    version     2.0;
    format      ascii;
    class       surfaceScalarField;
    location    "8.4";
    object      phi;
}
// * * * * * * * * * * * * * * * * * * * * * * * * * * * * * * * * * * * * * //

dimensions      [0 3 -1 0 0 0 0];

internalField   nonuniform List<scalar> 
2916
(
-0.00369121
0.317711
-0.31402
0.00401712
0.305061
-0.312769
0.0188162
0.297557
-0.312356
0.00820226
0.324856
-0.314242
-0.0140163
0.342052
-0.319834
0.297897
-0.311914
-0.00158635
0.502245
-0.182948
-0.00310933
0.492647
-0.186063
-0.00686059
0.488451
-0.187143
-0.00544541
0.50362
-0.180179
0.00112983
0.5147
-0.179223
0.484758
-0.185731
0.00276392
0.565958
-0.0664774
-0.000831827
0.562017
-0.0657742
-0.00783117
0.560836
-0.0653858
-0.00377404
0.566034
-0.0664709
0.00767534
0.570412
-0.0671616
0.558276
-0.0658429
0.00204584
0.546037
0.0178754
-0.000112337
0.543759
0.0204164
-0.00399113
0.544089
0.0206254
-0.00150401
0.545568
0.0179785
0.00480277
0.547385
0.0167206
0.543142
0.0199372
-4.80643e-06
0.498628
0.0474142
-0.000118407
0.494125
0.0497472
-0.00117325
0.495597
0.0495474
-0.000739209
0.497098
0.0480365
0.000397301
0.498903
0.0473456
0.494863
0.048676
-0.000727677
0.456145
0.0432102
3.52885e-05
0.449826
0.0435364
0.000748621
0.451515
0.0433686
-0.000437345
0.454385
0.043899
-0.00258108
0.456682
0.0443647
0.450251
0.0420312
0.000777915
0.40461
0.0507572
-3.24967e-05
0.401541
0.049095
-0.000119784
0.402448
0.0491536
-0.000541678
0.403934
0.0508722
0.000333105
0.403415
0.0523919
0.402111
0.0484729
-0.000256684
0.271239
0.133628
-0.000235442
0.273818
0.127702
5.18126e-05
0.273868
0.128293
-0.000432693
0.272254
0.132165
-4.32129e-05
0.266923
0.136102
0.276355
0.125713
-0.00117745
0.0471848
0.225232
0.0012812
0.0468045
0.224554
0.0023365
0.0478554
0.224957
0.00275633
0.0464635
0.22537
-7.24328e-05
0.0432049
0.226547
0.0480152
0.228267
0.00134946
-0.0621122
0.107947
0.00139366
-0.0726108
0.119371
0.000889682
-0.0709943
0.119354
0.00311759
-0.064272
0.108508
0.004399
-0.0622001
0.104124
-0.0768962
0.12931
0.00240135
-0.0312418
-0.0332718
0.00146637
-0.0483108
-0.023365
0.000715218
-0.0473119
-0.0229314
0.00213025
-0.0332113
-0.0324758
0.00185717
-0.0247708
-0.0371562
-0.0558556
-0.0191835
0.0144756
-0.0457175
-0.00384092
-0.0299942
-0.0208726
-0.0302803
-0.00678005
-0.0473039
0.0215923
-0.0531432
-0.0342633
-0.00409794
0.442883
-0.752805
-0.00488241
0.449827
-0.761811
-0.020113
0.451274
-0.748399
-0.0103626
0.436926
-0.760918
0.0113868
0.433767
-0.77535
0.444841
-0.745368
-0.0303045
0.731485
-0.441245
0.00334824
0.742486
-0.512375
0.0584537
0.744962
-0.535936
0.0208653
0.734855
-0.44052
-0.0428892
0.748755
-0.430457
0.735598
-0.519377
-0.010783
0.860004
-0.184213
0.00083757
0.860944
-0.195853
0.0191368
0.86048
-0.199203
0.00743488
0.861917
-0.18183
-0.0118866
0.870739
-0.169824
0.850671
-0.192803
-0.000359658
0.982326
-0.104087
0.000332606
0.979327
-0.0986585
0.000565418
0.979168
-0.0982955
0.000407195
0.982964
-0.102911
0.000303482
0.988093
-0.10053
0.972726
-0.101814
0.00234658
1.14245
-0.11506
0.000544943
1.14041
-0.109535
-0.00369271
1.14011
-0.107157
-0.000602479
1.14312
-0.115211
0.00466068
1.14606
-0.115881
1.13775
-0.11169
0.00268652
1.32224
-0.139263
0.000755009
1.32511
-0.139234
-0.00224245
1.32257
-0.136091
-6.7698e-05
1.32446
-0.139615
0.00393509
1.32523
-0.138809
1.32297
-0.139255
0.005589
1.53583
-0.168422
0.000281846
1.54513
-0.165614
-0.00367153
1.54005
-0.164373
-0.00132912
1.54043
-0.167441
0.00455879
1.54014
-0.168406
1.54034
-0.164338
0.00841753
1.81125
-0.150209
-0.000369915
1.82607
-0.144454
-0.00884352
1.82071
-0.143892
-0.000969556
1.81716
-0.152442
0.0114261
1.81752
-0.153677
1.81307
-0.135584
0.00308909
1.99862
0.0347705
0.00109198
2.03556
0.0170636
-0.00350046
2.02724
0.0230202
0.000362014
2.00613
0.0325424
0.00420251
2.00662
0.033604
2.02089
0.024651
-0.0353877
1.81924
0.322714
0.00618848
1.88252
0.230839
0.0294062
1.86979
0.253585
-0.00959593
1.82689
0.326753
-0.048181
1.82269
0.326643
1.88703
0.214982
-0.0160789
1.10099
0.701059
-0.000824906
1.08456
0.759341
0.00563473
1.08124
0.759159
-0.00563232
1.10625
0.699426
-0.0163322
1.12056
0.675671
1.07829
0.773224
0.090436
0.964837
-0.0363518
1.18135
-0.170826
1.18543
-0.0460678
0.934189
0.164418
0.856932
1.20845
0.121686
0.424883
-1.29937
-0.0844528
0.757114
-1.31279
-0.382112
0.855734
-1.30647
-0.163744
0.273091
-1.25238
0.270778
0.116074
-1.32595
0.783412
-1.258
-0.00666869
0.349731
-0.359425
0.0972188
0.545123
-0.404275
0.354043
0.611344
-0.548371
0.212675
0.400722
-0.426785
-0.0718315
0.467558
-0.497433
0.679676
-0.487473
-0.00834872
0.479863
-0.305996
0.00118095
0.599393
-0.259653
0.0370769
0.618134
-0.241889
0.0514569
0.503955
-0.299443
0.188323
0.450462
-0.289595
0.750857
-0.0756596
-0.00574408
0.949099
-0.567579
-0.00615071
1.00033
-0.499185
0.00914732
0.996961
-0.492421
0.0177096
0.956949
-0.564467
0.0394743
0.929405
-0.601238
1.05368
-0.365168
-0.00567573
1.57612
-0.736402
-0.00581777
1.59396
-0.70303
-0.000428189
1.58488
-0.700462
-0.00327924
1.57986
-0.735271
-0.00430364
1.57428
-0.759729
1.5974
-0.659707
-0.0173177
2.15036
-0.696192
-0.000902558
2.1476
-0.709286
0.0160564
2.13956
-0.707736
-0.00260125
2.15001
-0.691104
-0.0316914
2.16383
-0.699268
2.13023
-0.703776
-0.008498
2.60647
-0.616033
0.000498272
2.59929
-0.626299
0.0204331
2.58209
-0.626833
-0.00502016
2.62601
-0.617989
-0.0442508
2.64858
-0.613932
2.55219
-0.630552
0.0394037
3.08025
-0.663389
-0.000465873
3.1645
-0.669796
-0.0185312
3.12985
-0.673587
0.00651853
3.12253
-0.67401
0.0302334
3.14545
-0.674257
3.09528
-0.648443
0.018622
3.38041
-0.284015
0.0037453
3.55254
-0.356103
0.00702714
3.49927
-0.349686
0.0343211
3.4125
-0.284725
0.0251015
3.48749
-0.299213
3.4757
-0.330663
-0.126315
2.12973
1.69971
0.0132569
2.43172
1.21209
0.121174
2.31323
1.33171
0.000309082
2.12579
1.73433
-0.159566
2.22073
1.75328
2.45806
1.07305
-0.0747233
-0.254378
3.15989
-0.0189982
-0.145108
3.28045
0.0681513
-0.219309
3.20455
0.00980604
-0.275432
3.15899
-0.0792382
-0.230578
3.21602
-0.0728743
3.22492
-0.0802705
0.790729
0.0108106
0.945161
0.0393967
0.937535
-0.062183
0.760337
-0.163227
0.727397
0.972347
0.246168
-0.798227
-0.747316
-0.0217241
-0.312872
-0.732023
-0.541018
-0.120654
-0.666528
-0.189426
-0.827031
-0.776937
0.497698
-1.10595
-0.90712
-0.0788946
-0.681407
0.0625859
-0.307131
-0.913108
0.316965
-0.1804
-0.791128
0.50622
-0.0553027
-0.802977
0.325409
-0.128646
-0.944356
0.111533
-0.184226
-1.20528
0.131897
-0.586731
-0.213868
1.28924
-1.6885
-0.120988
1.22238
-1.75532
0.0392712
1.23535
-1.6928
0.00286894
1.31695
-1.70864
-0.0961828
1.37209
-1.74686
1.37718
-1.41713
-0.0908553
3.11342
-2.30091
-0.0497548
3.05015
-2.36805
-0.0502439
3.06643
-2.32301
-0.0327642
3.09597
-2.36097
0.00883223
3.11381
-2.38456
3.19572
-2.17487
-0.0594228
5.5549
-3.11845
-0.0202374
5.49193
-3.184
-0.0108326
5.51196
-3.1554
-0.0132902
5.5262
-3.16304
-0.000596486
5.53676
-3.19537
5.59165
-3.05624
-0.15315
8.70602
-3.69417
-0.00585503
8.49749
-3.86214
0.126768
8.54012
-3.86853
-0.000665128
8.64526
-3.68273
-0.216337
8.75671
-3.70355
8.47269
-3.80115
-0.120946
10.5166
-2.30568
0.00534942
10.3983
-2.65341
0.174255
10.345
-2.6006
-0.0236117
10.5796
-2.35446
-0.354734
10.8077
-2.33376
10.209
-2.72164
0.523767
8.66278
0.666677
-0.0470977
10.1498
0.149617
-0.273112
9.5933
0.304114
0.0387104
9.09784
0.495932
0.430449
9.21452
0.527143
9.86606
0.124989
0.42767
4.97448
2.97661
-0.0300169
6.95876
3.29259
-0.295984
6.3504
3.15917
0.134649
5.42059
2.96189
0.681504
5.32829
3.04016
6.96654
3.25036
-0.0965287
1.02793
5.74279
0.00147591
2.88259
5.19025
0.116783
2.20431
5.36249
0.256546
1.29339
5.72177
0.20308
1.33173
5.80331
3.41671
4.82596
-0.436004
-1.46689
6.09071
0.00226604
-0.682673
6.40745
0.361234
-1.04292
6.09282
0.01757
-1.42263
6.21867
-0.517169
-1.44262
6.52511
-0.235724
6.36019
-0.472269
-0.203889
0.0461504
-0.255931
0.223397
-0.28263
-0.29113
-0.147763
-0.923805
-0.0825439
-0.187181
0.0701144
0.650369
-0.720484
-0.175033
0.386257
-0.14111
0.22976
0.415338
-0.820132
0.213496
0.373374
-0.357111
0.000367201
0.201049
0.0120794
0.542759
-0.542392
0.167002
1.19232
-0.708955
-0.0435716
0.609078
-0.0122478
0.595349
0.311393
-0.534975
0.623817
0.402632
-0.0577262
-0.00567669
0.636842
0.193701
1.14594
-0.608858
0.572403
1.15172
-0.531803
0.634003
0.550046
-0.00256848
0.59756
0.352566
-0.0047294
0.00774613
0.813536
0.178909
-0.379672
0.919828
0.104432
1.28995
-0.523678
1.00015
0.40996
-0.258384
1.27792
-0.0712399
0.343509
0.407996
-0.114127
1.33662
-0.108719
0.543809
0.786442
-0.325668
0.813112
0.323665
1.08575
-0.121468
0.581287
-0.344688
0.173362
0.443143
-0.685978
0.752882
0.21527
-0.803205
0.916951
0.323925
-0.525806
0.960959
0.0172866
-0.171621
1.29137
0.0275364
1.0755
0.156018
-1.07444
0.573731
0.120632
-1.32034
0.669752
-0.102896
-1.13547
0.555794
-0.419347
-0.801663
0.592308
-0.106528
-1.24142
0.756983
-1.01364
0.934647
0.160593
-1.56577
0.330739
0.316614
-1.75911
0.282749
0.387877
-1.63925
0.432512
-0.343553
-0.982763
0.91253
-0.192271
-1.84745
0.45474
-1.43269
0.226776
0.03185
-1.60035
0.00273448
0.310908
-1.85086
-0.187309
0.451179
-1.90862
0.129104
-0.332497
-1.90717
1.70809
-0.400977
-2.46319
0.684224
-1.56724
-0.266424
-0.208734
-1.42983
0.0382125
0.0883894
-1.73006
-0.417926
0.20318
-1.91805
-0.105358
-0.349137
-2.35356
0.998703
-0.558883
-2.4503
0.196859
-1.40252
-0.723599
-0.293437
-1.36982
0.233424
-0.230044
-1.43176
-0.361689
-0.377472
-1.68151
-0.089118
-0.58933
-2.17216
0.0304597
-0.168953
-2.14477
-0.725908
-1.20975
-0.361729
-0.0454875
-0.86344
-0.460893
-0.386877
-0.981202
-0.109171
-0.832554
-1.10432
-0.131511
-0.548335
-1.15315
-1.30323
0.338071
-1.01587
-2.01531
-0.626511
-0.245165
-0.110185
-0.753255
-0.237353
-0.854035
-0.331879
-1.00979
-0.0813528
-1.40368
0.223051
-1.32027
-0.40346
-0.0768056
0.602469
-1.24615
-0.430303
0.688472
-0.476085
-0.098902
0.658855
-1.81039
0.271065
0.524226
-1.2513
0.0596793
0.431036
-0.207571
0.633225
-1.11594
-0.347632
1.13035
-0.889206
-0.30175
1.23236
-0.602017
0.0604123
1.13488
-1.37316
0.361395
0.801921
-0.636404
0.223489
1.11119
-0.34855
1.37943
-1.13158
-0.137008
1.63114
-0.89558
0.139516
1.66116
-0.707889
0.178195
1.52696
-0.435488
-0.217038
1.32504
0.0510263
-0.0137318
1.49636
-0.484044
1.8186
-0.976574
0.306052
2.10845
-1.04175
0.488509
1.91183
-0.0896264
0.227297
1.6552
1.46959
-0.52065
1.67308
1.18634
-0.234591
1.70785
-0.173881
2.05646
-0.59392
0.753869
2.12274
-0.594794
0.599255
1.86927
0.950061
-0.501387
1.06877
2.60402
-0.910576
0.83779
2.20544
-0.287375
0.999256
1.37676
1.55532
1.28925
1.03084
1.55126
0.114369
0.550075
1.59239
1.42739
-0.747704
0.39097
2.53137
-0.832829
-0.856148
2.37137
0.252749
-1.43597
2.10663
0.785836
1.95688
1.00668
0.690812
0.18451
-0.221568
2.01968
1.0837
-1.27743
0.443346
1.436
-0.278589
-2.01156
1.06909
0.845975
-3.0383
0.932501
1.27081
0.587778
1.41804
-0.535702
-0.188789
1.45181
1.40243
0.396162
0.101057
1.48574
0.437463
0.125894
-2.01209
1.68378
0.475851
-3.16533
0.461295
1.95275
-0.472519
1.22687
-1.58101
-0.143346
2.86941
-0.563316
-0.0947192
1.6588
2.06118
0.529823
0.245322
-1.51554
1.91562
-0.579588
-2.40023
0.256671
0.74872
-0.0991523
0.486852
-1.51169
-0.322757
1.07139
-1.9722
0.462659
1.46671
0.0977653
1.47897
-0.373632
-1.26095
1.61621
-0.433049
-1.87123
-1.19548
-0.562231
0.516174
-0.388779
-0.944274
-0.639526
-0.76912
-1.74356
0.0425334
-0.237293
-1.33887
0.773301
0.0627144
-1.04776
-1.81642
0.682393
-1.13576
-3.37047
-0.397558
0.272555
0.330134
-2.02766
0.290176
-2.55764
0.211249
-2.26974
-0.0667965
-2.17339
-0.374658
-2.14817
-1.17567
-0.786989
0.288236
-0.747394
-1.06681
0.343902
-0.540167
-1.01633
0.0630497
-1.92392
0.0189357
0.176836
-2.46341
0.706748
0.32129
-1.21667
0.324716
-0.733906
-1.35879
0.87182
-0.114
-0.775763
0.816282
-1.65742
-0.890588
0.875538
-2.07083
0.295871
0.831558
-2.47758
1.50728
1.03347
-2.27214
1.26224
-0.561819
-1.61141
1.27806
0.30959
-0.645381
1.49278
-2.35042
-0.0176112
1.78891
-1.97663
1.19463
1.62956
-1.95922
1.80169
1.84943
-1.90706
2.19694
-0.10958
-1.08458
2.03734
-0.716446
-0.0487523
2.46722
-2.09989
0.46096
2.70526
0.0435334
0.81189
2.22649
0.238476
1.28751
2.37482
-1.1749
2.45562
0.434912
-0.124594
2.85871
-1.29158
0.496925
3.30121
-0.505453
0.0940476
3.81596
1.8962
-0.221376
2.93278
1.81458
0.222921
2.76875
0.538538
2.5761
1.39169
0.296216
3.17533
-0.498467
0.438207
3.90487
0.681742
-0.263581
3.87991
3.16921
-0.56155
2.34506
3.25706
0.00592698
2.11279
2.19511
2.05277
2.48614
-0.115573
3.05317
0.42225
-0.650205
4.27847
1.24473
-1.13365
3.2472
2.55216
-0.162888
0.671981
1.77141
0.32082
0.855275
1.70631
1.55758
1.40379
-0.662814
3.0907
0.436495
-1.21002
4.34414
0.877695
-1.24656
2.69451
1.0267
-0.152307
-0.611746
1.87325
0.451255
-0.227331
0.94034
0.868485
0.667835
-0.37078
2.7068
0.611333
0.0644207
3.23191
0.582304
-0.271326
2.57982
0.980262
-0.778482
-0.465993
2.27703
-0.118602
-0.759616
0.129075
-0.174886
0.825618
-0.199966
1.98664
0.597361
1.11553
1.09053
1.28855
1.34287
1.29886
2.53259
0.260892
-0.29579
2.52798
0.414519
-0.975975
-1.13275
0.196665
0.559143
-0.520598
0.82186
1.04586
-0.172074
-0.302144
1.08669
0.660651
-0.388825
1.62826
0.655994
-0.689721
-1.41783
0.457635
-1.07135
-3.07674
0.130709
0.796146
1.06111
-2.26691
0.820588
-2.61926
0.608315
-2.44629
0.00602086
-2.26082
-0.93362
-2.27987
-1.97859
-0.863965
0.469235
-0.352665
-1.26559
0.219817
-0.358358
-1.26577
0.0143506
-1.93809
-0.383982
-0.0545955
-3.2906
1.16951
0.243182
-3.01335
0.454222
-0.0186178
-0.348303
1.15275
-0.449206
-0.340635
0.697088
-2.14236
-0.627569
0.733482
-2.50302
-0.154842
0.507944
-3.51285
0.7388
0.505459
-3.42806
1.17116
-0.539955
-0.578969
1.36113
0.680176
-0.86597
0.848092
-2.21442
-0.620282
0.8857
-2.37454
0.804471
1.13408
-4.01011
1.13781
1.06411
-2.79905
1.63076
0.568636
-0.894911
1.57632
-0.036727
-1.15123
1.76689
-2.76237
0.100266
2.46458
-2.78684
1.97243
2.43398
-2.93359
1.66137
1.98574
-1.78547
1.83014
1.8969
-0.788797
1.61157
-0.538035
-0.305445
2.8642
-2.08611
0.446689
3.2801
0.328549
1.04846
2.76372
0.883067
0.846208
2.34099
0.385542
1.81707
2.25097
-0.661899
1.52174
0.253266
-0.47989
3.35093
0.0130074
-0.17141
3.73559
2.40524
0.246116
2.70379
2.89946
0.181464
2.28751
2.31324
1.60821
2.87646
-1.12849
1.73348
1.339
-1.22345
3.43025
1.26037
-0.771113
2.82101
3.01441
-0.22791
1.19127
2.74072
0.0382666
1.16397
2.56367
0.669362
2.3809
-1.81854
2.28101
1.70751
-2.06266
2.76556
1.78652
-1.68545
1.5453
1.92519
-0.649597
0.141157
1.88751
-0.280745
0.0074944
1.72797
-0.364038
1.42049
-1.04804
2.61487
1.32551
-1.58121
2.41431
1.46672
-2.25078
1.69349
1.50164
-1.35173
0.0757503
1.44339
-0.97552
-0.355678
0.116037
-0.79288
0.278939
0.147922
2.09749
0.966818
-0.101969
2.46759
1.48515
-0.620098
2.35013
2.39408
-0.175803
0.314178
1.84526
0.0892903
-0.916845
-0.836675
0.587466
-0.731914
1.24077
0.817205
1.08538
1.76537
1.28751
1.74217
1.92536
1.21043
2.60798
0.882103
-0.280987
0.220585
-0.466493
-1.02293
-1.62205
0.911501
0.00561928
0.36054
-1.81025
0.669852
-1.64107
1.02949
-1.5955
0.463339
-1.97566
-0.757506
-2.08196
-1.82459
0.168225
0.263042
-1.17858
0.136762
0.565915
-1.26648
-0.138019
0.753118
-1.14486
-0.0337456
0.269266
-1.15048
0.15745
0.0112207
-1.10953
0.625188
-1.14915
-0.0742251
1.17447
-0.837203
0.0688614
1.30742
-0.884592
0.19907
1.46341
-0.840497
0.0265387
1.23731
-0.795514
-0.267427
1.14366
-0.838471
1.38924
-1.03148
-0.20498
-0.709618
0.00204222
-0.734047
0.337701
-0.669552
0.126253
-0.697545
-0.138364
-0.7515
-0.780528
-0.0563918
-1.62488
-0.41042
0.0468787
-1.49924
-0.661636
0.179326
-1.32616
-0.754132
0.00866955
-1.58412
-0.34006
-0.276949
-1.85316
-0.176035
-1.08055
-0.932278
-0.0776461
-2.43821
0.0537712
-0.0511283
-2.37657
-0.0337812
0.132819
-2.23808
-0.112516
0.0518164
-2.40174
0.103112
-0.178759
-2.59627
0.13522
-2.01513
-0.275662
-0.0454693
-0.0572661
-0.0677209
-0.0459849
0.0545908
-0.0533398
0.0287622
-0.048124
-0.133715
-0.0581404
-0.111794
0.0210679
-2.35407
0.234086
-0.0670654
-2.50101
0.172189
-0.243243
-2.44861
0.177859
-0.157138
-2.40028
0.265475
0.0299631
-2.40364
0.293642
-2.33462
0.0151693
0.0978086
-2.7075
0.30939
0.0296783
-2.78817
0.321506
-0.0882554
-2.76602
0.322827
0.0267735
-2.73353
0.321334
0.180836
-2.73383
0.311348
-2.72977
0.300331
0.0195477
-0.0395701
0.00709811
-0.0367756
0.00596088
-0.0341695
0.0232643
-0.0406741
0.0394905
-0.0515184
-0.0248946
0.00132123
-2.6937
0.625549
-0.0252992
-2.79167
0.622421
-0.0768943
-2.74653
0.652969
-0.0383002
-2.7413
0.607214
0.0294103
-2.73627
0.577641
-2.73337
0.603079
0.0413105
-2.81988
0.394264
-0.00477088
-2.84862
0.424545
-0.0295552
-2.82498
0.426064
-0.00410643
-2.8365
0.391081
0.0483934
-2.83456
0.357134
-2.81185
0.427211
0.00319113
-0.0539509
-0.00389557
-0.0497659
0.00821354
-0.0512553
-0.000316107
-0.0534549
-0.010409
-0.065768
-0.0383778
-0.013784
-3.45683
0.977706
-0.00937691
-3.5275
0.961513
-0.0300816
-3.48995
1.00822
-0.0227642
-3.48974
0.926589
-0.00642356
-3.49646
0.86239
-3.46449
1.00491
0.0485704
-3.23636
0.125228
-0.00608648
-3.27202
0.223729
-0.0715116
-3.24819
0.24973
-0.0162255
-3.2593
0.105359
0.109949
-3.25288
-0.0126152
-3.24447
0.317145
0.0174408
-0.341171
-0.00307148
-0.289121
-0.0197219
-0.279759
-0.000285008
-0.352561
0.0689065
-0.429007
-0.210754
-0.083438
-4.46876
1.83573
0.0248241
-4.61699
1.6081
0.134326
-4.62012
1.65031
0.0106594
-4.44579
1.81332
-0.285945
-4.39257
1.84802
-4.64227
1.56008
0.0470619
-3.78588
-0.604714
0.00573354
-3.88643
-0.465508
-0.0356943
-3.89036
-0.4386
0.0446798
-3.809
-0.611808
0.0899228
-3.71265
-0.737784
-3.96521
-0.269993
0.053509
-1.16005
-0.00840059
-1.0048
-0.0750662
-0.982211
0.0140252
-1.19998
0.240974
-1.39564
-0.74836
-0.00116972
-3.76433
3.29555
0.0743211
-4.22814
3.10734
0.233172
-4.1689
3.05976
-0.0013434
-3.77214
3.4655
-0.529761
-3.57062
3.6133
-4.51138
2.82006
0.199501
-3.22805
-1.34049
0.0333455
-3.56188
-0.965612
0.0273316
-3.55879
-1.0427
0.0805971
-3.24259
-1.19462
-0.0158699
-2.91838
-1.29356
-3.94816
-0.849082
0.1425
-2.31356
-0.0117586
-2.04308
-0.0950521
-2.05568
0.0443736
-2.35131
0.277158
-2.56824
-1.72688
0.483402
0.555205
2.92363
0.0188444
0.0344528
3.68706
-0.0930752
0.125121
3.35068
0.0279707
0.443846
3.39655
0.17233
0.608652
3.38744
-0.242007
3.35938
0.355024
0.587369
-1.72768
0.0275708
0.142479
-0.746188
-0.025555
0.169705
-1.03415
0.0653766
0.574326
-1.41603
0.0201877
0.922707
-1.56243
-0.320123
-0.750774
0.184999
-2.712
0.00418268
-2.23766
-0.0186027
-2.34192
0.0708815
-2.70204
0.0373916
-2.87751
-1.97688
0.15907
4.55972
1.18144
0.00266222
4.15448
2.98157
-0.116109
4.22964
2.39899
0.083021
4.48533
1.67398
0.357118
4.69502
1.45849
3.96818
2.99868
0.145767
4.77102
-2.08474
-0.0431925
4.30925
-0.712001
-0.0594438
4.34864
-1.13691
0.117195
4.76094
-1.86827
0.20246
5.11106
-2.06374
3.92335
-0.503483
0.115785
-2.35791
-0.0223947
-1.8314
-0.0335048
-1.98146
0.0574618
-2.35589
0.0585702
-2.46955
-1.59579
-0.211884
7.71718
-0.581066
0.0261842
7.15326
0.780495
0.28219
7.26097
0.24451
0.350351
7.6821
-0.354519
0.130977
7.9535
-0.472336
6.76987
1.18576
-0.179325
7.36974
-1.55798
0.00329552
7.18246
-0.923829
0.197931
7.15198
-1.22256
0.138205
7.37106
-1.49751
-0.049755
7.69545
-1.61772
6.8193
-0.602673
-0.0532258
-0.991226
-0.00146697
-0.829825
0.0469393
-0.891215
-0.00562113
-0.996401
-0.0877497
-1.06479
-0.695071
-0.407666
6.9335
-1.01619
-0.0155983
7.43524
-0.639367
0.18211
7.05435
-0.91473
-0.0909061
7.10642
-0.969249
-0.486809
7.41107
-0.962398
7.42876
-0.369625
-0.382371
5.43558
0.322323
-0.00571619
5.8251
0.309656
0.0595126
5.53846
0.228094
-0.270439
5.60584
0.333027
-0.604043
5.88328
0.243677
5.86983
0.352215
-0.158912
0.476902
-0.00141426
0.421436
0.0123205
0.422182
-0.149617
0.497283
-0.290065
0.474033
0.429658
-0.0710992
0.226937
-1.37592
0.031809
0.353165
-1.35137
-0.00938661
0.206388
-1.36255
-0.0973788
0.34846
-1.37748
-0.176597
0.416371
-1.3821
0.601831
-1.33523
-0.0295737
0.132037
0.446795
-0.013188
0.192447
0.453989
-0.157345
0.105993
0.472646
-0.141292
0.216378
0.449055
-0.177869
0.24844
0.448185
0.354498
0.421679
-0.0051047
0.772988
-0.00762249
0.763889
-0.0648992
0.760224
-0.0477682
0.800908
-0.0498197
0.814983
0.801303
0.043949
-0.792521
-0.608491
1.35706
0.0267462
-0.831288
-0.629933
1.47842
-0.00900035
-0.805681
-0.62355
1.46498
-0.0242624
-0.796529
-0.633364
1.44516
-0.0280735
-0.808107
-0.655
1.46692
-0.809935
-0.638843
1.42071
-0.0157423
-0.540173
-0.133016
-0.10359
-0.0714255
-0.590019
-0.0853512
-0.100236
-0.0877053
-0.571321
0.0137524
-0.231834
-0.0519127
-0.520805
0.0647028
-0.376221
-0.0289304
-0.48779
0.0978491
-0.441149
-0.481806
0.0635494
-0.42061
-0.00840593
0.0815116
-0.564769
0.0250707
0.109044
-0.616954
0.156615
0.158927
-0.737136
0.177641
0.100966
-0.659465
0.0804705
0.0334545
-0.541539
0.0250955
-0.543801
-0.00456491
-0.437809
-0.166117
-0.00679776
-0.455104
-0.172596
0.000362013
-0.452727
-0.177983
0.000324896
-0.456927
-0.1764
-0.00292148
-0.475586
-0.176167
-0.470206
-0.171559
-0.0604729
-0.342304
-0.16805
-0.0877289
-0.349628
-0.163573
-0.0664158
-0.331118
-0.129171
-0.0368448
-0.330234
-0.0915615
-0.000482522
-0.342905
-0.0711958
-0.345946
-0.0611941
0.00543382
-0.0334662
0.0218041
-0.0343764
0.0645733
-0.0295493
0.0758919
-0.0556708
0.0338831
-0.0775159
-0.0808722
-0.000387153
-0.160648
-0.0050811
0.00058684
-0.167063
-0.00650717
0.0020249
-0.172576
-0.00684496
0.000991769
-0.169269
-0.00609882
-0.000689601
-0.168915
-0.00557101
-0.165634
-0.00661448
-0.0217188
-0.169358
-0.137621
-0.0459183
-0.176441
-0.129995
-0.0581402
-0.175438
-0.114087
-0.0469732
-0.171326
-0.100671
-0.0262873
-0.169192
-0.0916048
-0.163349
-0.0897654
0.0117359
0.00555191
0.0219161
0.00543712
0.0293308
0.00399773
0.0231894
-0.0100386
0.00961589
-0.0254345
-0.0307668
-0.00229787
-0.175454
0.172671
-0.00287195
-0.177512
0.171578
-0.0027523
-0.178756
0.171791
-0.00284935
-0.179002
0.173
-0.00293709
-0.179239
0.173756
-0.181153
0.171601
-0.0179964
-0.20941
-0.0856688
-0.0244245
-0.212364
-0.0887144
-0.0229927
-0.210685
-0.0835905
-0.0180033
-0.210425
-0.0742382
-0.00845591
-0.210509
-0.0698827
-0.209835
-0.0695391
0.00568168
0.0390015
0.0125301
0.038542
0.0181496
0.0351724
0.0189037
0.0250479
0.0107615
0.0178884
0.0151994
-0.00300623
-0.444177
0.619854
-0.00345774
-0.446987
0.619016
-0.00322268
-0.450099
0.621655
-0.00338568
-0.449678
0.622841
-0.00355463
-0.450997
0.624922
-0.451925
0.619972
-0.0104844
-0.308583
-0.210778
-0.00971277
-0.311659
-0.224814
-0.0108222
-0.310821
-0.221759
-0.0107138
-0.307933
-0.216092
-0.00322955
-0.307336
-0.221029
-0.307035
-0.217659
0.00467157
-0.222532
0.00679677
-0.221395
0.0029078
-0.223503
0.00272586
-0.243809
0.00189752
-0.257715
-0.25715
-0.00465655
-0.751406
0.000991929
-0.738004
0.00704411
-0.746951
0.00211889
-0.749713
-0.00489138
-0.750163
-0.720154
-0.00289315
-0.512497
-0.00390727
-0.507816
0.0121932
-0.512163
0.0112272
-0.515784
0.0113696
-0.523148
-0.504764
0.00269093
-0.00233047
-0.0194515
-0.0114769
-0.00319164
0.616164
-1.05897
0.0901381
1.24405
-1.36069
0.374447
0.642416
-1.30743
-0.0290214
-0.0987713
-2.30513
-0.244285
-0.230184
-2.73052
-0.151411
-0.719264
0.470463
0.295071
-1.02369
-0.33035
0.742899
-1.75528
-0.0532396
0.111157
-0.461451
-0.214234
-0.58386
-1.30648
-0.303627
-0.892262
-1.96369
-0.458432
-1.22943
-0.382098
0.115955
-0.0623666
-0.0312345
0.0110517
-0.140897
-0.235087
-0.140584
-0.0989339
-0.193232
-0.0325185
-0.130379
0.703219
-1.76462
0.702327
1.06188
-2.6028
0.476228
0.809504
-2.78179
0.50212
-0.0580714
-2.84082
-0.0487419
-0.39965
-2.88995
-0.347942
-1.40274
0.933602
0.489839
-1.99114
-0.593665
0.396253
-2.21954
-0.342912
-0.157605
-2.29431
-0.147855
-0.686022
-2.18695
-0.42908
-0.785303
-2.311
-0.938103
-1.86054
-0.709605
0.100095
-0.205483
0.0146945
-0.110542
-0.214369
-0.171138
-0.189516
-0.151762
-0.161198
-0.213228
-0.367417
1.53067
-0.810413
0.662244
1.62458
-2.42769
0.595593
1.25124
-2.66592
1.16684
-0.249023
-3.09376
0.535177
-0.925068
-2.2126
-0.258346
-0.0871978
0.664367
0.904693
-1.56769
-0.741085
0.658098
-2.21506
-0.308947
-0.183011
-2.09799
0.125326
-1.34716
-2.13492
-0.22377
-1.3827
-2.03022
-1.08495
-1.35671
-0.822787
0.121356
-0.37402
-0.0937663
-0.229536
-0.281696
-0.26153
-0.321546
-0.239076
-0.198156
-0.469879
-0.533413
1.83775
-0.881692
-0.330541
1.38378
-2.51322
0.800414
0.73379
-3.13884
2.16883
-0.505564
-2.97411
1.81506
-1.77014
-1.15457
0.375324
0.582593
0.208535
1.19433
-1.64856
-1.16854
0.790449
-2.26165
-0.15664
-0.546516
-2.43353
0.756977
-2.05954
-2.13727
0.452422
-1.86805
-1.2796
-1.15141
-0.92209
-1.18615
0.0179941
-0.747699
-0.115006
-0.626858
-0.45205
-0.534549
-0.702197
-0.418816
-0.365897
-0.848165
-0.832517
0.644373
-0.808091
-0.704857
-0.421916
-1.76575
1.54634
0.1101
-0.843865
2.80923
-0.0263401
0.250019
2.58454
-1.00905
0.806667
0.936911
1.45962
-0.00916673
0.191064
-0.64118
-1.52652
-0.675825
-1.14838
0.0928845
-0.912202
-0.959362
1.10885
-1.13965
0.0111752
0.918709
-0.939507
0.566691
-1.11157
0.706962
-1.373
-0.331594
-0.946163
-0.59079
-0.994596
-0.60415
-0.911364
-0.206637
-0.734388
-0.0715264
-0.996203
-0.800763
-0.925082
0.509423
-0.0359312
-1.72361
0.324493
2.03338
-0.708718
1.7177
2.48188
0.31625
2.53043
1.9286
0.0988021
2.40905
1.05855
2.59981
0.366291
-1.20385
1.19006
-1.0033
-2.00343
1.19243
0.0245224
-0.995336
1.57158
0.246879
0.326031
2.14814
-0.0203722
0.334268
1.96046
-0.671216
1.9776
-0.41653
-0.496641
-0.605548
-0.686865
-1.07596
-0.244119
-1.36728
0.39686
-1.22224
0.351481
-0.750207
-0.240447
-1.61592
2.27034
0.648646
-2.11543
2.0604
1.73287
-1.09671
2.92917
1.54839
-0.0815807
2.82606
0.828138
0.194968
2.7474
0.59827
2.80369
0.138474
-1.11922
2.45982
-0.0735583
-1.48552
2.53625
-0.0850333
-0.456464
2.56175
-0.414758
0.565269
2.32003
-0.536074
0.359204
2.30064
-0.0183887
2.51541
0.230952
-0.0583822
-0.258393
0.0392881
-0.923959
0.287569
-1.20568
0.433405
-1.01183
0.146347
-0.250253
0.120904
-1.24794
2.27175
1.33234
-1.73967
2.56492
1.4462
-1.43741
2.29492
0.87639
-0.946769
1.79802
0.426987
-0.497166
1.97948
-0.10285
1.71516
-0.653363
0.193621
1.83019
0.17438
0.138787
2.40438
0.130336
0.0286253
2.0468
-0.0564689
0.0225759
1.46836
-0.200359
-0.0494339
1.76898
0.264122
1.64563
0.251048
0.492525
-0.29501
0.672542
-0.652845
0.491231
-0.706102
0.179879
-0.53604
0.0122435
0.0277736
0.190562
0.128043
1.45146
1.07836
-0.61872
2.07553
1.58415
-1.40285
1.8344
1.32776
-0.906001
1.12429
0.24923
-0.710947
0.346032
-0.527899
0.279972
-1.36534
0.87124
1.05744
-0.302843
1.05077
1.78192
0.244418
0.681475
1.70351
0.443721
0.777752
0.904771
-0.0771163
0.553719
0.797563
0.0366243
0.820248
0.264491
0.289732
-0.395305
0.432227
-0.465007
0.280295
-0.306991
0.156107
-0.265812
0.0372122
-0.0438719
0.0704616
0.975558
1.27509
-0.205477
0.915839
2.04068
1.08834
0.069302
2.52694
2.04145
0.1898
1.57581
0.398187
-0.343077
0.10942
-0.941117
-0.415994
-2.02434
0.670548
0.955417
-0.653714
1.22816
1.76461
-0.0371215
1.12063
2.20961
0.868579
1.25586
1.13385
0.229606
0.888756
0.313316
0.199832
0.131676
0.605578
0.0171538
0.0121914
0.107488
-0.0353348
0.150861
0.126305
0.218628
0.185222
0.134391
0.203426
0.248484
0.783099
1.21107
-1.11426
2.00236
2.06859
-0.457345
3.01753
3.24101
0.39324
2.06661
2.02964
-0.459944
0.339736
0.367331
-1.20362
-0.0751793
-1.60381
-0.120088
0.64662
0.0308217
0.71755
1.0032
0.19063
1.8117
2.09296
0.922487
1.84465
1.36637
0.859925
1.00359
0.455009
0.953213
0.37867
1.15532
-0.17699
0.660531
-0.107505
0.579114
0.101485
0.667397
0.244089
0.804098
0.151838
0.767147
0.815579
-0.239758
-1.32769
-0.131344
-0.728401
0.288829
-0.15746
0.432818
-1.13443
0.274636
-1.66049
-1.73306
-0.427143
-0.973316
-0.337797
-0.727354
0.302147
-0.106752
0.315523
-0.664108
0.0939467
-0.926848
-0.904401
-0.212782
-0.158781
0.211327
0.253717
0.116186
)
;

boundaryField
{
    seabed_topleft_surface
    {
        type            calculated;
        value           uniform 0;
    }
    seabed_topright_surface
    {
        type            calculated;
        value           uniform 0;
    }
    breakwater_top_surface
    {
        type            calculated;
        value           uniform 0;
    }
    breakwater_left_surface
    {
        type            calculated;
        value           uniform 0;
    }
    breakwater_right_surface
    {
        type            calculated;
        value           uniform 0;
    }
    water_front_surface
    {
        type            calculated;
        value           uniform 0;
    }
    water_back_surface
    {
        type            calculated;
        value           uniform 0;
    }
    water_left_surface
    {
        type            calculated;
        value           uniform 0;
    }
    water_right_surface
    {
        type            calculated;
        value           uniform 0;
    }
    water_top_surface
    {
        type            calculated;
        value           nonuniform List<scalar> 
180
(
2.08907
1.83445
1.7973
2.14631
2.15978
2.0314
-3.04509
-3.04238
-2.97661
-3.02533
-3.12716
-2.81758
-2.74474
-2.78493
-2.78406
-2.75828
-2.75668
-2.77718
-2.80869
-2.82854
-2.82
-2.81519
-2.81021
-2.80878
-2.96658
-3.01215
-3.00303
-2.97963
-2.95884
-3.00319
-3.0205
-3.10884
-3.12124
-3.05068
-2.97296
-3.18663
-2.21705
-2.36934
-2.40202
-2.23067
-1.97856
-2.69249
0.800809
0.517877
0.478735
0.835565
1.26547
-0.0327308
4.30114
4.04118
3.99929
4.32383
4.70199
3.60083
6.05629
6.12913
6.01333
6.06413
6.37282
5.83084
4.12636
4.41634
4.21133
4.27409
4.4849
4.45504
-0.158942
-0.147489
-0.174771
-0.104378
-0.0904579
-0.0669674
-0.0485106
-0.115586