/*--------------------------------*- C++ -*----------------------------------*\
| =========                 |                                                 |
| \\      /  F ield         | OpenFOAM: The Open Source CFD Toolbox           |
|  \\    /   O peration     | Version:  v1612+                                |
|   \\  /    A nd           | Web:      www.OpenFOAM.com                      |
|    \\/     M anipulation  |                                                 |
\*---------------------------------------------------------------------------*/
FoamFile
{
    version     2.0;
    format      ascii;
    class       surfaceScalarField;
    location    "3.6";
    object      alphaPhi;
}
// * * * * * * * * * * * * * * * * * * * * * * * * * * * * * * * * * * * * * //

dimensions      [0 3 -1 0 0 0 0];

internalField   nonuniform List<scalar> 
2916
(
4.17133e-06
0.249041
-0.0909693
5.80357e-06
0.249041
-0.0909705
7.22515e-06
0.249042
-0.0909688
3.70862e-06
0.249043
-0.0909709
-1.88598e-06
0.249043
-0.090973
0.249039
-0.0909647
8.82132e-06
0.484679
-0.0773431
6.92193e-06
0.484682
-0.0773399
9.4816e-06
0.484682
-0.0773411
3.93075e-06
0.484683
-0.0773383
-9.01822e-06
0.484683
-0.0773361
0.484677
-0.0773439
1.06041e-05
0.680256
-0.0476453
7.26295e-06
0.680266
-0.0476427
7.17736e-06
0.680264
-0.0476428
3.23295e-06
0.680265
-0.047642
-6.79611e-06
0.680266
-0.0476409
0.680255
-0.047644
1.20318e-05
0.843255
-0.0359949
7.4489e-06
0.843272
-0.0359912
6.12739e-06
0.843268
-0.0359917
2.97041e-06
0.843269
-0.0359913
-5.99269e-06
0.843272
-0.0359898
0.843255
-0.0359931
1.24354e-05
0.976163
-0.0292091
7.14479e-06
0.976183
-0.0292041
4.94259e-06
0.976179
-0.029205
2.03987e-06
0.97618
-0.0292049
-5.99252e-06
0.976183
-0.0292032
0.976164
-0.029207
1.17372e-05
1.07061
-0.0183293
6.94148e-06
1.07063
-0.0183237
3.68735e-06
1.07063
-0.0183246
2.48409e-07
1.07063
-0.0183244
-6.01797e-06
1.07063
-0.0183231
1.07061
-0.018327
1.01557e-05
1.07846
0.0181469
6.65975e-06
1.07861
0.018157
1.88786e-06
1.07861
0.0181572
-2.34405e-06
1.07863
0.0181577
-6.13633e-06
1.07867
0.0181581
1.07854
0.0181521
7.08411e-06
0.903425
0.168238
5.85286e-06
0.903447
0.1681
1.01535e-07
0.903446
0.1681
-4.97255e-06
0.903442
0.168076
-6.96899e-06
0.903443
0.168017
0.903412
0.168149
6.68867e-06
0.452467
0.450968
5.66005e-06
0.452491
0.450973
-7.63872e-07
0.452495
0.450974
-7.23891e-06
0.45249
0.450974
-1.29379e-05
0.452498
0.450966
0.452444
0.450972
1.2866e-05
-0.0836359
0.536106
6.08158e-06
-0.0836113
0.536125
-9.73123e-07
-0.0836044
0.536122
-7.43456e-06
-0.0836096
0.536122
-2.03423e-05
-0.0835928
0.53612
-0.0836764
0.536116
2.3757e-05
-0.356466
0.272871
5.19054e-06
-0.35644
0.272912
-1.28675e-06
-0.356436
0.272903
-6.4143e-06
-0.35644
0.272899
-2.07828e-05
-0.356422
0.272908
-0.356493
0.27286
-1.11668e-05
-0.357285
-1.69471e-05
-0.357265
-1.28378e-05
-0.35727
-5.24608e-06
-0.357277
1.43401e-05
-0.357272
-0.357309
-3.53682e-07
0.0201638
-7.36437e-07
-1.93505e-07
0.0201625
-7.36328e-07
9.77445e-07
0.0201632
-7.36455e-07
5.81116e-07
0.0201617
-7.36544e-07
-1.00723e-06
0.0201609
-7.36517e-07
0.0201657
-7.36665e-07
-2.03059e-07
0.0101833
-2.71617e-06
-1.0354e-07
0.0101831
-2.7162e-06
1.45548e-07
0.0101825
-2.71629e-06
2.61925e-07
0.0101835
-2.71626e-06
1.38668e-07
0.0101846
-2.71606e-06
0.0101836
-2.71626e-06
-1.62742e-07
0.0142274
-1.10971e-07
-2.76298e-08
0.0142275
-1.11048e-07
2.70169e-08
0.0142267
-1.11039e-07
1.92925e-07
0.0142281
-1.11039e-07
4.39277e-07
0.0142297
-1.11054e-07
0.0142278
-1.1097e-07
-3.99091e-08
0.0373187
-5.81699e-08
6.65435e-08
0.0373201
-5.81139e-08
1.06402e-07
0.0373186
-5.81295e-08
2.89035e-07
0.03732
-5.80951e-08
4.96289e-07
0.0373225
-5.80603e-08
0.0373198
-5.82089e-08
3.67939e-07
0.0800766
-6.34412e-08
2.55345e-07
0.0800804
-6.34441e-08
2.81353e-07
0.0800778
-6.34314e-08
4.23848e-07
0.0800789
-6.34264e-08
2.16944e-07
0.0800827
-6.34363e-08
0.0800788
-6.34326e-08
1.55865e-06
0.147184
-6.38217e-09
5.86908e-07
0.147192
-6.39249e-09
5.2079e-07
0.147188
-6.39216e-09
5.94665e-07
0.147189
-6.3897e-09
-4.35869e-07
0.147194
-6.39624e-09
0.147187
-6.37382e-09
3.21285e-06
0.256016
-7.02346e-09
8.40653e-07
0.256032
-7.01887e-09
5.01827e-07
0.256024
-7.03403e-09
5.26417e-07
0.256024
-7.04083e-09
-1.50361e-06
0.256032
-7.01887e-09
0.25602
-7.01162e-09
7.0437e-06
0.475743
0.00847164
1.27164e-06
0.475765
0.0084722
4.7267e-07
0.475752
0.00847187
1.05613e-07
0.475751
0.00847183
-4.42946e-06
0.47576
0.00847206
0.475746
0.00847168
2.2843e-05
0.810044
0.0700881
6.35567e-06
0.81013
0.0700878
2.2929e-06
0.810091
0.0700857
-1.03559e-06
0.81009
0.070086
-1.62509e-05
0.810117
0.0700843
0.810064
0.0700877
5.58228e-05
0.720377
0.518647
1.92126e-05
0.72054
0.518662
8.9248e-06
0.720484
0.518653
-1.82706e-06
0.720483
0.518652
-3.27257e-05
0.720531
0.518648
0.720409
0.518656
6.30477e-05
0.330046
0.663215
2.08358e-05
0.330226
0.663344
9.9935e-06
0.330182
0.663292
-2.36617e-06
0.33018
0.663291
-3.28359e-05
0.330229
0.663317
0.330082
0.663231
-2.32803e-05
-0.0271767
-1.95271e-05
-0.0270031
-5.98188e-06
-0.0270627
6.67872e-06
-0.02707
2.03397e-05
-0.0270171
-0.0271673
-2.6908e-12
2.22307e-09
-7.29968e-07
-1.31963e-12
2.22242e-09
-7.29862e-07
-6.99741e-13
2.22238e-09
-7.2999e-07
9.17757e-13
2.22269e-09
-7.30082e-07
3.35017e-12
2.22306e-09
-7.30052e-07
2.22333e-09
-7.30193e-07
-4.2046e-12
1.0047e-08
-2.72413e-06
-1.42356e-12
1.00462e-08
-2.72415e-06
4.15964e-13
1.00459e-08
-2.72425e-06
2.51269e-12
1.00462e-08
-2.72422e-06
5.54264e-12
1.00469e-08
-2.72401e-06
1.00473e-08
-2.72422e-06
-2.84066e-13
2.05424e-09
-1.03922e-07
-4.98499e-14
2.05503e-09
-1.03998e-07
1.28613e-13
2.05512e-09
-1.03979e-07
2.53041e-13
2.05512e-09
-1.03973e-07
3.93388e-13
2.05504e-09
-1.04003e-07
2.05421e-09
-1.03923e-07
-1.34316e-13
1.79849e-09
-5.98504e-08
-4.23267e-14
1.7981e-09
-5.98008e-08
2.97289e-14
1.79875e-09
-5.98108e-08
9.04212e-14
1.79841e-09
-5.97711e-08
1.70535e-13
1.79735e-09
-5.97535e-08
1.79866e-09
-5.98889e-08
-1.15528e-13
2.27965e-09
-6.66056e-08
-6.82446e-14
2.28061e-09
-6.66071e-08
-2.41006e-14
2.28105e-09
-6.66026e-08
2.86058e-14
2.28121e-09
-6.65995e-08
1.02158e-13
2.28072e-09
-6.6597e-08
2.27887e-09
-6.65959e-08
-6.27379e-14
1.23916e-09
-8.1372e-09
-5.95954e-14
1.24034e-09
-8.13978e-09
-3.94436e-14
1.24158e-09
-8.1391e-09
-9.29307e-15
1.24193e-09
-8.13796e-09
2.06515e-14
1.24041e-09
-8.13797e-09
1.23796e-09
-8.13126e-09
-4.86101e-14
3.93261e-09
-1.10225e-08
-3.98326e-14
3.97237e-09
-1.10561e-08
-2.86545e-14
3.97364e-09
-1.10642e-08
-9.68496e-15
3.97444e-09
-1.10695e-08
1.68519e-14
3.9957e-09
-1.10813e-08
3.93503e-09
-1.10157e-08
-1.99263e-08
0.00834824
0.000123398
-1.23233e-08
0.00834889
0.000123279
-1.72712e-08
0.00834854
0.000123317
-1.6705e-08
0.00834849
0.000123323
6.0399e-08
0.00834869
0.000123276
0.00834836
0.000123365
1.37335e-06
0.0752398
0.00309322
9.39213e-08
0.0752466
0.00308929
6.73636e-08
0.0752417
0.00309058
4.03348e-08
0.0752417
0.0030908
-7.25563e-07
0.0752423
0.00308946
0.0752413
0.0030921
4.04364e-05
0.384061
-0.026161
9.14257e-06
0.38415
-0.0262007
7.09935e-06
0.384114
-0.0261843
3.98938e-06
0.384116
-0.0261831
-1.7914e-05
0.38414
-0.0261953
0.384088
-0.0261743
0.000200913
0.270177
0.675329
3.91573e-05
0.270482
0.675576
1.40852e-05
0.270376
0.67547
3.77924e-06
0.270384
0.675449
-9.88549e-05
0.270468
0.675502
0.270246
0.6754
-0.000132154
0.243138
-2.24706e-05
0.243374
-5.25713e-06
0.243301
1.27749e-05
0.243301
0.00010304
0.243366
0.243187
4.58423e-13
-4.02491e-07
-1.03783e-07
8.3718e-13
-4.02377e-07
-1.03731e-07
-5.62476e-12
-4.02421e-07
-1.03775e-07
-6.69261e-12
-4.02428e-07
-1.03818e-07
-2.88786e-13
-4.02388e-07
-1.03817e-07
-4.02559e-07
-1.03856e-07
1.47672e-11
-3.77176e-07
-1.51514e-06
2.55732e-11
-3.77124e-07
-1.51518e-06
-1.95182e-12
-3.77135e-07
-1.51525e-06
-4.45396e-12
-3.77145e-07
-1.51523e-06
2.57117e-11
-3.77135e-07
-1.51509e-06
-3.77202e-07
-1.51519e-06
1.86204e-13
-7.00025e-08
-4.34344e-07
4.90441e-13
-6.99605e-08
-4.34421e-07
-1.87736e-13
-6.99664e-08
-4.34413e-07
-3.43588e-13
-6.99385e-08
-4.34433e-07
1.00404e-12
-6.99301e-08
-4.34449e-07
-7.00319e-08
-4.34353e-07
-2.17404e-12
-4.92941e-08
-1.60298e-08
-2.03289e-12
-4.92728e-08
-1.59633e-08
-1.75323e-12
-4.92751e-08
-1.59773e-08
-1.23931e-12
-4.9267e-08
-1.59299e-08
4.90768e-13
-4.92621e-08
-1.59144e-08
-4.92994e-08
-1.60922e-08
-4.85139e-12
-1.74413e-08
-4.26662e-08
-4.20777e-12
-1.74347e-08
-4.26689e-08
-3.22419e-12
-1.74352e-08
-4.26661e-08
-1.8401e-12
-1.74317e-08
-4.26633e-08
1.3543e-12
-1.74294e-08
-4.26632e-08
-1.74384e-08
-4.26659e-08
-9.83972e-13
9.33699e-10
-2.40931e-08
-6.94283e-13
9.43978e-10
-2.40868e-08
-5.23269e-13
9.46663e-10
-2.4087e-08
-2.41585e-13
9.48822e-10
-2.40828e-08
4.65666e-13
9.52891e-10
-2.40781e-08
9.32876e-10
-2.40851e-08
-1.14132e-12
-9.81627e-09
-1.01017e-10
-1.50318e-14
-9.84118e-09
-1.01226e-10
5.11492e-13
-9.84639e-09
-1.01763e-10
9.09825e-13
-9.84938e-09
-1.00994e-10
1.97853e-12
-9.85802e-09
-1.0119e-10
-9.8095e-09
-1.01022e-10
-2.84878e-10
0.000123472
-7.49721e-09
1.73671e-09
0.000123352
-7.50217e-09
2.77767e-09
0.00012339
-7.50085e-09
2.48803e-09
0.000123397
-7.50085e-09
4.23602e-09
0.000123349
-7.50184e-09
0.000123443
-7.49678e-09
1.40494e-07
0.00310909
9.67623e-05
3.83731e-08
0.00310482
9.71875e-05
3.55734e-08
0.00310625
9.69988e-05
4.80527e-08
0.0031065
9.69589e-05
-4.15501e-08
0.00310501
9.71363e-05
0.00310794
9.68634e-05
6.35576e-06
-0.100135
0.0011421
1.75299e-06
-0.0999056
0.00114751
5.25342e-07
-0.099997
0.00114536
1.53882e-07
-0.100017
0.00114471
-2.90607e-06
-0.099929
0.00114701
-0.100067
0.00114374
0.000448139
0.0912772
0.0328727
2.74489e-05
0.0915077
0.0334232
-6.47516e-06
0.0914224
0.0331826
4.99188e-05
0.0914076
0.0331243
-0.000243297
0.0913988
0.0333731
0.0913884
0.0329898
-6.81539e-05
0.333566
8.44751e-06
0.333887
2.62498e-05
0.333788
3.77709e-05
0.33378
1.19649e-05
0.333873
0.33367
-3.58576e-42
-3.16705e-35
2.47295e-38
-3.36415e-42
-3.13831e-35
2.44914e-38
-3.23439e-42
-3.119e-35
2.43335e-38
-2.786e-42
-3.15781e-35
2.47153e-38
-1.72665e-42
-3.19409e-35
2.49345e-38
-3.0835e-35
2.40935e-38
-3.52885e-39
-3.89233e-32
3.29172e-35
-5.1167e-39
-3.85916e-32
3.26179e-35
-5.90904e-39
-3.83662e-32
3.24164e-35
-5.55496e-39
-3.87102e-32
3.28188e-35
-3.39779e-39
-3.9253e-32
3.31945e-35
-3.78669e-32
3.2043e-35
-2.85043e-36
-2.2399e-29
2.13991e-32
-5.09754e-36
-2.22207e-29
2.12164e-32
-6.05194e-36
-2.20988e-29
2.10919e-32
-5.78257e-36
-2.22153e-29
2.128e-32
-3.83745e-36
-2.25797e-29
2.1577e-32
-2.17747e-29
2.08131e-32
-2.7383e-33
-7.89901e-27
8.80642e-30
-3.67391e-33
-7.84062e-27
8.73485e-30
-3.70174e-33
-7.80094e-27
8.68597e-30
-3.16445e-33
-7.81137e-27
8.73075e-30
-1.9997e-33
-7.95644e-27
8.87285e-30
-7.67384e-27
8.55515e-30
-1.35332e-30
-1.88879e-24
2.49336e-27
-1.23558e-30
-1.87596e-24
2.47351e-27
-7.97962e-31
-1.86749e-24
2.46031e-27
-3.6297e-31
-1.86212e-24
2.46312e-27
-1.03499e-31
-1.90031e-24
2.5085e-27
-1.8342e-24
2.41908e-27
-3.18152e-28
-3.229e-22
4.96303e-25
-9.84222e-29
-3.20923e-22
4.92313e-25
1.73914e-28
-3.19718e-22
4.89862e-25
3.45801e-28
-3.17331e-22
4.88367e-25
3.22013e-28
-3.24415e-22
4.98391e-25
-3.13572e-22
4.81131e-25
-1.59032e-26
-4.10558e-20
6.92939e-23
7.01226e-26
-4.08381e-20
6.87292e-23
1.50804e-25
-4.07294e-20
6.8436e-23
1.83564e-25
-4.02162e-20
6.79323e-23
1.47426e-25
-4.11954e-20
6.9485e-23
-3.98947e-20
6.72227e-23
6.59393e-24
-4.04895e-18
6.18845e-21
2.5561e-23
-4.03172e-18
6.13779e-21
3.99243e-23
-4.02732e-18
6.12099e-21
4.24747e-23
-3.95291e-18
6.05026e-21
3.16428e-23
-4.06192e-18
6.20845e-21
-3.93987e-18
6.02685e-21
1.87664e-21
-3.29503e-16
2.0778e-19
4.22944e-21
-3.2853e-16
2.05661e-19
5.66988e-21
-3.28904e-16
2.06273e-19
5.56229e-21
-3.20564e-16
2.041e-19
3.92359e-21
-3.3165e-16
2.11739e-19
-3.21337e-16
2.07507e-19
2.03628e-19
-9.56768e-16
5.97763e-17
3.57407e-19
-9.52458e-16
5.95171e-17
4.31969e-19
-9.52367e-16
5.94336e-17
3.93478e-19
-9.20509e-16
5.67555e-17
2.76594e-19
-9.33278e-16
6.0406e-17
-9.28959e-16
5.65487e-17
2.23514e-17
-9.78925e-13
9.65385e-13
2.77145e-17
-9.79659e-13
9.66158e-13
2.91902e-17
-9.86251e-13
9.72704e-13
2.33262e-17
-9.7125e-13
9.58176e-13
1.88159e-17
-1.03657e-12
1.02287e-12
-9.74292e-13
9.61104e-13
-3.31136e-16
-3.67472e-12
-5.67081e-16
-3.67218e-12
-5.57608e-16
-3.69172e-12
-7.26303e-16
-3.58591e-12
-6.53926e-16
-3.77068e-12
-3.62084e-12
-4.25342e-41
-5.11275e-34
7.25702e-37
-4.1373e-41
-5.06484e-34
7.18681e-37
-3.78608e-41
-5.02252e-34
7.12416e-37
-2.97124e-41
-5.0001e-34
7.10145e-37
-1.20128e-41
-5.11689e-34
7.26018e-37
-4.87449e-34
6.91233e-37
-5.21945e-38
-6.97324e-31
1.06002e-33
-7.40165e-38
-6.91003e-31
1.05004e-33
-7.68292e-38
-6.85478e-31
1.04122e-33
-6.59985e-38
-6.81322e-31
1.03654e-33
-3.39449e-38
-6.97834e-31
1.0607e-33
-6.65279e-31
1.01039e-33
-5.46884e-35
-4.51197e-28
7.53243e-31
-8.04002e-35
-4.47265e-28
7.46369e-31
-7.99138e-35
-4.43875e-28
7.40367e-31
-6.91659e-35
-4.40308e-28
7.35842e-31
-4.41423e-35
-4.51327e-28
7.53632e-31
-4.30724e-28
7.18414e-31
-3.11819e-32
-1.83722e-25
3.39411e-28
-2.85849e-32
-1.82198e-25
3.36393e-28
-1.68518e-32
-1.8091e-25
3.33809e-28
-8.46229e-33
-1.79019e-25
3.31097e-28
-4.94781e-33
-1.83632e-25
3.39352e-28
-1.75502e-25
3.23822e-28
1.69873e-30
-5.30739e-23
1.07171e-25
1.72635e-29
-5.2662e-23
1.06232e-25
2.99931e-29
-5.23269e-23
1.05458e-25
3.27542e-29
-5.16272e-23
1.04342e-25
2.41632e-29
-5.29956e-23
1.07021e-25
-5.07502e-23
1.02276e-25
7.21814e-27
-1.17017e-20
2.48358e-23
1.73074e-26
-1.16196e-20
2.46194e-23
2.345e-26
-1.15577e-20
2.44547e-23
2.31211e-26
-1.13635e-20
2.41257e-23
1.62525e-26
-1.16742e-20
2.47672e-23
-1.12104e-20
2.3723e-23
5.37431e-24
-2.07446e-18
4.31438e-21
8.77149e-24
-2.06221e-18
4.27719e-21
1.00474e-23
-2.05452e-18
4.2529e-21
9.0628e-24
-2.01202e-18
4.18221e-21
6.12252e-24
-2.06915e-18
4.29893e-21
-1.9948e-18
4.13186e-21
1.52272e-21
-2.48306e-16
3.46602e-18
2.29669e-21
-2.47537e-16
3.43905e-18
2.53566e-21
-2.47374e-16
3.43188e-18
2.2185e-21
-2.42163e-16
3.33068e-18
1.46734e-21
-2.48129e-16
3.50056e-18
-2.42077e-16
3.32585e-18
1.80633e-19
-2.81856e-15
3.67307e-16
2.30096e-19
-2.78222e-15
3.66271e-16
2.17521e-19
-2.73866e-15
3.67428e-16
1.6617e-19
-2.6928e-15
3.62294e-16
1.07927e-19
-2.73615e-15
3.75861e-16
-2.60909e-15
3.66174e-16
8.81007e-17
-9.66558e-13
-1.42241e-12
1.16775e-16
-9.6344e-13
-1.40963e-12
1.1453e-16
-9.64353e-13
-1.39382e-12
8.68681e-17
-9.2685e-13
-1.38068e-12
7.59162e-17
-9.43065e-13
-1.40046e-12
-9.39129e-13
-1.34551e-12
-4.14379e-15
-2.88721e-10
2.86758e-10
-1.69263e-14
-2.88649e-10
2.86699e-10
-2.36646e-14
-2.90321e-10
2.88358e-10
-3.80774e-14
-2.85797e-10
2.83934e-10
-5.03629e-15
-3.04617e-10
3.02638e-10
-2.86357e-10
2.84438e-10
-6.05071e-13
-3.15328e-10
-8.25832e-13
-3.15902e-10
-4.60447e-13
-3.18993e-10
-8.7379e-13
-3.12932e-10
-1.05138e-12
-3.42264e-10
-3.15268e-10
-2.95569e-37
-7.86222e-30
1.94378e-32
-2.38564e-37
-7.83675e-30
1.93743e-32
-1.76472e-37
-7.81647e-30
1.93278e-32
-5.97153e-38
-7.78589e-30
1.92545e-32
7.96691e-38
-7.96104e-30
1.96546e-32
-7.74232e-30
1.91648e-32
-2.81649e-34
-9.24994e-27
2.52058e-29
-3.61567e-34
-9.22013e-27
2.51233e-29
-2.59253e-34
-9.19504e-27
2.50578e-29
-6.73712e-35
-9.15556e-27
2.49595e-29
1.23625e-34
-9.37813e-27
2.55206e-29
-9.09648e-27
2.48191e-29
-3.10917e-31
-4.91803e-24
1.55894e-26
-2.67196e-31
-4.90244e-24
1.55383e-26
-3.66052e-32
-4.8891e-24
1.54956e-26
1.60754e-31
-4.86407e-24
1.54287e-26
2.05951e-31
-4.99115e-24
1.58035e-26
-4.83023e-24
1.53286e-26
-4.71573e-29
-1.50178e-21
5.82953e-24
2.05259e-28
-1.49723e-21
5.81027e-24
4.58163e-28
-1.49355e-21
5.79411e-24
5.5711e-28
-1.48354e-21
5.76421e-24
4.45154e-28
-1.52488e-21
5.91463e-24
-1.47363e-21
5.72384e-24
1.07907e-25
-2.79235e-19
1.38974e-21
2.74514e-25
-2.78495e-19
1.38514e-21
3.84812e-25
-2.78024e-19
1.38158e-21
3.9149e-25
-2.75328e-19
1.37225e-21
2.83418e-25
-2.83461e-19
1.41049e-21
-2.73982e-19
1.36314e-21
5.42053e-23
-3.17294e-17
2.07877e-19
9.88424e-23
-3.16737e-17
2.07228e-19
1.19654e-22
-3.16761e-17
2.06848e-19
1.10253e-22
-3.11838e-17
2.04844e-19
7.38174e-23
-3.21608e-17
2.10917e-19
-3.11799e-17
2.03908e-19
8.33231e-21
-5.41531e-17
1.87258e-17
1.37467e-20
-5.40824e-17
1.86813e-17
1.56327e-20
-5.40957e-17
1.86813e-17
1.3549e-20
-5.33807e-17
1.8394e-17
8.66638e-21
-5.48299e-17
1.89766e-17
-5.34149e-17
1.84072e-17
9.3336e-19
-6.20762e-15
1.45338e-15
1.32304e-18
-6.2011e-15
1.45118e-15
1.31477e-18
-6.20435e-15
1.45399e-15
9.63348e-19
-6.12877e-15
1.42368e-15
4.99675e-19
-6.24874e-15
1.47126e-15
-6.14125e-15
1.43344e-15
2.51965e-16
-6.14718e-13
5.84865e-13
3.15384e-16
-6.14991e-13
5.85411e-13
2.93601e-16
-6.19517e-13
5.90006e-13
1.29596e-16
-5.96743e-13
5.6817e-13
-2.45058e-17
-6.20514e-13
5.90984e-13
-6.10704e-13
5.81889e-13
-2.05752e-14
-3.33043e-09
3.9945e-10
-4.31969e-14
-3.32349e-09
3.99837e-10
-5.82456e-14
-3.32233e-09
4.01824e-10
-8.98309e-14
-3.26783e-09
3.859e-10
-6.77969e-14
-3.34383e-09
3.96576e-10
-3.26443e-09
3.94682e-10
-6.48833e-12
-4.8057e-08
-3.80449e-07
-7.54291e-12
-4.80937e-08
-3.81198e-07
-4.5589e-12
-4.8371e-08
-3.8367e-07
-1.59182e-11
-4.79182e-08
-3.70397e-07
-5.65738e-12
-5.14974e-08
-3.81729e-07
-4.77332e-08
-3.76757e-07
-8.43866e-11
3.80943e-08
-4.88759e-11
1.72896e-08
2.28092e-10
-3.28169e-08
-6.1783e-11
3.14358e-07
-3.75238e-10
1.19108e-06
-5.91965e-08
-3.30476e-39
-7.65684e-31
1.99922e-33
5.28045e-39
-7.61856e-31
1.98846e-33
1.41166e-38
-7.61309e-31
1.98603e-33
2.06076e-38
-7.54557e-31
1.97327e-33
2.23596e-38
-7.82895e-31
2.04543e-33
-7.50916e-31
1.96116e-33
2.0933e-35
-1.26517e-27
3.55433e-30
3.47657e-35
-1.2595e-27
3.53644e-30
5.42339e-35
-1.25949e-27
3.53387e-30
6.50965e-35
-1.24434e-27
3.50253e-30
5.7359e-35
-1.29195e-27
3.63409e-30
-1.24086e-27
3.48567e-30
4.65494e-32
-9.84321e-25
3.11122e-27
8.72934e-32
-9.80593e-25
3.09713e-27
1.27915e-31
-9.81551e-25
3.09706e-27
1.33361e-31
-9.65789e-25
3.05981e-27
9.3912e-32
-1.00318e-24
3.17691e-27
-9.65925e-25
3.05131e-27
1.09579e-28
-4.73527e-22
1.73457e-24
1.91402e-28
-4.72167e-22
1.72787e-24
2.33392e-28
-4.73274e-22
1.72953e-24
2.18561e-28
-4.63278e-22
1.70176e-24
1.5091e-28
-4.81302e-22
1.76767e-24
-4.65255e-22
1.70207e-24
1.20018e-25
-1.57347e-19
6.76655e-22
1.73435e-25
-1.5708e-19
6.74631e-22
1.81998e-25
-1.57736e-19
6.762e-22
1.51098e-25
-1.53422e-19
6.61933e-22
9.4317e-26
-1.59365e-19
6.87717e-22
-1.54936e-19
6.64839e-22
5.87253e-23
-3.78997e-17
1.53609e-18
6.72214e-23
-3.78923e-17
1.53887e-18
5.60229e-23
-3.81295e-17
1.55202e-18
3.53631e-23
-3.68391e-17
1.47528e-18
1.52804e-23
-3.81955e-17
1.52803e-18
-3.745e-17
1.52894e-18
7.22751e-21
-1.84589e-15
1.73466e-15
4.34198e-21
-1.85191e-15
1.74046e-15
-4.82252e-22
-1.86188e-15
1.74996e-15
-4.05514e-21
-1.80925e-15
1.69915e-15
-4.32954e-21
-1.8169e-15
1.70587e-15
-1.85997e-15
1.74887e-15
-2.90912e-19
-3.68944e-13
3.6408e-13
-4.39429e-18
-3.70813e-13
3.65945e-13
-7.8321e-18
-3.7308e-13
3.68177e-13
-9.22008e-18
-3.61594e-13
3.56818e-13
-6.13324e-18
-3.58482e-13
3.53635e-13
-3.75731e-13
3.70859e-13
-2.42123e-15
-3.99258e-11
3.88594e-11
-6.39164e-15
-4.00734e-11
3.90049e-11
-8.76324e-15
-4.03092e-11
3.92305e-11
-9.50431e-15
-3.90956e-11
3.80609e-11
-4.52124e-15
-3.93211e-11
3.82621e-11
-4.02857e-11
3.92153e-11
-5.17039e-13
-7.86984e-10
7.15755e-10
-2.48945e-12
-7.95451e-10
7.24893e-10
-3.08477e-12
-8.10929e-10
7.36986e-10
-1.11327e-11
-7.43328e-10
6.81692e-10
1.84434e-12
-7.93134e-10
7.06491e-10
-7.76707e-10
7.0614e-10
-4.47703e-10
-3.66812e-05
-3.71598e-07
1.52318e-09
-3.6795e-05
-3.87681e-07
5.78723e-09
-3.70981e-05
-3.89088e-07
-3.92714e-09
-3.56823e-05
-3.3222e-07
7.18166e-09
-3.66612e-05
-4.11868e-07
-3.63359e-05
-4.07611e-07
7.20423e-09
-0.0005296
1.02817e-07
-0.000530783
2.46169e-07
-0.000534184
1.78167e-07
-0.00051901
1.60612e-07
-0.000525958
-0.000526025
1.41765e-12
-5.43686e-09
2.15158e-09
2.16316e-13
-5.43241e-09
2.15944e-09
-6.60513e-13
-5.43538e-09
2.15767e-09
-1.26418e-12
-5.43781e-09
2.15902e-09
-1.97821e-12
-5.43695e-09
2.1643e-09
-5.44146e-09
2.15156e-09
7.5405e-15
5.29076e-16
-7.62847e-09
1.61791e-15
5.79515e-16
-7.6192e-09
-1.35338e-15
5.94844e-16
-7.62301e-09
-3.70359e-15
5.81618e-16
-7.62225e-09
-8.84749e-15
5.78189e-16
-7.61458e-09
5.92002e-16
-7.63116e-09
-1.46969e-20
-4.65615e-18
-5.63855e-21
-5.09946e-18
-2.21376e-22
-5.23458e-18
5.24675e-21
-5.11815e-18
1.63477e-20
-5.08783e-18
-5.21021e-18
5.49282e-11
-4.00051e-07
2.05311e-07
1.34431e-11
-3.9997e-07
2.05299e-07
-1.3799e-11
-4.0005e-07
2.05311e-07
-3.97259e-11
-4.00023e-07
2.05308e-07
-7.73999e-11
-3.99838e-07
2.05291e-07
-4.0009e-07
2.0532e-07
1.66456e-11
2.79271e-15
-1.70042e-14
4.6484e-12
3.05879e-15
-1.63007e-14
-2.73237e-12
3.13989e-15
-1.63896e-14
-9.71181e-12
3.07005e-15
-1.62138e-14
-2.18074e-11
3.05195e-15
-1.58394e-14
3.12514e-15
-1.63348e-14
-8.23243e-20
-3.34542e-17
-3.33971e-20
-3.66367e-17
-2.83726e-21
-3.76078e-17
2.83065e-20
-3.67703e-17
9.12248e-20
-3.65504e-17
-3.74324e-17
1.2555e-11
-7.91766e-13
-1.61744e-08
2.73294e-12
-7.61186e-13
-1.61769e-08
-3.13676e-12
-7.64491e-13
-1.61766e-08
-1.14909e-11
-7.56528e-13
-1.61751e-08
-2.28951e-11
-7.40779e-13
-1.61755e-08
-7.60267e-13
-1.61737e-08
6.31568e-19
1.81543e-14
-8.26925e-13
1.71432e-19
1.98847e-14
-7.97371e-13
-1.10882e-19
2.04114e-14
-8.01292e-13
-3.65091e-19
1.99573e-14
-7.92698e-13
-8.18916e-19
1.984e-14
-7.76458e-13
2.0314e-14
-7.96916e-13
-5.58535e-19
-2.01279e-16
-1.83856e-19
-2.20438e-16
5.18629e-20
-2.26244e-16
2.59403e-19
-2.21194e-16
7.13781e-19
-2.19872e-16
-2.25143e-16
4.83842e-14
-1.25614e-10
-4.38682e-09
3.08031e-15
-1.2276e-10
-4.39296e-09
-2.09454e-14
-1.23302e-10
-4.39157e-09
-6.34161e-14
-1.21584e-10
-4.39615e-09
-1.20479e-13
-1.20714e-10
-4.39742e-09
-1.26917e-10
-4.38019e-09
3.60985e-16
1.28941e-14
-2.48311e-10
7.31729e-17
1.41222e-14
-2.41251e-10
-7.00574e-17
1.44958e-14
-2.42369e-10
-1.8166e-16
1.41726e-14
-2.39385e-10
-4.36839e-16
1.40892e-14
-2.36266e-10
1.44256e-14
-2.45604e-10
-2.97882e-19
9.08418e-18
-4.33803e-20
9.95082e-18
9.55791e-20
1.02206e-17
1.98822e-19
9.99145e-18
4.66397e-19
9.92944e-18
1.01142e-17
7.02285e-13
-5.64677e-09
7.19841e-09
2.95054e-13
-5.64845e-09
7.19237e-09
3.79759e-14
-5.64654e-09
7.1936e-09
-5.01094e-13
-5.64721e-09
7.1916e-09
-1.22729e-12
-5.6427e-09
7.18934e-09
-5.63382e-09
7.19644e-09
8.12352e-14
6.84869e-16
-8.56115e-14
2.23127e-14
7.5046e-16
-8.47815e-14
-4.85011e-16
7.70709e-16
-8.49037e-14
-1.99454e-14
7.53397e-16
-8.45336e-14
-8.05829e-14
7.48769e-16
-8.41638e-14
7.62444e-16
-8.52939e-14
-1.60962e-20
-8.41547e-18
-2.75706e-21
-8.41094e-18
3.03413e-21
-8.41702e-18
7.32303e-21
-8.42203e-18
2.04801e-20
-8.42372e-18
-8.41918e-18
4.43016e-13
-2.14841e-11
-2.9813e-10
5.70633e-14
-2.14987e-11
-2.98075e-10
-2.98262e-13
-2.14951e-11
-2.98123e-10
-3.17013e-13
-2.14942e-11
-2.98055e-10
-4.61448e-13
-2.14974e-11
-2.98003e-10
-2.14896e-11
-2.98049e-10
1.17067e-17
-8.79476e-15
-2.15625e-11
3.75854e-18
-8.79254e-15
-2.15763e-11
9.57748e-20
-8.79739e-15
-2.15728e-11
-4.17869e-18
-8.80135e-15
-2.15716e-11
-1.53348e-17
-8.80293e-15
-2.15744e-11
-8.79788e-15
-2.15677e-11
4.13875e-21
-8.82381e-15
7.83978e-22
-8.82157e-15
-8.07071e-22
-8.82644e-15
-1.90954e-21
-8.83042e-15
-4.07667e-21
-8.832e-15
-8.82694e-15
1.54777e-15
-4.6567e-11
-1.2524e-10
1.51697e-15
-4.66106e-11
-1.25313e-10
1.43279e-15
-4.66061e-11
-1.25277e-10
7.39826e-16
-4.66067e-11
-1.25307e-10
-5.54569e-16
-4.662e-11
-1.25314e-10
-4.65754e-11
-1.25272e-10
7.99282e-16
-1.65067e-13
-6.88139e-11
1.25692e-16
-1.65084e-13
-6.88698e-11
-8.45809e-17
-1.65152e-13
-6.88626e-11
-1.13563e-15
-1.6521e-13
-6.88613e-11
-2.12819e-15
-1.6525e-13
-6.88778e-11
-1.65132e-13
-6.88291e-11
1.37215e-18
-1.73889e-13
-6.2892e-19
-1.73901e-13
-1.28451e-18
-1.73975e-13
-1.1165e-18
-1.74037e-13
-6.59353e-19
-1.74079e-13
-1.73957e-13
1.48912e-14
-1.34355e-08
5.77825e-09
2.48289e-14
-1.34307e-08
5.76719e-09
2.57903e-14
-1.34334e-08
5.77143e-09
1.4184e-14
-1.34337e-08
5.77324e-09
1.81041e-15
-1.34319e-08
5.76838e-09
-1.34332e-08
5.77704e-09
-2.60248e-13
-1.17609e-10
-1.29919e-08
-2.61882e-13
-1.17606e-10
-1.29866e-08
-2.57146e-13
-1.17636e-10
-1.29901e-08
-1.63131e-13
-1.17656e-10
-1.29897e-08
4.10191e-13
-1.17667e-10
-1.29885e-08
-1.17628e-10
-1.29893e-08
6.6696e-16
-1.17422e-10
-1.9673e-15
-1.17418e-10
-2.19441e-15
-1.17449e-10
-1.0216e-15
-1.1747e-10
1.02033e-15
-1.17485e-10
-1.17438e-10
2.09054e-09
1.18192e-05
8.49874e-05
3.62847e-09
1.18139e-05
8.54174e-05
3.91662e-09
1.18174e-05
8.52261e-05
2.31591e-09
1.18215e-05
8.51848e-05
-3.91502e-10
1.18142e-05
8.53765e-05
1.18189e-05
8.50849e-05
-6.96883e-11
4.53544e-07
1.13272e-05
-1.94294e-11
4.53453e-07
1.13217e-05
2.06116e-12
4.53534e-07
1.13252e-05
5.95925e-11
4.5363e-07
1.13293e-05
2.40543e-10
4.53456e-07
1.13218e-05
4.53667e-07
1.1327e-05
-1.82617e-12
4.51114e-07
-2.90537e-12
4.51023e-07
-3.21361e-12
4.51102e-07
-1.26906e-12
4.51195e-07
3.39846e-12
4.51018e-07
4.51238e-07
3.79893e-07
0.000166996
0.00105006
1.73269e-07
0.000167407
0.00105606
1.75518e-07
0.00016725
0.00105367
1.93928e-07
0.000167211
0.001053
-2.18583e-08
0.000167048
0.00105588
0.000167324
0.00105183
-3.14476e-08
0.000154598
2.27875e-05
-1.02297e-08
0.000154509
2.32287e-05
-2.78347e-09
0.000154529
2.30691e-05
2.4659e-08
0.000154453
2.30898e-05
5.37919e-08
0.000153993
2.33771e-05
0.000154993
2.27432e-05
-5.18886e-10
0.000138794
-4.9411e-10
0.000138702
-1.26171e-09
0.000138716
2.86067e-10
0.000138626
8.36693e-09
0.000138158
0.000139209
2.57613e-06
-0.000588598
0.0328762
1.22899e-07
-0.00058924
0.0334477
-2.59958e-07
-0.000588909
0.0331981
4.04177e-07
-0.000588574
0.033137
-3.13861e-07
-0.00058743
0.0333929
-0.000590549
0.0330013
-1.5526e-05
0.0117504
-0.0260222
1.40685e-06
0.0117585
-0.0260183
7.54001e-07
0.0117545
-0.02601
-4.4736e-06
0.0117547
-0.0260231
1.5325e-05
0.0117463
-0.0260148
0.0117619
-0.0260072
-2.03939e-06
6.96322e-21
-4.97287e-07
8.79432e-21
-1.49785e-07
9.49691e-21
-1.51787e-07
9.73381e-21
2.34151e-06
9.44303e-21
6.6971e-21
2.17236e-06
0.0343928
0.396929
5.59277e-05
0.0346905
0.397068
3.3492e-06
0.034585
0.39709
4.26284e-06
0.0345464
0.397019
6.36291e-05
0.0345987
0.397253
0.0345281
0.396901
4.09763e-06
1.07423e-20
0.142931
3.97003e-05
1.35641e-20
0.143102
6.84183e-05
1.46502e-20
0.143048
-3.30277e-06
1.50085e-20
0.142986
-0.000162706
1.45545e-20
0.142954
1.0336e-20
0.1431
2.56057e-24
-2.55593e-21
4.2772e-24
-3.23339e-21
6.28396e-24
-3.49054e-21
4.81896e-24
-3.5732e-21
-4.90084e-24
-3.45544e-21
-2.46584e-21
-1.81222e-05
-0.0429175
-0.0482966
0.000968952
2.89827e-05
-0.04328
-0.048296
0.000965253
8.81917e-05
-0.0439625
-0.0483993
0.000968587
4.36533e-05
-0.0415695
-0.0476875
0.00103446
0.000156426
-0.0415831
-0.0481407
0.00137171
-0.0433767
-0.0486077
0.000937066
3.09833e-05
0.0533685
-0.202849
6.05326e-05
-0.000207731
0.0537077
-0.203224
6.02893e-05
-0.000470347
0.0541785
-0.203764
6.18241e-05
-0.000116476
0.0522956
-0.202857
6.03755e-05
0.000780274
0.0518016
-0.203613
6.23123e-05
0.0541814
-0.203265
6.04242e-05
3.35747e-05
-0.063227
0.00193155
-8.35203e-05
-0.0638301
0.00207903
-0.000206493
-0.0643303
0.00217402
-2.46201e-05
-0.0620722
0.00171187
0.000315993
-0.0609932
0.0015651
-0.0642789
0.00209287
-0.000143722
-0.215025
-0.164489
-0.000125589
-0.215021
-0.164135
-0.000253266
-0.215106
-0.164093
4.46888e-05
-0.215413
-0.165694
0.00129792
-0.216471
-0.16749
-0.215518
-0.165271
6.42716e-05
0.0111086
-0.372105
-0.000537606
0.0110978
-0.372493
-0.00238365
0.0111654
-0.3729
-0.000516294
0.0108992
-0.371017
0.00362084
0.00949441
-0.365908
0.0124011
-0.377494
1.78485e-05
1.24492e-22
-5.68384e-05
1.57358e-22
-0.000202874
1.69657e-22
-4.93222e-05
1.73609e-22
0.000378653
1.67233e-22
1.18215e-22
-2.81661e-05
-0.274784
-0.335273
9.46739e-05
-0.274676
-0.335002
0.000193024
-0.274454
-0.334841
0.000218832
-0.275734
-0.33763
0.000444587
-0.276054
-0.34044
-0.275419
-0.334642
-8.33656e-05
6.55562e-23
-0.203332
-0.000109002
8.28562e-23
-0.203461
-0.000352071
8.92446e-23
-0.203273
-0.000185013
9.15811e-23
-0.203575
0.000255674
8.88572e-23
-0.203525
6.21338e-23
-0.202436
1.79428e-27
3.41137e-22
3.94216e-26
4.31042e-22
3.50788e-26
4.64926e-22
1.14105e-25
4.77155e-22
-1.61068e-28
4.61322e-22
3.25845e-22
0.000240364
-0.23433
-0.444156
0.000391072
-0.234303
-0.444208
0.000736542
-0.234194
-0.444168
0.000482902
-0.234827
-0.444408
-0.000447765
-0.235233
-0.444814
-0.233866
-0.444031
-4.67584e-05
1.61998e-22
-0.283128
-1.91759e-05
2.04796e-22
-0.283229
-3.65249e-05
2.2073e-22
-0.283201
-7.66427e-05
2.26318e-22
-0.283794
5.95022e-06
2.18302e-22
-0.285019
1.55079e-22
-0.281685
1.40954e-25
9.96467e-22
1.67618e-25
1.25946e-21
2.57955e-25
1.35886e-21
5.78075e-25
1.39226e-21
2.51194e-25
1.34731e-21
9.55877e-22
0.000173865
-0.0990572
-0.341612
0.000198027
-0.098989
-0.341582
0.00034938
-0.0990583
-0.3416
0.000136319
-0.0987753
-0.341758
-0.000598565
-0.0981702
-0.342245
-0.0997289
-0.341236
-2.90218e-05
3.50228e-22
-0.320503
-2.90702e-05
4.42527e-22
-0.320738
-0.000244819
4.77082e-22
-0.320682
-4.86177e-06
4.89699e-22
-0.320628
0.000831589
4.74269e-22
-0.320998
3.34971e-22
-0.32032
5.65685e-25
2.24411e-21
4.97864e-25
2.83768e-21
3.87991e-25
3.06283e-21
1.04799e-24
3.13443e-21
1.43259e-24
3.03176e-21
2.16119e-21
5.84596e-05
0.0589192
9.71607e-05
0.0591085
0.000228717
0.0590204
7.40672e-05
0.0590793
-0.000592709
0.0593401
0.0587374
1.70062e-06
1.10897e-21
2.32812e-05
1.40105e-21
-2.19533e-05
1.51258e-21
1.33675e-05
1.54852e-21
0.000178045
1.49989e-21
1.06693e-21
1.23834e-24
1.39113e-24
1.49349e-24
1.06171e-24
-2.72977e-25
7.59838e-34
1.22953e-28
-2.90349e-26
1.04142e-33
1.23172e-28
-2.90932e-26
1.12851e-33
1.2329e-28
-2.91311e-26
1.08413e-33
1.21695e-28
-2.86926e-26
8.58151e-34
1.22681e-28
-2.89089e-26
1.22913e-28
-2.90376e-26
5.53765e-36
1.39741e-30
-2.02812e-28
5.6182e-36
1.39962e-30
-2.03174e-28
5.7554e-36
1.40064e-30
-2.03373e-28
5.27707e-36
1.38492e-30
-2.00696e-28
3.69223e-36
1.39691e-30
-2.02329e-28
1.39645e-30
-2.02735e-28
8.54175e-39
-6.7411e-31
9.34676e-39
-6.75067e-31
1.1547e-38
-6.7556e-31
1.09461e-38
-6.68404e-31
6.78182e-39
-6.72852e-31
-6.73542e-31
2.30902e-30
2.0915e-25
-4.27478e-23
2.59653e-30
2.09572e-25
-4.28453e-23
2.88236e-30
2.09847e-25
-4.2923e-23