/*--------------------------------*- C++ -*----------------------------------*\
| =========                 |                                                 |
| \\      /  F ield         | OpenFOAM: The Open Source CFD Toolbox           |
|  \\    /   O peration     | Version:  v1612+                                |
|   \\  /    A nd           | Web:      www.OpenFOAM.com                      |
|    \\/     M anipulation  |                                                 |
\*---------------------------------------------------------------------------*/
FoamFile
{
    version     2.0;
    format      ascii;
    class       volScalarField;
    location    "3.6";
    object      p;
}
// * * * * * * * * * * * * * * * * * * * * * * * * * * * * * * * * * * * * * //

dimensions      [1 -1 -2 0 0 0 0];

internalField   nonuniform List<scalar> 
1116
(
3735.07
3735.06
3735.06
3735.06
3735.05
3735.07
3580.7
3580.67
3580.68
3580.68
3580.67
3580.69
3637.94
3637.92
3637.93
3637.94
3637.94
3637.93
3910.71
3910.71
3910.71
3910.72
3910.72
3910.71
4293.57
4293.56
4293.56
4293.57
4293.57
4293.57
4787.09
4787.08
4787.08
4787.08
4787.08
4787.09
5512.48
5512.46
5512.45
5512.45
5512.45
5512.48
6964.67
6964.66
6964.66
6964.67
6964.66
6964.68
9655.27
9655.25
9655.27
9655.28
9655.26
9655.29
13721.3
13721.2
13721.2
13721.2
13721.1
13721.2
17071.7
17071.6
17071.6
17071.6
17071.6
17071.7
19269.5
19269.4
19269.4
19269.4
19269.4
19269.4
117.85
117.846
117.847
117.842
117.841
117.857
30.2636
30.2615
30.2608
30.2622
30.2637
30.2651
25.5081
25.5086
25.5075
25.5102
25.5123
25.5094
63.0726
63.0743
63.073
63.0755
63.0782
63.0747
136.602
136.604
136.603
136.605
136.609
136.604
245.662
245.664
245.663
245.665
245.67
245.665
388.8
388.801
388.802
388.805
388.811
388.81
678.455
678.434
678.435
678.435
678.435
678.453
1904.81
1904.77
1904.77
1904.77
1904.77
1904.81
5526.28
5526.16
5526.2
5526.19
5526.17
5526.21
9584.91
9584.67
9584.72
9584.7
9584.64
9584.73
12302.3
12302.3
12302.4
12302.4
12302.3
12302.2
-21.0947
-21.0945
-21.0946
-21.0947
-21.0948
-21.0953
-20.6935
-20.6934
-20.6935
-20.6937
-20.6938
-20.694
-20.1776
-20.1776
-20.1777
-20.1778
-20.1779
-20.1779
-18.0635
-18.0635
-18.0635
-18.0637
-18.0638
-18.0639
-16.5914
-16.5914
-16.5915
-16.5917
-16.5919
-16.592
-15.4495
-15.4496
-15.4495
-15.4494
-15.4494
-15.4493
-8.40564
-8.40586
-8.40596
-8.40595
-8.40588
-8.40577
12.0446
12.0433
12.0424
12.0418
12.0419
12.0417
105.789
105.77
105.773
105.773
105.771
105.783
602.259
602.135
602.19
602.187
602.179
602.232
4506.7
4505.52
4505.89
4505.93
4505.59
4506.28
7812.22
7812.11
7811.96
7812
7812.05
7812.19
-31.0598
-31.0598
-31.0599
-31.06
-31.0601
-31.0603
-30.386
-30.386
-30.3861
-30.3862
-30.3863
-30.3865
-29.7123
-29.7124
-29.7125
-29.7127
-29.7128
-29.7129
-27.535
-27.5351
-27.5352
-27.5355
-27.5357
-27.5358
-25.2668
-25.2669
-25.267
-25.2672
-25.2673
-25.2674
-24.3669
-24.3669
-24.3669
-24.3668
-24.3667
-24.3667
-23.035
-23.0341
-23.0341
-23.0342
-23.0341
-23.0354
-21.9027
-21.9041
-21.9038
-21.904
-21.9043
-21.9026
-14.1945
-14.2047
-14.2014
-14.2006
-14.2031
-14.1948
29.032
29.0122
29.0178
29.0165
29.0153
29.0243
1757.66
1751.52
1754.07
1754.66
1752.12
1756.08
3612.51
3612.36
3612.35
3612.41
3612.28
3612.45
-1.78725
-1.78725
-1.78724
-1.78722
-1.78721
-1.7872
-1.64118
-1.64116
-1.64114
-1.64113
-1.64112
-1.64112
-1.34538
-1.34536
-1.34536
-1.34537
-1.34539
-1.34542
-0.893206
-0.893196
-0.893219
-0.893253
-0.893291
-0.893324
-0.276173
-0.276169
-0.276179
-0.276166
-0.276144
-0.276133
0.512166
0.512206
0.512265
0.512386
0.512515
0.512595
1.46928
1.46936
1.46948
1.46963
1.46976
1.46982
2.57073
2.57078
2.57083
2.57085
2.57082
2.57079
3.74964
3.7496
3.7495
3.74935
3.74918
3.74913
4.85233
4.85227
4.85217
4.85205
4.85197
4.852
5.68192
5.68208
5.68231
5.6824
5.68273
5.68295
5.79237
5.79313
5.79442
5.7955
5.79657
5.79726
-11.7426
-11.7426
-11.7426
-11.7426
-11.7426
-11.7426
-11.5953
-11.5953
-11.5953
-11.5953
-11.5953
-11.5953
-11.2973
-11.2972
-11.2972
-11.2973
-11.2973
-11.2973
-10.8432
-10.8432
-10.8432
-10.8433
-10.8433
-10.8433
-10.2284
-10.2284
-10.2284
-10.2283
-10.2283
-10.2283
-9.45097
-9.45094
-9.45088
-9.45083
-9.45079
-9.45079
-8.51842
-8.51842
-8.51844
-8.51851
-8.51863
-8.51874
-7.44625
-7.44638
-7.44658
-7.44684
-7.44712
-7.44727
-6.22523
-6.22544
-6.22569
-6.22593
-6.22606
-6.22605
-4.78997
-4.78986
-4.78964
-4.78948
-4.78872
-4.78838
-3.68999
-3.68912
-3.68803
-3.68856
-3.68689
-3.68602
-4.12046
-4.11795
-4.11321
-4.11061
-4.10742
-4.10508
-21.8415
-21.8415
-21.8415
-21.8415
-21.8414
-21.8414
-21.6962
-21.6962
-21.6961
-21.6961
-21.6961
-21.6961
-21.3966
-21.3966
-21.3966
-21.3966
-21.3966
-21.3966
-20.9237
-20.9237
-20.9237
-20.9237
-20.9237
-20.9236
-20.2467
-20.2467
-20.2467
-20.2467
-20.2467
-20.2467
-19.3236
-19.3237
-19.3237
-19.3238
-19.3239
-19.324
-18.1053
-18.1055
-18.1057
-18.106
-18.1063
-18.1065
-16.5617
-16.562
-16.5624
-16.5628
-16.5631
-16.5631
-14.7333
-14.7336
-14.734
-14.7345
-14.7347
-14.7343
-12.9382
-12.9382
-12.9383
-12.9389
-12.9389
-12.9394
-11.6323
-11.6302
-11.6257
-11.6297
-11.6253
-11.625
-13.6351
-13.628
-13.611
-13.6001
-13.584
-13.5865
-32.077
-32.077
-32.077
-32.077
-32.077
-32.077
-31.9437
-31.9437
-31.9437
-31.9437
-31.9437
-31.9437
-31.6682
-31.6682
-31.6682
-31.6682
-31.6682
-31.6682
-31.2353
-31.2353
-31.2353
-31.2353
-31.2353
-31.2353
-30.6258
-30.6258
-30.6259
-30.6259
-30.6259
-30.626
-29.8173
-29.8174
-29.8175
-29.8177
-29.8178
-29.8179
-28.7898
-28.79
-28.7903
-28.7906
-28.7909
-28.7911
-27.539
-27.5393
-27.54
-27.5408
-27.5413
-27.5416
-25.9524
-25.9534
-25.9551
-25.9573
-25.9585
-25.9599
-22.7943
-22.7951
-22.7945
-22.8045
-22.7978
-22.8075
-18.7154
-18.7097
-18.6854
-18.7375
-18.7098
-18.7132
-30.3
-30.2888
-30.241
-30.1612
-30.1086
-30.1513
-41.9957
-41.9958
-41.9959
-41.9961
-41.9962
-41.9963
-52.9249
-52.925
-52.9252
-52.9254
-52.9256
-52.9257
-64.4758
-64.4759
-64.476
-64.4761
-64.4761
-64.4761
-41.6924
-41.6926
-41.6927
-41.6929
-41.693
-41.6931
-52.7323
-52.7325
-52.7326
-52.7327
-52.7328
-52.7328
-64.4304
-64.4305
-64.4305
-64.4305
-64.4306
-64.4304
-41.2716
-41.2717
-41.2718
-41.2719
-41.2719
-41.272
-52.2043
-52.2043
-52.2043
-52.2042
-52.2042
-52.2042
-64.3049
-64.3048
-64.3047
-64.3046
-64.3046
-64.3045
-40.3101
-40.3102
-40.3103
-40.3104
-40.3105
-40.3105
-51.4062
-51.4062
-51.4061
-51.406
-51.406
-51.4058
-64.1199
-64.1199
-64.1198
-64.1197
-64.1197
-64.1197
-39.0548
-39.0548
-39.0549
-39.0551
-39.0551
-39.0551
-50.4421
-50.4422
-50.4422
-50.4422
-50.4421
-50.4419
-63.6952
-63.6954
-63.6954
-63.6955
-63.6955
-63.6955
-37.4924
-37.4922
-37.4921
-37.4921
-37.492
-37.4921
-49.4737
-49.4738
-49.4739
-49.4739
-49.4739
-49.4738
-62.864
-62.8641
-62.8642
-62.8642
-62.8641
-62.8641
-34.0935
-34.0931
-34.0929
-34.0929
-34.0931
-34.0933
-48.5422
-48.5421
-48.5421
-48.5422
-48.5423
-48.5425
-61.8652
-61.8652
-61.865
-61.8649
-61.8649
-61.8649
-39.1591
-39.1596
-39.1597
-39.1599
-39.1597
-39.1591
-51.776
-51.775
-51.7751
-51.7754
-51.7751
-51.7761
-58.1869
-58.1867
-58.1865
-58.1864
-58.1862
-58.1866
-28.6926
-28.693
-28.693
-28.6928
-28.6933
-28.6945
-37.3711
-37.364
-37.3638
-37.3615
-37.3592
-37.3719
-60.9026
-60.8997
-60.8992
-60.899
-60.898
-60.9024
-21.2359
-21.2479
-21.2469
-21.2452
-21.2472
-21.2445
-33.3578
-33.3457
-33.3466
-33.3434
-33.3255
-33.3746
-55.0952
-55.0928
-55.0925
-55.0935
-55.0898
-55.0983
-17.3589
-17.4734
-17.4481
-17.4369
-17.4611
-17.4081
-78.5735
-78.0453
-78.2016
-78.2831
-78.1154
-78.3694
-118.5
-118.501
-118.504
-118.516
-118.505
-118.499
150.753
152.087
151.509
151.393
151.899
151.126
420.525
420.795
420.648
420.631
420.594
420.623
-81.0254
-81.0267
-81.0289
-81.0331
-81.0337
-81.0296
50.5694
50.5411
50.9997
50.7953
51.294
51.5844
-84.4155
-84.2991
-83.9061
-84.2046
-82.6982
-85.0734
-67.0672
-67.9133
-67.887
-64.9472
-63.3917
-67.4714
504.177
504.749
507.631
496.418
496.201
508.1
-973.711
-969.678
-969.309
-966.7
-949.392
-987.199
-210.159
-210.203
-210.109
-209.754
-209.517
-211.968
1419.98
1419
1421.36
1419.25
1421.36
1423.46
384.602
384.86
384.352
385.424
383.722
385.541
-121.781
-121.796
-121.782
-121.749
-121.791
-121.988
2057.4
2057.13
2058.12
2060.37
2062.91
2060.61
368.023
368.38
368.056
368.611
370.109
365.399
-89.3432
-89.341
-89.3404
-89.332
-89.345
-89.4486
2589.46
2589.3
2589.82
2590.51
2591.09
2592.57
977.513
978.099
978.044
978.662
981.165
975.25
-78.4009
-78.4019
-78.4054
-78.3981
-78.4237
-78.4488
1805.45
1805.43
1805.41
1806.13
1806.22
1806.1
1108.41
1109.1
1108.93
1108.81
1109.34
1108.24
-75.4853
-75.4851
-75.4868
-75.4856
-75.4907
-75.5117
-42.4163
-42.4163
-42.4163
-42.4163
-42.4162
-42.4162
-52.8719
-52.8719
-52.8719
-52.8719
-52.8719
-52.8719
-63.3871
-63.3871
-63.3871
-63.3871
-63.3871
-63.3871
-42.3055
-42.3055
-42.3054
-42.3054
-42.3054
-42.3054
-52.8004
-52.8003
-52.8003
-52.8003
-52.8003
-52.8003
-63.3603
-63.3603
-63.3603
-63.3603
-63.3603
-63.3603
-42.071
-42.0709
-42.0709
-42.0709
-42.0709
-42.0709
-52.6498
-52.6498
-52.6498
-52.6498
-52.6499
-52.6499
-63.3026
-63.3026
-63.3026
-63.3026
-63.3026
-63.3026
-41.6795
-41.6795
-41.6796
-41.6796
-41.6796
-41.6797
-52.4048
-52.4048
-52.4048
-52.4049
-52.4049
-52.4049
-63.2045
-63.2045
-63.2045
-63.2045
-63.2045
-63.2045
-41.0652
-41.0652
-41.0653
-41.0653
-41.0654
-41.0654
-52.0379
-52.0379
-52.0379
-52.038
-52.038
-52.038
-63.047
-63.047
-63.047
-63.0471
-63.0471
-63.047
-40.1075
-40.1076
-40.1077
-40.1079
-40.108
-40.108
-51.5009
-51.5009
-51.501
-51.501
-51.501
-51.501
-62.8181
-62.8182
-62.8182
-62.8182
-62.8183
-62.8183
-38.5847
-38.5849
-38.5852
-38.5856
-38.5858
-38.5859
-50.7112
-50.7112
-50.7114
-50.7115
-50.7117
-50.7116
-62.4359
-62.4359
-62.4361
-62.4363
-62.4365
-62.4366
-36.3045
-36.305
-36.3061
-36.3072
-36.3077
-36.3073
-49.2785
-49.2788
-49.2796
-49.2815
-49.2814
-49.283
-61.7867
-61.7867
-61.7874
-61.7888
-61.7889
-61.79
-32.136
-32.1376
-32.1421
-32.1495
-32.1512
-32.1434
-50.6549
-50.6587
-50.6688
-50.6821
-50.6906
-50.6868
-63.1722
-63.1712
-63.1771
-63.1855
-63.1893
-63.1939
-23.5823
-23.5857
-23.5984
-23.625
-23.6343
-23.5934
-40.9907
-41.0271
-41.0746
-41.1321
-41.1394
-41.169
-55.5685
-55.578
-55.5782
-55.5882
-55.5779
-55.6087
-35.4844
-35.4634
-35.4643
-35.4594
-35.5309
-35.3565
-68.1148
-68.074
-68.0366
-68.0482
-68.0827
-67.9856
-67.5987
-67.5012
-67.494
-67.7624
-67.8171
-67.6515
-48.2067
-48.221
-48.1173
-47.9675
-47.9056
-47.9706
-66.1816
-66.2884
-66.2191
-65.4698
-65.2124
-65.9828
-54.0427
-54.2551
-54.1531
-53.1679
-52.855
-53.6661
)
;

boundaryField
{
    seabed_topleft_surface
    {
        type            calculated;
        value           nonuniform List<scalar> 
72
(
7071.83
7071.79
7071.81
7071.81
7071.79
7071.81
6922.23
6922.17
6922.19
6922.2
6922.18
6922.2
7148.05
7148.02
7148.03
7148.05
7148.04
7148.03
7675.01
7674.98
7674.99
7675.01
7675
7674.99
8311.49
8311.46
8311.47
8311.49
8311.48
8311.49
9034.56
9034.53
9034.54
9034.54
9034.54
9034.56
9971.8
9971.73
9971.73
9971.73
9971.72
9971.77
11753.8
11753.8
11753.8
11753.8
11753.8
11753.8
14444.5
14444.5
14444.5
14444.5
14444.5
14444.5
18510.5
18510.4
18510.4
18510.4
18510.4
18510.4
21860.9
21860.8
21860.8
21860.8
21860.8
21860.8
24047.1
24047.1
24047.1
24047.1
24047.1
24047.1
)
;
    }
    seabed_topright_surface
    {
        type            calculated;
        value           nonuniform List<scalar> 
72
(
3.1346
3.13461
3.13462
3.13463
3.13465
3.13466
3.28068
3.2807
3.28071
3.28073
3.28073
3.28074
3.57648
3.5765
3.5765
3.57648
3.57646
3.57644
4.02865
4.02866
4.02864
4.0286
4.02856
4.02853
4.64568
4.64569
4.64568
4.64569
4.64571
4.64572
5.43402
5.43406
5.43412
5.43424
5.43437
5.43445
6.39114
6.39122
6.39133
6.39149
6.39162
6.39167
7.49259
7.49264
7.49268
7.4927
7.49268
7.49264
8.67149
8.67146
8.67136
8.67121
8.67104
8.67098
9.77419
9.77413
9.77402
9.7739
9.77383
9.77386
10.6038
10.6039
10.6042
10.6043
10.6046
10.6048
10.7142
10.715
10.7163
10.7174
10.7184
10.7191
)
;
    }
    breakwater_top_surface
    {
        type            calculated;
        value           nonuniform List<scalar> 
36
(
131.475
131.842
133.054
129.094
130.486
131.771
1447.93
1448.22
1451.45
1440.08
1443.93
1452.62
3150.49
3148.5
3150.61
3154.98
3163.43
3155.03
4706.37
4705.57
4706.15
4715.08
4724.66
4705.9
6013.8
6013.65
6014.17
6014.86
6015.46
6016.95
5229.79
5229.78
5229.77
5230.49
5230.59
5230.47
)
;
    }
    breakwater_left_surface
    {
        type            calculated;
        value           nonuniform List<scalar> 
24
(
19285.8
19285.8
19285.8
19285.8
19285.8
19285.8
12318.4
12318.4
12318.4
12318.4
12318.3
12318.2
7827.97
7827.86
7827.71
7827.75
7827.8
7827.94
3627.95
3627.8
3627.78
3627.84
3627.72
3627.89
)
;
    }
    breakwater_right_surface
    {
        type            calculated;
        value           nonuniform List<scalar> 
24
(
5.80923
5.80999
5.81128
5.81236
5.81343
5.81411
-4.10395
-4.10143
-4.0967
-4.0941
-4.09091
-4.08857
-13.6189
-13.6118
-13.5948
-13.5839
-13.5678
-13.5703
-30.2834
-30.2721
-30.2243
-30.1445
-30.0919
-30.1346
)
;
    }
    water_front_surface
    {
        type            calculated;
        value           nonuniform List<scalar> 
186
(
3735.07
3580.7
3637.94
3910.71
4293.57
4787.09
5512.48
6964.67
9655.27
13721.3
17071.7
19269.5
117.85
30.2636
25.5081
63.0726
136.602
245.662
388.8
678.455
1904.81
5526.28
9584.91
12302.3
-21.0947
-20.6935
-20.1776
-18.0635
-16.5914
-15.4495
-8.40564
12.0446
105.789
602.259
4506.7
7812.22
-31.0598
-30.386
-29.7123
-27.535
-25.2668
-24.3669
-23.035
-21.9027
-14.1945
29.032
1757.66
3612.51
-1.78725
-1.64118
-1.34538
-0.893206
-0.276173
0.512166
1.46928
2.57073
3.74964
4.85233
5.68192
5.79237
-11.7426
-11.5953
-11.2973
-10.8432
-10.2284
-9.45097
-8.51842
-7.44625
-6.22523
-4.78997
-3.68999
-4.12046
-21.8415
-21.6962
-21.3966
-20.9237
-20.2467
-19.3236
-18.1053
-16.5617
-14.7333
-12.9382
-11.6323
-13.6351
-32.077
-31.9437
-31.6682
-31.2353
-30.6258
-29.8173
-28.7898
-27.539
-25.9524
-22.7943
-18.7154
-30.3
-41.9957
-52.9249
-64.4758
-41.6924
-52.7323
-64.4304
-41.2716
-52.2043
-64.3049
-40.3101
-51.4062
-64.1199
-39.0548
-50.4421
-63.6952
-37.4924
-49.4737
-62.864
-34.0935
-48.5422
-61.8652
-39.1591
-51.776
-58.1869
-28.6926
-37.3711
-60.9026
-21.2359
-33.3578
-55.0952
-17.3589
-78.5735
-118.5
150.753
420.525
-81.0254
50.5694
-84.4155
-67.0672
504.177
-973.711
-210.159
1419.98
384.602
-121.781
2057.4
368.023
-89.3432
2589.46
977.513
-78.4009
1805.45
1108.41
-75.4853
-42.4163
-52.8719
-63.3871
-42.3055
-52.8004
-63.3603
-42.071
-52.6498
-63.3026
-41.6795
-52.4048
-63.2045
-41.0652
-52.0379
-63.047
-40.1075
-51.5009
-62.8181
-38.5847
-50.7112
-62.4359
-36.3045
-49.2785
-61.7867
-32.136
-50.6549
-63.1722
-23.5823
-40.9907
-55.5685
-35.4844
-68.1148
-67.5987
-48.2067
-66.1816
-54.0427
)
;
    }
    water_back_surface
    {
        type            calculated;
        value           nonuniform List<scalar> 
186
(
3735.07
3580.69
3637.93
3910.71
4293.57
4787.09
5512.48
6964.68
9655.29
13721.2
17071.7
19269.4
117.857
30.2651
25.5094
63.0747
136.604
245.665
388.81
678.453
1904.81
5526.21
9584.73
12302.2
-21.0953
-20.694
-20.1779
-18.0639
-16.592
-15.4493
-8.40577
12.0417
105.783
602.232
4506.28
7812.19
-31.0603
-30.3865
-29.7129
-27.5358
-25.2674
-24.3667
-23.0354
-21.9026
-14.1948
29.0243
1756.08
3612.45
-1.7872
-1.64112
-1.34542
-0.893324
-0.276133
0.512595
1.46982
2.57079
3.74913
4.852
5.68295
5.79726
-11.7426
-11.5953
-11.2973
-10.8433
-10.2283
-9.45079
-8.51874
-7.44727
-6.22605
-4.78838
-3.68602
-4.10508
-21.8414
-21.6961
-21.3966
-20.9236
-20.2467
-19.324
-18.1065
-16.5631
-14.7343
-12.9394
-11.625
-13.5865
-32.077
-31.9437
-31.6682
-31.2353
-30.626
-29.8179
-28.7911
-27.5416
-25.9599
-22.8075
-18.7132
-30.1513
-41.9963
-52.9257
-64.4761
-41.6931
-52.7328
-64.4304
-41.272
-52.2042
-64.3045
-40.3105
-51.4058
-64.1197
-39.0551
-50.4419
-63.6955
-37.4921
-49.4738
-62.8641
-34.0933
-48.5425
-61.8649
-39.1591
-51.7761
-58.1866
-28.6945
-37.3719
-60.9024
-21.2445
-33.3746
-55.0983
-17.4081
-78.3694
-118.499
151.126
420.623
-81.0296
51.5844
-85.0734
-67.4714
508.1
-987.199
-211.968
1423.46
385.541
-121.988
2060.61
365.399
-89.4486
2592.57
975.25
-78.4488
1806.1
1108.24
-75.5117
-42.4162
-52.8719
-63.3871
-42.3054
-52.8003
-63.3603
-42.0709
-52.6499
-63.3026
-41.6797
-52.4049
-63.2045
-41.0654
-52.038
-63.047
-40.108
-51.501
-62.8183
-38.5859
-50.7116
-62.4366
-36.3073
-49.283
-61.79
-32.1434
-50.6868
-63.1939
-23.5934
-41.169
-55.6087
-35.3565
-67.9856
-67.6515
-47.9706
-65.9828
-53.6661
)
;
    }
    water_left_surface
    {
        type            calculated;
        value           nonuniform List<scalar> 
42
(
3746.5
3746.48
3746.49
3746.48
3746.47
3746.49
118.315
118.31
118.312
118.307
118.305
118.321
-21.0785
-21.0783
-21.0784
-21.0785
-21.0786
-21.0791
-31.0439
-31.0439
-31.044
-31.0441
-31.0443
-31.0445
-41.9957
-41.9958
-41.9959
-41.9961
-41.9962
-41.9963
-52.9249
-52.925
-52.9252
-52.9254
-52.9256
-52.9257
-64.4758
-64.4759
-64.476
-64.4761
-64.4761
-64.4761
)
;
    }
    water_right_surface
    {
        type            calculated;
        value           nonuniform List<scalar> 
42
(
-1.7704
-1.77039
-1.77038
-1.77037
-1.77035
-1.77034
-11.7261
-11.7261
-11.7261
-11.7261
-11.7261
-11.7261
-21.8253
-21.8253
-21.8253
-21.8253
-21.8253
-21.8253
-32.0611
-32.0611
-32.0611
-32.0611
-32.0611
-32.0611
-42.4163
-42.4163
-42.4163
-42.4163
-42.4162
-42.4162
-52.8719
-52.8719
-52.8719
-52.8719
-52.8719
-52.8719
-63.3871
-63.3871
-63.3871
-63.3871
-63.3871
-63.3871
)
;
    }
    water_top_surface
    {
        type            calculated;
        value           nonuniform List<scalar> 
180
(
-70.017
-70.0172
-70.0171
-70.0171
-70.0171
-70.0169
-70.0653
-70.0656
-70.0655
-70.0655
-70.0655
-70.0653
-69.8455
-69.8457
-69.8457
-69.8456
-69.8457
-69.8454
-69.8125
-69.8126
-69.8125
-69.8125
-69.8125
-69.8124
-69.6353
-69.6355
-69.6354
-69.6354
-69.6355
-69.6354
-69.5117
-69.5119
-69.5119
-69.5119
-69.5119
-69.5117
-69.3413
-69.3415
-69.3415
-69.3415
-69.3415
-69.3413
-69.2422
-69.2423
-69.2423
-69.2423
-69.2424
-69.2422
-68.67
-68.67
-68.67
-68.67
-68.67
-68.67
-68.6704
-68.6704
-68.6704
-68.6704
-68.6704
-68.6704
-224.117
-224.059
-224.054
-224.047
-223.859
-224.27
-92.2158
-92.219
-92.2216
-92.2137
-92.2252
-92.215
-1557.83
-1568.25
-1579.8
-1532.31
-1514.45
-1577.9
-1290
-1290.8
-1296.91
-1271.98
-1233.28
-1339.77
-127.533
-127.589
-127.466
-127.638
-127.855
-127.573
-83.4813
-83.4993
-83.4754
-83.475
-83.4044
-83.4925
-74.6992
-74.6999
-74.687
-74.7221
-74.7561
-74.6366
-78.1098
-78.11
-78.1059
-78.1118
-78.1422
-78.0833
-68.67
-68.67
-68.67
-68.67
-68.67
-68.67
-68.67
-68.67
-68.67
-68.67
-68.67
-68.67
-68.67
-68.67
-68.67
-68.67
-68.67
-68.67
-68.67
-68.67
-68.67
-68.67
-68.67
-68.67
-68.67
-68.67
-68.67
-68.67
-68.67
-68.67
-68.67
-68.67
-68.67
-68.67
-68.67
-68.67
-68.67
-68.67
-68.67
-68.67
-68.67
-68.67
-68.67
-68.67
-68.67
-68.67
-68.67
-68.67
-68.67
-68.67
-68.67
-68.67
-68.67
-68.67
-68.6702
-68.6702
-68.6702
-68.6703
-68.6703
-68.6702
-69.0705
-69.0695
-69.0688
-69.0717
-69.0905
-69.0523
-72.4212
-72.8177
-73.04
-71.8528
-71.44
-72.8255
)
;
    }
}


// ************************************************************************* //
