/*--------------------------------*- C++ -*----------------------------------*\
| =========                 |                                                 |
| \\      /  F ield         | OpenFOAM: The Open Source CFD Toolbox           |
|  \\    /   O peration     | Version:  v1612+                                |
|   \\  /    A nd           | Web:      www.OpenFOAM.com                      |
|    \\/     M anipulation  |                                                 |
\*---------------------------------------------------------------------------*/
FoamFile
{
    version     2.0;
    format      ascii;
    class       volVectorField;
    location    "3.6";
    object      U;
}
// * * * * * * * * * * * * * * * * * * * * * * * * * * * * * * * * * * * * * //

dimensions      [0 1 -1 0 0 0 0];

internalField   nonuniform List<vector> 
1116
(
(0.31416 3.5085e-07 -0.317722)
(0.314156 9.81227e-06 -0.317727)
(0.31416 9.82558e-06 -0.317714)
(0.314163 1.10065e-05 -0.317712)
(0.31416 -2.357e-06 -0.317724)
(0.314156 -2.16868e-06 -0.317715)
(1.06716 9.87764e-06 -0.37131)
(1.06716 1.20455e-05 -0.371323)
(1.06717 1.15224e-05 -0.371307)
(1.06717 1.56259e-05 -0.371301)
(1.06717 -6.81894e-06 -0.371319)
(1.06716 -1.56356e-05 -0.371312)
(1.59479 1.28194e-05 -0.24764)
(1.59482 1.36751e-05 -0.24766)
(1.59481 8.08385e-06 -0.247645)
(1.59481 1.2921e-05 -0.247642)
(1.59482 -4.76231e-06 -0.24766)
(1.59479 -1.35045e-05 -0.247649)
(1.926 1.3375e-05 -0.109363)
(1.92604 1.51335e-05 -0.109385)
(1.92603 5.51515e-06 -0.109373)
(1.92603 1.13267e-05 -0.109372)
(1.92604 -4.2324e-06 -0.109388)
(1.926 -1.08609e-05 -0.109372)
(2.1524 1.24485e-05 -0.00428447)
(2.15246 1.51816e-05 -0.00430372)
(2.15244 3.63876e-06 -0.00429376)
(2.15244 9.15515e-06 -0.00429349)
(2.15245 -4.80105e-06 -0.00430624)
(2.15241 -8.85384e-06 -0.00429025)
(2.30516 1.03017e-05 0.0644539)
(2.30522 1.45073e-05 0.0644394)
(2.30521 2.77187e-06 0.0644477)
(2.30521 6.29819e-06 0.0644478)
(2.30522 -5.94913e-06 0.0644374)
(2.30517 -6.78777e-06 0.0644526)
(2.347 7.21286e-06 0.126599)
(2.34706 1.3493e-05 0.126591)
(2.34705 2.32384e-06 0.126598)
(2.34705 2.34508e-06 0.126598)
(2.34706 -8.17505e-06 0.126589)
(2.347 -4.23838e-06 0.126603)
(2.20371 1.8922e-06 0.281107)
(2.20377 1.11847e-05 0.281105)
(2.20376 1.50868e-06 0.28111)
(2.20376 -1.11805e-06 0.28111)
(2.20376 -1.05823e-05 0.281102)
(2.2037 -1.67972e-06 0.281117)
(1.63786 -1.3729e-06 0.681675)
(1.63792 1.21225e-05 0.681682)
(1.63792 5.12182e-07 0.681679)
(1.63791 -1.73374e-06 0.68168)
(1.63792 -1.62797e-05 0.681676)
(1.63784 -5.04591e-06 0.68169)
(0.565507 3.85111e-06 0.888564)
(0.565563 1.735e-05 0.888606)
(0.565572 -1.81717e-06 0.888594)
(0.565562 1.02983e-06 0.888595)
(0.565589 -2.04474e-05 0.888604)
(0.56544 -1.30212e-05 0.888586)
(-0.744114 1.91853e-05 0.188883)
(-0.744047 2.12405e-05 0.188958)
(-0.74403 -6.90989e-06 0.18895)
(-0.744042 3.8612e-06 0.188943)
(-0.743995 -1.95391e-05 0.188975)
(-0.744216 -1.67526e-05 0.188843)
(-0.947424 -1.12353e-05 -0.989725)
(-0.947362 -1.83266e-05 -0.989755)
(-0.947363 -1.06591e-05 -0.989748)
(-0.947364 -1.72978e-05 -0.98976)
(-0.947326 6.61716e-06 -0.989766)
(-0.947435 2.66683e-05 -0.989778)
(0.595848 1.18261e-05 -1.2703)
(0.595845 -4.51016e-05 -1.27029)
(0.595864 3.82968e-05 -1.27031)
(0.595843 1.94701e-05 -1.27029)
(0.595828 6.56201e-06 -1.27027)
(0.595879 -5.86961e-05 -1.27028)
(2.05734 2.20352e-05 -1.17666)
(2.05731 -7.97431e-05 -1.17662)
(2.05733 5.47788e-05 -1.17666)
(2.05729 -1.99641e-05 -1.1766)
(2.05728 7.55236e-05 -1.17653)
(2.05737 -3.80144e-05 -1.17667)
(3.11485 3.40645e-05 -0.688704)
(3.11479 -7.3802e-05 -0.688647)
(3.11482 5.77062e-05 -0.688667)
(3.11476 -5.07719e-05 -0.688644)
(3.11474 0.000110425 -0.688598)
(3.1149 -1.35065e-05 -0.688671)
(3.61038 4.63158e-05 -0.504492)
(3.61038 -5.37623e-05 -0.504416)
(3.61037 5.37516e-05 -0.504436)
(3.61033 -3.7617e-05 -0.504426)
(3.61034 8.87781e-05 -0.504382)
(3.61043 -2.75789e-05 -0.504451)
(3.83606 5.83081e-05 -0.43071)
(3.83614 -2.95546e-05 -0.430624)
(3.83608 3.99366e-05 -0.430646)
(3.83605 -1.88904e-05 -0.430641)
(3.8361 5.7529e-05 -0.430601)
(3.83609 -4.36091e-05 -0.430674)
(3.98713 6.88798e-05 -0.318949)
(3.9873 -6.5757e-06 -0.318864)
(3.98719 2.44372e-05 -0.318884)
(3.98717 -3.03642e-06 -0.318881)
(3.98725 3.27271e-05 -0.318851)
(3.98714 -5.44129e-05 -0.318918)
(4.12669 7.42088e-05 -0.0559116)
(4.12695 7.65906e-06 -0.0558544)
(4.1268 9.80204e-06 -0.0558611)
(4.12678 2.30272e-06 -0.0558587)
(4.12688 1.36733e-05 -0.0558473)
(4.12669 -5.797e-05 -0.0558907)
(3.95494 7.43253e-05 0.41939)
(3.95526 2.21349e-05 0.41943)
(3.9551 9.31554e-07 0.419432)
(3.95509 5.02652e-06 0.419436)
(3.9552 -5.32997e-06 0.41943)
(3.95496 -5.64391e-05 0.419409)
(3.20374 7.74365e-05 0.938768)
(3.20409 4.23977e-05 0.938798)
(3.20394 -1.71406e-06 0.938804)
(3.20394 1.39682e-05 0.938807)
(3.20404 -2.35879e-05 0.938789)
(3.20381 -5.90281e-05 0.93878)
(2.4486 6.32434e-05 1.29365)
(2.44899 5.10156e-05 1.2937)
(2.44883 3.34279e-06 1.29369)
(2.44883 1.71877e-05 1.29369)
(2.44894 -2.36938e-05 1.29368)
(2.44868 -4.39011e-05 1.29366)
(1.19338 5.44838e-05 0.921376)
(1.19377 5.25028e-05 0.921495)
(1.19365 1.37699e-06 0.921455)
(1.19365 1.65995e-05 0.921449)
(1.19377 -2.34062e-05 0.921462)
(1.19345 -3.31754e-05 0.921377)
(0.169567 -3.60883e-05 -0.479039)
(0.169971 -3.24592e-05 -0.478946)
(0.169882 2.55882e-06 -0.478974)
(0.169875 -1.39825e-05 -0.478988)
(0.169977 2.08799e-05 -0.478958)
(0.169647 3.74104e-05 -0.479082)
(0.043612 -9.09326e-05 -2.61951)
(0.0435963 -0.000120578 -2.6196)
(0.0435882 -1.94023e-05 -2.61973)
(0.0435929 -3.56719e-05 -2.61951)
(0.0436071 0.000137473 -2.61936)
(0.0435951 0.000122898 -2.61971)
(0.196666 -8.81703e-05 -1.86555)
(0.196578 -0.000105195 -1.86565)
(0.196541 1.99226e-05 -1.86568)
(0.196567 -5.6825e-07 -1.86563)
(0.196619 0.000145619 -1.86557)
(0.196637 0.000118331 -1.86558)
(0.687543 -6.20869e-05 -1.43124)
(0.68744 -7.87667e-05 -1.43145)
(0.687411 4.54477e-05 -1.43139)
(0.687441 1.69598e-05 -1.43143)
(0.687511 0.000123434 -1.43149)
(0.687576 8.75007e-05 -1.43113)
(1.656 -6.66899e-05 -0.918105)
(1.6559 -9.06e-05 -0.918313)
(1.65589 3.3236e-05 -0.918217)
(1.65592 -1.222e-06 -0.918264)
(1.656 0.000117416 -0.918328)
(1.65609 9.18421e-05 -0.917962)
(3.06607 -7.58161e-05 -0.537193)
(3.06599 -0.000108672 -0.537319)
(3.06594 2.52379e-06 -0.537237)
(3.06596 -4.00037e-05 -0.537274)
(3.06605 8.84754e-05 -0.537294)
(3.06613 8.55227e-05 -0.537058)
(4.47359 -0.000102199 -0.38119)
(4.47352 -0.00017473 -0.381161)
(4.47345 -7.40076e-05 -0.381136)
(4.47346 -9.08686e-05 -0.381156)
(4.47356 4.4109e-05 -0.381109)
(4.4736 6.16608e-05 -0.381037)
(6.81643 -0.000133146 0.0579129)
(6.8163 -0.000193767 0.0580361)
(6.81607 -6.28593e-05 0.0579802)
(6.816 -0.000109439 0.0579424)
(6.81614 3.67413e-05 0.0579998)
(6.81619 8.45822e-05 0.0579629)
(7.18915 -9.2257e-06 1.57749)
(7.18918 -3.7704e-05 1.57765)
(7.18905 2.1976e-05 1.57757)
(7.18902 -5.2366e-05 1.57754)
(7.1891 3.95416e-05 1.57759)
(7.18914 4.49229e-05 1.57748)
(4.66169 0.000171802 2.28504)
(4.66271 0.000122614 2.28529)
(4.66218 1.44643e-05 2.2852)
(4.66219 1.41158e-05 2.28518)
(4.66243 -3.84681e-05 2.28527)
(4.66199 -8.56865e-05 2.28504)
(2.676 0.000219118 2.3387)
(2.67676 0.000151072 2.33903)
(2.67644 -8.44997e-06 2.3389)
(2.67645 7.26131e-05 2.3389)
(2.67665 -4.41922e-05 2.33897)
(2.67627 -0.000117643 2.3388)
(1.65242 0.000223842 1.76725)
(1.65326 0.000166619 1.7678)
(1.65293 -3.23874e-05 1.76757)
(1.65295 6.15228e-05 1.76757)
(1.65318 -6.63348e-05 1.76772)
(1.65263 -0.000120788 1.76737)
(0.0220415 -0.000117461 0.324303)
(0.0228053 -8.80609e-05 0.324691)
(0.0225733 2.82609e-05 0.324561)
(0.0225879 -3.5613e-05 0.324556)
(0.0228018 6.85945e-05 0.324666)
(0.0221891 9.72592e-05 0.324374)
(-0.347894 -1.80957e-05 -1.80747)
(-0.347855 2.02035e-05 -1.80792)
(-0.347874 -1.79901e-05 -1.80786)
(-0.347865 -2.59419e-06 -1.80785)
(-0.347846 -2.20583e-05 -1.80791)
(-0.347937 2.02063e-05 -1.80746)
(-0.963686 -8.19775e-06 -1.7697)
(-0.963538 3.02967e-05 -1.77021)
(-0.963578 -7.77032e-06 -1.77014)
(-0.963568 4.32702e-06 -1.77014)
(-0.963516 -7.29245e-06 -1.77023)
(-0.96375 2.70387e-05 -1.76964)
(-1.27017 -9.10075e-06 -1.79105)
(-1.26987 1.49074e-05 -1.79155)
(-1.26992 -4.57335e-06 -1.79147)
(-1.26991 9.77089e-07 -1.79147)
(-1.26983 -4.9749e-06 -1.79155)
(-1.2702 2.10586e-05 -1.79098)
(-1.38923 -4.52253e-05 -2.15757)
(-1.38891 -4.20599e-05 -2.15806)
(-1.38896 -4.1524e-05 -2.15798)
(-1.38896 -3.76374e-05 -2.15799)
(-1.38889 -7.5732e-06 -2.15808)
(-1.38923 2.86804e-05 -2.15751)
(-1.61147 -8.42701e-05 -2.54554)
(-1.6112 -9.81244e-05 -2.54596)
(-1.61128 -6.67066e-05 -2.5459)
(-1.61129 -6.40802e-05 -2.54591)
(-1.61124 -1.51195e-06 -2.54598)
(-1.61151 4.70832e-05 -2.5455)
(-2.00066 -0.000106477 -3.03584)
(-2.0005 -0.000122316 -3.03623)
(-2.00059 -5.18227e-05 -3.0362)
(-2.00063 -8.22753e-05 -3.03622)
(-2.00061 2.1046e-05 -3.03625)
(-2.00072 9.34987e-05 -3.03586)
(-1.68405 -0.000126887 -2.58587)
(-1.68404 -8.35958e-05 -2.5863)
(-1.6841 8.48615e-05 -2.58634)
(-1.68418 5.09112e-06 -2.58643)
(-1.68419 0.000168183 -2.5865)
(-1.68412 0.000222585 -2.58615)
(1.46022 -5.67914e-05 2.28935)
(1.45957 3.66088e-05 2.28857)
(1.45957 0.00019436 2.28871)
(1.45958 8.55067e-05 2.28872)
(1.4593 0.000193672 2.28847)
(1.46034 0.000189079 2.28913)
(5.5835 0.000497962 7.44953)
(5.5834 0.000450642 7.45058)
(5.58327 8.52793e-05 7.45009)
(5.58331 0.000224846 7.45001)
(5.58309 -2.07296e-05 7.45042)
(5.58378 -0.000204212 7.44979)
(-2.09211 0.000762136 4.40576)
(-2.08656 0.000509276 4.40845)
(-2.08896 -0.000204495 4.40725)
(-2.08952 0.000232667 4.40723)
(-2.08704 -0.00019508 4.40775)
(-2.09078 -0.000428494 4.40669)
(1.69362 0.000767876 2.76272)
(1.69482 0.000522221 2.76405)
(1.69432 -0.00025654 2.76346)
(1.69429 0.000227519 2.76343)
(1.69449 -0.00019408 2.76363)
(1.6941 -0.000461661 2.76316)
(-0.405082 -9.80451e-05 0.458796)
(-0.404363 -2.84483e-05 0.459262)
(-0.404585 4.38084e-05 0.459119)
(-0.404648 1.70959e-05 0.459134)
(-0.404689 3.83164e-05 0.459279)
(-0.404782 -1.02836e-05 0.458877)
(0.0226893 -1.81234e-06 0.0230116)
(0.0226904 -3.43475e-06 0.0230118)
(0.0226911 -3.2612e-06 0.0230118)
(0.0226918 -3.0883e-06 0.0230118)
(0.0226926 -2.52797e-06 0.0230118)
(0.0226933 -1.06768e-06 0.0230114)
(0.0689081 -1.74438e-06 0.0239551)
(0.0689117 -3.71122e-06 0.0239555)
(0.0689141 -4.26799e-06 0.0239554)
(0.0689162 -4.32351e-06 0.0239552)
(0.0689185 -3.70776e-06 0.0239548)
(0.0689207 -1.53984e-06 0.0239535)
(0.117755 -2.11197e-06 0.0261701)
(0.117763 -5.20607e-06 0.0261718)
(0.117768 -6.67992e-06 0.0261722)
(0.117772 -6.69341e-06 0.026172)
(0.117776 -5.79083e-06 0.0261712)
(0.117781 -2.50543e-06 0.0261696)
(0.170947 -5.02676e-06 0.0307527)
(0.170963 -1.09471e-05 0.0307517)
(0.170971 -1.17964e-05 0.0307506)
(0.170976 -1.03109e-05 0.0307487)
(0.170981 -8.46999e-06 0.0307463)
(0.170987 -3.78094e-06 0.0307423)
(0.229641 -1.10333e-05 0.0399722)
(0.229667 -1.89916e-05 0.0399583)
(0.229675 -1.37162e-05 0.0399518)
(0.229677 -7.43389e-06 0.0399463)
(0.229677 -3.08064e-06 0.0399419)
(0.229679 -9.92084e-07 0.0399368)
(0.293418 -1.86768e-05 0.0573453)
(0.29345 -2.10344e-05 0.057302)
(0.293446 1.86557e-06 0.0572846)
(0.293433 1.67984e-05 0.0572759)
(0.293414 2.3823e-05 0.0572733)
(0.293399 1.19714e-05 0.0572746)
(0.358792 -2.02412e-05 0.0868436)
(0.358816 2.77313e-06 0.0867681)
(0.358783 5.95185e-05 0.0867437)
(0.358733 8.53136e-05 0.086741)
(0.358676 9.15272e-05 0.0867524)
(0.358619 4.39834e-05 0.0867747)
(0.416521 -8.47604e-06 0.130521)
(0.416502 6.49159e-05 0.130427)
(0.416418 0.000170565 0.130412)
(0.416316 0.000206993 0.130431)
(0.416207 0.000201344 0.130473)
(0.416087 9.37007e-05 0.13053)
(0.452139 3.14542e-05 0.180479)
(0.452044 0.000165982 0.180416)
(0.451908 0.000297296 0.180438)
(0.451769 0.000330564 0.180504)
(0.451627 0.000304019 0.180587)
(0.451468 0.000139452 0.180676)
(0.430884 7.24927e-05 0.209691)
(0.430685 0.00021303 0.209759)
(0.430523 0.000301382 0.209884)
(0.43038 0.000315224 0.210063)
(0.430237 0.000265634 0.210243)
(0.430043 0.000115722 0.210445)
(0.335706 6.6129e-05 0.149985)
(0.33547 0.000121745 0.150226)
(0.335352 0.000118865 0.150289)
(0.335262 0.000108935 0.150345)
(0.335163 9.66396e-05 0.150345)
(0.334934 5.57737e-05 0.150544)
(0.128979 -4.5028e-05 0.0752412)
(0.128855 -0.000136509 0.0754029)
(0.128821 -0.000175449 0.0753821)
(0.128783 -0.000186827 0.0754041)
(0.128743 -0.000214777 0.0753527)
(0.128661 -0.000106067 0.075358)
(0.0220898 -1.63321e-06 0.0669392)
(0.0220912 -3.04097e-06 0.0669403)
(0.0220921 -2.69012e-06 0.0669406)
(0.0220929 -2.46852e-06 0.066941)
(0.0220937 -1.68242e-06 0.0669412)
(0.0220944 -6.04649e-07 0.0669404)
(0.0667763 -1.65335e-06 0.069227)
(0.0667814 -3.34728e-06 0.0692281)
(0.0667843 -3.47045e-06 0.0692283)
(0.0667867 -3.31753e-06 0.0692283)
(0.066789 -2.46006e-06 0.0692278)
(0.0667912 -9.31906e-07 0.0692253)
(0.112614 -2.6029e-06 0.073203)
(0.112624 -5.15094e-06 0.073206)
(0.112629 -5.13025e-06 0.0732068)
(0.112633 -4.64986e-06 0.0732066)
(0.112636 -3.61517e-06 0.0732053)
(0.112639 -1.59505e-06 0.0732019)
(0.159319 -3.74853e-06 0.0769477)
(0.159337 -5.65387e-06 0.0769432)
(0.159342 -3.2287e-06 0.0769395)
(0.159345 -1.44737e-06 0.0769347)
(0.159347 -6.29679e-07 0.0769289)
(0.159351 -6.16583e-07 0.0769209)
(0.205558 -2.22561e-06 0.0766583)
(0.205588 3.04553e-06 0.076624)
(0.205593 1.20497e-05 0.076606)
(0.205591 1.54614e-05 0.0765926)
(0.205586 1.45619e-05 0.0765819)
(0.205585 5.66605e-06 0.0765737)
(0.24912 2.7942e-06 0.0650468)
(0.249152 2.34915e-05 0.0649527)
(0.249146 4.52178e-05 0.0649143)
(0.249127 5.05962e-05 0.0648971)
(0.249104 4.49779e-05 0.0648949)
(0.249082 1.85432e-05 0.0649081)
(0.287349 2.97506e-05 0.0319704)
(0.287373 8.28549e-05 0.0317993)
(0.287335 0.000111217 0.0317495)
(0.287279 0.000113334 0.0317504)
(0.287216 9.6231e-05 0.0317869)
(0.287148 4.04917e-05 0.0318592)
(0.321801 5.84243e-05 -0.0395222)
(0.321776 0.000147904 -0.0397335)
(0.321679 0.000183321 -0.0397458)
(0.321566 0.000179194 -0.0396794)
(0.321448 0.000150951 -0.0395636)
(0.321317 6.49332e-05 -0.0393992)
(0.358363 9.91276e-05 -0.158677)
(0.358195 0.000211185 -0.15883)
(0.357961 0.000216835 -0.158717)
(0.357706 0.000183356 -0.158506)
(0.357461 0.000138146 -0.158256)
(0.357192 5.89108e-05 -0.157985)
(0.42471 0.000144983 -0.339902)
(0.424375 0.000295087 -0.339899)
(0.424051 0.000305308 -0.339719)
(0.423722 0.000257237 -0.339499)
(0.423469 0.000221069 -0.339293)
(0.42303 0.000117652 -0.339074)
(0.407064 5.59735e-06 -0.531563)
(0.406573 -8.14204e-05 -0.531394)
(0.406316 -0.000165724 -0.531318)
(0.406071 -0.000306521 -0.531146)
(0.405931 -0.000173484 -0.531132)
(0.40567 5.24237e-05 -0.53103)
(0.231788 -0.000171387 -0.638367)
(0.231571 -0.000419444 -0.638358)
(0.231491 -0.000340425 -0.638542)
(0.231425 -0.000342758 -0.638359)
(0.231166 -0.000550332 -0.638387)
(0.231359 -0.000306678 -0.638715)
(0.0209723 -6.77785e-07 0.108434)
(0.0209733 -1.21693e-06 0.108436)
(0.0209737 -9.01315e-07 0.108436)
(0.020974 -6.50511e-07 0.108437)
(0.0209741 -1.13981e-07 0.108437)
(0.0209739 9.161e-08 0.108436)
(0.0643431 -7.40149e-07 0.11288)
(0.0643468 -1.25608e-06 0.112881)
(0.0643481 -9.82418e-07 0.112881)
(0.0643489 -6.29744e-07 0.112882)
(0.0643492 3.45304e-08 0.112881)
(0.0643484 2.2676e-07 0.112878)
(0.112654 -1.65193e-06 0.121582)
(0.112662 -2.06935e-06 0.121584)
(0.112664 -5.96169e-07 0.121584)
(0.112664 3.51026e-07 0.121584)
(0.112663 1.17956e-06 0.121582)
(0.112661 7.21472e-07 0.121577)
(0.170647 -2.00971e-06 0.134116)
(0.170662 1.48558e-07 0.134109)
(0.170663 5.1393e-06 0.134103)
(0.170661 7.27871e-06 0.134097)
(0.170656 7.72046e-06 0.13409)
(0.170648 3.59429e-06 0.134082)
(0.244945 1.1311e-06 0.150458)
(0.244969 1.17798e-05 0.15042)
(0.244966 2.33495e-05 0.150399)
(0.244955 2.6741e-05 0.150384)
(0.244939 2.44509e-05 0.150373)
(0.244917 1.0756e-05 0.150366)
(0.342185 1.12427e-05 0.17123)
(0.34222 3.99231e-05 0.171141)
(0.342204 6.02257e-05 0.1711)
(0.342172 6.24107e-05 0.171083)
(0.342132 5.33559e-05 0.171084)
(0.34208 2.31113e-05 0.171102)
(0.468659 2.46275e-05 0.198481)
(0.468689 7.41028e-05 0.198333)
(0.468639 0.000102564 0.198285)
(0.468567 0.000101557 0.198287)
(0.468488 8.39801e-05 0.198327)
(0.468395 3.64456e-05 0.198406)
(0.614424 4.59467e-05 0.235774)
(0.614404 0.00010988 0.235631)
(0.614285 0.000127454 0.235623)
(0.614143 0.000111173 0.235687)
(0.614002 7.36723e-05 0.235806)
(0.613864 2.74103e-05 0.235967)
(0.752909 6.19211e-05 0.284339)
(0.752804 0.000114218 0.284336)
(0.752642 0.000107771 0.284438)
(0.752484 8.11974e-05 0.284597)
(0.752358 8.34667e-06 0.284815)
(0.752278 -1.56647e-05 0.285021)
(0.77601 -2.08001e-05 0.27962)
(0.775755 -0.000105765 0.279935)
(0.775619 -0.000169405 0.280164)
(0.775514 -0.000262034 0.280432)
(0.775528 -0.000299711 0.280341)
(0.77568 -0.000120407 0.28083)
(0.511789 -0.000142472 -0.0480001)
(0.511509 -0.000338019 -0.047564)
(0.511581 -9.29886e-05 -0.0476438)
(0.511639 -0.000415878 -0.0462868)
(0.512145 -0.000436732 -0.0481114)
(0.511868 7.74663e-05 -0.0466657)
(0.0744041 -0.000249133 -0.0654044)
(0.0741019 -0.000659891 -0.0653455)
(0.0742915 6.18413e-05 -0.0662371)
(0.074385 0.000338526 -0.0648868)
(0.0766135 -0.00102762 -0.0646755)
(0.0728994 -0.000914824 -0.0667656)
(0.01831 -3.23279e-07 0.145476)
(0.0183109 -2.96682e-07 0.145478)
(0.018311 2.62367e-07 0.145478)
(0.018311 5.40362e-07 0.145478)
(0.0183108 7.93493e-07 0.145479)
(0.0183103 4.11495e-07 0.145477)
(0.0558052 -1.47712e-08 0.152318)
(0.0558082 3.62222e-07 0.15232)
(0.0558084 9.01368e-07 0.15232)
(0.055808 1.22165e-06 0.152319)
(0.0558071 1.41686e-06 0.152319)
(0.0558054 6.97148e-07 0.152315)
(0.0953976 1.54084e-07 0.165808)
(0.0954026 1.63095e-06 0.165809)
(0.0954018 3.26542e-06 0.165808)
(0.0953994 3.77643e-06 0.165807)
(0.0953961 3.73011e-06 0.165804)
(0.0953916 1.661e-06 0.165799)
(0.137076 2.83451e-06 0.184472)
(0.137082 8.95684e-06 0.184465)
(0.137078 1.30963e-05 0.184457)
(0.137071 1.36544e-05 0.18445)
(0.137063 1.18989e-05 0.184443)
(0.137054 5.01048e-06 0.184434)
(0.179482 1.15191e-05 0.205045)
(0.179486 2.69943e-05 0.205016)
(0.179476 3.14315e-05 0.204996)
(0.179463 2.92001e-05 0.204982)
(0.179449 2.28984e-05 0.204972)
(0.17943 9.21376e-06 0.204968)
(0.22004 2.50014e-05 0.218509)
(0.220032 4.80726e-05 0.218444)
(0.220015 4.35073e-05 0.218413)
(0.219995 3.33876e-05 0.218402)
(0.219973 2.03086e-05 0.218404)
(0.219944 6.53908e-06 0.218422)
(0.255492 3.50384e-05 0.206067)
(0.255456 4.81704e-05 0.20597)
(0.255436 1.65242e-05 0.205948)
(0.255419 -6.19595e-06 0.205966)
(0.255401 -2.25888e-05 0.206006)
(0.255373 -1.4337e-05 0.206073)
(0.288827 2.43697e-05 0.131159)
(0.288748 -1.39903e-05 0.13106)
(0.288746 -9.95947e-05 0.131086)
(0.288771 -0.000134616 0.131168)
(0.288797 -0.000133218 0.131275)
(0.28877 -6.18668e-05 0.131405)
(0.336899 -1.22294e-05 -0.127836)
(0.336721 -0.000132808 -0.127838)
(0.336743 -0.00029109 -0.127673)
(0.336708 -0.000358751 -0.127375)
(0.337021 -0.000270629 -0.12722)
(0.336825 -8.47181e-05 -0.127179)
(0.521699 2.32719e-05 -0.743374)
(0.521447 -0.000100385 -0.743334)
(0.521649 6.2706e-06 -0.742872)
(0.520311 -0.000588056 -0.741833)
(0.52222 -0.000287195 -0.741915)
(0.5206 0.000425403 -0.742307)
(0.818927 -1.79712e-05 -1.43889)
(0.818568 -0.00055414 -1.43944)
(0.819203 0.00256492 -1.43918)
(0.816555 -0.000613146 -1.44012)
(0.823557 -0.000304795 -1.43853)
(0.817644 0.00345053 -1.44377)
(2.7504 0.000263296 -1.34367)
(2.75268 -0.00111421 -1.34412)
(2.75753 0.00252478 -1.34739)
(2.73288 0.00140676 -1.34518)
(2.76205 0.000732767 -1.34826)
(2.74054 0.00372198 -1.3514)
(0.0780146 3.47859e-05 -1.51162)
(0.0780234 2.28038e-05 -1.51203)
(0.0780228 -1.11197e-05 -1.51196)
(0.0780262 -7.838e-06 -1.51195)
(0.0780287 -3.28767e-05 -1.51203)
(0.0780119 -3.72776e-05 -1.51161)
(-0.000277438 3.59827e-05 -1.71905)
(-0.000279957 3.1539e-05 -1.71933)
(-0.000279657 -6.93558e-06 -1.71929)
(-0.000280448 2.73629e-06 -1.71929)
(-0.000281509 -3.2256e-05 -1.71933)
(-0.000280414 -3.63681e-05 -1.71904)
(0.00807419 2.03214e-05 -1.6416)
(0.00807446 2.08962e-05 -1.64175)
(0.00807464 1.26987e-06 -1.64173)
(0.00807432 2.96962e-06 -1.64172)
(0.00807402 -1.73922e-05 -1.64174)
(0.00807317 -2.00445e-05 -1.64159)
(0.0992624 4.39202e-05 -1.57922)
(0.0992855 2.58605e-05 -1.57966)
(0.0992883 -7.55681e-06 -1.57959)
(0.0992861 -3.00394e-06 -1.57958)
(0.0992834 -3.33291e-05 -1.57966)
(0.0992617 -4.94608e-05 -1.57917)
(-0.0895883 3.7291e-05 -1.76342)
(-0.0895926 3.57576e-05 -1.76371)
(-0.0895948 -8.22076e-06 -1.76366)
(-0.0895953 1.66145e-06 -1.76366)
(-0.0895959 -4.38346e-05 -1.76371)
(-0.0896007 -4.42523e-05 -1.7634)
(0.0200296 2.1172e-05 -1.67085)
(0.0200285 2.12182e-05 -1.671)
(0.0200276 1.08997e-06 -1.67097)
(0.0200267 2.29788e-06 -1.67097)
(0.0200256 -2.0241e-05 -1.67099)
(0.0200256 -2.31298e-05 -1.67083)
(0.331025 3.26612e-05 -1.31632)
(0.331035 1.6031e-05 -1.31676)
(0.331035 -8.6806e-06 -1.31669)
(0.331028 -9.98825e-08 -1.31668)
(0.331024 -2.95247e-05 -1.31676)
(0.331013 -4.77862e-05 -1.31625)
(-0.124373 3.77343e-05 -1.70618)
(-0.124394 3.48793e-05 -1.70646)
(-0.124393 -1.26563e-05 -1.70642)
(-0.124392 -2.48029e-06 -1.70641)
(-0.124393 -5.26037e-05 -1.70647)
(-0.124375 -5.04767e-05 -1.70616)
(0.0236789 1.98356e-05 -1.53373)
(0.0236778 1.6364e-05 -1.53388)
(0.0236752 -3.31936e-06 -1.53386)
(0.0236737 -2.08352e-06 -1.53386)
(0.0236718 -2.31565e-05 -1.53389)
(0.0236728 -2.41905e-05 -1.53374)
(0.430283 2.57802e-05 -1.30015)
(0.430245 1.23704e-05 -1.30059)
(0.43025 -1.08663e-05 -1.3005)
(0.430247 -5.72631e-08 -1.3005)
(0.43024 -3.28045e-05 -1.3006)
(0.430266 -5.05816e-05 -1.30012)
(-0.205231 3.4666e-05 -1.78563)
(-0.20526 2.78107e-05 -1.78591)
(-0.205254 -1.61843e-05 -1.78586)
(-0.20525 -2.42287e-06 -1.78585)
(-0.20525 -4.50427e-05 -1.78591)
(-0.205211 -4.33181e-05 -1.78563)
(0.00461158 1.86788e-05 -1.51216)
(0.00461615 1.15754e-05 -1.51231)
(0.0046141 -7.69871e-06 -1.5123)
(0.0046136 -4.29065e-06 -1.51231)
(0.00461384 -2.15212e-05 -1.51233)
(0.00461076 -2.18035e-05 -1.51219)
(0.414572 2.27275e-05 -1.11061)
(0.414514 1.37117e-05 -1.11105)
(0.414521 -2.68827e-06 -1.11097)
(0.414519 7.67139e-06 -1.11098)
(0.414502 -1.89199e-05 -1.11107)
(0.414545 -3.91236e-05 -1.11064)
(-0.324207 3.75861e-05 -1.72408)
(-0.324241 3.43514e-05 -1.72436)
(-0.32423 -8.35598e-06 -1.72432)
(-0.324225 8.13965e-06 -1.72431)
(-0.324228 -3.30098e-05 -1.72436)
(-0.324182 -3.73253e-05 -1.7241)
(-0.0567124 2.07529e-05 -1.38999)
(-0.0567044 1.48445e-05 -1.39015)
(-0.0567056 -4.79328e-06 -1.39014)
(-0.0567063 -7.39531e-07 -1.39014)
(-0.0567055 -1.68788e-05 -1.39016)
(-0.0567129 -1.92965e-05 -1.39)
(0.102073 2.7234e-05 -1.12076)
(0.102036 1.37787e-05 -1.12111)
(0.102055 -1.48111e-05 -1.12105)
(0.102075 -5.26156e-06 -1.12104)
(0.102061 -1.4126e-05 -1.12108)
(0.102098 -2.90597e-05 -1.12074)
(-0.422711 3.40198e-05 -1.63731)
(-0.422746 3.13339e-05 -1.63757)
(-0.422738 -5.45072e-06 -1.63754)
(-0.422737 6.8952e-06 -1.63754)
(-0.422741 -3.25692e-05 -1.63758)
(-0.422714 -3.56021e-05 -1.63731)
(-0.116646 1.9198e-05 -1.29772)
(-0.116635 1.55175e-05 -1.29786)
(-0.116643 -4.09659e-06 -1.29785)
(-0.116649 -4.42331e-06 -1.29784)
(-0.11665 -1.71816e-05 -1.29786)
(-0.116658 -1.64704e-05 -1.2977)
(-0.366422 1.78686e-05 -2.3306)
(-0.366475 2.70183e-05 -2.3309)
(-0.366486 8.84003e-06 -2.33087)
(-0.366568 2.71098e-05 -2.33093)
(-0.366562 1.983e-06 -2.33102)
(-0.366496 -1.74269e-05 -2.33065)
(-0.386966 1.81804e-05 -1.13873)
(-0.387023 1.20334e-05 -1.13896)
(-0.387013 -9.3535e-06 -1.13894)
(-0.386998 3.68259e-06 -1.13894)
(-0.386977 -3.40275e-05 -1.13898)
(-0.38702 -3.96782e-05 -1.13876)
(-0.323009 1.92929e-05 -1.15887)
(-0.322995 6.60052e-06 -1.159)
(-0.323012 -2.18996e-05 -1.15898)
(-0.323021 -1.57064e-05 -1.15898)
(-0.323023 -1.11478e-05 -1.15903)
(-0.323013 -5.96181e-06 -1.15887)
(-2.76881 3.75513e-05 -2.9134)
(-2.76901 8.60384e-05 -2.914)
(-2.76906 8.04484e-05 -2.91381)
(-2.76913 8.89648e-05 -2.91369)
(-2.76911 2.46546e-05 -2.91391)
(-2.76895 -2.41712e-05 -2.9133)
(-1.98002 -1.01833e-05 -1.39611)
(-1.98017 -4.7288e-05 -1.39653)
(-1.98018 -5.16175e-05 -1.3964)
(-1.98015 -3.7329e-05 -1.39631)
(-1.98016 2.92981e-05 -1.39639)
(-1.98014 5.30944e-05 -1.39626)
(0.0431179 2.53819e-05 -1.06961)
(0.0431582 -1.12863e-05 -1.06969)
(0.0430662 -6.87963e-05 -1.0697)
(0.0430052 -3.56695e-05 -1.06976)
(0.0429674 1.07093e-05 -1.06981)
(0.0430757 1.83946e-05 -1.06966)
(4.3032 0.000155935 6.30046)
(4.30282 0.000223813 6.30084)
(4.30303 0.000246187 6.30071)
(4.30311 0.000309585 6.30078)
(4.30286 5.43074e-05 6.30073)
(4.30345 -0.000142743 6.30105)
(-1.03414 -9.16001e-05 3.13069)
(-1.035 -0.000149757 3.13004)
(-1.03472 -4.72784e-05 3.13049)
(-1.03444 6.56221e-06 3.13098)
(-1.03499 0.000341616 3.13078)
(-1.03397 0.000331244 3.13087)
(-1.77208 -5.92797e-05 0.254483)
(-1.7721 -0.000229343 0.25432)
(-1.77223 -0.000313496 0.25456)
(-1.77222 -0.000270873 0.254734)
(-1.77236 0.000180632 0.254827)
(-1.77207 0.000297947 0.254509)
(0.845099 0.000533337 7.43064)
(0.847598 0.000439848 7.43208)
(0.846773 3.22721e-05 7.43158)
(0.846618 0.000353377 7.43184)
(0.847908 7.03091e-05 7.43168)
(0.846333 -0.000235445 7.43182)
(3.01372 -0.000199984 7.95162)
(3.00841 -0.000328795 7.95191)
(3.00964 -3.15261e-06 7.95187)
(3.0089 -0.000401621 7.95213)
(3.00538 0.000694931 7.95133)
(3.01466 0.00113363 7.95278)
(4.93165 -1.79703e-05 8.45243)
(4.9303 -0.000179026 8.45367)
(4.93032 -3.25182e-05 8.45372)
(4.92984 -0.000500749 8.4542)
(4.92804 0.000692798 8.45496)
(4.93251 0.00126116 8.45322)
(0.615734 0.00183882 -0.842952)
(0.620775 0.00138182 -0.822846)
(0.618656 -0.00057715 -0.831925)
(0.618014 0.000328316 -0.834051)
(0.620647 -0.00015203 -0.824636)
(0.616817 -0.000640049 -0.838825)
(-4.34541 -0.00198955 0.637539)
(-4.34558 -0.00133413 0.640786)
(-4.34593 0.000792659 0.63964)
(-4.34671 -0.000469301 0.638618)
(-4.35122 0.000656256 0.638166)
(-4.34051 0.00117562 0.640741)
(-3.76869 -0.000890254 5.95229)
(-3.76972 -0.000703866 5.95375)
(-3.76946 0.000282142 5.95326)
(-3.77064 -0.000410612 5.95242)
(-3.77495 0.000454094 5.95018)
(-3.76462 0.000850757 5.95614)
(1.10241 -2.80232e-05 0.913236)
(1.10304 4.21971e-05 0.914282)
(1.10292 5.51805e-05 0.913952)
(1.10286 -4.45077e-05 0.913899)
(1.10345 7.59235e-05 0.914164)
(1.1024 8.05936e-05 0.913666)
(0.201282 -7.48567e-06 -0.406758)
(0.202274 0.00010977 -0.402821)
(0.201959 0.000426347 -0.404237)
(0.200681 0.000899731 -0.404777)
(0.198401 -0.000973703 -0.403937)
(0.204688 -0.00162237 -0.405076)
(-0.506778 -0.000190518 -6.86243)
(-0.505716 -0.000375294 -6.86295)
(-0.506079 -0.000459956 -6.86336)
(-0.505656 -0.00104673 -6.8622)
(-0.503971 0.000121759 -6.86384)
(-0.507855 0.000859669 -6.86239)
(6.52447 -0.000725087 -4.93311)
(6.51997 -0.00307283 -4.94773)
(6.52062 0.00649385 -4.95823)
(6.53326 -0.00404328 -4.90875)
(6.52365 0.00567895 -4.93032)
(6.54785 0.0212949 -4.92746)
(4.39973 0.000286945 -1.43485)
(4.41352 0.00122419 -1.4395)
(4.43197 -0.0118839 -1.43818)
(4.37634 -0.0259574 -1.44138)
(4.40158 0.0200871 -1.45362)
(4.39875 0.0351174 -1.42953)
(4.46943 0.0020109 10.7509)
(4.49568 0.00314087 10.7652)
(4.50451 -0.0138089 10.7386)
(4.45369 -0.0218024 10.7865)
(4.4515 0.0187576 10.7813)
(4.46927 0.0260742 10.7582)
(4.96122 -0.000986865 -4.44297)
(4.96018 -0.00154201 -4.44445)
(4.9601 0.0010384 -4.443)
(4.96704 -0.00662548 -4.44634)
(4.97813 0.00698881 -4.43392)
(4.95897 0.0156465 -4.4568)
(6.97931 -0.00029666 -1.19913)
(6.98168 0.00109964 -1.19787)
(6.97862 -0.0113591 -1.19905)
(6.98497 -0.0270712 -1.20257)
(6.99794 0.0203217 -1.21755)
(6.96408 0.0366316 -1.19454)
(7.55535 0.00132727 2.75634)
(7.56585 0.00150154 2.74418)
(7.56055 -0.010879 2.75295)
(7.56283 -0.0235209 2.72401)
(7.56232 0.0193594 2.57637)
(7.53472 0.0371842 2.91432)
(3.97459 -0.000230768 -2.44052)
(3.97393 -0.00019848 -2.44099)
(3.97321 0.00138282 -2.44186)
(3.97603 -0.000527587 -2.4387)
(3.97633 0.00201462 -2.4215)
(3.97807 0.00237389 -2.45399)
(5.99482 -0.000681504 -2.5202)
(5.99374 -0.00165571 -2.51752)
(5.99263 -0.00180614 -2.5161)
(5.99171 -0.00692637 -2.53087)
(5.98094 -0.000235875 -2.56105)
(5.99198 0.00827949 -2.50476)
(6.57672 0.00108906 -10.8511)
(6.57471 -0.00161389 -10.8561)
(6.57482 -0.0015862 -10.8448)
(6.57429 0.000974537 -10.8606)
(6.54821 -0.00448211 -10.8806)
(6.59171 0.00240346 -10.8546)
(1.79198 0.00026402 -1.69015)
(1.79246 0.000872332 -1.69128)
(1.79227 0.00124113 -1.69128)
(1.79184 0.00295219 -1.6894)
(1.78982 -0.000107766 -1.68856)
(1.79426 -0.00290565 -1.69259)
(3.7805 -0.000561876 -1.88259)
(3.78035 -0.000609396 -1.88043)
(3.78 -0.000324376 -1.88104)
(3.78066 -0.0011844 -1.88295)
(3.77655 4.61997e-05 -1.87675)
(3.77611 0.000568172 -1.88696)
(3.88767 -1.26544e-05 -5.44259)
(3.88748 -0.00245663 -5.44608)
(3.88636 7.1768e-05 -5.44175)
(3.89221 -0.00309553 -5.44175)
(3.89748 -0.00432851 -5.42884)
(3.87548 -0.00104661 -5.44506)
(0.932219 0.000218718 -0.361506)
(0.931912 0.000437428 -0.362413)
(0.931923 0.000404371 -0.362387)
(0.9329 0.00117235 -0.360305)
(0.934982 -0.000737826 -0.354905)
(0.930644 -0.00162363 -0.366379)
(3.1544 -0.000274057 -0.770483)
(3.15458 -4.07052e-05 -0.768816)
(3.15489 -0.000536015 -0.769619)
(3.15413 -0.00307652 -0.767505)
(3.15642 0.00348402 -0.764787)
(3.15442 0.00573015 -0.773557)
(3.39447 -0.000601461 -3.47275)
(3.39431 -0.0018063 -3.47302)
(3.3931 1.18049e-05 -3.46931)
(3.39279 -0.00056165 -3.47942)
(3.39535 -0.00384346 -3.48912)
(3.39001 -0.00186785 -3.45458)
(1.14443 2.01229e-05 0.785882)
(1.14462 0.000188844 0.785719)
(1.14475 0.000148565 0.785829)
(1.14457 0.000943028 0.785764)
(1.14537 -0.000702573 0.785819)
(1.14397 -0.00168125 0.785968)
(2.32096 -7.80424e-05 -0.122555)
(2.32156 0.000127163 -0.120382)
(2.32147 8.17009e-05 -0.121404)
(2.32096 -0.000377041 -0.120718)
(2.3201 0.000666007 -0.117925)
(2.32273 0.00091113 -0.124616)
(1.5611 -0.000549427 -4.34539)
(1.56292 -0.000926456 -4.34545)
(1.5627 -0.000622971 -4.34449)
(1.56108 -0.000938924 -4.34582)
(1.55706 -0.000185204 -4.35274)
(1.5654 0.000691348 -4.33919)
(0.0150146 2.17783e-07 0.176397)
(0.0150147 4.97936e-07 0.176399)
(0.0150145 6.90474e-07 0.176399)
(0.0150145 7.7163e-07 0.176399)