/*--------------------------------*- C++ -*----------------------------------*\
| =========                 |                                                 |
| \\      /  F ield         | OpenFOAM: The Open Source CFD Toolbox           |
|  \\    /   O peration     | Version:  v1612+                                |
|   \\  /    A nd           | Web:      www.OpenFOAM.com                      |
|    \\/     M anipulation  |                                                 |
\*---------------------------------------------------------------------------*/
FoamFile
{
    version     2.0;
    format      ascii;
    class       volScalarField;
    location    "5.45";
    object      p;
}
// * * * * * * * * * * * * * * * * * * * * * * * * * * * * * * * * * * * * * //

dimensions      [1 -1 -2 0 0 0 0];

internalField   nonuniform List<scalar> 
1116
(
2448.47
2448.64
2448.58
2448.59
2448.61
2448.51
4153.77
4154.01
4153.84
4153.82
4153.89
4153.81
7935.08
7935.38
7935.19
7935.17
7935.26
7935.13
12073
12073
12072.8
12072.9
12072.9
12072.9
14714.4
14714.2
14714.2
14714.2
14714.2
14714.3
15232.9
15232.8
15232.7
15232.7
15232.7
15232.9
14688.5
14688.7
14688.6
14688.6
14688.6
14688.6
13676.8
13677.1
13677
13677
13677.2
13676.9
12397.2
12396.8
12397.2
12397.2
12398.1
12396.4
11556.6
11555.7
11556.5
11555.7
11556.3
11555.7
11459.6
11461.6
11461.8
11458.6
11456.6
11464.5
11096.5
11098.1
11097.7
11096.5
11094.6
11100.3
361.676
361.965
361.847
361.869
361.927
361.796
1034.95
1035.67
1035.3
1035.28
1035.44
1035.16
2598.66
2599.24
2598.89
2598.93
2599.03
2598.84
4716.82
4715.31
4715.39
4715.72
4715.54
4716.4
6526.5
6526.16
6526.25
6526.29
6526.2
6526.43
6563.46
6563.07
6563.32
6563.4
6563.2
6563.33
5673.97
5673.53
5673.72
5673.84
5673.85
5673.71
4649.89
4650.01
4650.03
4650.18
4650.63
4649.65
3168.09
3167.91
3167.98
3168.13
3168.73
3167.38
2582.8
2581.92
2582.13
2582.36
2582.56
2581.51
2838.53
2844.66
2843.33
2838.46
2834.81
2851.39
2547.54
2548.77
2549.31
2545.96
2546.85
2554.1
208.708
208.778
208.749
208.767
208.779
208.751
234.8
234.84
234.8
234.854
234.871
234.845
623.053
624.827
624.003
624.014
624.396
623.613
1463
1463.64
1463.45
1463.33
1463.47
1463.24
1573.5
1573.78
1573.76
1573.64
1573.7
1573.64
1282.77
1282.82
1282.87
1282.79
1282.79
1282.8
626.863
626.901
626.937
626.859
626.89
626.849
154.563
154.524
154.555
154.561
154.57
154.524
-25.4062
-25.2315
-25.2906
-25.3509
-25.5203
-25.0761
41.3299
41.4663
41.3598
41.2906
40.9247
41.3955
437.301
442.839
441.311
438.079
433.464
444.653
808.149
805.451
806.304
807.816
811.384
804.193
61.731
61.766
61.7515
61.7553
61.7606
61.7456
-100.911
-101.038
-100.972
-100.979
-101.006
-100.952
-135.255
-135.23
-135.233
-135.234
-135.233
-135.245
-70.1082
-70.0745
-70.0859
-70.0818
-70.0768
-70.0944
-56.0289
-56.0297
-56.0289
-56.0247
-56.0217
-56.0311
-43.6348
-43.6467
-43.6379
-43.6282
-43.6178
-43.6427
-39.4295
-39.443
-39.4272
-39.4093
-39.3803
-39.4265
-42.4371
-42.4092
-42.3967
-42.4003
-42.3796
-42.3076
-52.0057
-51.5279
-51.5978
-51.949
-52.0178
-50.9828
6.60605
6.28906
6.23878
6.58895
6.1025
5.43786
30.9389
31.5189
31.588
30.4648
30.4977
31.8412
-425.88
-426.921
-425.641
-428.046
-424.899
-421.651
3374.76
3432.03
3532.6
3596.64
3543.85
3371.97
1556.41
1554.39
1679.15
1894.58
1993.9
1996.48
712.388
726.58
766.459
873.41
1010.54
998.661
615.765
631.613
595.738
546.87
448.675
467.217
460.197
464.033
462.72
440.531
396.453
350.57
423.396
431.868
430.983
413.476
341.649
404.522
386.043
395.034
406.934
382.175
362.231
397.485
669.755
571.228
552.879
560.603
535.839
547.954
2035.43
1860.44
1766.63
1722.02
1463.25
1694.84
2668.81
2791.83
2842.88
2682.29
2448.88
2692.14
1601.26
1690.04
1790.12
1738.43
1701.37
1738.51
1476.03
1480.49
1522.64
1521.35
1547.46
1489.87
1095.29
1103.97
1139.7
1242.76
1296.88
1337.38
262.373
259.793
264.53
291.527
295.44
267.784
70.7288
74.0809
59.9105
35.512
3.02276
22.4892
-58.8076
-59.232
-60.2002
-65.5995
-72.0686
-65.3483
-64.5853
-64.7097
-65.231
-62.6679
-57.0474
-62.3269
-37.1547
-36.7799
-37.6373
-37.5735
-37.2526
-38.9399
-25.4623
-25.6515
-26.7975
-25.0365
-26.2664
-26.3999
13.5697
12.5166
9.31693
8.34144
-9.4662
7.68061
174.19
126.262
132.908
102.583
65.7366
112.657
425.377
425.633
457.685
428.021
301.792
462.624
297.466
255.546
321.773
246.701
13.1857
401.28
875.327
839.861
750.585
661.261
540.05
698.703
234.215
228.864
195.463
238.484
268.074
236.872
-55.9084
-56.9513
-53.7594
-58.7654
-60.6986
-51.8027
-56.9897
-58.2791
-63.0554
-67.5742
-70.7705
-69.5289
-65.0682
-65.9675
-66.6567
-67.6252
-67.3317
-66.5707
-51.7961
-51.801
-51.9256
-51.7894
-50.954
-50.6795
-37.9067
-37.5605
-37.6844
-37.0061
-35.0686
-37.6431
-27.5554
-26.5072
-26.8923
-25.9691
-24.9595
-26.9573
-21.4602
-20.3922
-21.213
-20.6298
-20.336
-20.4523
-24.453
-22.9193
-24.1603
-22.6178
-16.9119
-19.9251
19.3121
15.0657
16.0426
16.4655
3.99756
14.5797
205.724
207.779
249.712
139.973
-14.364
185.5
745.182
733.259
413.499
372.5
366.182
373.824
-11.129
-13.6493
-22.2501
-15.2179
-13.5129
-27.2735
-204.261
-205.802
-203.923
-208.966
-210.468
-210.331
-173.195
-173.699
-175.52
-179.118
-181.873
-181.319
-140.428
-140.393
-140.538
-141.273
-141.99
-141.874
-85.3572
-85.134
-85.2002
-84.8033
-84.5889
-85.0255
-56.5868
-56.4598
-56.5412
-56.4371
-55.997
-56.7738
-41.2059
-41.0773
-41.2681
-41.6506
-41.7481
-41.8723
-33.7315
-33.5603
-34.2657
-35.7755
-36.5807
-35.2978
-37.9468
-37.9162
-38.6757
-38.656
-38.1743
-38.0272
-30.9116
-30.4755
-29.7015
-31.3408
-34.7345
-31.8219
-30.1516
-35.0444
-42.6979
-48.207
-49.3584
-28.8404
-307.517
-280.407
-341.225
-241.961
42.8377
-288.44
-34.4598
-34.4679
-34.4693
-34.4714
-34.4728
-34.4693
-66.011
-66.0285
-66.0275
-66.0319
-66.0352
-66.0301
-71.322
-71.3289
-71.3271
-71.327
-71.3271
-71.3242
-122.739
-122.784
-122.759
-122.781
-122.79
-122.773
-103.152
-103.17
-103.162
-103.166
-103.168
-103.164
-74.2718
-74.2795
-74.2751
-74.2731
-74.2723
-74.2693
-118.683
-118.708
-118.697
-118.725
-118.738
-118.72
-110.282
-110.287
-110.282
-110.272
-110.271
-110.274
-68.7732
-68.7748
-68.7712
-68.7637
-68.761
-68.76
-74.772
-74.7664
-74.7697
-74.7686
-74.769
-74.772
-83.5968
-83.595
-83.5939
-83.5908
-83.5897
-83.5898
-66.768
-66.7694
-66.7674
-66.7673
-66.767
-66.7666
-56.6383
-56.6305
-56.6339
-56.6326
-56.6321
-56.6351
-66.6986
-66.6926
-66.6942
-66.6944
-66.6944
-66.6919
-67.9513
-67.9511
-67.9508
-67.9512
-67.9509
-67.9508
-46.307
-46.3001
-46.3008
-46.2997
-46.3002
-46.2994
-53.2689
-53.2584
-53.2629
-53.2653
-53.2692
-53.2572
-68.3884
-68.3883
-68.3883
-68.3881
-68.3884
-68.3864
-41.9777
-41.9763
-41.9728
-41.9681
-41.9634
-41.9666
-37.7537
-37.7318
-37.7418
-37.7504
-37.7624
-37.7276
-70.453
-70.4552
-70.4536
-70.4526
-70.4541
-70.45
-48.0647
-48.0725
-48.068
-48.0264
-48.0028
-48.0483
-22.1889
-22.1323
-22.1553
-22.1821
-22.2144
-22.1193
-72.5941
-72.5897
-72.5909
-72.5906
-72.5995
-72.5787
-58.8929
-58.8369
-58.8655
-58.8263
-58.8557
-58.7316
-11.2844
-11.23
-11.2492
-11.2623
-11.2642
-11.2543
-66.7219
-66.6821
-66.7007
-66.7126
-66.7469
-66.6621
-34.537
-34.4591
-34.527
-34.441
-34.5989
-34.6998
-33.064
-33.1236
-33.0971
-32.998
-32.8777
-33.2763
-72.1094
-72.1136
-72.1005
-72.0887
-72.0542
-72.1486
-23.1235
-23.3818
-23.276
-23.2436
-23.0357
-23.4138
-86.8077
-86.9334
-86.8581
-86.7297
-86.5919
-86.9343
-75.2049
-75.244
-75.2122
-75.1602
-75.0942
-75.2505
158.615
156.391
157.139
157.233
158.645
156.984
-91.1094
-91.1875
-91.1457
-91.1811
-91.0971
-91.0988
-86.7028
-86.7976
-86.7582
-86.7078
-86.6265
-86.7871
723.423
723.004
723.598
725.365
726.121
725.055
-53.9395
-53.8817
-53.9595
-54.0665
-54.23
-54.1761
-71.7722
-71.7883
-71.7356
-71.6205
-71.4907
-71.5915
737.405
737.619
737.78
738.451
738.411
738.237
-56.5772
-56.5933
-56.5927
-56.5944
-56.5992
-56.6278
-69.9967
-70.0204
-69.9925
-69.9269
-69.8794
-69.9112
714.894
714.505
714.302
715.723
716.009
714.363
-56.0423
-56.0426
-56.056
-56.0781
-56.103
-56.1075
-68.8811
-68.8756
-68.8641
-68.8518
-68.836
-68.8458
623.915
623.717
623.341
625.034
625.31
622.853
-57.9779
-57.9826
-57.9847
-57.9948
-57.9998
-57.9849
-68.775
-68.7718
-68.7673
-68.7635
-68.7575
-68.7589
591.541
591.288
591.057
592.029
592.068
590.785
-62.3932
-62.4041
-62.4044
-62.4097
-62.4097
-62.4143
-71.0133
-71.0121
-71.0085
-71.0091
-71.0055
-71.0021
543.948
543.332
543.186
544.038
544.174
542.924
-66.4838
-66.4941
-66.4912
-66.5007
-66.4884
-66.4789
-75.1711
-75.1739
-75.1696
-75.1704
-75.167
-75.1641
-102.177
-102.443
-103.03
-101.519
-103.162
-91.7545
-103.916
-103.513
-103.658
-101.902
-100.562
-96.5132
-92.0374
-91.8736
-91.9208
-89.192
-88.883
-90.9029
-300.785
-300.79
-298.592
-299.539
-297.612
-298.785
-239.856
-240.266
-242.832
-232.383
-236.424
-233.74
-110.597
-110.152
-112.84
-104.676
-108.645
-108.693
-233.919
-233.278
-236.821
-233.471
-234.103
-238.749
-201.208
-199.164
-202.04
-198.076
-199.499
-201.788
-82.651
-81.2544
-83.7238
-78.5329
-80.9205
-82.7105
-169.189
-168.077
-169.064
-167.444
-168.936
-169.886
-137.688
-135.755
-137.287
-134.735
-135.976
-137.736
-70.4241
-70.1601
-70.4123
-70.4116
-70.183
-70.4538
-96.1985
-95.5018
-95.9964
-95.0501
-94.979
-95.8693
-89.6167
-89.1923
-89.5251
-88.9095
-88.9699
-89.4362
-71.0915
-71.1805
-70.8912
-71.3642
-71.0386
-71.1031
-68.6855
-68.578
-68.6005
-68.5068
-68.4045
-68.6297
-72.1561
-72.0995
-72.1132
-72.0793
-71.9893
-72.1493
-71.588
-71.6075
-71.5325
-71.6458
-71.5656
-71.5975
-54.2143
-54.1746
-54.2153
-54.3047
-54.281
-54.397
-63.0618
-63.0597
-63.08
-63.1277
-63.1342
-63.1697
-69.0454
-69.0513
-69.04
-69.0727
-69.0572
-69.0701
-47.4431
-47.3526
-47.5474
-47.8421
-47.9312
-47.9495
-59.0914
-59.1025
-59.16
-59.2511
-59.2914
-59.3103
-67.813
-67.8163
-67.8234
-67.8475
-67.8485
-67.8616
-42.7833
-42.1807
-42.3375
-42.5969
-42.805
-42.6337
-57.5902
-57.6164
-57.6506
-57.7296
-57.7576
-57.6294
-65.5019
-65.4693
-65.4854
-65.4972
-65.4964
-65.5113
-39.8003
-39.6479
-39.4542
-40.8269
-41.1689
-40.1714
-59.583
-59.8497
-59.7102
-59.8961
-59.8594
-59.5475
-67.3332
-67.3238
-67.3289
-67.351
-67.3644
-67.3639
-48.9545
-48.4052
-47.4156
-49.0085
-46.5336
-44.6064
-61.8066
-62.0318
-61.7252
-61.942
-61.4566
-61.2332
-66.3785
-66.2356
-66.344
-66.5726
-66.3893
-66.3114
251.598
249.364
226.24
315.555
306.384
283.13
-60.5842
-60.5705
-60.6211
-60.5607
-60.6204
-60.8757
-80.1132
-80.5705
-80.5024
-79.7498
-79.239
-80.0633
)
;

boundaryField
{
    seabed_topleft_surface
    {
        type            calculated;
        value           nonuniform List<scalar> 
72
(
4207.61
4207.76
4207.7
4207.71
4207.73
4207.64
6007.15
6007.34
6007.19
6007.17
6007.24
6007.18
10397.2
10397.4
10397.2
10397.2
10397.3
10397.2
16426.4
16426.4
16426.2
16426.2
16426.3
16426.4
19512.8
19512.6
19512.5
19512.6
19512.5
19512.6
20031.3
20031.2
20031.1
20031.1
20031.1
20031.3
19486.8
19487
19486.9
19486.9
19487
19486.9
18474.2
18474.5
18474.4
18474.4
18474.7
18474.3
17188.1
17187.7
17188.1
17188.1
17189
17187.3
16335.3
16334.5
16335.2
16334.5
16335.1
16334.4
16226.9
16228.9
16229.1
16225.8
16223.9
16231.8
15849
15850.7
15850.2
15849
15847.1
15852.8
)
;
    }
    seabed_topright_surface
    {
        type            calculated;
        value           nonuniform List<scalar> 
72
(
3618.42
3676.5
3777.1
3841.14
3788.35
3593.6
1758.38
1747.02
1909.94
2123.3
2177.78
2228.52
759.803
756.561
823.114
988.358
1181.91
1196.62
892.482
909.116
757.681
834.271
844.741
595.805
893.737
900.227
901.597
869.34
796.479
661.465
858.141
870.57
873.257
845.893
675.725
831.609
808.12
827.481
850.598
798.111
756.459
829.437
1129.13
1030.84
1013.29
1023.56
998.038
1003.6
2498.12
2325.99
2234.35
2188.04
1926.35
2156.16
3134.35
3259.55
3310.6
3150.01
2914.9
2992.57
1971.3
2091.67
2207.68
2152.65
2161.41
2015.93
1507.29
1517.55
1569.56
1576.24
1712.8
1556.98
)
;
    }
    breakwater_top_surface
    {
        type            calculated;
        value           nonuniform List<scalar> 
36
(
1513.18
1512.93
1513.83
1516.13
1516.96
1515.53
1528.32
1528.8
1529.28
1530.09
1530.05
1529.79
1480.02
1479.14
1478.7
1481.73
1482.3
1478.9
1297.77
1297.35
1296.6
1300.04
1300.6
1295.6
1242.16
1241.63
1241.17
1243.17
1243.2
1240.68
1178.82
1177.73
1177.41
1178.98
1179.05
1177.04
)
;
    }
    breakwater_left_surface
    {
        type            calculated;
        value           nonuniform List<scalar> 
24
(
11112.8
11114.4
11113.9
11112.8
11110.8
11116.6
2556.65
2557.86
2558.41
2555.06
2555.95
2563.2
808.447
805.749
806.602
808.113
811.681
804.49
-425.387
-426.422
-425.144
-427.552
-424.411
-421.15
)
;
    }
    breakwater_right_surface
    {
        type            calculated;
        value           nonuniform List<scalar> 
24
(
1476.13
1480.62
1522.8
1521.54
1548.03
1490.1
875.419
839.953
751.203
661.431
540.191
698.925
746.893
735.317
415.557
373.148
366.283
375.796
-305.522
-278.394
-339.207
-239.958
44.8132
-286.487
)
;
    }
    water_front_surface
    {
        type            calculated;
        value           nonuniform List<scalar> 
186
(
2448.47
4153.77
7935.08
12073
14714.4
15232.9
14688.5
13676.8
12397.2
11556.6
11459.6
11096.5
361.676
1034.95
2598.66
4716.82
6526.5
6563.46
5673.97
4649.89
3168.09
2582.8
2838.53
2547.54
208.708
234.8
623.053
1463
1573.5
1282.77
626.863
154.563
-25.4062
41.3299
437.301
808.149
61.731
-100.911
-135.255
-70.1082
-56.0289
-43.6348
-39.4295
-42.4371
-52.0057
6.60605
30.9389
-425.88
3374.76
1556.41
712.388
615.765
460.197
423.396
386.043
669.755
2035.43
2668.81
1601.26
1476.03
1095.29
262.373
70.7288
-58.8076
-64.5853
-37.1547
-25.4623
13.5697
174.19
425.377
297.466
875.327
234.215
-55.9084
-56.9897
-65.0682
-51.7961
-37.9067
-27.5554
-21.4602
-24.453
19.3121
205.724
745.182
-11.129
-204.261
-173.195
-140.428
-85.3572
-56.5868
-41.2059
-33.7315
-37.9468
-30.9116
-30.1516
-307.517
-34.4598
-66.011
-71.322
-122.739
-103.152
-74.2718
-118.683
-110.282
-68.7732
-74.772
-83.5968
-66.768
-56.6383
-66.6986
-67.9513
-46.307
-53.2689
-68.3884
-41.9777
-37.7537
-70.453
-48.0647
-22.1889
-72.5941
-58.8929
-11.2844
-66.7219
-34.537
-33.064
-72.1094
-23.1235
-86.8077
-75.2049
158.615
-91.1094
-86.7028
723.423
-53.9395
-71.7722
737.405
-56.5772
-69.9967
714.894
-56.0423
-68.8811
623.915
-57.9779
-68.775
591.541
-62.3932
-71.0133
543.948
-66.4838
-75.1711
-102.177
-103.916
-92.0374
-300.785
-239.856
-110.597
-233.919
-201.208
-82.651
-169.189
-137.688
-70.4241
-96.1985
-89.6167
-71.0915
-68.6855
-72.1561
-71.588
-54.2143
-63.0618
-69.0454
-47.4431
-59.0914
-67.813
-42.7833
-57.5902
-65.5019
-39.8003
-59.583
-67.3332
-48.9545
-61.8066
-66.3785
251.598
-60.5842
-80.1132
)
;
    }
    water_back_surface
    {
        type            calculated;
        value           nonuniform List<scalar> 
186
(
2448.51
4153.81
7935.13
12072.9
14714.3
15232.9
14688.6
13676.9
12396.4
11555.7
11464.5
11100.3
361.796
1035.16
2598.84
4716.4
6526.43
6563.33
5673.71
4649.65
3167.38
2581.51
2851.39
2554.1
208.751
234.845
623.613
1463.24
1573.64
1282.8
626.849
154.524
-25.0761
41.3955
444.653
804.193
61.7456
-100.952
-135.245
-70.0944
-56.0311
-43.6427
-39.4265
-42.3076
-50.9828
5.43786
31.8412
-421.651
3371.97
1996.48
998.661
467.217
350.57
404.522
397.485
547.954
1694.84
2692.14
1738.51
1489.87
1337.38
267.784
22.4892
-65.3483
-62.3269
-38.9399
-26.3999
7.68061
112.657
462.624
401.28
698.703
236.872
-51.8027
-69.5289
-66.5707
-50.6795
-37.6431
-26.9573
-20.4523
-19.9251
14.5797
185.5
373.824
-27.2735
-210.331
-181.319
-141.874
-85.0255
-56.7738
-41.8723
-35.2978
-38.0272
-31.8219
-28.8404
-288.44
-34.4693
-66.0301
-71.3242
-122.773
-103.164
-74.2693
-118.72
-110.274
-68.76
-74.772
-83.5898
-66.7666
-56.6351
-66.6919
-67.9508
-46.2994
-53.2572
-68.3864
-41.9666
-37.7276
-70.45
-48.0483
-22.1193
-72.5787
-58.7316
-11.2543
-66.6621
-34.6998
-33.2763
-72.1486
-23.4138
-86.9343
-75.2505
156.984
-91.0988
-86.7871
725.055
-54.1761
-71.5915
738.237
-56.6278
-69.9112
714.363
-56.1075
-68.8458
622.853
-57.9849
-68.7589
590.785
-62.4143
-71.0021
542.924
-66.4789
-75.1641
-91.7545
-96.5132
-90.9029
-298.785
-233.74
-108.693
-238.749
-201.788
-82.7105
-169.886
-137.736
-70.4538
-95.8693
-89.4362
-71.1031
-68.6297
-72.1493
-71.5975
-54.397
-63.1697
-69.0701
-47.9495
-59.3103
-67.8616
-42.6337
-57.6294
-65.5113
-40.1714
-59.5475
-67.3639
-44.6064
-61.2332
-66.3114
283.13
-60.8757
-80.0633
)
;
    }
    water_left_surface
    {
        type            calculated;
        value           nonuniform List<scalar> 
42
(
2454.49
2454.67
2454.6
2454.61
2454.63
2454.54
361.861
362.15
362.032
362.054
362.112
361.981
208.73
208.8
208.771
208.789
208.801
208.773
61.7511
61.7862
61.7716
61.7755
61.7808
61.7658
-34.4598
-34.4679
-34.4693
-34.4714
-34.4728
-34.4693
-66.011
-66.0285
-66.0275
-66.0319
-66.0352
-66.0301
-71.322
-71.3289
-71.3271
-71.327
-71.3271
-71.3242
)
;
    }
    water_right_surface
    {
        type            calculated;
        value           nonuniform List<scalar> 
42
(
3375.59
3432.86
3533.44
3597.47
3544.69
3372.73
1096.11
1104.78
1140.49
1243.58
1297.68
1338.08
234.782
229.399
195.898
239.048
268.574
237.379
-11.0541
-13.576
-22.2118
-15.1374
-13.4659
-27.0896
-102.177
-102.443
-103.03
-101.519
-103.162
-91.7545
-103.916
-103.513
-103.658
-101.902
-100.562
-96.5132
-92.0374
-91.8736
-91.9208
-89.192
-88.883
-90.9029
)
;
    }
    water_top_surface
    {
        type            calculated;
        value           nonuniform List<scalar> 
180
(
-68.8293
-68.8293
-68.8301
-68.8301
-68.8299
-68.8299
-68.7462
-68.7463
-68.7462
-68.7463
-68.7464
-68.7463
-68.7393
-68.7395
-68.7393
-68.7394
-68.7395
-68.7394
-72.822
-72.8207
-72.8213
-72.8232
-72.8229
-72.8243
-75.6033
-75.5996
-75.6018
-75.6025
-75.6018
-75.6022
-73.2
-73.1944
-73.1976
-73.1984
-73.1975
-73.1963
-69.5806
-69.576
-69.5783
-69.5793
-69.5788
-69.5776
-68.7074
-68.709
-68.7082
-68.7077
-68.7075
-68.7084
-68.7355
-68.7357
-68.7354
-68.7354
-68.7358
-68.7352
-81.1692
-81.2339
-81.216
-81.1432
-81.0468
-81.3173
-69.2958
-69.3023
-69.2995
-69.2875
-69.2657
-69.3185
-78.5917
-78.5697
-78.5569
-78.6097
-78.6475
-78.504
-71.4514
-71.4696
-71.4504
-71.4095
-71.4286
-71.437
-72.0763
-72.1006
-72.0845
-72.0174
-72.0039
-72.1078
-71.6468
-71.648
-71.6415
-71.641
-71.6594
-71.6029
-72.1918
-72.1926
-72.1788
-72.2061
-72.2338
-72.1241
-74.66
-74.6652
-74.6485
-74.6811
-74.7115
-74.6042
-74.0576
-74.0653
-74.0532
-74.0708
-74.0866
-74.0307
-73.0767
-72.9608
-73.4851
-72.1233
-72.0561
-72.9763
-72.8978
-72.714
-73.6112
-72.0047
-72.0667
-76.4373
-69.4795
-69.4092
-69.6504
-69.2981
-69.5298
-70.5612
-71.641
-71.7193
-71.1643
-72.1621
-71.7154
-71.5218
-74.2578
-74.2258
-74.2638
-74.224
-74.1197
-74.3404
-73.9252
-73.9232
-73.923
-73.9333
-73.9033
-73.9362
-72.5557
-72.5552
-72.5574
-72.5668
-72.5643
-72.5736
-72.5184
-72.5185
-72.5266
-72.5406
-72.5424
-72.5496
-71.2727
-71.2692
-71.2736
-71.2829
-71.2868
-71.2701
-73.0219
-73.0553
-73.0494
-73.1756
-73.2387
-73.0662
-73.5312
-73.5615
-73.453
-73.6813
-73.6646
-73.3048
-72.554
-72.3865
-72.4508
-72.3842
-72.6613
-72.6034
)
;
    }
}


// ************************************************************************* //
