/*--------------------------------*- C++ -*----------------------------------*\
| =========                 |                                                 |
| \\      /  F ield         | OpenFOAM: The Open Source CFD Toolbox           |
|  \\    /   O peration     | Version:  v1612+                                |
|   \\  /    A nd           | Web:      www.OpenFOAM.com                      |
|    \\/     M anipulation  |                                                 |
\*---------------------------------------------------------------------------*/
FoamFile
{
    version     2.0;
    format      ascii;
    class       volScalarField;
    location    "5.45";
    object      p_rgh;
}
// * * * * * * * * * * * * * * * * * * * * * * * * * * * * * * * * * * * * * //

dimensions      [1 -1 -2 0 0 0 0];

internalField   nonuniform List<scalar> 
1116
(
4207.61
4207.76
4207.7
4207.71
4207.73
4207.64
6007.15
6007.34
6007.19
6007.17
6007.24
6007.18
10397.2
10397.4
10397.2
10397.2
10397.3
10397.2
16426.4
16426.4
16426.2
16426.2
16426.3
16426.4
19512.8
19512.6
19512.5
19512.6
19512.5
19512.6
20031.3
20031.2
20031.1
20031.1
20031.1
20031.3
19486.8
19487
19486.9
19486.9
19487
19486.9
18474.2
18474.5
18474.4
18474.4
18474.7
18474.3
17188.1
17187.7
17188.1
17188.1
17189
17187.3
16335.3
16334.5
16335.2
16334.5
16335.1
16334.4
16226.9
16228.9
16229.1
16225.8
16223.9
16231.8
15849
15850.7
15850.2
15849
15847.1
15852.8
526.871
527.131
527.042
527.056
527.093
526.966
1729.61
1730.11
1729.89
1729.81
1729.88
1729.75
7420.08
7421.93
7421.04
7420.75
7421.19
7420.66
17017.5
17018.3
17017.4
17017.4
17017.9
17017.7
20888.4
20888
20888.1
20888.2
20888.1
20888.3
20717.9
20717.8
20718
20718
20717.9
20717.9
18668.2
18669.2
18669
18668.7
18669.2
18668.2
15212
15214.3
15213.7
15213.2
15214.3
15212.1
11505.7
11506.3
11506.1
11505.4
11505.8
11505.4
10118.3
10117.3
10117.6
10116.6
10115.7
10118.1
11389.1
11394.3
11393
11388.8
11385.7
11399.9
10665.4
10664.6
10665.5
10663.3
10661.7
10671
242.066
242.233
242.154
242.179
242.217
242.14
349.325
350.177
349.762
349.757
349.971
349.589
4489.15
4498.16
4494.25
4493.52
4495.68
4491.73
8935.47
8939.23
8938.13
8937.3
8938.16
8936.8
9633.3
9635.17
9635.03
9634.18
9634.56
9634.21
7946.58
7947.15
7947.41
7946.72
7946.67
7946.98
4059.8
4060.46
4060.51
4059.84
4059.77
4060.05
1204.11
1203.92
1204.15
1203.64
1203.11
1204.21
-0.835962
-0.660497
-0.71967
-0.780708
-0.950635
-0.504565
66.6904
66.9064
66.7862
66.657
66.236
66.8737
1079.3
1087.09
1084.66
1079.76
1073.09
1089.9
1259.56
1256.82
1257.63
1259
1262.45
1255.26
105.293
105.456
105.374
105.389
105.428
105.348
38.9541
39.2139
39.0616
39.121
39.2024
39.0236
-31.603
-31.9861
-31.7834
-31.7845
-31.8739
-31.7203
-35.7242
-35.6904
-35.7018
-35.6978
-35.6927
-35.7103
-21.6449
-21.6457
-21.6448
-21.6406
-21.6376
-21.647
-9.25075
-9.26269
-9.25389
-9.24415
-9.23371
-9.25865
-5.04491
-5.05844
-5.0427
-5.02472
-4.99574
-5.042
-8.05196
-8.02401
-8.01156
-8.01515
-7.99441
-7.92248
-17.6194
-17.1416
-17.2114
-17.5626
-17.6315
-16.5964
40.9974
40.6814
40.631
40.9803
40.4931
39.8309
66.9095
69.2375
68.9192
66.5117
65.9245
71.0862
642.001
651.996
651.227
639.426
632.816
663.518
3618.42
3676.5
3777.1
3841.14
3788.35
3593.6
1758.38
1747.02
1909.94
2123.3
2177.78
2228.52
759.803
756.561
823.114
988.358
1181.91
1196.62
892.482
909.116
757.681
834.271
844.741
595.805
893.737
900.227
901.597
869.34
796.479
661.465
858.141
870.57
873.257
845.893
675.725
831.609
808.12
827.481
850.598
798.111
756.459
829.437
1129.13
1030.84
1013.29
1023.56
998.038
1003.6
2498.12
2325.99
2234.35
2188.04
1926.35
2156.16
3134.35
3259.55
3310.6
3150.01
2914.9
2992.57
1971.3
2091.67
2207.68
2152.65
2161.41
2015.93
1507.29
1517.55
1569.56
1576.24
1712.8
1556.98
1821.83
1827.88
1850.31
1974.56
2009.59
1961.9
279.25
275.287
283.88
307.55
311.108
357.646
103.182
104.571
95.8974
74.8536
41.6613
58.5504
-31.3896
-31.0504
-32.0461
-43.057
-56.7455
-41.0655
-49.8537
-49.9779
-50.4991
-47.9363
-42.3158
-47.5952
-22.4232
-22.0483
-22.9058
-22.842
-22.5206
-24.2084
-10.7307
-10.9185
-12.0655
-10.3044
-11.5254
-11.6682
45.7014
29.3653
24.0723
24.4718
41.0745
22.419
756.895
512.715
535.261
444.804
184.432
384.563
1494.25
1468.42
1839.78
1452.97
623.838
1704.23
988.258
1755.84
1882.08
1737.46
577.086
1962.25
957.645
922.178
1302.24
813.137
665.82
896.633
1093.97
1040.79
855.305
1092.91
1026.53
1005.56
-31.2548
-32.2914
-29.0887
-34.0882
-36.0098
-26.9773
-32.4484
-33.7376
-38.5139
-43.0328
-46.2291
-44.9872
-40.5269
-41.4261
-42.1153
-43.0839
-42.7904
-42.0293
-27.2549
-27.2592
-27.3832
-27.2481
-26.4128
-26.1376
-13.3655
-13.0193
-13.1432
-12.4649
-10.5274
-13.1019
-3.01418
-1.96596
-2.35111
-1.42793
-0.418343
-2.41608
3.08097
4.14888
3.32818
3.91116
4.20359
4.08892
0.0948444
1.63415
0.380435
1.94317
7.70431
4.61722
44.6324
40.3771
41.2019
169.806
250.395
50.5993
2346.89
2193.03
2850.31
1797.73
1115.67
2797.78
3338.94
3852.74
3533.54
1355.23
518.347
3363.75
150.838
144.853
60.768
158.965
88.0558
370.642
-169.883
-171.425
-169.55
-174.595
-176.103
-175.957
-138.84
-139.344
-141.163
-144.763
-147.518
-146.96
-106.069
-106.035
-106.18
-106.915
-107.633
-107.508
-51.0045
-50.7807
-50.8467
-50.4513
-50.2369
-50.673
-22.2359
-22.1089
-22.1903
-22.0862
-21.6461
-22.4229
-6.85504
-6.72639
-6.91718
-7.29972
-7.39724
-7.5214
0.619357
0.790608
0.0852209
-1.42457
-2.22979
-0.946952
-3.59597
-3.56531
-4.32483
-4.30516
-3.82346
-3.67631
3.46671
3.89261
4.6492
3.04189
-0.27912
2.53141
439.07
229.218
82.5847
424.184
595.562
327.065
4009.95
4074.58
4025.97
4091.13
4317.88
3938.53
12.4071
12.465
12.4263
12.4324
12.4494
12.4182
-11.8961
-11.9132
-11.9117
-11.9162
-11.9195
-11.9145
-7.40906
-7.416
-7.41339
-7.41335
-7.41363
-7.41072
-29.3563
-29.3187
-29.3834
-29.315
-29.2904
-29.3652
-49.0255
-49.0437
-49.0355
-49.0397
-49.0416
-49.0372
-10.436
-10.4436
-10.4394
-10.4372
-10.4364
-10.4335
-28.6609
-28.8046
-28.7697
-28.743
-28.7846
-28.7351
-56.1172
-56.1233
-56.1176
-56.108
-56.107
-56.1098
-4.94383
-4.94531
-4.94186
-4.93427
-4.93143
-4.93057
-30.1703
-30.1631
-30.164
-30.1713
-30.1717
-30.1719
-29.599
-29.5973
-29.5962
-29.593
-29.5919
-29.592
-2.96953
-2.97084
-2.96894
-2.96885
-2.96855
-2.96809
-12.4507
-12.4428
-12.4463
-12.445
-12.4445
-12.4475
-12.6578
-12.6515
-12.6533
-12.6533
-12.6533
-12.651
-4.18627
-4.18606
-4.18582
-4.18622
-4.18592
-4.18579
-2.09609
-2.08971
-2.09036
-2.08876
-2.08849
-2.08914
0.997457
1.00797
1.00342
1.00107
0.997181
1.00916
-4.61654
-4.61624
-4.61629
-4.61609
-4.61645
-4.61441
2.22333
2.22305
2.22706
2.23284
2.23927
2.23294
16.5127
16.5345
16.5246
16.516
16.5039
16.5387
-6.57382
-6.57474
-6.57372
-6.57276
-6.57362
-6.57076
-3.8751
-3.88269
-3.87833
-3.83668
-3.81304
-3.85859
31.8176
31.8746
31.8514
31.8246
31.7925
31.8872
-8.76909
-8.76419
-8.76563
-8.76534
-8.77392
-8.7536
-14.6962
-14.6388
-14.6678
-14.63
-14.6606
-14.5328
42.7244
42.779
42.7595
42.7462
42.7442
42.7544
-2.89607
-2.85605
-2.875
-2.88678
-2.92085
-2.83658
10.2648
10.3706
10.2968
10.3616
10.1831
10.1421
56.1328
56.3367
56.3108
56.1265
55.9135
56.4692
3.26202
3.31788
3.31435
3.25849
3.20354
3.36033
28.6575
28.8266
28.9006
28.4358
28.4253
29.2784
53.9531
54.0253
54.054
54.0004
53.9643
54.0845
-7.86174
-7.92052
-7.88792
-7.79659
-7.67761
-7.97467
3074.03
3071.41
3073.16
3066.93
3061.28
3079.21
-37.1544
-37.2325
-37.1907
-37.2261
-37.1421
-37.1438
-22.7706
-22.8668
-22.8273
-22.7743
-22.6898
-22.8595
7831.27
7832.3
7835.69
7842.21
7843.7
7839.3
0.0155226
0.0733492
-0.00451222
-0.111458
-0.274973
-0.221123
-8.00722
-8.02327
-7.97063
-7.85549
-7.72568
-7.82649
7855.64
7858.27
7861.25
7863.17
7863.19
7862.23
-2.62221
-2.63831
-2.63771
-2.63944
-2.63227
-2.67283
-6.23171
-6.25538
-6.22745
-6.16193
-6.11441
-6.14616
7601.01
7596.24
7593.86
7609.82
7612.65
7595.21
-2.08734
-2.08764
-2.10099
-2.12308
-2.14797
-2.15249
-5.11607
-5.11065
-5.09914
-5.08677
-5.071
-5.08084
6688.61
6686.38
6682.66
6700.06
6702.92
6677.57
-4.02289
-4.02757
-4.02966
-4.03981
-4.04484
-4.02985
-5.01001
-5.00682
-5.00234
-4.99855
-4.99245
-4.99386
6447.11
6444.4
6442.05
6452.33
6452.24
6439.86
-8.43824
-8.44914
-8.44937
-8.45466
-8.4547
-8.45935
-7.24831
-7.24714
-7.24354
-7.24406
-7.24048
-7.23705
6257.81
6252.93
6251.18
6258.55
6258.04
6249.99
-12.5288
-12.5391
-12.5362
-12.5457
-12.5334
-12.5239
-11.4061
-11.4089
-11.4046
-11.4054
-11.402
-11.3991
-56.5095
-57.0855
-57.2798
-55.5951
-57.8399
-45.029
-46.2735
-46.1474
-45.8413
-44.4886
-44.0361
-37.3117
-24.1804
-24.1243
-23.6846
-22.2204
-21.9738
-23.1392
-255.476
-255.835
-253.155
-253.539
-252.451
-251.885
-176.528
-177.126
-179.787
-170.209
-177.397
-165.732
-42.9064
-42.6314
-44.4866
-37.8148
-41.7259
-37.7151
-189.527
-188.896
-192.448
-188.996
-189.629
-194.373
-145.774
-143.827
-146.636
-142.434
-143.751
-145.007
-18.1343
-16.803
-19.0484
-14.1847
-16.3572
-17.1894
-125.037
-123.925
-124.912
-123.291
-124.783
-125.727
-83.7314
-81.7991
-83.3306
-80.7784
-82.0193
-83.7794
-6.65915
-6.39514
-6.64732
-6.64662
-6.41805
-6.68884
-52.0532
-51.3567
-51.8513
-50.9048
-50.8338
-51.724
-35.6617
-35.2373
-35.5701
-34.9545
-35.0149
-35.4812
-7.32645
-7.41554
-7.12618
-7.59918
-7.27363
-7.33812
-24.5403
-24.4329
-24.4553
-24.3617
-24.2594
-24.4845
-18.2011
-18.1445
-18.1582
-18.1243
-18.0343
-18.1943
-7.82304
-7.84249
-7.76746
-7.88075
-7.80065
-7.83249
-10.0692
-10.0295
-10.0701
-10.1597
-10.136
-10.2519
-9.10683
-9.10474
-9.12503
-9.1727
-9.17917
-9.21472
-5.2804
-5.28625
-5.27496
-5.30775
-5.29222
-5.3051
-3.29806
-3.20758
-3.40241
-3.69707
-3.78623
-3.80454
-5.13643
-5.1475
-5.20496
-5.29611
-5.33643
-5.35528
-4.04801
-4.05126
-4.05837
-4.08252
-4.08345
-4.09658
1.36167
1.96424
1.80745
1.5481
1.33988
1.51132
-3.63519
-3.66137
-3.6956
-3.77459
-3.80257
-3.67438
-1.7369
-1.70433
-1.72043
-1.73218
-1.73144
-1.74628
4.34227
4.49082
4.68733
3.31663
2.97416
3.97341
-5.62805
-5.89472
-5.75521
-5.94111
-5.90438
-5.59254
-3.56788
-3.55845
-3.56364
-3.58567
-3.59908
-3.5986
-4.83013
-4.03178
-3.31455
44.119
6.62168
4.72715
-7.85162
-8.07683
-7.77021
-7.987
-7.50156
-7.27819
-2.61353
-2.47054
-2.57882
-2.80763
-2.6239
-2.54609
3697.1
3769.17
3580.74
4293.17
4155.66
4085.88
-6.62921
-6.61551
-6.6661
-6.60569
-6.66538
-6.92074
-16.3472
-16.8048
-16.7368
-15.9821
-15.4686
-16.2978
)
;

boundaryField
{
    seabed_topleft_surface
    {
        type            fixedFluxPressure;
        gradient        uniform 0;
        value           nonuniform List<scalar> 
72
(
4207.61
4207.76
4207.7
4207.71
4207.73
4207.64
6007.15
6007.34
6007.19
6007.17
6007.24
6007.18
10397.2
10397.4
10397.2
10397.2
10397.3
10397.2
16426.4
16426.4
16426.2
16426.2
16426.3
16426.4
19512.8
19512.6
19512.5
19512.6
19512.5
19512.6
20031.3
20031.2
20031.1
20031.1
20031.1
20031.3
19486.8
19487
19486.9
19486.9
19487
19486.9
18474.2
18474.5
18474.4
18474.4
18474.7
18474.3
17188.1
17187.7
17188.1
17188.1
17189
17187.3
16335.3
16334.5
16335.2
16334.5
16335.1
16334.4
16226.9
16228.9
16229.1
16225.8
16223.9
16231.8
15849
15850.7
15850.2
15849
15847.1
15852.8
)
;
    }
    seabed_topright_surface
    {
        type            fixedFluxPressure;
        gradient        uniform 0;
        value           nonuniform List<scalar> 
72
(
3618.42
3676.5
3777.1
3841.14
3788.35
3593.6
1758.38
1747.02
1909.94
2123.3
2177.78
2228.52
759.803
756.561
823.114
988.358
1181.91
1196.62
892.482
909.116
757.681
834.271
844.741
595.805
893.737
900.227
901.597
869.34
796.479
661.465
858.141
870.57
873.257
845.893
675.725
831.609
808.12
827.481
850.598
798.111
756.459
829.437
1129.13
1030.84
1013.29
1023.56
998.038
1003.6
2498.12
2325.99
2234.35
2188.04
1926.35
2156.16
3134.35
3259.55
3310.6
3150.01
2914.9
2992.57
1971.3
2091.67
2207.68
2152.65
2161.41
2015.93
1507.29
1517.55
1569.56
1576.24
1712.8
1556.98
)
;
    }
    breakwater_top_surface
    {
        type            fixedFluxPressure;
        gradient        uniform 0;
        value           nonuniform List<scalar> 
36
(
7831.27
7832.3
7835.69
7842.21
7843.7
7839.3
7855.64
7858.27
7861.25
7863.17
7863.19
7862.23
7601.01
7596.24
7593.86
7609.82
7612.65
7595.21
6688.61
6686.38
6682.66
6700.06
6702.92
6677.57
6447.11
6444.4
6442.05
6452.33
6452.24
6439.86
6257.81
6252.93
6251.18
6258.55
6258.04
6249.99
)
;
    }
    breakwater_left_surface
    {
        type            fixedFluxPressure;
        gradient        uniform 0;
        value           nonuniform List<scalar> 
24
(
15849
15850.7
15850.2
15849
15847.1
15852.8
10665.4
10664.6
10665.5
10663.3
10661.7
10671
1259.56
1256.82
1257.63
1259
1262.45
1255.26
642.001
651.996
651.227
639.426
632.816
663.518
)
;
    }
    breakwater_right_surface
    {
        type            fixedFluxPressure;
        gradient        uniform 0;
        value           nonuniform List<scalar> 
24
(
1507.29
1517.55
1569.56
1576.24
1712.8
1556.98
957.645
922.178
1302.24
813.137
665.82
896.633
3338.94
3852.74
3533.54
1355.23
518.347
3363.75
4009.95
4074.58
4025.97
4091.13
4317.88
3938.53
)
;
    }
    water_front_surface
    {
        type            fixedFluxPressure;
        gradient        uniform 0;
        value           nonuniform List<scalar> 
186
(
4207.61
6007.15
10397.2
16426.4
19512.8
20031.3
19486.8
18474.2
17188.1
16335.3
16226.9
15849
526.871
1729.61
7420.08
17017.5
20888.4
20717.9
18668.2
15212
11505.7
10118.3
11389.1
10665.4
242.066
349.325
4489.15
8935.47
9633.3
7946.58
4059.8
1204.11
-0.835962
66.6904
1079.3
1259.56
105.293
38.9541
-31.603
-35.7242
-21.6449
-9.25075
-5.04491
-8.05196
-17.6194
40.9974
66.9095
642.001
3618.42
1758.38
759.803
892.482
893.737
858.141
808.12
1129.13
2498.12
3134.35
1971.3
1507.29
1821.83
279.25
103.182
-31.3896
-49.8537
-22.4232
-10.7307
45.7014
756.895
1494.25
988.258
957.645
1093.97
-31.2548
-32.4484
-40.5269
-27.2549
-13.3655
-3.01418
3.08097
0.0948444
44.6324
2346.89
3338.94
150.838
-169.883
-138.84
-106.069
-51.0045
-22.2359
-6.85504
0.619357
-3.59597
3.46671
439.07
4009.95
12.4071
-11.8961
-7.40906
-29.3563
-49.0255
-10.436
-28.6609
-56.1172
-4.94383
-30.1703
-29.599
-2.96953
-12.4507
-12.6578
-4.18627
-2.09609
0.997457
-4.61654
2.22333
16.5127
-6.57382
-3.8751
31.8176
-8.76909
-14.6962
42.7244
-2.89607
10.2648
56.1328
3.26202
28.6575
53.9531
-7.86174
3074.03
-37.1544
-22.7706
7831.27
0.0155226
-8.00722
7855.64
-2.62221
-6.23171
7601.01
-2.08734
-5.11607
6688.61
-4.02289
-5.01001
6447.11
-8.43824
-7.24831
6257.81
-12.5288
-11.4061
-56.5095
-46.2735
-24.1804
-255.476
-176.528
-42.9064
-189.527
-145.774
-18.1343
-125.037
-83.7314
-6.65915
-52.0532
-35.6617
-7.32645
-24.5403
-18.2011
-7.82304
-10.0692
-9.10683
-5.2804
-3.29806
-5.13643
-4.04801
1.36167
-3.63519
-1.7369
4.34227
-5.62805
-3.56788
-4.83013
-7.85162
-2.61353
3697.1
-6.62921
-16.3472
)
;
    }
    water_back_surface
    {
        type            fixedFluxPressure;
        gradient        uniform 0;
        value           nonuniform List<scalar> 
186
(
4207.64
6007.18
10397.2
16426.4
19512.6
20031.3
19486.9
18474.3
17187.3
16334.4
16231.8
15852.8
526.966
1729.75
7420.66
17017.7
20888.3
20717.9
18668.2
15212.1
11505.4
10118.1
11399.9
10671
242.14
349.589
4491.73
8936.8
9634.21
7946.98
4060.05
1204.21
-0.504565
66.8737
1089.9
1255.26
105.348
39.0236
-31.7203
-35.7103
-21.647
-9.25865
-5.042
-7.92248
-16.5964
39.8309
71.0862
663.518
3593.6
2228.52
1196.62
595.805
661.465
831.609
829.437
1003.6
2156.16
2992.57
2015.93
1556.98
1961.9
357.646
58.5504
-41.0655
-47.5952
-24.2084
-11.6682
22.419
384.563
1704.23
1962.25
896.633
1005.56
-26.9773
-44.9872
-42.0293
-26.1376
-13.1019
-2.41608
4.08892
4.61722
50.5993
2797.78
3363.75
370.642
-175.957
-146.96
-107.508
-50.673
-22.4229
-7.5214
-0.946952
-3.67631
2.53141
327.065
3938.53
12.4182
-11.9145
-7.41072
-29.3652
-49.0372
-10.4335
-28.7351
-56.1098
-4.93057
-30.1719
-29.592
-2.96809
-12.4475
-12.651
-4.18579
-2.08914
1.00916
-4.61441
2.23294
16.5387
-6.57076
-3.85859
31.8872
-8.7536
-14.5328
42.7544
-2.83658
10.1421
56.4692
3.36033
29.2784
54.0845
-7.97467
3079.21
-37.1438
-22.8595
7839.3
-0.221123
-7.82649
7862.23
-2.67283
-6.14616
7595.21
-2.15249
-5.08084
6677.57
-4.02985
-4.99386
6439.86
-8.45935
-7.23705
6249.99
-12.5239
-11.3991
-45.029
-37.3117
-23.1392
-251.885
-165.732
-37.7151
-194.373
-145.007
-17.1894
-125.727
-83.7794
-6.68884
-51.724
-35.4812
-7.33812
-24.4845
-18.1943
-7.83249
-10.2519
-9.21472
-5.3051
-3.80454
-5.35528
-4.09658
1.51132
-3.67438
-1.74628
3.97341
-5.59254
-3.5986
4.72715
-7.27819
-2.54609
4085.88
-6.92074
-16.2978
)
;
    }
    water_left_surface
    {
        type            fixedFluxPressure;
        gradient        uniform 0;
        value           nonuniform List<scalar> 
42
(
4207.61
4207.76
4207.7
4207.71
4207.73
4207.64
526.871
527.131
527.042
527.056
527.093
526.966
242.066
242.233
242.154
242.179
242.217
242.14
105.293
105.456
105.374
105.389
105.428
105.348
12.4071
12.465
12.4263
12.4324
12.4494
12.4182
-11.8961
-11.9132
-11.9117
-11.9162
-11.9195
-11.9145
-7.40906
-7.416
-7.41339
-7.41335
-7.41363
-7.41072
)
;
    }
    water_right_surface
    {
        type            fixedFluxPressure;
        gradient        uniform 0;
        value           nonuniform List<scalar> 
42
(
3618.42
3676.5
3777.1
3841.14
3788.35
3593.6
1821.83
1827.88
1850.31
1974.56
2009.59
1961.9
1093.97
1040.79
855.305
1092.91
1026.53
1005.56
150.838
144.853
60.768
158.965
88.0558
370.642
-56.5095
-57.0855
-57.2798
-55.5951
-57.8399
-45.029
-46.2735
-46.1474
-45.8413
-44.4886
-44.0361
-37.3117
-24.1804
-24.1243
-23.6846
-22.2204
-21.9738
-23.1392
)
;
    }
    water_top_surface
    {
        type            totalPressure;
        rho             rho;
        psi             none;
        gamma           1;
        p0              uniform 0;
        value           nonuniform List<scalar> 
180
(
0
0
0
0
0
0
0
0
0
0
0
0
0
0
0
0
0
0
-4.152
-4.15071
-4.15131
-4.15316
-4.15285
-4.15426
-6.93334
-6.92961
-6.93176
-6.93253
-6.93183
-6.93221
-4.53003
-4.52445
-4.52756
-4.52836
-4.52754
-4.52626
-0.910561
-0.90596
-0.908325
-0.909336
-0.908838
-0.907649
-0.0374058
-0.0389759
-0.0381775
-0.0377032
-0.0374613
-0.0383916
0
0
0
0
0
0
0
0
0
0
0
0
-0.62581
-0.632252
-0.629468
-0.617514
-0.595659
-0.648484
-9.92172
-9.89972
-9.88688
-9.93967
-9.97752
-9.83397
-2.78139
-2.79963
-2.78039
-2.73945
-2.75863
-2.76699
-3.40632
-3.43059
-3.41454
-3.34737
-3.33387
-3.43778
-2.9768
-2.978
-2.97148
-2.971
-2.98944
-2.93292
-3.52177
-3.52256
-3.50879
-3.5361
-3.56375
-3.45408
-5.98996
-5.99518
-5.97845
-6.01112
-6.04154
-5.93415
-5.38756
-5.39531
-5.38325
-5.4008
-5.41665
-5.36067
0
0
0
0
0
0
0
0
0
0
0
0
0
0
0
0
0
0
-2.971
-3.04927
-2.49428
-3.49212
-3.04537
-2.85178
-5.58777
-5.55578
-5.59379
-5.55396
-5.44967
-5.67036
-5.25523
-5.25323
-5.25304
-5.26327
-5.23327
-5.26624
-3.88572
-3.88523
-3.88736
-3.89682
-3.89431
-3.9036
-3.84835
-3.84847
-3.85658
-3.87057
-3.87243
-3.87959
-2.60271
-2.59918
-2.60359
-2.61286
-2.61678
-2.60013
-4.35187
-4.38529
-4.37936
-4.50565
-4.56873
-4.39621
-4.86123
-4.89153
-4.78304
-5.01134
-4.99456
-4.63484
-3.88404
-3.71652
-3.7808
-3.71416
-3.99127
-3.93335
)
;
    }
}


// ************************************************************************* //
