/*--------------------------------*- C++ -*----------------------------------*\
| =========                 |                                                 |
| \\      /  F ield         | OpenFOAM: The Open Source CFD Toolbox           |
|  \\    /   O peration     | Version:  v1612+                                |
|   \\  /    A nd           | Web:      www.OpenFOAM.com                      |
|    \\/     M anipulation  |                                                 |
\*---------------------------------------------------------------------------*/
FoamFile
{
    version     2.0;
    format      ascii;
    class       volScalarField;
    location    "6.55";
    object      p;
}
// * * * * * * * * * * * * * * * * * * * * * * * * * * * * * * * * * * * * * //

dimensions      [1 -1 -2 0 0 0 0];

internalField   nonuniform List<scalar> 
320
(
14724.8
14724.8
14724.8
14724.8
4.97977
4.98417
4.98282
4.98282
4.98316
4.98221
4.98228
4.98286
4.98161
4.98209
4.98293
4.98322
4914.86
4914.86
4914.85
4914.86
4914.9
4914.88
4914.87
4914.88
4914.87
4914.89
4914.87
4914.9
14724.8
14724.8
14724.8
14724.8
14724.8
14724.8
14724.8
14724.8
14724.8
14724.8
14724.8
14724.8
24534.8
24534.8
24534.8
24534.8
24534.8
24534.8
24534.8
24534.8
24534.8
24534.8
24534.8
24534.8
24534.8
24534.8
24534.8
24534.8
4.98125
4.98185
4.98205
4.98234
4.98211
4.9819
4.98269
4.98257
4.982
4.97955
4.98135
4.98138
4.98137
4.98178
4.98103
4.98157
4.98193
4.98194
4.98328
4.98209
4914.84
4914.88
4914.86
4914.88
4914.83
4914.83
4914.85
4914.85
4914.88
4914.84
4914.86
4914.85
4914.88
4914.86
4914.86
4914.88
4914.87
4914.9
4914.91
4914.88
14724.8
14724.8
14724.8
14724.8
14724.8
14724.8
14724.8
14724.8
14724.8
14724.8
14724.8
14724.8
14724.8
14724.8
14724.8
14724.8
14724.8
14724.8
14724.8
14724.8
24534.8
24534.8
24534.8
24534.8
24534.8
24534.8
24534.8
24534.8
24534.8
24534.8
24534.8
24534.8
24534.8
24534.8
24534.8
24534.8
24534.8
24534.8
24534.8
24534.8
34344.8
34344.8
34344.8
34344.8
34344.8
34344.8
34344.8
34344.8
34344.8
34344.8
34344.8
34344.8
34344.8
34344.8
34344.8
34344.8
34344.8
34344.8
34344.8
34344.8
34344.8
34344.8
34344.8
34344.8
34344.8
34344.8
34344.8
34344.8
34344.8
34344.8
34344.8
34344.8
34344.8
34344.8
34344.8
34344.8
4.98175
4.9815
4.98055
4.98163
4.98161
4.98049
4.9777
4.98681
4.9816
4.98222
4.98255
4.99001
4.9782
4.97925
4.98093
4.98009
4.98166
4.981
4.9817
4.98123
4.98073
4.98048
4.98083
4.98241
4.98157
4.98224
4.98242
4.98311
4914.89
4914.83
4914.88
4914.86
4914.85
4914.84
4914.78
4914.84
4914.84
4914.89
4914.88
4914.94
4914.89
4914.88
4914.88
4914.87
4914.88
4914.84
4914.9
4914.87
4914.88
4914.89
4914.91
4914.9
4914.84
4914.87
4914.9
4914.95
14724.8
14724.8
14724.8
14724.8
14724.8
14724.8
14724.7
14724.8
14724.8
14724.8
14724.8
14724.8
14724.8
14724.8
14724.8
14724.8
14724.8
14724.8
14724.8
14724.8
14724.8
14724.8
14724.8
14724.8
14724.8
14724.8
14724.8
14724.8
24534.8
24534.8
24534.8
24534.8
24534.8
24534.8
24534.8
24534.8
24534.8
24534.8
24534.8
24534.8
24534.8
24534.8
24534.8
24534.8
24534.8
24534.8
24534.8
24534.8
24534.8
24534.8
24534.8
24534.8
24534.8
24534.8
24534.8
24534.8
34344.8
34344.8
34344.8
34344.8
34344.8
34344.8
34344.8
34344.8
34344.8
34344.8
34344.8
34344.8
34344.8
34344.8
34344.8
34344.8
34344.8
34344.8
34344.8
34344.8
34344.8
34344.8
34344.8
34344.8
34344.8
34344.8
34344.8
34344.8
4.98366
4.98315
4.9829
4.98252
4914.89
4914.9
4914.9
4914.86
)
;

boundaryField
{
    top_fluid_surface
    {
        type            calculated;
        value           nonuniform List<scalar> 
64
(
-4.96773e-09
0
0
0
-1.60242e-09
-5.99317e-09
-3.66225e-09
-5.82679e-09
-7.31248e-09
-2.39863e-09
0
-1.12434e-08
0
-1.16072e-08
0
-6.53138e-10
0
0
0
0
-9.73956e-10
0
0
0
-7.10409e-09
0
0
0
0
-2.85301e-09
-4.6996e-09
0
-5.74787e-09
0
-1.12289e-08
0
0
0
0
0
0
-3.34052e-08
-1.06128e-08
-6.29787e-09
-3.27626e-08
-9.24419e-11
-2.52736e-10
-1.78236e-10
-1.25982e-08
0
-5.98171e-09
-7.68904e-09
-2.39724e-08
-5.11051e-11
-1.42852e-10
-1.20136e-08
0
-5.49682e-10
-1.5953e-08
-1.48962e-07
-1.02337e-08
-7.1682e-11
-1.96118e-10
0
)
;
    }
    bottom_fluid_surface
    {
        type            calculated;
        value           nonuniform List<scalar> 
64
(
39249.8
39249.8
39249.8
39249.8
39249.8
39249.8
39249.8
39249.8
39249.8
39249.8
39249.8
39249.8
39249.8
39249.8
39249.8
39249.8
39249.8
39249.8
39249.8
39249.8
39249.8
39249.8
39249.8
39249.8
39249.8
39249.8
39249.8
39249.8
39249.8
39249.8
39249.8
39249.8
39249.8
39249.8
39249.8
39249.8
39249.8
39249.8
39249.8
39249.8
39249.8
39249.8
39249.8
39249.8
39249.8
39249.8
39249.8
39249.8
39249.8
39249.8
39249.8
39249.8
39249.8
39249.8
39249.8
39249.8
39249.8
39249.8
39249.8
39249.8
39249.8
39249.8
39249.8
39249.8
)
;
    }
    lateral_surface_1
    {
        type            calculated;
        value           nonuniform List<scalar> 
40
(
4.98175
4.9815
4.98055
4.98163
4.98161
4.98049
4.9777
4.98311
4914.89
4914.83
4914.88
4914.86
4914.85
4914.84
4914.78
4914.95
14724.8
14724.8
14724.8
14724.8
14724.8
14724.8
14724.7
14724.8
24534.8
24534.8
24534.8
24534.8
24534.8
24534.8
24534.8
24534.8
34344.8
34344.8
34344.8
34344.8
34344.8
34344.8
34344.8
34344.8
)
;
    }
    lateral_surface_2
    {
        type            calculated;
        value           nonuniform List<scalar> 
40
(
4.97925
4.98093
4.98009
4.98166
4.981
4.9817
4.98123
4.98073
4914.88
4914.88
4914.87
4914.88
4914.84
4914.9
4914.87
4914.88
14724.8
14724.8
14724.8
14724.8
14724.8
14724.8
14724.8
14724.8
24534.8
24534.8
24534.8
24534.8
24534.8
24534.8
24534.8
24534.8
34344.8
34344.8
34344.8
34344.8
34344.8
34344.8
34344.8
34344.8
)
;
    }
    lateral_surface_3
    {
        type            calculated;
        value           nonuniform List<scalar> 
40
(
4.9777
4.98681
4.9816
4.98222
4.98255
4.99001
4.9782
4.97925
4914.78
4914.84
4914.84
4914.89
4914.88
4914.94
4914.89
4914.88
14724.7
14724.8
14724.8
14724.8
14724.8
14724.8
14724.8
14724.8
24534.8
24534.8
24534.8
24534.8
24534.8
24534.8
24534.8
24534.8
34344.8
34344.8
34344.8
34344.8
34344.8
34344.8
34344.8
34344.8
)
;
    }
    lateral_surface_4
    {
        type            calculated;
        value           nonuniform List<scalar> 
40
(
4.98073
4.98048
4.98083
4.98241
4.98157
4.98224
4.98242
4.98311
4914.88
4914.89
4914.91
4914.9
4914.84
4914.87
4914.9
4914.95
14724.8
14724.8
14724.8
14724.8
14724.8
14724.8
14724.8
14724.8
24534.8
24534.8
24534.8
24534.8
24534.8
24534.8
24534.8
24534.8
34344.8
34344.8
34344.8
34344.8
34344.8
34344.8
34344.8
34344.8
)
;
    }
}


// ************************************************************************* //
