/*--------------------------------*- C++ -*----------------------------------*\
| =========                 |                                                 |
| \\      /  F ield         | OpenFOAM: The Open Source CFD Toolbox           |
|  \\    /   O peration     | Version:  v1612+                                |
|   \\  /    A nd           | Web:      www.OpenFOAM.com                      |
|    \\/     M anipulation  |                                                 |
\*---------------------------------------------------------------------------*/
FoamFile
{
    version     2.0;
    format      ascii;
    class       surfaceScalarField;
    location    "6.55";
    object      phi;
}
// * * * * * * * * * * * * * * * * * * * * * * * * * * * * * * * * * * * * * //

dimensions      [0 3 -1 0 0 0 0];

internalField   nonuniform List<scalar> 
816
(
-2.30862e-06
-1.03538e-05
3.59122e-06
-9.66591e-06
-1.46358e-05
3.33727e-05
3.9014e-06
6.392e-06
-1.99032e-06
8.5829e-06
-1.92017e-05
-5.63224e-06
1.08417e-06
2.98994e-06
6.38329e-06
-1.51836e-05
-2.14437e-06
7.83259e-06
7.98923e-06
-1.54027e-05
0.000678189
-0.000501872
8.91949e-06
-8.80131e-05
4.1616e-05
0.000553835
-5.57034e-06
0.000111231
-0.0001008
-0.00016694
-2.03821e-05
1.33432e-05
0.000515304
-0.0001317
-3.82387e-06
0.000265757
-0.000316628
1.68025e-05
-1.63703e-06
0.000327699
-0.000338963
-0.000136507
-2.65109e-06
0.000162068
0.000186961
-0.000169524
-1.39447e-05
3.57304e-05
0.000180132
1.3278e-05
-1.28617e-05
0.00010911
-2.98737e-05
3.03453e-05
6.20469e-06
0.000133279
2.8497e-05
3.10776e-05
3.21166e-06
-0.000170455
0.000263875
-0.000156534
-3.25722e-06
-0.000146998
3.87573e-05
8.15251e-06
-6.13247e-05
-0.000329081
2.15623e-05
-2.99314e-06
-2.30139e-05
-2.22604e-06
1.40667e-05
2.7547e-05
-2.62379e-05
2.58014e-06
1.17074e-05
-3.88947e-06
-5.45409e-06
-3.6015e-06
1.99054e-05
-7.14165e-06
1.35652e-05
-4.84522e-06
-4.48139e-06
5.46266e-08
-4.90212e-06
-3.58069e-07
-2.59524e-06
7.93964e-06
-2.65168e-05
3.35749e-06
1.22042e-05
4.85333e-06
-2.60016e-05
-5.02777e-06
2.15405e-05
4.09608e-06
3.05595e-06
-1.76791e-05
1.93118e-06
7.07042e-06
-3.40841e-05
1.57847e-05
2.1236e-05
2.18887e-05
-2.83728e-05
4.25951e-06
1.20908e-05
-4.60453e-06
3.00626e-05
3.39079e-06
-1.15609e-05
-1.30929e-05
6.40436e-06
5.36722e-06
-5.84662e-06
-1.80156e-06
-1.11227e-05
-6.66473e-07
-1.03464e-05
-1.14824e-05
-3.85464e-06
-3.46141e-07
-2.85289e-06
-5.82797e-07
-1.20192e-05
1.88046e-06
5.0014e-06
4.3417e-06
-2.28902e-06
-3.02693e-06
1.41903e-07
-1.34105e-06
-1.27046e-05
-3.45688e-06
-1.13069e-05
-4.35659e-06
-1.17924e-05
-3.36708e-06
-7.40323e-06
1.1045e-06
6.07242e-06
-3.3533e-06
-1.52022e-05
-6.38888e-06
-1.65422e-05
-1.0443e-05
-1.28735e-05
-5.42249e-06
7.19368e-07
1.30818e-05
-3.85386e-06
-6.91212e-06
-2.99693e-06
-4.26073e-06
-1.14301e-06
-6.03662e-06
2.36716e-06
-5.24244e-06
-4.58511e-06
1.56762e-06
4.18152e-06
-1.32463e-06
3.01833e-06
-3.01191e-06
6.78305e-07
1.41068e-06
1.25868e-06
-8.68902e-07
4.00825e-06
3.39867e-06
-2.92063e-06
-1.55433e-06
-6.43637e-07
-3.64312e-06
-5.89132e-06
-2.32461e-06
-2.01212e-06
-3.29848e-07
-6.27991e-07
-7.14044e-06
-6.44323e-07
1.6125e-06
2.05929e-06
-3.39175e-07
-1.45002e-06
2.67883e-07
-1.11224e-06
-1.19752e-06
-1.94196e-06
-7.1653e-06
-3.8549e-06
-2.59138e-06
-2.18805e-06
-4.21085e-06
-4.19512e-06
3.59601e-06
-2.16588e-07
-1.12657e-06
-4.61841e-06
-9.3008e-06
-4.35187e-06
-5.63619e-06
-3.371e-06
-3.58154e-06
4.2177e-07
-2.22493e-06
4.00847e-06
-2.25793e-06
-3.47909e-06
-2.30978e-06
0.000272544
-0.000339141
3.01755e-06
-6.79335e-05
0.00051089
1.08036e-05
-6.52245e-05
0.00040695
-2.40376e-06
3.90342e-05
0.00050492
-8.55607e-06
6.31228e-06
1.19407e-05
1.17287e-06
-0.000202675
-6.55674e-05
-0.000270035
-6.65987e-06
-7.98015e-05
-0.000384741
-8.97849e-06
-0.000247252
-0.0005064
-4.54933e-06
-0.000245238
-0.000210576
1.50965e-05
-9.17359e-05
0.000141497
-5.68112e-06
-0.000344386
-0.000166916
-0.000112406
4.16881e-06
-3.60945e-05
-0.00039375
1.51391e-06
-0.000286195
-0.000126159
-1.51797e-06
3.25877e-05
-0.000125765
-9.1187e-06
-0.000203834
1.47729e-05
1.6031e-06
-0.000236091
-0.000235341
-0.000117361
5.59447e-06
-5.28743e-05
-0.000304906
-4.97749e-06
-0.000276858
-0.000212999
2.84503e-07
-8.48772e-05
-0.000171194
6.22666e-06
-0.000194863
1.1357e-06
-0.000226896
-0.000368301
-1.41811e-05
1.43312e-06
1.39864e-05
7.63495e-06
1.01643e-05
-1.45006e-05
8.54025e-07
1.09472e-05
-1.28792e-05
1.22729e-05
2.10481e-06
-4.89542e-06
-5.81459e-07
1.66512e-05
3.48829e-05
-2.88998e-05
-2.63001e-05
-7.38469e-07
4.45344e-05
-1.52189e-05
-1.46871e-05
3.31805e-05
-3.35472e-05
-3.94898e-05
5.8946e-05
-3.82799e-05
-2.32762e-05
-3.60481e-06
-3.86423e-06
1.62978e-05
-1.60219e-05
-9.13246e-06
-1.83789e-05
-3.04964e-07
3.88963e-05
-5.97769e-06
-2.06656e-05
4.45764e-05
-2.93776e-05
5.23155e-06
-3.95887e-05
-4.75618e-06
-1.57148e-06
2.89177e-05
-1.51293e-05
1.98428e-05
2.41304e-05
-2.67866e-05
-1.76739e-05
4.23004e-06
3.55278e-05
6.65581e-06
-1.68739e-05
4.15476e-05
-2.07553e-05
-1.33462e-05
7.59905e-06
-7.18681e-06
-4.11682e-06
2.22045e-06
-6.24469e-07
3.54812e-05
-1.63311e-05
-2.00434e-05
7.96538e-06
-2.95055e-07
7.45579e-06
-4.14159e-06
-1.60988e-07
-7.37057e-06
3.3744e-07
-2.47765e-06
-4.97549e-06
-9.43892e-06
1.26521e-07
-2.88895e-06
-5.19223e-06
-8.1452e-06
1.65418e-05
1.23006e-05
1.43075e-05
-1.66902e-07
2.04472e-05
4.09037e-06
4.65305e-06
1.50586e-05
1.76385e-05
1.59372e-05
2.6613e-05
2.11866e-05
9.38281e-06
-2.31991e-06
1.80901e-06
-9.32894e-06
-5.91936e-06
2.92954e-06
5.64361e-06
1.8376e-06
1.75014e-05
-1.08282e-06
1.21143e-05
2.01947e-05
1.07355e-05
-4.31742e-06
-1.81588e-05
1.07089e-06
-4.56777e-06
1.4027e-05
8.75162e-06
-1.14945e-05
1.11556e-05
1.59628e-05
3.93716e-06
6.68283e-07
1.565e-05
-8.82213e-06
1.01161e-05
1.86577e-05
8.02025e-06
5.77607e-06
3.50317e-06
4.57138e-06
1.87349e-06
1.13064e-06
7.33688e-07
1.56351e-05
8.26765e-06
1.3167e-05
5.12499e-06
-1.07258e-07
2.7288e-06
-2.54045e-06
2.21778e-07
-2.51901e-06
-5.91314e-07
-1.76806e-06
3.39964e-07
-5.65682e-06
-3.39706e-07
-1.31704e-06
-3.63155e-06
-4.43343e-06
4.821e-06
7.55373e-06
8.24956e-06
-3.20708e-07
7.25471e-06
1.90738e-06
2.63358e-06
4.74218e-06
9.41455e-06
8.95403e-06
8.4697e-06
1.20775e-05
4.94635e-06
-8.81449e-07
5.9113e-07
-5.29824e-06
-2.21625e-07
1.67209e-06
2.8675e-06
1.06318e-06
5.13251e-06
-1.17073e-06
6.76488e-06
6.63981e-06
5.65476e-06
-3.44379e-06
-4.70179e-06
3.44691e-07
-2.96324e-06
4.33307e-06
4.59541e-06
-5.5479e-06
3.35081e-06
8.28153e-06
2.10609e-06
6.38956e-07
5.61109e-06
-5.44456e-06
5.83716e-06
5.76215e-06
4.3341e-06
3.13015e-06
1.79302e-06
2.18775e-06
1.2048e-06
2.57569e-07
-6.79163e-07
4.06335e-06
4.92364e-06
7.75348e-06
2.3741e-07
-3.09576e-06
1.47488e-06
-3.2084e-06
1.52728e-06
7.75394e-07
9.48125e-07
-2.25906e-06
-3.09785e-07
7.23861e-07
-4.13951e-07
3.07512e-06
-2.48207e-06
-1.02223e-07
4.11628e-07
-2.40217e-06
-1.32687e-06
-1.51087e-07
2.43698e-07
-3.14297e-06
-4.88514e-07
9.38593e-07
-1.40781e-06
-6.17168e-07
-9.05499e-07
-6.51481e-07
-3.71337e-06
-1.48255e-06
-5.74008e-07
-2.92349e-06
9.12312e-07
-1.29659e-06
-1.18805e-06
-4.78967e-06
-2.75902e-06
-1.40357e-06
-7.9324e-08
-1.88201e-06
-1.58103e-06
-9.11317e-07
2.33458e-06
-2.0263e-08
-1.16276e-06
-9.43383e-08
3.16086e-07
6.53706e-07
-1.73933e-06
4.11864e-07
-8.42342e-07
-2.01523e-06
2.88784e-06
4.34423e-06
2.85993e-07
1.79224e-06
1.36532e-06
4.59807e-06
4.28633e-06
4.9349e-06
1.75125e-06
9.85686e-07
-1.52351e-06
1.10689e-06
1.93187e-06
5.39431e-07
-6.61539e-07
3.31033e-06
3.28984e-06
-9.95289e-07
5.16315e-07
-1.05971e-06
3.21523e-06
-2.62763e-06
3.97749e-06
9.50579e-07
4.05158e-07
-2.20552e-06
2.92313e-06
1.84369e-06
2.38224e-06
4.49699e-07
1.27541e-06
4.49796e-07
2.31821e-06
3.0028e-06
0.00057753
-0.000617807
4.51012e-06
0.000490293
-3.70909e-06
0.000707168
2.8658e-07
0.000419685
5.55166e-06
0.00032072
1.15101e-05
-6.64697e-07
-2.80373e-06
9.38704e-06
-5.09416e-06
-0.000132416
-2.00397e-06
-0.000427754
1.32786e-05
-0.000210705
-2.53449e-06
-0.000252604
6.8735e-06
-4.6385e-05
7.76321e-06
1.52554e-05
6.25646e-06
5.69896e-05
6.60432e-06
-9.23041e-05
6.90247e-06
-0.000140488
1.56199e-05
-0.000180277
1.47001e-05
-0.000165808
-5.89536e-06
-0.000148988
-7.33747e-06
-0.000148858
-6.40043e-06
0.000208097
8.53567e-06
-3.61563e-05
1.24556e-05
-8.96246e-05
2.27002e-05
-9.79746e-05
3.07852e-06
-0.000298507
-6.79808e-06
-0.000426259
8.34357e-07
-0.000455064
-5.26086e-06
-4.81057e-06
1.19633e-05
-1.35859e-05
-9.4656e-06
3.95171e-06
1.55122e-05
1.78854e-05
-1.26263e-05
-1.11078e-06
3.53465e-05
-1.79746e-05
2.81939e-05
-2.26656e-05
-1.43112e-05
1.98405e-05
-4.90092e-05
1.17059e-05
-2.35752e-05
-1.61834e-05
2.57663e-05
-8.2286e-06
-4.26496e-05
9.27941e-06
-6.28343e-05
1.25047e-05
-9.08529e-06
7.42573e-06
5.3591e-06
-1.05906e-05
2.31079e-05
-3.61579e-06
-1.8442e-05
-3.13399e-06
6.70147e-06
3.3874e-07
-1.81312e-05
6.43049e-07
-9.9349e-06
-7.13488e-06
-1.47008e-05
-1.60267e-05
-2.49214e-05
3.03326e-05
-3.82702e-05
1.20973e-05
1.22692e-05
-3.9817e-06
4.43511e-05
3.74589e-06
-2.35237e-05
-5.79735e-06
-4.26309e-06
-1.03552e-05
5.34807e-06
-5.90139e-06
-2.94895e-05
-2.44299e-05
-5.0144e-06
8.44978e-06
-4.63138e-06
-1.667e-06
8.04567e-06
-8.48276e-06
-5.46833e-06
1.49957e-06
1.59218e-05
1.21655e-05
1.2333e-05
1.68336e-05
-6.69532e-06
-1.06681e-05
-2.15306e-05
-8.21604e-06
-1.17221e-05
1.05075e-05
1.11365e-05
4.00793e-06
-1.85137e-05
-9.58967e-06
-2.80476e-05
-1.22905e-05
-4.55552e-06
-6.56833e-06
2.56464e-06
6.14505e-06
1.03917e-05
1.57039e-06
-8.22413e-06
3.53835e-06
3.64228e-06
4.39885e-06
-8.25696e-06
5.48111e-07
-5.01364e-06
1.95545e-06
-7.35764e-06
3.01987e-06
-1.0022e-05
-1.81171e-05
-1.71337e-05
-7.87292e-06
5.96948e-06
7.81499e-06
1.98547e-05
2.7752e-06
-1.04491e-05
4.13527e-06
-1.05479e-06
6.84751e-06
3.36871e-06
3.8e-06
-1.32718e-05
-1.21694e-05
-3.38825e-06
5.26089e-06
-1.57239e-06
-8.20083e-07
2.94109e-06
-4.41147e-06
-2.46817e-06
1.00692e-06
4.84053e-06
7.22224e-06
2.48894e-06
9.04341e-06
-9.1638e-07
-5.7819e-06
-6.72961e-06
-4.90123e-06
-4.39253e-06
5.66435e-06
2.47717e-06
2.78036e-06
-6.22374e-06
-5.82325e-06
-7.42179e-06
-7.3503e-06
-2.43855e-06
-4.0662e-06
9.43671e-07
3.61859e-06
2.70416e-06
7.42e-07
-2.48502e-06
2.07148e-06
1.12798e-06
2.27797e-06
-2.81669e-06
-2.48197e-07
-2.14505e-06
4.98303e-07
-3.50708e-06
1.79031e-06
-3.0214e-06
-1.01296e-05
-5.21291e-06
-3.84112e-06
1.77985e-06
4.95528e-06
5.60446e-06
1.4677e-06
-2.61852e-06
1.91305e-06
6.88204e-07
4.80106e-06
-1.9815e-07
2.88036e-06
-3.59145e-06
-4.02947e-06
-1.83574e-06
2.58217e-06
-6.74654e-08
-2.2198e-06
8.70393e-07
2.486e-06
4.45862e-06
-2.26569e-06
-2.32882e-06
1.93783e-06
3.18546e-07
-2.1808e-06
-3.64046e-06
-1.60251e-06
1.09467e-06
5.32927e-07
9.95766e-07
1.46716e-06
-1.6586e-07
-4.62087e-07
4.95276e-07
-4.70712e-06
-1.9667e-06
1.42906e-06
6.53316e-07
1.78872e-06
2.033e-06
1.44394e-06
0.000230929
0.000133931
-1.0306e-05
-0.00016231
-1.37575e-06
0.00041791
7.35716e-07
-1.67594e-05
5.7439e-06
1.85573e-05
-5.9976e-06
1.9507e-05
)
;

boundaryField
{
    top_fluid_surface
    {
        type            calculated;
        value           nonuniform List<scalar> 
64
(
-0.000121671
0.000129577
0.000209765
1.26907e-05
-0.000111018
-0.000191559
-0.000169953
-0.00024614
-0.000186685
-9.79981e-05
0.000299031
-0.000265788
6.50229e-05
-0.000261083
0.000178385
-8.37644e-05
0.00075817
0.000868262
0.000659463
0.000699322
-5.31603e-05
0.000147099
0.000478363
0.000604282
-0.000195778
0.000347423
0.000329304
0.000206301
0.000296789
-0.000159692
-0.000181675
7.85743e-05
-0.000190517
2.30814e-05
-0.000279554
0.000327139
8.90942e-05
9.96682e-05
3.38009e-06
0.000149663
0.000180082
-0.000465253
-0.00020521
-0.000305931
-0.000503743
-3.76445e-05
-1.26217e-05
-8.82872e-06
-0.000261432
1.96326e-05
-0.000213177
-0.000230164
-0.000366819
-5.40159e-06
-2.33685e-05
-0.000272397
0.000120993
-7.03065e-05
-0.000332896
-0.0010657
-0.000265295
-5.92767e-06
-5.59025e-05
0.000113817
)
;
    }
    bottom_fluid_surface
    {
        type            calculated;
        value           uniform 0;
    }
    lateral_surface_1
    {
        type            calculated;
        value           uniform 0;
    }
    lateral_surface_2
    {
        type            calculated;
        value           uniform 0;
    }
    lateral_surface_3
    {
        type            calculated;
        value           uniform 0;
    }
    lateral_surface_4
    {
        type            calculated;
        value           uniform 0;
    }
}


// ************************************************************************* //
