/*--------------------------------*- C++ -*----------------------------------*\
| =========                 |                                                 |
| \\      /  F ield         | OpenFOAM: The Open Source CFD Toolbox           |
|  \\    /   O peration     | Version:  v1612+                                |
|   \\  /    A nd           | Web:      www.OpenFOAM.com                      |
|    \\/     M anipulation  |                                                 |
\*---------------------------------------------------------------------------*/
FoamFile
{
    version     2.0;
    format      ascii;
    class       surfaceScalarField;
    location    "4";
    object      alphaPhi;
}
// * * * * * * * * * * * * * * * * * * * * * * * * * * * * * * * * * * * * * //

dimensions      [0 3 -1 0 0 0 0];

internalField   nonuniform List<scalar> 
2916
(
9.67707e-06
0.156196
-2.35412e-07
6.9792e-06
0.156197
-2.35389e-07
1.5995e-06
0.156196
-2.35411e-07
2.90777e-09
0.156197
-2.35424e-07
-3.2349e-06
0.156197
-2.3539e-07
0.156196
-2.35464e-07
9.68987e-06
0.303896
-8.91208e-07
6.84315e-06
0.303901
-8.91219e-07
2.28977e-06
0.3039
-8.91235e-07
1.43479e-06
0.303901
-8.91232e-07
-1.64005e-06
0.303903
-8.91207e-07
0.303897
-8.91272e-07
9.18042e-06
0.456883
-1.04716e-07
5.29019e-06
0.456896
-1.04799e-07
1.80613e-06
0.456892
-1.04859e-07
2.04904e-06
0.456893
-1.04873e-07
-5.53495e-07
0.456896
-1.04843e-07
0.456886
-1.04732e-07
8.58813e-06
0.612242
-2.03288e-08
4.07634e-06
0.612265
-2.03727e-08
1.75006e-06
0.612259
-2.03972e-08
2.00089e-06
0.61226
-2.04113e-08
-5.86037e-07
0.612264
-2.03977e-08
0.612249
-2.03287e-08
8.69928e-06
0.747867
-7.75634e-09
3.59025e-06
0.747896
-7.75489e-09
1.78779e-06
0.747888
-7.75275e-09
1.67615e-06
0.747889
-7.74881e-09
-1.43258e-06
0.747894
-7.74973e-09
0.747873
-7.75281e-09
7.05362e-06
0.788648
0.0157603
3.6148e-06
0.788679
0.0157662
6.97015e-07
0.788671
0.0157658
-1.62694e-07
0.788671
0.0157648
-2.46934e-06
0.788676
0.0157655
0.788649
0.0157651
4.50752e-06
0.613068
0.142727
2.85e-06
0.613099
0.14273
-1.47629e-06
0.613093
0.14273
-3.94806e-06
0.613092
0.14273
-4.84282e-06
0.613097
0.142728
0.613065
0.142728
1.27669e-06
0.218851
0.394251
1.60695e-06
0.218881
0.394253
-3.53272e-06
0.218882
0.394251
-6.79524e-06
0.21888
0.39425
-1.02072e-05
0.218887
0.394249
0.21884
0.39425
1.27583e-05
-0.367623
0.586509
2.51548e-06
-0.367606
0.586545
-3.18019e-06
-0.367592
0.586527
-8.60967e-06
-0.367595
0.586527
-2.41979e-05
-0.367585
0.586535
-0.367656
0.586519
3.94518e-05
-0.786169
0.418555
1.03034e-05
-0.786158
0.418628
4.5036e-06
-0.78614
0.418602
-3.27486e-06
-0.786142
0.418602
-3.25886e-05
-0.786129
0.41862
-0.786206
0.418564
6.10501e-05
-0.66156
-0.124722
8.94828e-06
-0.661537
-0.12462
1.42791e-06
-0.661532
-0.124652
-4.13887e-06
-0.661534
-0.124654
-3.8247e-05
-0.66152
-0.124626
-0.661571
-0.124724
7.70926e-06
-0.66257
-1.37798e-05
-0.662519
-1.17112e-05
-0.662537
-7.17304e-06
-0.662541
-4.28182e-06
-0.662526
-0.662578
1.76997e-12
3.29024e-08
-2.87465e-07
1.75663e-12
3.29017e-08
-2.87441e-07
3.29075e-13
3.29046e-08
-2.87463e-07
7.94417e-13
3.29028e-08
-2.87479e-07
7.44078e-13
3.29012e-08
-2.87445e-07
3.29073e-08
-2.87523e-07
-2.48145e-13
1.04343e-07
-9.63967e-07
1.01274e-12
1.04347e-07
-9.63988e-07
1.38449e-12
1.04351e-07
-9.64006e-07
1.94897e-12
1.04347e-07
-9.64001e-07
2.40306e-12
1.04344e-07
-9.63975e-07
1.04355e-07
-9.64038e-07
-6.08053e-13
5.26065e-08
-4.97274e-08
-9.55033e-14
5.26026e-08
-4.97039e-08
1.7934e-13
5.26056e-08
-4.97134e-08
5.31363e-13
5.26005e-08
-4.96934e-08
1.04615e-12
5.2597e-08
-4.96774e-08
5.26115e-08
-4.97382e-08
-9.96722e-13
5.03582e-08
-1.42955e-08
-7.23586e-13
5.03572e-08
-1.42414e-08
-7.34452e-13
5.03582e-08
-1.42149e-08
-3.53976e-13
5.03564e-08
-1.41976e-08
7.31412e-13
5.03548e-08
-1.42056e-08
5.03596e-08
-1.42942e-08
-2.65699e-12
4.20167e-08
3.16345e-09
-2.16844e-12
4.20144e-08
3.16137e-09
-2.05992e-12
4.20159e-08
3.16157e-09
-1.61363e-12
4.20144e-08
3.1615e-09
3.97674e-13
4.20122e-08
3.16137e-09
4.20149e-08
3.16418e-09
-2.62531e-07
0.0276255
0.000416971
-2.65409e-07
0.027634
0.000417037
-2.01666e-07
0.0276341
0.000417062
-1.3849e-07
0.0276345
0.000417031
-4.69503e-09
0.0276375
0.000417032
0.0276336
0.000417065
1.29058e-06
0.195867
0.00584031
-5.34808e-07
0.195876
0.00584002
-6.98413e-08
0.195875
0.00584002
3.6007e-07
0.195874
0.00583969
-1.27528e-06
0.195875
0.00583923
0.195872
0.00584011
5.67002e-06
0.35021
0.0159095
-2.43959e-06
0.350259
0.0159136
-1.86078e-06
0.350241
0.015911
-9.1137e-07
0.35024
0.0159116
-7.05179e-06
0.350253
0.0159105
0.350217
0.0159119
4.96325e-05
0.231067
0.19627
-6.30048e-07
0.231162
0.19629
-4.39898e-06
0.231134
0.196278
-5.58619e-06
0.231136
0.196277
-3.87211e-05
0.231171
0.196278
0.231074
0.196275
0.000121143
-0.0324032
0.541853
1.7326e-05
-0.032295
0.542087
8.37595e-06
-0.0323168
0.541982
1.48395e-06
-0.0323142
0.541979
-6.14416e-05
-0.0322735
0.542032
-0.0323901
0.541907
0.000111869
-0.15001
-0.0071311
2.99876e-05
-0.149828
-0.00690477
2.51758e-05
-0.149867
-0.00699879
8.27368e-06
-0.149867
-0.00698519
-3.89756e-05
-0.149808
-0.00694472
-0.149976
-0.00708032
-4.30285e-05
-0.812336
-2.35927e-05
-0.812175
-8.20885e-06
-0.812224
4.10323e-06
-0.812226
3.81553e-05
-0.812175
-0.812317
-1.4448e-11
-1.72781e-07
-4.57794e-07
-7.56374e-12
-1.72776e-07
-4.57667e-07
1.33819e-12
-1.72796e-07
-4.57723e-07
4.88551e-12
-1.72786e-07
-4.57767e-07
9.61972e-12
-1.72767e-07
-4.57739e-07
-1.72812e-07
-4.57883e-07
-3.12778e-11
-8.76268e-08
-2.05629e-06
-7.41575e-12
-8.75952e-08
-2.05658e-06
4.79052e-12
-8.76125e-08
-2.05654e-06
1.79332e-11
-8.75878e-08
-2.05654e-06
4.50783e-11
-8.75621e-08
-2.05658e-06
-8.76475e-08
-2.05629e-06
-1.19758e-12
-1.05875e-08
-1.48393e-07
-3.71301e-13
-1.05331e-08
-1.48546e-07
-1.84442e-13
-1.05097e-08
-1.48527e-07
3.49429e-13
-1.04905e-08
-1.48516e-07
1.71476e-12
-1.04958e-08
-1.48574e-07
-1.05875e-08
-1.48478e-07
-1.2724e-12
-2.80062e-09
-1.15512e-08
-6.35543e-13
-2.81662e-09
-1.15574e-08
-7.31454e-13
-2.82299e-09
-1.15577e-08
-2.23747e-13
-2.82812e-09
-1.1557e-08
1.28646e-12
-2.82674e-09
-1.15596e-08
-2.80051e-09
-1.15632e-08
-1.35743e-12
3.73672e-09
4.69694e-11
-1.03953e-12
3.71448e-09
4.65346e-11
-1.10004e-12
3.70313e-09
4.67648e-11
-8.07186e-13
3.69474e-09
4.66355e-11
3.29228e-13
3.69798e-09
4.64093e-11
3.73685e-09
4.7302e-11
-4.53944e-09
0.000426146
-9.16362e-06
-6.90335e-09
0.000426223
-9.17597e-06
-5.8765e-09
0.000426239
-9.17057e-06
-3.89126e-09
0.000426206
-9.16971e-06
-4.18512e-09
0.000426212
-9.17277e-06
0.000426238
-9.16982e-06
3.88586e-07
0.00608868
2.19974e-05
7.26291e-08
0.00608914
2.20453e-05
8.60139e-08
0.00608885
2.20124e-05
3.8042e-08
0.00608856
2.20042e-05
-2.53576e-07
0.00608835
2.20038e-05
0.0060887
2.20078e-05
2.67303e-06
0.0210396
-1.12199e-05
-8.48268e-08
0.0210512
-1.06447e-05
2.91049e-08
0.0210449
-1.09341e-05
-4.08335e-08
0.021045
-1.09903e-05
-1.11409e-06
0.021045
-1.08918e-05
0.0210444
-1.10089e-05
2.45953e-05
0.0149522
-0.00233066
-2.28933e-06
0.0150929
-0.00233622
-1.79421e-06
0.0150266
-0.00233282
4.63924e-07
0.0150273
-0.00233163
-6.05639e-06
0.0150563
-0.00233073
0.0149972
-0.0023334
0.000261445
0.0663507
0.0685103
9.11222e-06
0.0666731
0.0687282
-9.29485e-06
0.066532
0.0686309
1.47182e-05
0.0665329
0.0686104
-0.000113601
0.0666168
0.0686702
0.0664398
0.0685694
0.000410662
-0.0444729
0.0844379
4.11425e-05
-0.0441926
0.085311
-1.09774e-05
-0.0442782
0.0849239
9.03695e-06
-0.0442765
0.0848723
-0.000182745
-0.0442122
0.0850998
-0.0444033
0.0846863
-0.000116991
-0.856749
-2.72153e-05
-0.856522
-6.69548e-06
-0.856584
2.09987e-05
-0.856592
0.000109503
-0.856539
-0.856669
3.31468e-12
-2.71719e-07
-1.16099e-07
1.86547e-12
-2.71625e-07
-1.16025e-07
3.97117e-13
-2.71638e-07
-1.16058e-07
-3.88121e-12
-2.71638e-07
-1.16076e-07
-5.97173e-12
-2.71617e-07
-1.16053e-07
-2.71729e-07
-1.16142e-07
3.38173e-11
-1.24956e-07
-1.55181e-06
1.30384e-11
-1.24916e-07
-1.55199e-06
9.81486e-13
-1.24925e-07
-1.55196e-06
-1.34175e-11
-1.2492e-07
-1.55196e-06
-3.15688e-11
-1.24919e-07
-1.55198e-06
-1.24998e-07
-1.55178e-06
-1.0824e-12
-9.32124e-08
-4.36143e-07
-3.32938e-12
-9.32798e-08
-4.36016e-07
-2.53383e-12
-9.32851e-08
-4.36051e-07
-2.66604e-12
-9.32911e-08
-4.36038e-07
-2.33239e-12
-9.33229e-08
-4.35997e-07
-9.33582e-08
-4.36213e-07
-4.97775e-13
-5.96052e-08
-1.74857e-09
-4.52939e-13
-5.94952e-08
-1.74809e-09
-3.80242e-13
-5.94974e-08
-1.74735e-09
-2.41217e-13
-5.94751e-08
-1.74534e-09
5.78717e-14
-5.94379e-08
-1.74471e-09
-5.94363e-08
-1.74373e-09
-1.33036e-11
1.11492e-06
-1.29451e-08
-9.78569e-12
1.11422e-06
-1.29563e-08
-6.40992e-12
1.11423e-06
-1.29514e-08
-1.64807e-12
1.11409e-06
-1.29486e-08
4.98626e-12
1.11379e-06
-1.29529e-08
1.11423e-06
-1.29432e-08
-2.42929e-10
-8.19642e-06
-7.2938e-08
-1.29524e-10
-8.20969e-06
-7.30116e-08
1.20865e-11
-8.20439e-06
-7.29753e-08
1.00016e-10
-8.20363e-06
-7.297e-08
1.6975e-10
-8.20694e-06
-7.29868e-08
-8.20335e-06
-7.29657e-08
7.8504e-09
8.57872e-06
-1.75815e-08
2.78166e-09
8.62786e-06
-1.55664e-08
4.24744e-09
8.59355e-06
-1.65885e-08
4.17176e-09
8.58784e-06
-1.67947e-08
1.49402e-09
8.58764e-06
-1.64186e-08
8.59293e-06
-1.69098e-08
1.62398e-07
-7.59911e-05
1.40366e-06
3.60438e-08
-7.56654e-05
1.92673e-06
1.04472e-08
-7.58285e-05
1.68294e-06
1.91314e-08
-7.58829e-05
1.62002e-06
-3.78823e-08
-7.57958e-05
1.71847e-06
-7.58981e-05
1.58738e-06
3.0081e-05
-0.00420481
0.000787878
-4.50188e-06
-0.00415601
0.000800718
-5.12324e-06
-0.00418179
0.000794816
-3.80219e-07
-0.00418539
0.00079371
-5.43672e-06
-0.00417647
0.000796035
-0.00418672
0.000792746
0.000276873
-0.300372
-0.0659169
8.94566e-06
-0.300264
-0.0655676
-2.88448e-05
-0.300322
-0.0657397
1.06718e-05
-0.300307
-0.0657773
-9.99985e-05
-0.300305
-0.0656965
-0.300314
-0.0657999
0.00047961
-0.0568499
-0.263095
2.02273e-05
-0.0561804
-0.262164
-7.65721e-05
-0.0564592
-0.262564
2.28292e-05
-0.0565296
-0.262705
-0.000103385
-0.0563815
-0.262387
-0.0566262
-0.262824
-0.000221004
-0.660972
1.43987e-05
-0.660872
7.18417e-05
-0.66089
4.05187e-05
-0.660949
0.000110854
-0.66095
-0.660868
-1.02527e-31
-1.26156e-24
2.83333e-27
-1.8787e-31
-1.25879e-24
2.82979e-27
-1.84198e-31
-1.31046e-24
2.95886e-27
-1.67087e-31
-1.1692e-24
2.64718e-27
-1.26284e-31
-1.18222e-24
2.66975e-27
-1.35521e-24
3.04609e-27
-8.44257e-29
-5.68858e-22
1.31523e-24
-1.10526e-28
-5.67075e-22
1.31228e-24
-9.36899e-29
-5.84251e-22
1.36611e-24
-7.8828e-29
-5.23808e-22
1.21884e-24
-5.9229e-29
-5.30472e-22
1.23239e-24
-6.06534e-22
1.41269e-24
-2.63205e-26
-1.2699e-19
3.14671e-22
-2.55827e-26
-1.26483e-19
3.13662e-22
-1.68509e-26
-1.27723e-19
3.23155e-22
-1.03691e-26
-1.16367e-19
2.8972e-22
-5.38235e-27
-1.17907e-19
2.93404e-22
-1.33029e-19
3.3547e-22
-5.49782e-24
-1.8402e-17
5.04397e-20
-3.43874e-24
-1.83149e-17
5.02311e-20
-6.88894e-25
-1.78321e-17
5.07208e-20
1.10394e-24
-1.68035e-17
4.62098e-20
1.45341e-24
-1.70179e-17
4.68208e-20
-1.86243e-17
5.28255e-20
-6.17787e-22
-4.22868e-17
5.89402e-18
1.17162e-22
-4.20756e-17
5.86446e-18
8.60832e-22
-4.27477e-17
5.70958e-18
1.17621e-21
-3.8572e-17
5.37968e-18
1.00734e-21
-3.90406e-17
5.44836e-18
-4.4744e-17
5.96349e-18
4.18065e-21
-2.93147e-15
5.52329e-16
1.57831e-19
-2.91562e-15
5.49005e-16
3.01507e-19
-2.92113e-15
5.8931e-16
2.84417e-19
-2.68154e-15
5.00895e-16
2.23734e-19
-2.71546e-15
5.06775e-16
-3.05651e-15
6.20441e-16
8.20528e-18
-2.92607e-13
2.31039e-13
2.29428e-17
-2.90519e-13
2.29239e-13
3.66567e-17
-3.16739e-13
2.52058e-13
2.61189e-17
-2.59798e-13
2.0271e-13
1.71652e-17
-2.62851e-13
2.05323e-13
-3.3935e-13
2.71004e-13
1.89425e-15
-1.34895e-10
1.1969e-10
2.41505e-15
-1.34254e-10
1.19076e-10
5.34303e-15
-1.45845e-10
1.25462e-10
5.8928e-16
-1.20868e-10
1.11521e-10
-1.2881e-15
-1.24274e-10
1.12225e-10
-1.53106e-10
1.30991e-10
3.97339e-13
-1.58328e-08
-2.92632e-09
7.95253e-14
-1.57354e-08
-2.91322e-09
1.45378e-12
-1.71593e-08
-3.2781e-09
-9.85761e-13
-1.40879e-08
-2.46651e-09
-2.57368e-12
-1.44942e-08
-2.60206e-09
-1.8067e-08
-3.47065e-09
5.85244e-11
-3.62722e-07
2.89973e-07
-5.42493e-11
-3.61607e-07
2.89452e-07
6.93506e-10
-3.73322e-07
2.9449e-07
-3.72954e-10
-3.46923e-07
2.82534e-07
-1.37573e-09
-3.39704e-07
2.74145e-07
-3.8961e-07
3.05903e-07
2.65417e-10
5.40589e-07
-1.21257e-06
-9.1107e-11
5.32744e-07
-1.19959e-06
4.95812e-09
5.5113e-07
-1.23859e-06
-1.88594e-09
5.14529e-07
-1.14775e-06
-1.15671e-08
5.06909e-07
-1.12799e-06
5.7429e-07
-1.29203e-06
4.73294e-12
1.94547e-08
1.71194e-12
2.02179e-08
1.48896e-11
4.96382e-08
-7.80518e-12
1.55087e-08
-5.085e-11
7.92718e-09
7.5209e-08
-7.89186e-30
-8.90778e-23
3.89972e-25
-1.23582e-29
-8.89932e-23
3.89885e-25
-1.1232e-29
-9.41307e-23
4.10752e-25
-1.00122e-29
-8.41109e-23
3.65219e-25
-7.73845e-30
-8.57963e-23
3.73791e-25
-9.74283e-23
4.23878e-25
-4.12807e-27
-4.04125e-20
1.83887e-22
-4.99278e-27
-4.03453e-20
1.83705e-22
-3.98404e-27
-4.27755e-20
1.94307e-22
-3.14989e-27
-3.87811e-20
1.73622e-22
-2.23151e-27
-3.94313e-20
1.77099e-22
-4.44029e-20
2.01106e-22
-6.13336e-25
-8.91547e-18
4.39219e-20
-2.71028e-25
-8.89486e-18
4.38465e-20
1.46937e-25
-9.43771e-18
4.64865e-20
3.24459e-25
-8.81333e-18
4.21451e-20
2.3403e-25
-8.93447e-18
4.28513e-20
-9.82365e-18
4.82537e-20
1.58168e-22
-8.96538e-17
6.8824e-18
3.92771e-22
-8.9954e-17
6.86575e-18
5.62121e-22
-7.59028e-17
7.28448e-18
5.14249e-22
-5.13942e-17
6.80242e-18
3.40423e-22
-4.62893e-17
6.89585e-18
-6.71427e-17
7.58215e-18
4.86443e-20
-2.02111e-15
5.78545e-16
8.5045e-20
-2.01592e-15
5.7615e-16
1.12449e-19
-2.11991e-15
6.08812e-16
8.69791e-20
-1.95392e-15
5.36835e-16
5.50045e-20
-1.96951e-15
5.40519e-16
-2.19826e-15
6.3384e-16
1.47194e-17
-1.62759e-13
6.62913e-14
2.23336e-17
-1.62375e-13
6.61625e-14
2.79154e-17
-1.71906e-13
6.92944e-14
1.65328e-17
-1.5061e-13
6.2299e-14
9.06476e-18
-1.52001e-13
6.2841e-14
-1.78972e-13
7.15041e-14
3.75481e-15
3.78465e-12
-1.1414e-11
3.20661e-15
3.7543e-12
-1.13354e-11
5.59947e-15
3.84457e-12
-1.19658e-11
-1.23157e-16
3.67025e-12
-1.06049e-11
-2.04303e-15
3.57035e-12
-1.05742e-11
4.03363e-12
-1.25842e-11
1.04688e-12
6.41376e-10
-1.16086e-09
-9.41045e-14
6.42796e-10
-1.15693e-09
2.37387e-12
6.43567e-10
-1.20092e-09
-2.75141e-12
6.40425e-10
-1.1035e-09
-5.22519e-12
6.17621e-10
-1.08822e-09
6.63466e-10
-1.25504e-09
6.04795e-11
-1.05108e-05
2.02056e-09
-1.65372e-10
-1.04922e-05
2.08224e-09
1.59499e-09
-1.12909e-05
1.91871e-09
-8.02995e-10
-9.50497e-06
2.13179e-09
-3.01725e-09
-9.60352e-06
2.11295e-09
-1.19039e-05
1.92135e-09
-8.27305e-09
3.10399e-06
-0.000580108
-1.92099e-08
3.09893e-06
-0.000578937
4.34172e-07
3.1056e-06
-0.000613988
-1.20677e-07
3.08437e-06
-0.000535964
-8.21488e-07
3.15683e-06
-0.000534792
3.07917e-06
-0.000645293
-5.35963e-08
7.26468e-05
-8.04709e-05
1.56546e-07
7.25318e-05
-8.05854e-05
1.43128e-06
7.42013e-05
-8.36298e-05
-1.70399e-07
7.04403e-05
-7.62859e-05
-3.63931e-06
6.93633e-05
-7.29691e-05
7.66541e-05
-8.90095e-05
5.07061e-09
1.48205e-05
6.60783e-09
1.48019e-05
5.41584e-09
1.51634e-05
3.10032e-09
1.43654e-05
-5.16844e-08
1.43035e-05
1.55274e-05
-5.20242e-28
-7.89424e-21
5.7064e-23
-5.90712e-28
-7.87347e-21
5.69807e-23
-4.47153e-28
-8.22141e-21
5.93005e-23
-3.0815e-28
-7.41056e-21
5.35644e-23
-1.75495e-28
-7.48527e-21
5.43094e-23
-8.48686e-21
6.10029e-23
-1.64375e-25
-3.30256e-18
2.54475e-20
-6.26924e-26
-3.29001e-18
2.53799e-20
6.24956e-26
-3.44278e-18
2.65013e-20
1.34506e-25
-3.10182e-18
2.38876e-20
1.50546e-25
-3.12231e-18
2.41285e-20
-3.56408e-18
2.73571e-20
2.41489e-23
-3.96232e-16
5.63947e-18
9.67241e-23
-3.94765e-16
5.61784e-18
1.57208e-22
-4.05948e-16
5.87864e-18
1.50856e-22
-3.81752e-16
5.29642e-18
1.09975e-22
-3.81848e-16
5.33143e-18
-4.15552e-16
6.08581e-18
1.62379e-20
-1.52426e-15
5.3632e-16
3.1067e-20
-1.51748e-15
5.32525e-16
4.1257e-20
-1.57088e-15
5.53835e-16
3.45066e-20
-1.47804e-15
5.09513e-16
2.18728e-20
-1.48332e-15
5.12405e-16
-1.61334e-15
5.704e-16
5.98986e-18
-1.20975e-13
6.77159e-14
9.71946e-18
-1.20283e-13
6.73455e-14
1.15231e-17
-1.25966e-13
7.0407e-14
7.94895e-18
-1.13639e-13
6.38116e-14
4.46735e-18
-1.13979e-13
6.40691e-14
-1.30814e-13
7.29557e-14
1.39702e-15
-2.00235e-11
1.151e-11
1.30292e-15
-1.99162e-11
1.14512e-11
2.28083e-15
-2.07978e-11
1.19891e-11
7.01734e-17
-1.88877e-11
1.08191e-11
-8.74469e-16
-1.89281e-11
1.08566e-11
-2.1567e-11
1.24471e-11
2.59596e-13
-2.11918e-09
1.30928e-09
-1.58622e-13
-2.10428e-09
1.30183e-09
1.52557e-13
-2.18983e-09
1.3653e-09
-7.80231e-13
-2.01084e-09
1.22857e-09
-1.13667e-12
-2.00941e-09
1.23379e-09
-2.27146e-09
1.41898e-09
2.70993e-11
-1.86677e-07
1.18059e-07
-9.09028e-11
-1.85149e-07
1.17115e-07
3.44528e-10
-1.92317e-07
1.2061e-07
-3.23e-10
-1.78071e-07
1.13418e-07
-8.18092e-10
-1.78448e-07
1.14345e-07
-1.9767e-07
1.22704e-07
-8.8366e-10
-1.15684e-05
7.26787e-06
-1.89225e-08
-1.1474e-05
7.21768e-06
2.20089e-07
-1.21477e-05
7.4434e-06
-9.01923e-08
-1.07135e-05
6.96498e-06
-3.99308e-07
-1.07383e-05
6.99319e-06
-1.26694e-05
7.62873e-06
5.34644e-08
-0.00927419
-0.000369312
3.14862e-07
-0.00923786
-0.000367162
5.77484e-06
-0.00950536
-0.000385011
-1.12168e-06
-0.00892947
-0.000347506
-9.44196e-06
-0.00886694
-0.000348461
-0.00979776
-0.000399152
2.88509e-06
-5.41987e-07
-0.0497386
1.13684e-05
-5.39317e-07
-0.0495948
-3.81519e-05
-5.62136e-07
-0.050314
3.31503e-05
-5.11346e-07
-0.0487989
9.57051e-05
-5.06045e-07
-0.048178
-5.8792e-07
-0.0515393
3.72665e-10
5.56184e-06
1.21555e-09
5.61131e-06
1.81353e-09
6.03185e-06
1.98795e-09
5.3007e-06
-6.27519e-09
5.25244e-06
6.38006e-06
-3.23108e-28
-6.16998e-21
8.06103e-23
-8.20995e-29
-6.1313e-21
8.02154e-23
1.43195e-28
-6.25692e-21
8.20222e-23
2.62134e-28
-6.02127e-21
7.83656e-23
2.75958e-28
-6.10044e-21
7.95391e-23
-6.30516e-21
8.26825e-23
9.51749e-26
-1.85303e-18
2.88104e-20
2.56638e-25
-1.8382e-18
2.86293e-20
3.50793e-25
-1.87132e-18
2.92159e-20
3.53834e-25
-1.81684e-18
2.81158e-20
2.83707e-25
-1.83861e-18
2.84857e-20
-1.88344e-18
2.94419e-20
7.53332e-23
-2.25638e-16
4.6126e-18
1.18457e-22
-2.23267e-16
4.57559e-18
1.34801e-22
-2.26577e-16
4.65803e-18
1.15703e-22
-2.22623e-16
4.52242e-18
7.21678e-23
-2.25308e-16
4.57665e-18
-2.27392e-16
4.6883e-18
1.6035e-20
-4.71088e-16
4.07512e-16
2.14088e-20
-4.65298e-16
4.03218e-16
2.20301e-20
-4.68991e-16
4.09194e-16
1.61792e-20
-4.69709e-16
4.02056e-16
8.85048e-21
-4.76247e-16
4.06912e-16
-4.67238e-16
4.10686e-16
2.85793e-18
4.57805e-14
9.854e-15
2.40267e-18
4.56713e-14
9.75987e-15
2.5965e-18
4.85489e-14
9.79157e-15
4.28425e-19
4.19601e-14
9.86425e-15
-1.4309e-19
4.20455e-14
9.8832e-15
5.10114e-14
9.87024e-15
4.06393e-16
7.34284e-12
2.89686e-12
-5.64825e-16
7.34211e-12
2.86316e-12
-4.64822e-16
7.89435e-12
2.87965e-12
-1.50391e-15
6.59606e-12
2.8938e-12
-9.29088e-16
6.60349e-12
2.90046e-12
8.36428e-12
2.91172e-12
-7.48125e-15
5.21364e-10
6.37359e-10
-6.83868e-13
5.24083e-10
6.30593e-10
-4.56301e-13
5.80519e-10
6.36062e-10
-8.86825e-13
4.43417e-10
6.33822e-10
-2.71262e-13
4.40558e-10
6.38238e-10
6.31713e-10
6.40111e-10
-1.00801e-11
1.88105e-08
8.21566e-08
-1.78405e-10
1.921e-08
8.12812e-08
-1.91634e-11
2.19237e-08
8.17703e-08
-3.29557e-10
1.44155e-08
8.19954e-08
-8.19701e-11
1.40315e-08
8.25358e-08
2.3986e-08
8.20488e-08
8.31204e-09
-2.0791e-06
8.52025e-06
-9.61547e-09
-1.98725e-06
8.42781e-06
-2.96685e-08
-1.77881e-06
8.43726e-06
-3.60845e-08
-2.39821e-06
8.54226e-06
6.45252e-08
-2.57768e-06
8.62345e-06
-1.50462e-06
8.40357e-06
1.59126e-06
-0.000646195
0.000211867
-6.22412e-08
-0.000636971
0.000209364
-1.90516e-05
-0.000634655
0.000207235
5.18169e-06
-0.00065329
0.000216552
3.3891e-05
-0.000660887
0.000217707
-0.000630041
0.000204519
-9.46985e-06
-0.134091
-0.0122777
-6.98915e-06
-0.13355
-0.0122026
-0.000186331
-0.134278
-0.0122876
6.6119e-05
-0.133379
-0.012205
0.000622401
-0.132213
-0.0121897
-0.136202
-0.0124187
-0.000211375
-0.330981
5.078e-05
-0.330369
6.27296e-05
-0.332052
2.59022e-05
-0.328865
0.000595113
-0.324925
-0.337643
9.71711e-13
-1.86008e-08
-5.43225e-08
3.5192e-13
-1.85617e-08
-5.42963e-08
-6.82101e-15
-1.85755e-08
-5.43065e-08
-4.07348e-13
-1.85725e-08
-5.43066e-08
-1.13936e-12
-1.85444e-08
-5.42885e-08
-1.86081e-08
-5.43314e-08
1.9504e-13
3.94531e-16
-1.21844e-08
6.30082e-14
4.32096e-16
-1.21244e-08
-9.92572e-15
4.43535e-16
-1.21453e-08
-7.91176e-14
4.33674e-16
-1.21423e-08
-2.1723e-13
4.31112e-16
-1.21027e-08
4.41461e-16
-1.21965e-08
-7.95769e-21
4.69356e-17
-2.9409e-21
5.13957e-17
-5.40583e-23
5.27609e-17
2.94577e-21
5.15878e-17
9.2589e-21
5.12813e-17
5.25232e-17
3.23669e-11
-7.98904e-07
-1.4967e-07
8.98877e-12
-7.98872e-07
-1.49795e-07
-6.63433e-12
-7.98905e-07
-1.4975e-07
-2.29436e-11
-7.98894e-07
-1.49758e-07
-4.49635e-11
-7.98799e-07
-1.49849e-07
-7.98904e-07
-1.49653e-07
4.13948e-12
2.15751e-15
-3.07385e-13
1.26336e-12
2.36283e-15
-2.7987e-13
-4.21854e-13
2.42552e-15
-2.84663e-13
-2.09072e-12
2.37158e-15
-2.74788e-13
-5.18525e-12
2.35757e-15
-2.63211e-13
2.41435e-15
-2.99416e-13
-4.32645e-20
7.55182e-16
-1.54605e-20
8.26977e-16
-1.04444e-22
8.4892e-16
1.54425e-20
8.30037e-16
4.99092e-20
8.25121e-16
8.45038e-16
4.99505e-12
-1.44846e-11
-2.33341e-08
-2.83551e-14
-1.32807e-11
-2.33218e-08
-4.12349e-12
-1.34747e-11
-2.33153e-08
-7.61963e-12
-1.30118e-11
-2.3303e-08
-1.02513e-11
-1.25242e-11
-2.33009e-08
-1.40925e-11
-2.33169e-08
8.99011e-18
1.22e-14
-1.48042e-11
1.99325e-18
1.33617e-14
-1.35739e-11
-1.54004e-18
1.37158e-14
-1.37731e-11
-4.68105e-18
1.34107e-14
-1.33e-11
-1.1716e-17
1.33317e-14
-1.28007e-11
1.36514e-14
-1.44055e-11
-2.56726e-19
9.46457e-16
-7.49308e-20
1.03796e-15
2.63975e-20
1.06589e-15
1.16119e-19
1.04176e-15
3.36313e-19
1.03549e-15
1.06083e-15
3.85172e-15
-4.43173e-11
-2.49845e-08
-1.21783e-15
-4.11386e-11
-2.49773e-08
-3.80587e-15
-4.16504e-11
-2.49695e-08
-7.82274e-15
-4.04019e-11
-2.49582e-08
-1.34413e-14
-3.91031e-11
-2.49579e-08
-4.32598e-11
-2.49657e-08
9.99048e-16
5.98576e-15
-2.79317e-12
1.97031e-16
6.56576e-15
-2.79376e-12
-1.0588e-16
6.74218e-15
-2.79453e-12
-3.6647e-16
6.58952e-15
-2.79514e-12
-1.0962e-15
6.5501e-15
-2.79563e-12
6.70901e-15
-2.79393e-12
-1.19074e-19
-3.04742e-15
3.3889e-21
-3.04413e-15
5.46943e-20
-3.04545e-15
9.30894e-20
-3.04487e-15
2.19586e-19
-3.04419e-15
-3.04723e-15
6.78324e-13
-2.88371e-11
-1.05383e-08
3.97102e-13
-3.02346e-11
-1.05441e-08
4.96922e-13
-2.99997e-11
-1.05358e-08
-2.61502e-14
-3.00083e-11
-1.05303e-08
-1.37588e-12
-3.03017e-11
-1.05329e-08
-2.89375e-11
-1.05326e-08
2.7208e-16
-1.41692e-13
-3.16623e-11
5.43746e-17
-1.42271e-13
-3.30594e-11
-1.45101e-17
-1.42194e-13
-3.28254e-11
-9.92097e-17
-1.42146e-13
-3.28346e-11
-3.01906e-16
-1.42269e-13
-3.31282e-11
-1.41729e-13
-3.17635e-11
1.19434e-19
-1.44861e-13
-2.6114e-20
-1.45436e-13
-4.47098e-20
-1.45361e-13
-8.27393e-20
-1.45313e-13
-2.06529e-19
-1.45435e-13
-1.44898e-13
3.9272e-13
1.09543e-10
-8.52967e-08
1.05857e-12
1.07797e-10
-8.53727e-08
1.62286e-12
1.09104e-10
-8.53311e-08
7.18561e-13
1.09548e-10
-8.53196e-08
-1.79036e-12
1.09256e-10
-8.53382e-08
1.08693e-10
-8.53196e-08
-1.30059e-14
2.51858e-11
-8.82461e-10
-1.86646e-14
2.5145e-11
-8.81776e-10
-1.1201e-14
2.5184e-11
-8.82437e-10
-1.29569e-14
2.51872e-11
-8.82488e-10
-1.60156e-14
2.51752e-11
-8.82324e-10
2.51972e-11
-8.82267e-10
8.60651e-17
-7.73999e-12
1.68541e-17
-7.73567e-12
-6.74807e-18
-7.74288e-12
-4.89799e-17
-7.74178e-12
-1.06566e-16
-7.74104e-12
-7.7424e-12
1.14939e-11
2.58024e-08
-2.23354e-07
2.13807e-11
2.57297e-08
-2.21554e-07
3.78447e-11
2.57727e-08
-2.2237e-07
3.18722e-11
2.57776e-08
-2.22514e-07
1.89887e-11
2.57631e-08
-2.22144e-07
2.57757e-08
-2.22606e-07
-1.62498e-12
4.4907e-09
-2.85551e-08
-1.47411e-12
4.48234e-09
-2.83885e-08
-1.03849e-12
4.48956e-09
-2.84835e-08
-5.98991e-13
4.49031e-09
-2.85037e-08
6.39422e-14
4.48795e-09
-2.84727e-08
4.49096e-09
-2.85013e-08
-6.5444e-15
-3.69566e-10
-9.81052e-15
-3.68807e-10
-6.19833e-15
-3.69906e-10
-7.12215e-15
-3.69832e-10
4.30883e-15
-3.6985e-10
-3.69793e-10
1.24836e-08
3.05223e-06
-7.25031e-06
1.90887e-09
3.06435e-06
-6.71219e-06
1.82861e-09
3.05886e-06
-6.96165e-06
2.77127e-09
3.05815e-06
-7.0251e-06
-3.79467e-09
3.06002e-06
-6.91957e-06
3.05653e-06
-7.05936e-06
4.50446e-10
2.49759e-07
2.07555e-06
1.3637e-11
2.50636e-07
2.08869e-06
3.51374e-11
2.50618e-07
2.08194e-06
5.50012e-11
2.50525e-07
2.08133e-06
-1.37905e-10
2.50366e-07
2.08368e-06
2.50468e-07
2.07937e-06
3.27503e-12
2.40375e-07
1.3535e-13
2.41275e-07
6.01516e-13
2.41241e-07
1.19384e-13
2.41152e-07
-1.57517e-12
2.40993e-07
2.41089e-07
-1.18852e-06
0.000104823
0.000572286
1.32018e-07
0.000106514
0.000604179
3.89013e-08
0.000105724
0.000589537
-1.16555e-07
0.000105527
0.000585638
2.3572e-07
0.000105833
0.000591644
0.000105427
0.000583926
-1.30869e-07
3.3026e-05
6.92043e-05
-4.26429e-09
3.31937e-05
6.95621e-05
7.76504e-09
3.31506e-05
6.93694e-05
-1.25336e-08
3.31267e-05
6.93487e-05
-2.60817e-09
3.31426e-05
6.9421e-05
3.31175e-05
6.92645e-05
-4.96036e-09
1.86104e-05
-4.41998e-10
1.86883e-05
1.20881e-10
1.8684e-05
-4.80643e-10
1.86675e-05
6.70199e-10
1.86674e-05
1.86645e-05
-5.78438e-06
-1.05937e-05
-0.0586881
-1.53815e-06
-1.34751e-05
-0.059092
-5.95012e-07
-1.18851e-05
-0.0589211
-2.22158e-07
-1.17932e-05
-0.058851
2.21902e-06
-1.22916e-05
-0.058904
-1.15827e-05
-0.0588589
-2.78958e-08
4.90788e-05
-2.17357e-05
-8.18464e-09
4.89268e-05
-2.20293e-05
-8.34222e-09
4.9188e-05
-2.19091e-05
-2.55827e-09
4.89844e-05
-2.18981e-05
3.84169e-08
4.92952e-05
-2.19917e-05
4.89017e-05
-2.18196e-05
-1.43963e-08
2.31298e-05
-3.27307e-10
2.31646e-05
-1.26787e-09
2.16079e-05
2.31015e-09
2.20711e-05
3.05249e-08
2.28884e-05
2.20317e-05
-0.000166907
-0.00187869
-0.123404
3.16155e-05
-0.00187105
-0.123451
3.10207e-05
-0.00187763
-0.12343
6.83029e-06
-0.00187967
-0.123474
0.000114384
-0.00187755
-0.123494
-0.00186909
-0.12339
4.0295e-08
-0.000902389
-0.000772674
5.002e-08
-0.000904415
-0.000774984
6.87138e-08
-0.000903693
-0.000773775
3.99683e-08
-0.000903827
-0.00077521
7.01315e-08
-0.000905523
-0.000779531
-0.000901736
-0.00076912
2.28301e-07
-4.65974e-16
2.19189e-07
-4.28789e-16
1.77399e-07
-4.56244e-16
1.70546e-07
-4.61184e-16
5.99608e-07
-4.57747e-16
-4.396e-16
-0.000325608
-0.0228786
0.0195648
1.54991e-05
-0.0229355
0.0197573
9.84102e-05
-0.0229011
0.0197011
1.80324e-05
-0.0229501
0.0196389
-5.26841e-05
-0.0230655
0.0197077
-0.0227715
0.0195652
-2.53019e-07
4.65974e-16
-0.023651
-2.29874e-09
4.28767e-16
-0.0237107
1.19926e-07
4.56232e-16
-0.023675
8.71441e-08
4.61175e-16
-0.0237253
-7.71664e-08
4.57746e-16
-0.0238449
4.39593e-16
-0.0235407
-1.64482e-27
7.36661e-23
-6.93468e-27
9.30625e-23
2.774e-27
1.00549e-22
4.4802e-28
1.02977e-22
5.16849e-27
9.96316e-23
7.09824e-23
-0.000461887
-0.000790358
-0.621706
0.566652
-0.000393839
-0.000773031
-0.621482
0.564914
-0.000415311
-0.000767694
-0.621753
0.566089
-0.000320956
-0.000808184
-0.622598
0.566414
0.000904052
-0.000810133
-0.622609
0.562795
-0.000739882
-0.621954
0.571866
-3.65854e-07
-0.000429669
-0.000436203
0.000136889
-1.02579e-07
-0.000413785
-0.000434815
0.000136236
2.344e-07
-0.000408148
-0.000435011
0.000136138
-2.66581e-07
-0.000447331
-0.000436693
0.00013727
-2.18068e-08
-0.000447038
-0.000437742
0.00013426
-0.000378118
-0.000435417
0.000133488
-1.72655e-06
2.35439e-23
0.000502392
-3.42696e-07
1.01556e-23
0.000475513
1.12129e-06
3.78008e-23
0.00046394
-1.60564e-06
2.05498e-23
0.000531618
-2.04431e-06
9.13691e-24
0.000534835
1.46913e-23
0.000428444
-0.000102342
-0.00417768
-0.680855
-0.000245895
-0.00417845
-0.681361
-0.00101586
-0.00418147
-0.681309
-0.000179119
-0.00418476
-0.681138
0.00204949
-0.00420646
-0.68221
-0.00417292
-0.679359
-2.94419e-07
3.44933e-23
-0.00461358
-1.298e-07
1.51947e-23
-0.00461343
2.05483e-07
5.66174e-23
-0.00461682
1.60035e-07
3.0085e-23
-0.00462141
5.71641e-07
1.34206e-23
-0.00464461
2.19447e-23
-0.00460777
8.11762e-26
1.89621e-23
1.43104e-27
1.43456e-24
-4.36378e-25
7.13212e-23
1.20053e-26
3.61364e-24
2.34675e-25
7.08142e-24
2.1039e-23
-0.000111281
-0.0473647
-0.646015
-0.000127223
-0.0474215
-0.646088
-0.000329921
-0.0474257
-0.646118
1.7238e-05
-0.0474722
-0.645695
0.00113102
-0.0477527
-0.645305
-0.0472142
-0.646342
-3.12385e-06
1.78584e-23
-0.0519752
-1.98981e-06
2.72677e-22
-0.052036
-3.13112e-06
6.74981e-23
-0.0520413
-7.50241e-08
9.09569e-23
-0.0520967
1.06531e-05
6.72099e-24
-0.052408
1.98235e-23
-0.0518113
3.21147e-27
6.66548e-23
5.44981e-26
8.38807e-23
2.18759e-28
9.06963e-23
3.1389e-27
9.27711e-23
7.90635e-28
8.89838e-23
6.47264e-23
-9.77771e-06
-0.0842481
-0.418232
-8.45732e-06
-0.0843444
-0.41822
2.62622e-05
-0.0844343
-0.418195
6.15214e-05
-0.084099
-0.418112
0.000192569
-0.0840449
-0.417874
-0.0843834
-0.418244
-4.02761e-05
1.09198e-22
-0.104093
-2.16222e-05
1.38008e-22
-0.104213
-4.18609e-05
1.4908e-22
-0.104165
-2.74348e-06
1.52427e-22
-0.104274
0.000197983
1.4732e-22
-0.104593
1.05729e-22
-0.103819
1.23087e-25
5.63805e-23
4.93487e-26
7.10594e-23
4.33894e-26
7.68246e-23
7.42001e-26
7.84464e-23
-1.43246e-25
7.5343e-23
5.46966e-23
8.20867e-05
-0.0207736
-0.254016
1.56976e-05
-0.0206683
-0.253963
0.000147731
-0.0207927
-0.254015
-5.02878e-05
-0.0205043
-0.253892
-0.000715661
-0.0199138
-0.253777
-0.0213477
-0.254094
-7.86734e-05
2.00588e-22
-0.0214479
-2.09091e-05
2.53523e-22
-0.0215439
-6.82401e-05
2.73823e-22
-0.0214718
7.79388e-06
2.79921e-22
-0.0215409
0.000342665
2.70284e-22
-0.0216063
1.93839e-22
-0.0213891
1.48266e-25
-1.11302e-24
4.44521e-26
-1.45598e-24
8.54389e-26
-1.55922e-24
-1.80231e-26
-1.65738e-24
-5.90432e-25
-1.74827e-24
-1.04757e-24
7.86882e-06
-0.0909332
2.22877e-05
-0.0906952
0.000170639
-0.0909394
3.75655e-05
-0.0906005
-0.000652803
-0.0898615
-0.0916596
-3.54679e-05
3.27179e-22
-2.60519e-06
4.13664e-22
-1.15067e-05
4.46592e-22
1.24477e-06
4.5725e-22
6.61503e-05
4.42104e-22
3.15503e-22
1.85964e-25
4.33391e-26
1.24961e-25
6.64596e-26
-3.94464e-25
-6.87734e-30
2.3413e-22
-7.00949e-21
6.54477e-28
2.34056e-22
-7.00261e-21
9.40937e-28
2.34304e-22
-7.00272e-21
9.74952e-28
2.32314e-22
-6.96907e-21
7.93206e-28
2.278e-22
-6.82629e-21
2.4015e-22
-7.18034e-21
2.14796e-29
1.94604e-23
-4.42917e-22
5.63516e-29
1.94638e-23
-4.42816e-22
6.16159e-29
1.94988e-23
-4.43246e-22
5.39333e-29
1.92864e-23
-4.39598e-22
4.03779e-29
1.89412e-23
-4.30892e-22
1.99635e-23
-4.54097e-22