/*--------------------------------*- C++ -*----------------------------------*\
| =========                 |                                                 |
| \\      /  F ield         | OpenFOAM: The Open Source CFD Toolbox           |
|  \\    /   O peration     | Version:  v1612+                                |
|   \\  /    A nd           | Web:      www.OpenFOAM.com                      |
|    \\/     M anipulation  |                                                 |
\*---------------------------------------------------------------------------*/
FoamFile
{
    version     2.0;
    format      ascii;
    class       volScalarField;
    location    "4";
    object      p_rgh;
}
// * * * * * * * * * * * * * * * * * * * * * * * * * * * * * * * * * * * * * //

dimensions      [1 -1 -2 0 0 0 0];

internalField   nonuniform List<scalar> 
1116
(
5316.67
5316.69
5316.69
5316.72
5316.74
5316.66
5376.32
5376.35
5376.35
5376.38
5376.39
5376.32
5719.29
5719.3
5719.31
5719.33
5719.34
5719.3
6288.7
6288.72
6288.73
6288.73
6288.74
6288.73
7054.21
7054.24
7054.25
7054.25
7054.26
7054.26
8003
8003.01
8003.03
8003.03
8003.03
8003.04
9647.47
9647.48
9647.5
9647.51
9647.51
9647.53
12652.2
12652.2
12652.2
12652.3
12652.3
12652.3
16503
16502.9
16502.9
16502.9
16502.9
16502.9
20240.6
20240.4
20240.4
20240.4
20240.4
20240.5
23671.3
23670.8
23670.8
23670.8
23670.8
23671.1
26589.5
26589.3
26589.3
26589.3
26589.3
26589.5
-30.605
-30.6045
-30.6045
-30.6051
-30.6059
-30.6065
-39.2043
-39.2031
-39.2034
-39.2041
-39.2049
-39.206
-64.5978
-64.5977
-64.5984
-64.5988
-64.5993
-64.6004
-94.9552
-94.9561
-94.9568
-94.9569
-94.9568
-94.9566
-37.1782
-37.1775
-37.1775
-37.1775
-37.1767
-37.1755
156.169
156.186
156.185
156.186
156.193
156.187
861.717
861.741
861.758
861.773
861.785
861.771
3579.47
3579.33
3579.42
3579.44
3579.38
3579.54
11838.7
11838.1
11838.3
11838.3
11838.2
11838.6
20886.4
20885.7
20885.9
20885.9
20885.8
20886.1
24449.3
24446.3
24446.6
24446.4
24446.5
24448.4
27917.4
27917.1
27917.1
27917
27917.1
27917.3
-8.38174
-8.38178
-8.38199
-8.38262
-8.38329
-8.38374
-12.3067
-12.3068
-12.3072
-12.3077
-12.3083
-12.309
-27.2429
-27.243
-27.2434
-27.2437
-27.244
-27.2444
-58.579
-58.5789
-58.5794
-58.5793
-58.579
-58.5797
-55.26
-55.259
-55.259
-55.2585
-55.2579
-55.2593
9.33432
9.33446
9.3345
9.33496
9.33533
9.33519
44.3302
44.3248
44.3254
44.3251
44.3246
44.3273
75.1716
75.1362
75.1498
75.151
75.1487
75.1607
1070.85
1069.66
1070.22
1070.22
1069.96
1070.49
12261.3
12259.8
12260.5
12260.5
12260
12260.9
27659.7
27661.6
27661.5
27661.5
27661.1
27660.3
31771.3
31771.5
31771.6
31771.6
31771.6
31771.4
-14.4951
-14.4952
-14.4955
-14.4959
-14.4964
-14.4968
-16.4273
-16.4274
-16.4277
-16.4281
-16.4284
-16.4287
-21.3289
-21.329
-21.3291
-21.3292
-21.3292
-21.3295
-26.5513
-26.551
-26.551
-26.5508
-26.5504
-26.5509
-9.45382
-9.45301
-9.45289
-9.4524
-9.45178
-9.45238
20.3248
20.3251
20.3251
20.3257
20.3262
20.326
34.1277
34.1245
34.1256
34.1256
34.1255
34.1265
62.1257
62.1229
62.1235
62.1242
62.1235
62.1244
67.5972
67.515
67.5547
67.5624
67.5577
67.572
5816.16
5817.29
5817.37
5816.64
5817.66
5815.71
28222.5
28237.2
28230.9
28228.3
28233.9
28225.6
36821
36824.2
36822.8
36823
36823.6
36821.9
8.79824
8.79824
8.79824
8.79823
8.79822
8.79821
9.24211
9.24211
9.24211
9.2421
9.24209
9.24208
10.1603
10.1604
10.1604
10.1604
10.1604
10.1604
11.6176
11.6176
11.6177
11.6177
11.6177
11.6178
13.7207
13.7207
13.7208
13.7208
13.7207
13.7207
16.6286
16.6286
16.6286
16.6285
16.6285
16.6285
20.5575
20.5575
20.5577
20.5578
20.5587
20.5596
25.7757
25.7751
25.7765
25.7752
25.7792
25.7837
32.3762
32.3712
32.3811
32.3625
32.3736
32.4003
38.1105
38.0944
38.133
38.0514
38.0727
38.1894
32.1697
32.1564
32.181
32.1342
32.1264
32.2113
11.7566
11.7553
11.7561
11.7546
11.751
11.7603
8.33861
8.33861
8.33861
8.3386
8.33859
8.33859
8.76733
8.76733
8.76733
8.76732
8.7673
8.76729
9.65235
9.65235
9.65235
9.65235
9.65235
9.65235
11.0524
11.0524
11.0524
11.0525
11.0525
11.0525
13.0741
13.0741
13.0742
13.0743
13.0744
13.0745
15.9051
15.9051
15.9053
15.9055
15.906
15.9065
19.8581
19.8579
19.8589
19.8582
19.8603
19.8625
25.6377
25.6348
25.6417
25.6306
25.6379
25.652
35.5991
35.581
35.6304
35.5278
35.5503
35.6912
49.7611
49.7087
49.8485
49.566
49.5684
50.0205
26.899
26.8983
26.8876
26.9231
26.8208
26.9021
-11.2668
-11.2669
-11.2917
-11.233
-11.2814
-11.2784
7.43283
7.43284
7.43284
7.43283
7.43282
7.43281
7.81437
7.81438
7.81437
7.81436
7.81435
7.81434
8.59831
8.59832
8.59832
8.59832
8.59832
8.59832
9.83224
9.83227
9.83232
9.83237
9.83243
9.83246
11.6044
11.6044
11.6046
11.6048
11.605
11.6052
14.0942
14.0942
14.0948
14.0946
14.0957
14.0966
17.6154
17.614
17.6175
17.6141
17.6175
17.6214
23.341
23.33
23.3527
23.3185
23.3311
23.3696
36.9587
36.9044
36.9976
36.8554
36.8753
37.0759
53.5477
53.4651
53.9243
52.994
52.9303
54.3917
65.7336
65.6623
66.8938
64.0893
63.0636
68.9134
-43.1701
-43.1392
-43.1469
-43.2334
-43.2708
-43.0298
6.14986
6.14987
6.14987
6.14986
6.14985
6.14984
6.45159
6.4516
6.4516
6.45159
6.45158
6.45157
7.05462
7.05463
7.05464
7.05464
7.05464
7.05464
7.95203
7.95207
7.95213
7.95218
7.95224
7.95227
9.11618
9.11626
9.11648
9.11663
9.11689
9.11699
10.4818
10.4817
10.4825
10.4827
10.4834
10.4834
11.7291
11.7282
11.7306
11.7312
11.7332
11.7304
11.7315
11.7256
11.7312
11.7402
11.7503
11.7211
7.86992
7.86072
7.83409
7.94915
7.96746
7.78183
-17.2637
-17.2176
-17.3596
-16.9948
-17.0036
-17.4603
494.588
492.11
496.867
489.301
486.654
504.885
1326.14
1323.34
1335.9
1309.36
1291.13
1365.75
-10.0792
-10.0793
-10.0795
-10.0798
-10.0801
-10.0803
-7.22044
-7.22052
-7.22061
-7.22071
-7.22081
-7.22086
-4.41886
-4.41892
-4.41887
-4.4188
-4.41874
-4.41861
-10.9868
-10.9869
-10.9871
-10.9873
-10.9875
-10.9876
-7.18645
-7.18654
-7.18658
-7.18664
-7.1867
-7.18665
-4.17269
-4.17273
-4.17269
-4.17265
-4.17262
-4.17253
-12.8083
-12.8082
-12.8083
-12.8083
-12.8084
-12.8084
-6.60246
-6.60238
-6.60233
-6.60232
-6.60233
-6.60233
-3.53616
-3.5362
-3.5362
-3.53621
-3.53624
-3.53621
-12.1538
-12.1537
-12.1536
-12.1536
-12.1536
-12.1535
-3.76212
-3.76195
-3.76184
-3.76183
-3.76189
-3.76201
-2.44545
-2.44549
-2.44552
-2.44556
-2.44559
-2.44558
-2.22491
-2.2253
-2.2253
-2.22533
-2.22543
-2.22494
2.93652
2.93654
2.93659
2.93664
2.9367
2.93673
-1.08925
-1.08928
-1.08932
-1.08937
-1.08939
-1.08938
15.6752
15.6744
15.6743
15.6741
15.6739
15.6744
8.22907
8.22927
8.22932
8.22948
8.22971
8.22977
1.27439
1.27427
1.27423
1.27421
1.27425
1.27436
18.6693
18.6698
18.6699
18.67
18.67
18.6696
11.1438
11.1464
11.1463
11.1467
11.1472
11.1464
1.04893
1.04932
1.04947
1.04959
1.0499
1.04952
40.921
40.9201
40.9216
40.9226
40.9217
40.9235
22.6526
22.6533
22.6548
22.655
22.6547
22.6541
3.10442
3.10351
3.10421
3.10429
3.10412
3.10362
-7.52711
-7.45748
-7.48083
-7.4879
-7.48398
-7.49318
-26.4095
-26.373
-26.3914
-26.3906
-26.3891
-26.3986
-14.3911
-14.384
-14.389
-14.3863
-14.3862
-14.3906
-21.6159
-17.1647
-19.2208
-19.8157
-18.9786
-19.9566
-64.6075
-64.6288
-64.6234
-64.6209
-64.6261
-64.6209
-20.9677
-20.9668
-20.9643
-20.9639
-20.9634
-20.9706
5165.6
5179.5
5173.54
5172.32
5174.31
5171.05
-51.2801
-51.2802
-51.2844
-51.2889
-51.2862
-51.2842
-1.9521
-1.95541
-1.9529
-1.9514
-1.94609
-1.95672
14748.4
14758.7
14754.3
14756.8
14759.7
14751
-16.0491
-16.0655
-16.0618
-16.0801
-16.092
-16.0278
-7.18605
-7.19028
-7.19192
-7.18823
-7.18631
-7.19425
17798.9
17788.2
17800.4
17808.5
17798.5
17835.1
6.23755
6.17225
6.17225
6.19726
6.34567
5.90472
5.8058
4.73675
4.55588
6.41757
6.38829
3.60406
20647.8
20665.5
20660.7
20677.4
20732.5
20599.7
12.2148
12.1805
12.1813
12.1879
12.2071
12.0333
-1.69643
-1.58888
-1.56366
-1.79232
-1.78532
-1.48918
26659.8
26664.8
26666.5
26666.5
26685.8
26636.9
38.3914
38.3485
38.364
38.3686
38.3664
38.324
-1.20639
-1.20879
-1.2132
-1.21237
-1.21311
-1.21651
29355.4
29356.5
29358
29358.6
29359.6
29358.3
1732.43
1734.85
1735.43
1737.07
1749.11
1727.11
-1.62684
-1.6155
-1.6157
-1.62306
-1.60811
-1.62999
29564.7
29565.6
29567
29567.3
29566.3
29568.5
4244.05
4249.47
4247.91
4252.4
4269.89
4228.66
-0.314992
-0.303803
-0.30541
-0.302645
-0.282241
-0.329719
29516.9
29517.1
29518.8
29519.2
29517.3
29521.9
1569.12
1575.29
1571
1576
1585.24
1560.67
-2.49323
-2.48019
-2.48512
-2.47974
-2.4656
-2.50455
4.58441
4.58442
4.58442
4.58442
4.58441
4.5844
2.82012
2.82012
2.82012
2.82011
2.82011
2.8201
0.957184
0.957185
0.957185
0.957184
0.957181
0.957178
4.79167
4.79167
4.79167
4.79166
4.79165
4.79164
2.93438
2.93438
2.93437
2.93436
2.93435
2.93434
0.99072
0.990719
0.990717
0.990713
0.990708
0.990705
5.18991
5.18992
5.18992
5.18992
5.18991
5.1899
3.14452
3.14453
3.14452
3.14452
3.14451
3.14451
1.04728
1.04728
1.04728
1.04727
1.04727
1.04726
5.73024
5.73027
5.7303
5.73033
5.73035
5.73037
3.39694
3.39697
3.39698
3.397
3.39701
3.39702
1.10001
1.10002
1.10002
1.10002
1.10002
1.10003
6.28208
6.28219
6.2823
6.28247
6.28257
6.28261
3.56763
3.56776
3.56778
3.56788
3.56788
3.56801
1.09532
1.09536
1.09537
1.09538
1.09538
1.09541
6.49185
6.49214
6.49237
6.49307
6.49321
6.49317
3.42779
3.42814
3.42807
3.4285
3.42837
3.42887
0.93186
0.93195
0.931992
0.932017
0.932004
0.932173
5.43015
5.43125
5.43074
5.43423
5.43345
5.43336
2.56828
2.56876
2.56868
2.57023
2.56962
2.56911
0.959443
0.959393
0.959228
0.958997
0.958655
0.958792
0.843896
0.848275
0.844605
0.856
0.852417
0.855644
-0.764448
-0.759234
-0.762219
-0.765408
-0.776969
-0.744036
-0.957009
-0.957244
-0.957391
-0.957032
-0.958161
-0.957568
-10.2933
-10.2839
-10.2861
-10.2603
-10.248
-10.2677
-2.8504
-2.86827
-2.87455
-2.83551
-2.83328
-2.88288
0.941655
0.941552
0.93664
0.925317
0.91937
0.939504
-42.8733
-42.7909
-42.7795
-42.7921
-42.7549
-42.5881
-18.6603
-18.7727
-18.717
-18.3443
-18.3845
-18.6628
-5.42345
-5.46612
-5.4533
-5.36234
-5.34049
-5.51644
-59.7125
-59.8457
-59.9051
-59.3956
-59.3436
-60.1502
80.9346
88.066
91.0848
73.9105
64.5534
102.833
1.91107
1.92516
1.89692
1.78279
1.67617
1.90225
6058.53
6035.99
6070.4
6021.65
5947.31
6183.45
363.334
367.371
376.032
344.362
322.51
381.421
12.4989
13.1146
12.2203
13.7121
15.2122
10.8303
)
;

boundaryField
{
    seabed_topleft_surface
    {
        type            fixedFluxPressure;
        gradient        uniform 0;
        value           nonuniform List<scalar> 
72
(
5316.67
5316.69
5316.69
5316.72
5316.74
5316.66
5376.32
5376.35
5376.35
5376.38
5376.39
5376.32
5719.29
5719.3
5719.31
5719.33
5719.34
5719.3
6288.7
6288.72
6288.73
6288.73
6288.74
6288.73
7054.21
7054.24
7054.25
7054.25
7054.26
7054.26
8003
8003.01
8003.03
8003.03
8003.03
8003.04
9647.47
9647.48
9647.5
9647.51
9647.51
9647.53
12652.2
12652.2
12652.2
12652.3
12652.3
12652.3
16503
16502.9
16502.9
16502.9
16502.9
16502.9
20240.6
20240.4
20240.4
20240.4
20240.4
20240.5
23671.3
23670.8
23670.8
23670.8
23670.8
23671.1
26589.5
26589.3
26589.3
26589.3
26589.3
26589.5
)
;
    }
    seabed_topright_surface
    {
        type            fixedFluxPressure;
        gradient        uniform 0;
        value           nonuniform List<scalar> 
72
(
8.79824
8.79824
8.79824
8.79823
8.79822
8.79821
9.24211
9.24211
9.24211
9.2421
9.24209
9.24208
10.1603
10.1604
10.1604
10.1604
10.1604
10.1604
11.6176
11.6176
11.6177
11.6177
11.6177
11.6178
13.7207
13.7207
13.7208
13.7208
13.7207
13.7207
16.6286
16.6286
16.6286
16.6285
16.6285
16.6285
20.5575
20.5575
20.5577
20.5578
20.5587
20.5596
25.7757
25.7751
25.7765
25.7752
25.7792
25.7837
32.3762
32.3712
32.3811
32.3625
32.3736
32.4003
38.1105
38.0944
38.133
38.0514
38.0727
38.1894
32.1697
32.1564
32.181
32.1342
32.1264
32.2113
11.7566
11.7553
11.7561
11.7546
11.751
11.7603
)
;
    }
    breakwater_top_surface
    {
        type            fixedFluxPressure;
        gradient        uniform 0;
        value           nonuniform List<scalar> 
36
(
17798.9
17788.2
17800.4
17808.5
17798.5
17835.1
20647.8
20665.5
20660.7
20677.4
20732.5
20599.7
26659.8
26664.8
26666.5
26666.5
26685.8
26636.9
29355.4
29356.5
29358
29358.6
29359.6
29358.3
29564.7
29565.6
29567
29567.3
29566.3
29568.5
29516.9
29517.1
29518.8
29519.2
29517.3
29521.9
)
;
    }
    breakwater_left_surface
    {
        type            fixedFluxPressure;
        gradient        uniform 0;
        value           nonuniform List<scalar> 
24
(
26589.5
26589.3
26589.3
26589.3
26589.3
26589.5
27917.4
27917.1
27917.1
27917
27917.1
27917.3
31771.3
31771.5
31771.6
31771.6
31771.6
31771.4
36821
36824.2
36822.8
36823
36823.6
36821.9
)
;
    }
    breakwater_right_surface
    {
        type            fixedFluxPressure;
        gradient        uniform 0;
        value           nonuniform List<scalar> 
24
(
11.7566
11.7553
11.7561
11.7546
11.751
11.7603
-11.2668
-11.2669
-11.2917
-11.233
-11.2814
-11.2784
-43.1701
-43.1392
-43.1469
-43.2334
-43.2708
-43.0298
1326.14
1323.34
1335.9
1309.36
1291.13
1365.75
)
;
    }
    water_front_surface
    {
        type            fixedFluxPressure;
        gradient        uniform 0;
        value           nonuniform List<scalar> 
186
(
5316.67
5376.32
5719.29
6288.7
7054.21
8003
9647.47
12652.2
16503
20240.6
23671.3
26589.5
-30.605
-39.2043
-64.5978
-94.9552
-37.1782
156.169
861.717
3579.47
11838.7
20886.4
24449.3
27917.4
-8.38174
-12.3067
-27.2429
-58.579
-55.26
9.33432
44.3302
75.1716
1070.85
12261.3
27659.7
31771.3
-14.4951
-16.4273
-21.3289
-26.5513
-9.45382
20.3248
34.1277
62.1257
67.5972
5816.16
28222.5
36821
8.79824
9.24211
10.1603
11.6176
13.7207
16.6286
20.5575
25.7757
32.3762
38.1105
32.1697
11.7566
8.33861
8.76733
9.65235
11.0524
13.0741
15.9051
19.8581
25.6377
35.5991
49.7611
26.899
-11.2668
7.43283
7.81437
8.59831
9.83224
11.6044
14.0942
17.6154
23.341
36.9587
53.5477
65.7336
-43.1701
6.14986
6.45159
7.05462
7.95203
9.11618
10.4818
11.7291
11.7315
7.86992
-17.2637
494.588
1326.14
-10.0792
-7.22044
-4.41886
-10.9868
-7.18645
-4.17269
-12.8083
-6.60246
-3.53616
-12.1538
-3.76212
-2.44545
-2.22491
2.93652
-1.08925
15.6752
8.22907
1.27439
18.6693
11.1438
1.04893
40.921
22.6526
3.10442
-7.52711
-26.4095
-14.3911
-21.6159
-64.6075
-20.9677
5165.6
-51.2801
-1.9521
14748.4
-16.0491
-7.18605
17798.9
6.23755
5.8058
20647.8
12.2148
-1.69643
26659.8
38.3914
-1.20639
29355.4
1732.43
-1.62684
29564.7
4244.05
-0.314992
29516.9
1569.12
-2.49323
4.58441
2.82012
0.957184
4.79167
2.93438
0.99072
5.18991
3.14452
1.04728
5.73024
3.39694
1.10001
6.28208
3.56763
1.09532
6.49185
3.42779
0.93186
5.43015
2.56828
0.959443
0.843896
-0.764448
-0.957009
-10.2933
-2.8504
0.941655
-42.8733
-18.6603
-5.42345
-59.7125
80.9346
1.91107
6058.53
363.334
12.4989
)
;
    }
    water_back_surface
    {
        type            fixedFluxPressure;
        gradient        uniform 0;
        value           nonuniform List<scalar> 
186
(
5316.66
5376.32
5719.3
6288.73
7054.26
8003.04
9647.53
12652.3
16502.9
20240.5
23671.1
26589.5
-30.6065
-39.206
-64.6004
-94.9566
-37.1755
156.187
861.771
3579.54
11838.6
20886.1
24448.4
27917.3
-8.38374
-12.309
-27.2444
-58.5797
-55.2593
9.33519
44.3273
75.1607
1070.49
12260.9
27660.3
31771.4
-14.4968
-16.4287
-21.3295
-26.5509
-9.45238
20.326
34.1265
62.1244
67.572
5815.71
28225.6
36821.9
8.79821
9.24208
10.1604
11.6178
13.7207
16.6285
20.5596
25.7837
32.4003
38.1894
32.2113
11.7603
8.33859
8.76729
9.65235
11.0525
13.0745
15.9065
19.8625
25.652
35.6912
50.0205
26.9021
-11.2784
7.43281
7.81434
8.59832
9.83246
11.6052
14.0966
17.6214
23.3696
37.0759
54.3917
68.9134
-43.0298
6.14984
6.45157
7.05464
7.95227
9.11699
10.4834
11.7304
11.7211
7.78183
-17.4603
504.885
1365.75
-10.0803
-7.22086
-4.41861
-10.9876
-7.18665
-4.17253
-12.8084
-6.60233
-3.53621
-12.1535
-3.76201
-2.44558
-2.22494
2.93673
-1.08938
15.6744
8.22977
1.27436
18.6696
11.1464
1.04952
40.9235
22.6541
3.10362
-7.49318
-26.3986
-14.3906
-19.9566
-64.6209
-20.9706
5171.05
-51.2842
-1.95672
14751
-16.0278
-7.19425
17835.1
5.90472
3.60406
20599.7
12.0333
-1.48918
26636.9
38.324
-1.21651
29358.3
1727.11
-1.62999
29568.5
4228.66
-0.329719
29521.9
1560.67
-2.50455
4.5844
2.8201
0.957178
4.79164
2.93434
0.990705
5.1899
3.14451
1.04726
5.73037
3.39702
1.10003
6.28261
3.56801
1.09541
6.49317
3.42887
0.932173
5.43336
2.56911
0.958792
0.855644
-0.744036
-0.957568
-10.2677
-2.88288
0.939504
-42.5881
-18.6628
-5.51644
-60.1502
102.833
1.90225
6183.45
381.421
10.8303
)
;
    }
    water_left_surface
    {
        type            fixedFluxPressure;
        gradient        uniform 0;
        value           nonuniform List<scalar> 
42
(
5316.67
5316.69
5316.69
5316.72
5316.74
5316.66
-30.605
-30.6045
-30.6045
-30.6051
-30.6059
-30.6065
-8.38174
-8.38178
-8.38199
-8.38262
-8.38329
-8.38374
-14.4951
-14.4952
-14.4955
-14.4959
-14.4964
-14.4968
-10.0792
-10.0793
-10.0795
-10.0798
-10.0801
-10.0803
-7.22044
-7.22052
-7.22061
-7.22071
-7.22081
-7.22086
-4.41886
-4.41892
-4.41887
-4.4188
-4.41874
-4.41861
)
;
    }
    water_right_surface
    {
        type            fixedFluxPressure;
        gradient        uniform 0;
        value           nonuniform List<scalar> 
42
(
8.79824
8.79824
8.79824
8.79823
8.79822
8.79821
8.33861
8.33861
8.33861
8.3386
8.33859
8.33859
7.43283
7.43284
7.43284
7.43283
7.43282
7.43281
6.14986
6.14987
6.14987
6.14986
6.14985
6.14984
4.58441
4.58442
4.58442
4.58442
4.58441
4.5844
2.82012
2.82012
2.82012
2.82011
2.82011
2.8201
0.957184
0.957185
0.957185
0.957184
0.957181
0.957178
)
;
    }
    water_top_surface
    {
        type            totalPressure;
        rho             rho;
        psi             none;
        gamma           1;
        p0              uniform 0;
        value           nonuniform List<scalar> 
180
(
-2.95881
-2.9591
-2.95892
-2.95878
-2.95868
-2.95819
-2.66339
-2.66361
-2.66345
-2.66336
-2.66334
-2.66296
-1.76924
-1.76952
-1.76951
-1.76954
-1.76963
-1.76943
-0.71501
-0.71533
-0.715392
-0.715435
-0.715462
-0.715243
-0.00822524
-0.00825817
-0.00825948
-0.0082558
-0.00824772
-0.0082098
0
0
0
0
0
0
0
0
0
0
0
0
0
0
0
0
0
0
0
0
0
0
0
0
0
0
0
0
0
0
0
0
0
0
0
0
-20.6001
-20.6557
-20.6321
-20.6295
-20.655
-20.6003
-13.3702
-14.6784
-14.8385
-12.8847
-12.8348
-15.376
-22.3378
-22.1412
-22.0471
-22.5301
-22.5813
-21.7197
-3.53749
-3.54125
-3.52413
-3.56315
-3.58506
-3.48648
-10.5766
-10.6041
-10.588
-10.6222
-10.7341
-10.4793
-14.6943
-14.7292
-14.701
-14.7354
-14.8078
-14.626
-19.8714
-19.9433
-19.8981
-19.9201
-19.9645
-19.8464
0
0
0
0
0
0
0
0
0
0
0
0
0
0
0
0
0
0
0
0
0
0
0
0
0
0
0
0
0
0
0
0
0
0
0
0
0
0
0
0
0
0
0
0
0
0
0
0
0
0
0
0
0
0
-0.00946418
-0.00836049
-0.008411
-0.00949272
-0.0108371
-0.00562967
-1.78285
-1.78876
-1.79227
-1.8187
-1.86863
-1.75911
0
0
0
0
0
0
)
;
    }
}


// ************************************************************************* //
