/*--------------------------------*- C++ -*----------------------------------*\
| =========                 |                                                 |
| \\      /  F ield         | OpenFOAM: The Open Source CFD Toolbox           |
|  \\    /   O peration     | Version:  v1612+                                |
|   \\  /    A nd           | Web:      www.OpenFOAM.com                      |
|    \\/     M anipulation  |                                                 |
\*---------------------------------------------------------------------------*/
FoamFile
{
    version     2.0;
    format      ascii;
    class       volVectorField;
    location    "4";
    object      U;
}
// * * * * * * * * * * * * * * * * * * * * * * * * * * * * * * * * * * * * * //

dimensions      [0 1 -1 0 0 0 0];

internalField   nonuniform List<vector> 
1116
(
(0.258193 1.46159e-05 -0.254677)
(0.258189 1.99391e-05 -0.254686)
(0.258192 1.172e-06 -0.254673)
(0.258192 5.8694e-06 -0.254671)
(0.258189 -5.10621e-06 -0.254684)
(0.258192 -9.97221e-06 -0.25467)
(0.808251 1.71329e-05 -0.370172)
(0.808256 1.86159e-05 -0.370188)
(0.808253 2.8142e-06 -0.37017)
(0.808255 6.65212e-06 -0.370165)
(0.808254 5.36702e-07 -0.370183)
(0.80825 -8.58146e-06 -0.370172)
(1.21182 1.65311e-05 -0.310752)
(1.21185 1.47953e-05 -0.310773)
(1.21184 1.60015e-06 -0.310756)
(1.21184 5.09826e-06 -0.310751)
(1.21185 3.59331e-06 -0.310769)
(1.21183 -6.2356e-06 -0.310759)
(1.5102 1.45767e-05 -0.198666)
(1.51025 1.19121e-05 -0.19869)
(1.51023 5.64399e-07 -0.198675)
(1.51024 4.47057e-06 -0.198672)
(1.51025 2.81031e-06 -0.198689)
(1.51021 -5.23909e-06 -0.198677)
(1.73767 1.27942e-05 -0.0933107)
(1.73773 1.06327e-05 -0.0933328)
(1.73771 -4.06046e-09 -0.0933211)
(1.73771 3.81514e-06 -0.0933197)
(1.73772 8.82123e-07 -0.0933342)
(1.73767 -4.66013e-06 -0.0933205)
(1.81795 9.45739e-06 -0.000753521)
(1.81802 9.32893e-06 -0.000769393)
(1.818 -1.01151e-06 -0.000760041)
(1.818 2.1345e-06 -0.000759297)
(1.81801 -2.41235e-06 -0.000770189)
(1.81795 -4.08672e-06 -0.000756777)
(1.60772 4.28507e-06 0.120444)
(1.6078 7.19504e-06 0.120436)
(1.60778 -2.97217e-06 0.120443)
(1.60778 -5.47009e-07 0.120444)
(1.60779 -7.50486e-06 0.120436)
(1.60772 -4.11082e-06 0.120448)
(1.0528 -2.19696e-06 0.356406)
(1.05288 5.46495e-06 0.3564)
(1.05287 -3.51313e-06 0.356403)
(1.05286 -2.64868e-06 0.356404)
(1.05288 -1.33178e-05 0.356397)
(1.0528 -5.05693e-06 0.356412)
(0.0105279 6.44477e-06 0.722314)
(0.0105799 1.52758e-05 0.722337)
(0.0105943 -7.57418e-06 0.722321)
(0.0105885 2.2363e-06 0.722322)
(0.0106019 -2.38261e-05 0.722326)
(0.0104936 -1.80584e-05 0.72233)
(-1.35678 3.47757e-05 0.470654)
(-1.35674 3.63324e-05 0.470745)
(-1.3567 -8.43572e-06 0.470723)
(-1.35671 1.67956e-05 0.470722)
(-1.35668 -2.67953e-05 0.470755)
(-1.35688 -3.16384e-05 0.470643)
(-2.00907 6.5264e-05 -0.653987)
(-2.00905 4.66307e-05 -0.653927)
(-2.00902 -1.52989e-05 -0.653924)
(-2.00902 1.75319e-05 -0.653932)
(-2.009 -3.35706e-05 -0.653906)
(-2.00915 -3.6246e-05 -0.654057)
(-1.0185 1.57753e-05 -1.231)
(-1.01841 -1.80671e-06 -1.23102)
(-1.01842 -1.6978e-05 -1.23102)
(-1.01843 -8.7686e-06 -1.23103)
(-1.01839 -1.0574e-05 -1.23103)
(-1.01848 2.59447e-06 -1.23104)
(1.88047 7.31249e-05 -1.47733)
(1.88068 0.000133608 -1.47721)
(1.88075 3.7313e-05 -1.4772)
(1.88063 5.68476e-07 -1.47724)
(1.88065 8.44578e-05 -1.47721)
(1.88064 7.67946e-06 -1.47728)
(6.20011 -4.9253e-06 -1.24597)
(6.20039 6.06795e-06 -1.24588)
(6.20055 5.12592e-05 -1.24586)
(6.20037 3.80251e-05 -1.24591)
(6.20042 0.000131912 -1.24588)
(6.20042 2.39069e-05 -1.24589)
(10.4473 -4.16135e-05 -0.995873)
(10.4475 -7.74662e-05 -0.995796)
(10.4477 4.09316e-05 -0.995796)
(10.4475 4.91077e-06 -0.995843)
(10.4476 0.000139444 -0.995814)
(10.4476 6.31097e-05 -0.995796)
(14.6931 -8.53948e-05 -0.799686)
(14.6933 -0.000184318 -0.799615)
(14.6935 -3.23091e-05 -0.799631)
(14.6933 -0.000165982 -0.799661)
(14.6934 8.98623e-05 -0.799632)
(14.6935 0.000101873 -0.799618)
(18.0699 -0.000270249 -0.0618875)
(18.0699 -0.000489877 -0.0618195)
(18.0701 -0.000215867 -0.0618409)
(18.0698 -0.000463515 -0.0618503)
(18.0695 -2.28844e-05 -0.0618199)
(18.0699 0.000126782 -0.0618263)
(11.5552 -0.000127829 0.449252)
(11.5535 -0.000302855 0.44913)
(11.5537 -0.000106574 0.449129)
(11.5534 -0.00024659 0.449108)
(11.5526 -1.49744e-05 0.449055)
(11.5537 1.36358e-05 0.449137)
(5.09483 5.74034e-05 0.626393)
(5.09458 -2.21603e-05 0.62639)
(5.09454 1.80451e-06 0.626384)
(5.09439 -1.47239e-05 0.626377)
(5.09422 1.11256e-05 0.626365)
(5.09446 -5.73036e-05 0.626373)
(2.59881 4.69103e-05 1.10793)
(2.59911 1.21133e-06 1.10795)
(2.59897 -1.40899e-05 1.10794)
(2.59895 -5.01718e-06 1.10794)
(2.59904 -1.17468e-05 1.10794)
(2.59882 -4.98759e-05 1.10792)
(1.24239 8.98185e-05 1.44714)
(1.24266 4.38744e-05 1.44725)
(1.24257 -3.47543e-05 1.4472)
(1.24258 1.35826e-05 1.4472)
(1.24267 -4.05803e-05 1.44723)
(1.24242 -7.05566e-05 1.44717)
(0.315953 0.000119029 1.15129)
(0.316204 8.27164e-05 1.15151)
(0.316136 -2.64531e-05 1.15142)
(0.316144 3.60519e-05 1.15142)
(0.316228 -3.81858e-05 1.15147)
(0.315969 -6.693e-05 1.15133)
(-0.310652 0.000143443 0.0133845)
(-0.310369 0.00011157 0.0137855)
(-0.310433 -7.57354e-06 0.0136337)
(-0.310432 4.42722e-05 0.01363)
(-0.310332 -4.92255e-05 0.0137335)
(-0.310599 -6.4454e-05 0.013444)
(-0.622799 -4.04545e-05 -1.5642)
(-0.622266 -4.04308e-05 -1.56397)
(-0.622395 1.3018e-06 -1.56405)
(-0.622398 -1.96046e-05 -1.56405)
(-0.622239 2.67401e-05 -1.56399)
(-0.622714 4.86944e-05 -1.56419)
(-0.393341 -0.000112544 -5.35853)
(-0.39335 -0.000102888 -5.35869)
(-0.393416 2.60139e-06 -5.35867)
(-0.393366 1.29574e-05 -5.3587)
(-0.393317 5.80343e-05 -5.35867)
(-0.39344 9.79611e-05 -5.35851)
(-1.59393 -8.42155e-05 -6.22526)
(-1.59393 -5.26854e-05 -6.22563)
(-1.59402 7.22943e-06 -6.22557)
(-1.59393 1.31392e-05 -6.22556)
(-1.59384 7.97235e-05 -6.2256)
(-1.59399 0.000112395 -6.22519)
(-2.76775 -0.000100598 -6.57657)
(-2.76777 -7.40415e-05 -6.57697)
(-2.76776 1.75864e-06 -6.57687)
(-2.76776 -3.11176e-05 -6.5769)
(-2.76773 9.8783e-05 -6.57697)
(-2.7676 0.000143762 -6.57645)
(-3.30089 -0.000158747 -4.07733)
(-3.30113 -0.000182268 -4.07766)
(-3.30101 -5.81047e-05 -4.07755)
(-3.30112 -0.000156151 -4.07756)
(-3.30122 0.00011883 -4.07763)
(-3.30064 0.000203365 -4.07713)
(0.914546 -0.000123905 2.69356)
(0.913829 -0.000275058 2.69349)
(0.914284 -0.000131877 2.69361)
(0.913833 -0.000228467 2.69355)
(0.913283 1.72686e-05 2.69344)
(0.914793 5.54663e-05 2.69374)
(3.51148 5.6543e-06 8.25877)
(3.51047 -0.000144978 8.25832)
(3.51083 -5.87085e-05 8.25845)
(3.51037 -9.82103e-05 8.25828)
(3.5097 -1.196e-05 8.25799)
(3.51105 -7.7037e-05 8.25845)
(5.04586 0.00022584 7.33916)
(5.04567 0.000124601 7.33829)
(5.04567 3.43746e-05 7.3383)
(5.04542 5.82545e-05 7.33807)
(5.04516 -4.46662e-05 7.33766)
(5.04555 -0.000181036 7.33829)
(5.49355 0.000532835 4.48281)
(5.49699 0.000330019 4.4826)
(5.49524 -0.000107956 4.48242)
(5.49517 5.15671e-05 4.48223)
(5.49557 -0.000144451 4.48216)
(5.49472 -0.000256439 4.48231)
(0.703142 0.000619498 2.62711)
(0.706308 0.000311454 2.62765)
(0.704815 -0.000256567 2.62737)
(0.704836 6.99451e-05 2.62734)
(0.705468 -8.40251e-05 2.62751)
(0.704159 -0.000163689 2.62715)
(0.515502 0.000606695 1.5722)
(0.516793 0.000335783 1.57295)
(0.516177 -0.000225136 1.57262)
(0.516174 0.000152092 1.57262)
(0.516494 -0.000129692 1.5728)
(0.515878 -0.000276991 1.5724)
(0.173035 0.000459971 -0.0998476)
(0.173856 0.000258965 -0.0993621)
(0.173546 -0.000161713 -0.099576)
(0.173571 0.000130633 -0.0995133)
(0.173785 -0.000101931 -0.0994666)
(0.173241 -0.000210111 -0.0997093)
(-0.835419 -0.000125806 -1.66009)
(-0.83471 -8.93342e-05 -1.6597)
(-0.834884 2.71692e-05 -1.65982)
(-0.834884 -4.03998e-05 -1.65981)
(-0.834759 9.00103e-05 -1.65968)
(-0.835241 0.000115825 -1.66002)
(-0.239428 1.15464e-05 -2.4084)
(-0.239332 1.65891e-05 -2.40896)
(-0.239346 -1.16568e-06 -2.40886)
(-0.239347 4.8282e-06 -2.40888)
(-0.239324 -2.8089e-05 -2.409)
(-0.239441 -1.57041e-05 -2.40837)
(-0.953679 3.3364e-05 -2.72126)
(-0.953388 3.05593e-05 -2.72178)
(-0.953424 -7.86122e-06 -2.7217)
(-0.953426 7.35839e-06 -2.7217)
(-0.953365 -3.34002e-05 -2.7218)
(-0.953697 -3.39767e-05 -2.72123)
(-2.47498 2.20308e-06 -3.35607)
(-2.47454 -1.31786e-05 -3.35649)
(-2.47463 -2.67669e-05 -3.35645)
(-2.47462 -7.14146e-07 -3.35643)
(-2.47453 -1.86097e-05 -3.35649)
(-2.47499 -1.4284e-05 -3.35603)
(-4.72293 -4.49227e-05 -3.86251)
(-4.72259 -7.69743e-05 -3.86296)
(-4.72268 -6.85552e-05 -3.86288)
(-4.72269 -3.35203e-05 -3.86288)
(-4.72263 -5.46855e-06 -3.86295)
(-4.72294 2.1509e-05 -3.86239)
(-5.26189 -9.38501e-05 -2.36439)
(-5.26181 -0.000141867 -2.36505)
(-5.26185 -8.55979e-05 -2.36488)
(-5.26193 -4.21434e-05 -2.36499)
(-5.26195 3.07691e-05 -2.36521)
(-5.26193 6.07947e-05 -2.36431)
(-2.98292 -4.97844e-05 0.646985)
(-2.9832 -8.1271e-05 0.645897)
(-2.98318 -1.79005e-05 0.646072)
(-2.98338 3.06441e-05 0.64579)
(-2.98358 5.51927e-05 0.645381)
(-2.98316 3.7636e-05 0.646469)
(-1.57897 0.000209686 1.27984)
(-1.57937 0.000188229 1.27844)
(-1.5794 8.65804e-05 1.27866)
(-1.57962 0.000133134 1.27836)
(-1.57982 7.18688e-05 1.27794)
(-1.57949 3.52279e-05 1.27871)
(3.16285 0.000830428 5.75341)
(3.16722 0.000601227 5.75276)
(3.16468 -7.39318e-05 5.753)
(3.16439 0.000198835 5.75289)
(3.16474 -8.27571e-05 5.75278)
(3.1645 -0.000209411 5.75262)
(-5.16876 0.00332929 6.71748)
(-5.15512 0.00171057 6.73042)
(-5.1617 -0.00178937 6.72325)
(-5.16354 0.000112439 6.72339)
(-5.16053 -0.000394394 6.72505)
(-5.16402 -0.000689927 6.72244)
(-2.76933 0.00174201 1.2344)
(-2.76519 0.000983899 1.24147)
(-2.76709 -0.000785586 1.23819)
(-2.76769 0.000377909 1.23776)
(-2.76636 -0.000303177 1.23962)
(-2.76816 -0.000738513 1.23646)
(0.214239 0.000844796 0.584514)
(0.218738 0.000451949 0.589282)
(0.216762 -0.000398039 0.587167)
(0.216366 0.00015722 0.586801)
(0.217663 -7.00823e-05 0.588145)
(0.215557 -0.000253311 0.58586)
(-0.790778 -0.000284181 -1.50054)
(-0.790298 -0.000130195 -1.50003)
(-0.790409 0.000146627 -1.50016)
(-0.790506 2.98181e-06 -1.50021)
(-0.790629 9.98707e-05 -1.50012)
(-0.790485 7.87663e-05 -1.50033)
(0.0672042 -1.20993e-06 0.068065)
(0.0672079 -3.29571e-06 0.0680665)
(0.067209 -4.38819e-06 0.0680664)
(0.0672096 -4.30528e-06 0.0680664)
(0.0672103 -3.51416e-06 0.0680663)
(0.0672092 -1.46028e-06 0.068064)
(0.204408 -2.6746e-06 0.0710891)
(0.204419 -4.98e-06 0.0710897)
(0.204422 -5.48517e-06 0.0710892)
(0.204423 -4.7705e-06 0.071089)
(0.204425 -4.04062e-06 0.0710886)
(0.20442 -1.3398e-06 0.0710855)
(0.350343 -3.85273e-06 0.0778668)
(0.350362 -6.5907e-06 0.0778662)
(0.350365 -5.73251e-06 0.0778655)
(0.350367 -3.65001e-06 0.0778649)
(0.350369 -2.52759e-06 0.0778645)
(0.35036 -6.30532e-07 0.0778613)
(0.510906 -6.26799e-06 0.0907161)
(0.510934 -9.02447e-06 0.090708)
(0.510937 -4.5053e-06 0.0907039)
(0.510937 4.98254e-07 0.090701)
(0.510936 2.32931e-06 0.090699)
(0.51092 1.61368e-06 0.0906946)
(0.690833 -9.21027e-06 0.113689)
(0.690869 -6.23131e-06 0.113664)
(0.690863 8.5919e-06 0.113653)
(0.690852 1.82271e-05 0.113647)
(0.69084 2.10271e-05 0.113646)
(0.690807 1.05089e-05 0.113645)
(0.891285 -8.85169e-06 0.151244)
(0.891314 1.23974e-05 0.151195)
(0.891284 4.74064e-05 0.151178)
(0.891247 6.02725e-05 0.151177)
(0.891214 5.95395e-05 0.151184)
(0.891152 2.85362e-05 0.151195)
(1.10457 1.37854e-06 0.203903)
(1.10456 5.49884e-05 0.203849)
(1.1045 0.000113772 0.203841)
(1.1044 0.000111252 0.203865)
(1.10437 8.38527e-05 0.203893)
(1.1043 3.74992e-05 0.20393)
(1.29838 3.51006e-05 0.251504)
(1.29825 8.63439e-05 0.251508)
(1.29827 0.000188748 0.251471)
(1.29785 0.000106481 0.251646)
(1.29799 -0.000111213 0.251654)
(1.2982 -7.31828e-05 0.251694)
(1.38138 0.000236233 0.191726)
(1.38093 -8.17298e-05 0.192036)
(1.38153 0.000515963 0.191315)
(1.37984 0.000335161 0.193171)
(1.38051 -0.00146872 0.192731)
(1.38216 -0.00096181 0.191035)
(1.05956 0.000838231 -0.16533)
(1.05894 -0.00094768 -0.164134)
(1.05954 0.002034 -0.167332)
(1.05808 0.00233168 -0.160112)
(1.05845 -0.00628639 -0.161378)
(1.06012 -0.00481264 -0.170323)
(-0.48283 0.00127354 -0.222265)
(-0.482534 -0.00134772 -0.221257)
(-0.484841 0.00242384 -0.22351)
(-0.480098 0.00405048 -0.218662)
(-0.481757 -0.0084494 -0.217585)
(-0.48665 -0.00749718 -0.226853)
(-1.11924 0.000393971 1.63734)
(-1.11896 -0.000113827 1.6379)
(-1.12022 0.00036313 1.63827)
(-1.11789 0.000740338 1.63753)
(-1.11898 -0.00179748 1.64089)
(-1.12107 -0.00165365 1.63531)
(0.0667472 -1.32052e-06 0.199536)
(0.066751 -3.62697e-06 0.199541)
(0.0667519 -3.81973e-06 0.199541)
(0.0667524 -3.73584e-06 0.199542)
(0.0667529 -2.77409e-06 0.199542)
(0.0667515 -1.47652e-06 0.199536)
(0.202556 -1.87885e-06 0.207707)
(0.202568 -3.55512e-06 0.20771)
(0.20257 -3.22117e-06 0.20771)
(0.202571 -2.72043e-06 0.207709)
(0.202572 -1.99231e-06 0.207709)
(0.202568 -8.01337e-07 0.207701)
(0.344854 -1.38952e-06 0.22299)
(0.344874 -1.74916e-06 0.22299)
(0.344876 -1.6165e-07 0.222988)
(0.344877 9.42212e-07 0.222986)
(0.344877 1.01976e-06 0.222985)
(0.344868 1.8257e-07 0.222977)
(0.496757 1.5268e-06 0.242331)
(0.496784 6.21211e-06 0.242314)
(0.496783 1.03933e-05 0.242304)
(0.496779 1.19526e-05 0.242297)
(0.496775 9.9798e-06 0.242292)
(0.496759 3.45915e-06 0.242284)
(0.661083 9.30804e-06 0.258948)
(0.661112 2.59959e-05 0.258894)
(0.661099 3.45989e-05 0.258869)
(0.661083 3.49743e-05 0.258858)
(0.66107 2.82907e-05 0.258857)
(0.661039 1.06821e-05 0.258863)
(0.841561 2.11507e-05 0.259625)
(0.841566 5.33722e-05 0.259526)
(0.841525 6.63535e-05 0.259494)
(0.841471 5.57733e-05 0.259505)
(0.841454 3.19845e-05 0.259529)
(0.841412 9.47593e-06 0.25957)
(1.04861 4.83875e-05 0.22227)
(1.04851 7.87887e-05 0.222152)
(1.04852 9.31431e-05 0.222128)
(1.04825 3.2738e-05 0.222217)
(1.04834 -6.93257e-05 0.22229)
(1.04843 -4.0377e-05 0.222403)
(1.31926 0.000171965 0.0937817)
(1.31877 -5.78723e-05 0.0938034)
(1.31955 0.000239079 0.0936484)
(1.3174 8.43761e-05 0.0941744)
(1.31814 -0.000882293 0.0941736)
(1.32028 -0.000499234 0.0941042)
(1.65296 0.000919065 -0.366443)
(1.65144 -0.00143424 -0.365404)
(1.65509 0.00257635 -0.368203)
(1.64636 0.00301589 -0.362317)
(1.64827 -0.00763631 -0.363817)
(1.65855 -0.00573882 -0.369327)
(1.3508 0.0029198 -1.48835)
(1.34906 -0.00567102 -1.48529)
(1.36466 0.00965771 -1.50354)
(1.32991 0.014267 -1.4658)
(1.33125 -0.0271362 -1.47069)
(1.3758 -0.0230283 -1.51428)
(-1.03909 0.00225168 -1.75115)
(-1.03929 -0.00311832 -1.75035)
(-1.01627 0.0059645 -1.76708)
(-1.07047 0.0136851 -1.72927)
(-1.08048 -0.0185273 -1.7189)
(-0.991652 -0.0204514 -1.78912)
(-2.69172 0.000873314 -0.164045)
(-2.6913 0.00148602 -0.16529)
(-2.69376 -0.000722799 -0.164123)
(-2.6893 0.00437832 -0.163926)
(-2.6919 -0.00466008 -0.164051)
(-2.69412 -0.0103665 -0.163666)
(0.0622046 -8.57644e-07 0.324083)
(0.0622076 -2.1201e-06 0.324093)
(0.0622078 -1.60077e-06 0.324093)
(0.0622077 -1.32405e-06 0.324094)
(0.0622074 -4.98272e-07 0.324095)
(0.062205 -3.63014e-07 0.324085)
(0.190634 -1.07935e-06 0.339176)
(0.190643 -1.09187e-06 0.339184)
(0.190644 1.52773e-07 0.339183)
(0.190643 8.24408e-07 0.339183)
(0.190642 1.39957e-06 0.339183)
(0.190635 8.39599e-07 0.339171)
(0.332444 -1.8915e-07 0.369398)
(0.332461 2.0487e-06 0.369401)
(0.332461 4.84169e-06 0.369398)
(0.332459 5.88917e-06 0.369396)
(0.332456 5.62139e-06 0.369394)
(0.332442 2.55585e-06 0.369382)
(0.499971 3.28497e-06 0.415666)
(0.499999 1.13687e-05 0.415653)
(0.499996 1.65609e-05 0.41564)
(0.499989 1.73437e-05 0.415632)
(0.499981 1.44023e-05 0.415627)
(0.499955 6.02813e-06 0.415616)
(0.709842 1.08089e-05 0.480679)
(0.709882 2.8985e-05 0.480639)
(0.709871 3.63948e-05 0.480611)
(0.709844 3.24772e-05 0.480605)
(0.709832 2.08217e-05 0.480607)
(0.709796 7.52104e-06 0.480615)
(0.982475 2.15025e-05 0.569406)
(0.982506 4.04884e-05 0.569346)
(0.982518 4.78471e-05 0.569306)
(0.982402 2.14028e-05 0.569325)
(0.982426 -3.39449e-05 0.569363)
(0.982436 -2.47191e-05 0.569421)
(1.35829 6.94093e-05 0.704008)
(1.3581 -1.48374e-05 0.703969)
(1.35845 5.00363e-07 0.704051)
(1.35766 -6.01962e-05 0.703794)
(1.35797 -0.000343882 0.70398)
(1.3587 -0.00019755 0.704441)
(1.95452 0.000564414 0.919554)
(1.95319 -0.000734572 0.919683)
(1.95541 0.000831975 0.920315)
(1.95126 0.00106099 0.918554)
(1.95291 -0.00360882 0.918499)
(1.95714 -0.00256604 0.92198)
(2.57485 0.00297224 0.552456)
(2.57191 -0.00465344 0.55352)
(2.58516 0.0065069 0.543398)
(2.55835 0.00949864 0.564481)
(2.56442 -0.0196965 0.560172)
(2.59158 -0.014939 0.541053)
(4.65909 0.00356531 -3.33217)
(4.64913 -0.00320855 -3.32905)
(4.7377 0.00403453 -3.40286)
(4.54323 0.00587983 -3.23648)
(4.55047 -0.00898989 -3.22858)
(4.80217 -0.0021316 -3.46763)
(8.46838 -0.00122406 -5.59187)
(8.45487 0.00391294 -5.5936)
(8.49745 -0.00351886 -5.63264)
(8.41352 -0.00904901 -5.5355)
(8.40586 0.0230781 -5.48627)
(8.53088 0.023901 -5.70116)
(-4.37639 -0.00141766 7.34788)
(-4.37403 0.00371636 7.35737)
(-4.3673 0.000675007 7.32844)
(-4.39178 0.00797459 7.39344)
(-4.4102 -0.00471756 7.46521)
(-4.34714 -0.0170554 7.24338)
(0.0538827 -6.06791e-07 0.434185)
(0.053885 -9.03309e-07 0.434199)
(0.0538848 2.99269e-07 0.434199)
(0.0538843 6.20009e-07 0.434199)
(0.0538837 1.15434e-06 0.4342)
(0.0538813 3.767e-07 0.434186)
(0.164353 1.8907e-07 0.456392)
(0.16436 1.43086e-06 0.456404)
(0.164359 2.70291e-06 0.456403)
(0.164358 3.07509e-06 0.456402)
(0.164356 3.12514e-06 0.456401)
(0.164348 1.4897e-06 0.456386)
(0.281913 2.2727e-06 0.501358)
(0.281925 5.88665e-06 0.501367)
(0.281923 7.53601e-06 0.501363)
(0.281919 7.42358e-06 0.501359)
(0.281916 6.13998e-06 0.501357)
(0.281901 2.45841e-06 0.501339)
(0.409286 7.14788e-06 0.569265)
(0.409302 1.52253e-05 0.569264)
(0.409297 1.62469e-05 0.569251)
(0.409289 1.41214e-05 0.569244)
(0.409283 9.79026e-06 0.56924)
(0.409259 3.32425e-06 0.569224)
(0.550194 1.44597e-05 0.659893)
(0.550202 2.09317e-05 0.65988)
(0.550207 1.651e-05 0.659862)
(0.550179 7.56684e-06 0.659859)
(0.550183 -4.43019e-06 0.659868)
(0.55015 -3.02811e-06 0.659873)
(0.71062 2.79249e-05 0.77543)
(0.710574 -1.45203e-05 0.775399)
(0.710651 -3.6271e-05 0.775396)
(0.710572 -4.72545e-05 0.775418)
(0.710656 -8.09851e-05 0.775469)
(0.710597 -2.90192e-05 0.775521)
(0.907255 9.89517e-05 0.932953)
(0.906919 -0.000150827 0.932826)
(0.90742 -0.000229003 0.933079)
(0.907098 -0.000230634 0.932841)
(0.907631 -0.000261083 0.933247)
(0.907252 -1.38688e-05 0.933199)
(1.3162 0.000728848 1.19988)
(1.31502 -0.000908434 1.19924)
(1.31647 -0.000147731 1.20156)
(1.31632 -0.000306074 1.19772)
(1.31837 -0.00133519 1.20021)
(1.31493 0.000417131 1.20137)
(1.7497 0.00284052 1.73638)
(1.74695 -0.00150034 1.73461)
(1.74983 -0.00154815 1.73618)
(1.74975 -0.00290257 1.73453)
(1.76052 0.00143312 1.73648)
(1.74145 0.0072243 1.73591)
(3.38698 0.00136573 -0.122503)
(3.36498 0.00543811 -0.122345)
(3.37313 -0.0133314 -0.143878)
(3.38501 -0.0204684 -0.0950529)
(3.43227 0.0329784 -0.104284)
(3.34256 0.0377695 -0.153207)
(10.2175 -0.00191182 -7.06273)
(10.2014 -9.93239e-05 -7.06925)
(10.1884 -0.001793 -7.08675)
(10.247 -0.0129786 -7.03028)
(10.2704 0.0216672 -7.00504)
(10.1532 0.033811 -7.11104)
(7.61915 -0.00290966 -5.02286)
(7.61428 -0.00425431 -5.02926)
(7.60134 0.00485828 -5.03493)
(7.64151 -0.00122308 -5.00747)
(7.65735 0.0034333 -4.98609)
(7.56974 0.0122027 -5.04928)
(-0.027684 4.40495e-05 -2.87064)
(-0.0276935 3.28433e-05 -2.87106)
(-0.0276915 -4.71232e-06 -2.87099)
(-0.0276931 5.46391e-06 -2.87098)
(-0.0276969 -3.71693e-05 -2.87106)
(-0.0276857 -4.97508e-05 -2.87064)
(-0.108065 3.71109e-05 -2.59367)
(-0.108069 3.35734e-05 -2.59395)
(-0.108069 -6.73756e-06 -2.59391)
(-0.108069 3.32938e-06 -2.59391)
(-0.10807 -3.72807e-05 -2.59396)
(-0.108067 -4.13468e-05 -2.59367)
(-0.027596 2.10374e-05 -2.4316)
(-0.027595 2.01118e-05 -2.43175)
(-0.0275952 -8.53221e-07 -2.43173)
(-0.0275953 1.25636e-07 -2.43173)
(-0.0275947 -2.10796e-05 -2.43174)
(-0.0275958 -2.23886e-05 -2.43159)
(-0.28262 3.94012e-05 -2.90911)
(-0.282653 2.52505e-05 -2.90954)
(-0.282646 -1.05068e-05 -2.90947)
(-0.282652 -9.49748e-07 -2.90946)
(-0.282667 -3.93354e-05 -2.90955)
(-0.282627 -5.19563e-05 -2.90907)
(-0.414169 3.5728e-05 -2.53408)
(-0.414175 3.36167e-05 -2.53435)
(-0.414176 -9.14876e-06 -2.5343)
(-0.414176 2.72836e-06 -2.5343)
(-0.414175 -4.26702e-05 -2.53436)
(-0.414173 -4.45729e-05 -2.53406)
(-0.0869859 2.05458e-05 -2.3073)
(-0.0869831 1.89072e-05 -2.30745)
(-0.0869842 -1.20885e-06 -2.30742)
(-0.0869844 7.61209e-07 -2.30742)
(-0.0869833 -1.93837e-05 -2.30745)
(-0.0869859 -2.21618e-05 -2.3073)
(-0.674837 2.34287e-05 -2.55903)
(-0.6749 1.33561e-05 -2.55945)
(-0.674891 -1.11602e-05 -2.55937)
(-0.674898 -8.27454e-06 -2.55937)
(-0.674919 -2.87238e-05 -2.55946)
(-0.674852 -3.85239e-05 -2.55898)
(-0.876311 3.66094e-05 -2.24217)
(-0.876324 3.23852e-05 -2.24243)
(-0.876324 -1.20508e-05 -2.24239)
(-0.87632 1.92298e-06 -2.24239)
(-0.876321 -4.39842e-05 -2.24245)
(-0.876303 -4.52045e-05 -2.24216)
(-0.168193 1.93805e-05 -1.88075)
(-0.168187 1.56287e-05 -1.8809)
(-0.16819 -2.99642e-06 -1.88088)
(-0.168191 -1.52328e-07 -1.88089)
(-0.16819 -1.92267e-05 -1.88091)
(-0.168197 -2.21798e-05 -1.88077)
(-1.36077 1.59972e-05 -1.53678)
(-1.36084 7.78773e-06 -1.5372)
(-1.36083 -6.70846e-06 -1.53711)
(-1.36082 -7.98179e-06 -1.53711)
(-1.36083 -2.76765e-05 -1.5372)
(-1.36078 -3.73437e-05 -1.53676)
(-1.42802 4.44214e-05 -1.70815)
(-1.42804 3.58024e-05 -1.70842)
(-1.42804 -1.5552e-05 -1.70837)
(-1.42803 6.23725e-06 -1.70837)
(-1.42804 -4.24208e-05 -1.70842)
(-1.42801 -4.59587e-05 -1.70815)
(-0.255072 1.55879e-05 -1.19553)
(-0.25506 7.81133e-06 -1.19568)
(-0.255064 -7.61065e-06 -1.19566)
(-0.255064 -2.64162e-06 -1.19567)
(-0.255061 -1.7474e-05 -1.19569)
(-0.255072 -1.95335e-05 -1.19555)
(-2.03673 1.54239e-05 0.713651)
(-2.03678 2.04161e-05 0.71321)
(-2.03677 2.15552e-05 0.713289)
(-2.03675 1.87488e-05 0.713286)
(-2.03674 -2.33203e-05 0.713198)
(-2.03673 -4.72673e-05 0.713619)
(-1.53044 5.48441e-05 -0.689462)
(-1.5305 3.88493e-05 -0.689763)
(-1.53049 -2.28236e-05 -0.68972)
(-1.53049 1.56854e-05 -0.689724)
(-1.53051 -4.75183e-05 -0.689785)
(-1.53045 -5.86937e-05 -0.689475)
(-0.412734 1.26891e-05 -0.128133)
(-0.412709 3.87113e-06 -0.128291)
(-0.412712 -5.99259e-06 -0.128271)
(-0.412709 3.01338e-07 -0.128273)
(-0.412706 -9.73343e-06 -0.128296)
(-0.41273 -1.32689e-05 -0.128131)
(-2.22269 -7.0881e-06 1.51794)
(-2.22281 2.72637e-05 1.51755)
(-2.22279 5.50742e-05 1.51763)
(-2.22277 4.76938e-05 1.51763)
(-2.22276 -1.66234e-05 1.51758)
(-2.22275 -5.14057e-05 1.51784)
(-1.08853 -5.1436e-06 0.601726)
(-1.08862 -3.62815e-05 0.601446)
(-1.08864 -3.6678e-05 0.601447)
(-1.08864 -3.42179e-06 0.601441)
(-1.08866 -3.02015e-05 0.601381)
(-1.0886 -2.69103e-05 0.601693)
(-0.435347 1.90455e-05 0.713855)
(-0.435342 1.16949e-05 0.713745)
(-0.435362 -1.54442e-06 0.713777)
(-0.435357 -1.41927e-06 0.713774)
(-0.435372 -2.04705e-05 0.713754)
(-0.435366 -1.60886e-05 0.713896)
(-2.63389 6.97474e-05 1.0861)
(-2.63478 2.8878e-05 1.08485)
(-2.63455 3.17489e-05 1.08542)
(-2.63461 0.000114976 1.0854)
(-2.63475 4.13e-05 1.08516)
(-2.63439 7.65988e-06 1.0856)
(-1.07888 6.34011e-06 1.21834)
(-1.07907 -0.000108571 1.21799)
(-1.07919 -0.000102703 1.21812)
(-1.07913 -1.33425e-05 1.2181)
(-1.07914 -1.85058e-05 1.21811)
(-1.07915 1.01005e-05 1.21816)
(-0.481423 -4.34286e-06 1.09145)
(-0.481354 -5.20725e-05 1.09138)
(-0.481416 -3.88151e-05 1.09141)
(-0.481379 -3.26195e-05 1.09139)
(-0.481368 -4.51213e-06 1.09135)
(-0.481397 3.55919e-05 1.09148)
(0.250489 0.000827674 6.15015)
(0.248705 0.000454345 6.14861)
(0.249041 -0.000169752 6.14971)
(0.24904 0.000320273 6.1496)
(0.24865 -0.000105408 6.14912)
(0.249591 -0.000250387 6.14964)
(-0.834643 0.000700202 3.96349)
(-0.836803 0.000273079 3.96246)
(-0.836086 -0.000231069 3.96345)
(-0.836157 0.000275302 3.96328)
(-0.836478 -0.00012023 3.9633)
(-0.835938 -0.000211804 3.96343)
(0.407046 0.000205076 1.1627)
(0.406668 8.33464e-05 1.16222)
(0.406685 -4.59853e-05 1.16262)
(0.406715 9.24065e-05 1.16237)
(0.406542 -7.04686e-05 1.16243)
(0.406819 -7.97838e-05 1.16264)
(-2.37467 -0.00156978 10.3107)
(-2.36563 -0.00116949 10.3347)
(-2.37086 0.000588961 10.3229)
(-2.37164 -0.000199386 10.3209)
(-2.36933 0.000107883 10.3248)
(-2.3733 0.000470645 10.3195)
(2.42388 -0.00245224 11.8937)
(2.42799 -0.00163183 11.9045)
(2.42571 0.000896561 11.9)
(2.42597 -0.000238218 11.899)
(2.42661 -0.000128074 11.9004)
(2.42521 0.000130407 11.8989)
(2.55467 -0.00103333 6.89525)
(2.55606 -0.00069054 6.89851)
(2.55558 0.000363486 6.89813)
(2.55597 -0.000144549 6.89822)
(2.55616 6.48937e-06 6.8988)
(2.55548 0.000125537 6.89795)
(-6.00206 -0.00217002 -4.57609)
(-6.02174 -0.0013834 -4.56439)
(-6.01315 0.000934656 -4.56991)
(-6.01188 -0.000891353 -4.57187)
(-6.01632 0.000433533 -4.56909)
(-6.00983 0.0014884 -4.57204)
(2.84498 -0.00144425 4.23554)
(2.84173 -0.000842588 4.23178)
(2.84071 0.000655789 4.232)
(2.84129 -0.00107558 4.23333)
(2.84184 0.000792574 4.23278)
(2.83754 0.00189127 4.2324)
(6.86076 -0.0019325 4.77595)
(6.85901 -0.00111823 4.77863)
(6.85871 0.000982506 4.777)
(6.8587 -0.0013826 4.77684)
(6.85776 0.00217163 4.77765)
(6.85916 0.00367668 4.77624)
(-3.76189 -0.00152434 -3.26217)
(-3.75521 -0.000764222 -3.25373)
(-3.75837 0.00103196 -3.25727)
(-3.75933 -0.000379737 -3.25879)
(-3.75815 0.000584682 -3.25644)
(-3.75922 0.00120613 -3.25922)
(-4.95475 0.000427765 -6.24223)
(-4.96191 0.000926791 -6.25247)
(-4.95926 0.00139039 -6.24756)
(-4.95904 0.000713858 -6.24767)
(-4.96409 0.000988518 -6.25153)
(-4.95369 0.00102049 -6.24437)
(-0.4756 0.000275264 2.01047)
(-0.489021 0.000490747 2.00527)
(-0.48361 0.000484255 2.00758)
(-0.484764 0.000123567 2.00742)
(-0.496493 0.0009581 2.00026)
(-0.469243 0.00102828 2.01614)
(-0.762209 -0.00114527 -1.87865)
(-0.760326 -0.000565155 -1.87699)
(-0.761146 0.000584604 -1.87769)
(-0.761146 0.000118218 -1.8776)
(-0.76062 -5.92979e-05 -1.87727)
(-0.761781 -0.000205881 -1.87788)
(-3.35685 -0.0011187 -5.47956)
(-3.35411 -0.000324438 -5.47952)
(-3.35608 0.000544274 -5.48054)
(-3.35452 -0.000311343 -5.4784)
(-3.35204 0.000268777 -5.47467)
(-3.35907 0.000286668 -5.48363)
(-1.43453 0.000551987 -6.41969)
(-1.43334 0.00045371 -6.42835)
(-1.43397 -0.000257076 -6.4247)
(-1.4345 -1.1785e-05 -6.4243)
(-1.43415 -0.000176909 -6.42822)
(-1.43488 -0.000320244 -6.41967)
(6.34412 -0.000953695 -3.11813)
(6.34619 -0.00314191 -3.11902)
(6.34172 0.000422221 -3.11637)
(6.34765 -0.00433303 -3.11907)
(6.35161 0.00097354 -3.11553)
(6.32377 0.00806134 -3.11786)
(9.12434 -0.0120661 -3.64011)
(9.10505 -0.0192892 -3.70531)
(9.09775 0.0135314 -3.70083)
(9.12517 0.00387649 -3.64358)
(9.09856 -0.0131324 -3.67638)
(9.13324 0.00350997 -3.67649)
(3.60143 -0.0136627 -5.17197)
(3.47698 -0.017492 -5.41906)
(3.45667 0.0139709 -5.44855)
(3.643 0.00659545 -5.07725)
(3.63929 -0.0260624 -5.06741)
(3.41313 -0.0145036 -5.54638)
(4.23036 -0.000220429 -2.04939)
(4.23119 -0.000364248 -2.04988)
(4.22952 -0.00176677 -2.04879)
(4.22843 -0.00510841 -2.04956)
(4.22625 0.00468368 -2.04539)
(4.22589 0.00749436 -2.05167)
(5.26439 -0.00358932 -3.5982)
(5.25724 -0.00522072 -3.59582)
(5.26115 0.00324838 -3.58087)
(5.25654 0.00305747 -3.62139)
(5.24504 0.00289465 -3.64777)
(5.27764 0.0048064 -3.53134)
(1.12978 -0.0107752 -6.68447)
(1.13177 -0.0133801 -6.655)
(1.1345 0.0152555 -6.64086)
(1.12078 0.0173413 -6.71323)
(1.1183 -0.0234799 -6.72089)
(1.14519 -0.0232269 -6.5914)
(2.8611 -0.000286381 -1.37945)
(2.86148 -0.000300612 -1.38013)
(2.86147 -0.000293195 -1.37993)
(2.85837 -0.00179469 -1.37835)
(2.85523 0.00205004 -1.37578)
(2.86389 0.00316622 -1.38001)
(4.69795 -0.00236837 -2.3582)
(4.69511 -0.00264497 -2.35979)
(4.69558 2.09709e-05 -2.35769)
(4.69819 -0.00551895 -2.36016)
(4.6965 0.00551724 -2.36655)
(4.69924 0.0114271 -2.34765)
(2.03233 -0.00241529 -2.65935)
(2.02194 -0.00227587 -2.66087)
(2.02198 0.000373945 -2.65444)
(2.03304 -0.000691815 -2.66912)
(2.02839 -0.0002694 -2.67734)
(2.01884 0.000538157 -2.6402)
(1.79648 1.86938e-05 -0.656305)
(1.79643 -9.45027e-05 -0.657182)
(1.79658 7.32004e-05 -0.657173)
(1.79514 1.29768e-05 -0.654926)
(1.79324 0.000351731 -0.651775)
(1.79725 0.000558839 -0.659515)
(3.58673 -0.00185835 -2.23096)
(3.58659 -0.00187352 -2.23006)
(3.58638 -6.24267e-05 -2.23165)
(3.58662 -0.00518758 -2.22709)
(3.58516 0.0056588 -2.22469)
(3.59002 0.0108325 -2.23295)
(0.893053 -0.00125584 -4.59827)
(0.890647 -0.00128174 -4.60438)
(0.890937 -1.5905e-05 -4.60088)
(0.891207 -0.00139723 -4.6083)
(0.886591 0.00055301 -4.6325)
(0.897228 0.0018888 -4.57718)
(1.00723 0.000160867 0.160131)
(1.00685 0.000190204 0.158805)
(1.00682 -7.63885e-05 0.159149)
(1.00688 0.000818305 0.160385)
(1.00673 -0.00119439 0.1628)
(1.00718 -0.00203645 0.157626)
(2.03376 -0.00171691 -1.70875)
(2.03428 -0.00115937 -1.70539)
(2.03355 -1.10776e-05 -1.70758)
(2.03375 -0.00339164 -1.70435)
(2.03153 0.00434358 -1.69689)
(2.03521 0.00724372 -1.7156)
(0.383191 -0.000958986 -5.42142)
(0.382673 -0.000888849 -5.42795)
(0.382914 -6.20384e-05 -5.42273)
(0.382159 -0.00160326 -5.42902)
(0.38085 0.00253673 -5.44227)
(0.382676 0.0040489 -5.40866)
(0.592373 -9.27198e-05 0.408739)
(0.592813 9.36762e-05 0.407919)
(0.592724 9.27968e-05 0.408307)
(0.592484 0.000880354 0.408572)
(0.593165 -0.000860297 0.408198)
(0.591612 -0.00186548 0.408708)
(-0.0937863 -0.00215779 -2.86284)
(-0.0917749 -0.00106857 -2.8582)
(-0.0937086 0.000455714 -2.86169)
(-0.0922345 -0.00176631 -2.85787)
(-0.0933906 0.00240159 -2.84857)
(-0.092641 0.00354354 -2.87116)
(-0.465752 -0.000946151 -6.30481)
(-0.466284 -0.000737642 -6.31625)
(-0.46627 -0.000110681 -6.30908)
(-0.466392 -0.00131421 -6.3126)
(-0.467392 0.00119974 -6.31966)
(-0.464813 0.00218758 -6.30058)
(0.0429739 -8.94897e-08 0.524985)
(0.0429751 1.20208e-07 0.525002)
(0.0429749 1.08626e-06 0.525002)
(0.0429746 1.1789e-06 0.525002)
(0.0429744 1.32672e-06 0.525002)
(0.0429728 4.58719e-07 0.524985)
(0.0275575 2.37368e-07 0.590314)
(0.0275583 5.16803e-07 0.590333)
(0.0275582 1.02292e-06 0.590332)
(0.0275582 9.40743e-07 0.590332)
(0.0275582 8.83453e-07 0.590332)
(0.0275572 2.06572e-07 0.590313)
(0.0103472 2.91579e-07 0.634353)
(0.0103476 5.12185e-07 0.634373)
(0.0103477 5.75548e-07 0.634373)
(0.0103477 4.45863e-07 0.634373)