/*--------------------------------*- C++ -*----------------------------------*\
| =========                 |                                                 |
| \\      /  F ield         | OpenFOAM: The Open Source CFD Toolbox           |
|  \\    /   O peration     | Version:  v1612+                                |
|   \\  /    A nd           | Web:      www.OpenFOAM.com                      |
|    \\/     M anipulation  |                                                 |
\*---------------------------------------------------------------------------*/
FoamFile
{
    version     2.0;
    format      ascii;
    class       volScalarField;
    location    "8.2";
    object      alpha.water;
}
// * * * * * * * * * * * * * * * * * * * * * * * * * * * * * * * * * * * * * //

dimensions      [0 0 0 0 0 0 0];

internalField   nonuniform List<scalar> 
320
(
1
1
1
1
1.88443e-05
2.02894e-05
1.94739e-05
1.99071e-05
2.04713e-05
2.03082e-05
2.04949e-05
2.03988e-05
2.00093e-05
1.82565e-05
1.63247e-05
1.85533e-05
0.999979
0.999977
0.999978
0.999981
0.999978
0.99998
0.999978
0.999976
0.999976
0.999978
0.999988
0.999978
1
1
1
1
1
1
1
1
1
1
1
1
1
1
1
1
1
1
1
1
1
1
1
1
1
1
1
1
1.9303e-05
1.94778e-05
1.80451e-05
1.88025e-05
1.59327e-05
1.54754e-05
1.61304e-05
1.57105e-05
1.95146e-05
1.89223e-05
1.61589e-05
1.47697e-05
1.95172e-05
1.69659e-05
1.57018e-05
1.5964e-05
1.64266e-05
1.79144e-05
1.90127e-05
1.73393e-05
0.999977
0.999977
0.999987
0.99998
0.999989
0.999992
0.999993
0.999992
0.999979
0.999983
0.999993
0.999991
0.999978
0.999988
0.99999
0.99999
0.999989
0.999985
0.999976
0.999988
1
1
1
1
1
1
1
1
1
1
1
1
1
1
1
1
1
1
1
1
1
1
1
1
1
1
1
1
1
1
1
1
1
1
1
1
1
1
1
1
1
1
1
1
1
1
1
1
1
1
1
1
1
1
1
1
1
1
1
1
1
1
1
1
1
1
1
1
1
1
1
1
1
1
1
1
2.05236e-05
1.96685e-05
1.95395e-05
1.80451e-05
1.87584e-05
1.85283e-05
2.12461e-05
1.88959e-05
2.05631e-05
1.98896e-05
1.96353e-05
1.98401e-05
2.20667e-05
1.89709e-05
2.04257e-05
2.09801e-05
1.92488e-05
1.94698e-05
1.86428e-05
2.01236e-05
2.02213e-05
2.01931e-05
2.10045e-05
1.91618e-05
2.08196e-05
2.06615e-05
2.03431e-05
2.31599e-05
0.99998
0.999978
0.999979
0.999985
0.999984
0.999984
0.999974
0.999982
0.999984
0.999978
0.999978
0.99998
0.999978
0.999983
0.99998
0.999976
0.999977
0.99998
0.999982
0.999976
0.999977
0.999976
0.999973
0.999978
0.99998
0.999978
0.999978
0.999974
1
1
1
1
1
1
1
1
1
1
1
1
1
1
1
1
1
1
1
1
1
1
1
1
1
1
1
1
1
1
1
1
1
1
1
1
1
1
1
1
1
1
1
1
1
1
1
1
1
1
1
1
1
1
1
1
1
1
1
1
1
1
1
1
1
1
1
1
1
1
1
1
1
1
1
1
1
1
1
1
1
1
1
1
2.04167e-05
2.05455e-05
1.97788e-05
2.09516e-05
0.999977
0.999975
0.999977
0.999973
)
;

boundaryField
{
    top_fluid_surface
    {
        type            inletOutlet;
        inletValue      uniform 0;
        value           nonuniform List<scalar> 
64
(
0
0
0
0
0
0
0
0
0
1.82565e-05
1.63247e-05
1.85533e-05
1.9303e-05
0
1.80451e-05
0
1.59327e-05
1.54754e-05
1.61304e-05
1.57105e-05
0
0
1.61589e-05
1.47697e-05
0
1.69659e-05
1.57018e-05
1.5964e-05
1.64266e-05
1.79144e-05
1.90127e-05
1.73393e-05
0
0
0
1.80451e-05
1.87584e-05
1.85283e-05
0
0
0
0
0
0
0
1.89709e-05
0
0
0
0
1.86428e-05
0
0
0
0
0
0
0
0
0
0
0
0
0
)
;
    }
    bottom_fluid_surface
    {
        type            zeroGradient;
    }
    lateral_surface_1
    {
        type            zeroGradient;
    }
    lateral_surface_2
    {
        type            zeroGradient;
    }
    lateral_surface_3
    {
        type            zeroGradient;
    }
    lateral_surface_4
    {
        type            zeroGradient;
    }
}


// ************************************************************************* //
