/*--------------------------------*- C++ -*----------------------------------*\
| =========                 |                                                 |
| \\      /  F ield         | OpenFOAM: The Open Source CFD Toolbox           |
|  \\    /   O peration     | Version:  v1612+                                |
|   \\  /    A nd           | Web:      www.OpenFOAM.com                      |
|    \\/     M anipulation  |                                                 |
\*---------------------------------------------------------------------------*/
FoamFile
{
    version     2.0;
    format      ascii;
    class       volScalarField;
    location    "8.2";
    object      p;
}
// * * * * * * * * * * * * * * * * * * * * * * * * * * * * * * * * * * * * * //

dimensions      [1 -1 -2 0 0 0 0];

internalField   nonuniform List<scalar> 
320
(
14724.8
14724.8
14724.8
14724.8
4.99816
4.99827
4.99757
4.99758
4.99906
4.99837
4.99951
4.99998
4.99921
4.99857
4.99904
4.99888
4914.89
4914.9
4914.9
4914.92
4914.91
4914.91
4914.91
4914.9
4914.89
4914.84
4914.86
4914.85
14724.8
14724.8
14724.8
14724.8
14724.8
14724.8
14724.8
14724.8
14724.8
14724.8
14724.8
14724.8
24534.8
24534.8
24534.8
24534.8
24534.8
24534.8
24534.8
24534.8
24534.8
24534.8
24534.8
24534.8
24534.8
24534.8
24534.8
24534.8
4.99913
4.99746
4.99721
4.99641
4.99604
4.99735
4.99729
4.99821
4.9977
4.99721
4.99802
4.99868
5.0002
4.99902
4.99948
4.99926
4.99896
4.99908
4.99926
4.99922
4914.85
4914.89
4914.88
4914.9
4914.87
4914.87
4914.88
4914.87
4914.9
4914.91
4914.89
4914.85
4914.89
4914.87
4914.86
4914.87
4914.87
4914.87
4914.84
4914.88
14724.8
14724.8
14724.8
14724.8
14724.8
14724.8
14724.8
14724.8
14724.8
14724.8
14724.8
14724.8
14724.8
14724.8
14724.8
14724.8
14724.8
14724.8
14724.8
14724.8
24534.8
24534.8
24534.8
24534.8
24534.8
24534.8
24534.8
24534.8
24534.8
24534.8
24534.8
24534.8
24534.8
24534.8
24534.8
24534.8
24534.8
24534.8
24534.8
24534.8
34344.8
34344.8
34344.8
34344.8
34344.8
34344.8
34344.8
34344.8
34344.8
34344.8
34344.8
34344.8
34344.8
34344.8
34344.8
34344.8
34344.8
34344.8
34344.8
34344.8
34344.8
34344.8
34344.8
34344.8
34344.8
34344.8
34344.8
34344.8
34344.8
34344.8
34344.8
34344.8
34344.8
34344.8
34344.8
34344.8
5.00072
4.99771
4.99695
4.9971
4.99729
4.99667
4.99547
4.9961
4.99929
4.99732
4.9977
4.99787
4.99764
4.99743
4.99679
4.99769
4.99815
4.99901
4.9994
4.99961
5.0026
4.99834
4.99925
4.99959
4.9998
5.00015
4.99945
5.00005
4914.92
4914.9
4914.9
4914.87
4914.88
4914.88
4914.9
4914.91
4914.94
4914.9
4914.9
4914.91
4914.93
4914.88
4914.92
4914.91
4914.89
4914.9
4914.86
4914.89
4914.86
4914.89
4914.89
4914.85
4914.92
4914.91
4914.91
4914.92
14724.8
14724.8
14724.8
14724.8
14724.8
14724.8
14724.8
14724.8
14724.8
14724.8
14724.8
14724.8
14724.8
14724.8
14724.8
14724.8
14724.8
14724.8
14724.8
14724.8
14724.8
14724.8
14724.8
14724.8
14724.8
14724.8
14724.8
14724.8
24534.8
24534.8
24534.8
24534.8
24534.8
24534.8
24534.8
24534.8
24534.8
24534.8
24534.8
24534.8
24534.8
24534.8
24534.8
24534.8
24534.8
24534.8
24534.8
24534.8
24534.8
24534.8
24534.8
24534.8
24534.8
24534.8
24534.8
24534.8
34344.8
34344.8
34344.8
34344.8
34344.8
34344.8
34344.8
34344.8
34344.8
34344.8
34344.8
34344.8
34344.8
34344.8
34344.8
34344.8
34344.8
34344.8
34344.8
34344.8
34344.8
34344.8
34344.8
34344.8
34344.8
34344.8
34344.8
34344.8
4.99904
4.99922
4.99872
5.00045
4914.9
4914.9
4914.89
4914.89
)
;

boundaryField
{
    top_fluid_surface
    {
        type            calculated;
        value           nonuniform List<scalar> 
64
(
-1.54952e-10
-1.16749e-08
-1.78452e-09
-4.74881e-09
-7.48592e-09
-1.23782e-08
-1.06757e-08
-4.1753e-09
-9.98668e-09
0
0
0
0
-5.04278e-09
0
-7.01555e-10
0
0
0
0
-2.68116e-09
-2.7988e-09
0
0
-9.01009e-10
0
0
0
0
0
0
0
-7.09528e-09
-2.26059e-09
-8.33148e-09
0
0
0
-7.96398e-08
-2.65606e-09
-5.38222e-09
-1.33851e-08
-1.36142e-08
-5.09627e-09
-5.51794e-08
0
-2.19631e-08
-2.60882e-08
-2.49555e-09
-5.1528e-10
0
-1.08354e-08
-3.07438e-08
-7.837e-09
-1.20365e-08
0
-1.07644e-08
-6.05906e-09
-1.04583e-08
-8.34723e-08
-1.38011e-08
-5.8295e-09
-1.27913e-09
-7.06714e-09
)
;
    }
    bottom_fluid_surface
    {
        type            calculated;
        value           nonuniform List<scalar> 
64
(
39249.8
39249.8
39249.8
39249.8
39249.8
39249.8
39249.8
39249.8
39249.8
39249.8
39249.8
39249.8
39249.8
39249.8
39249.8
39249.8
39249.8
39249.8
39249.8
39249.8
39249.8
39249.8
39249.8
39249.8
39249.8
39249.8
39249.8
39249.8
39249.8
39249.8
39249.8
39249.8
39249.8
39249.8
39249.8
39249.8
39249.8
39249.8
39249.8
39249.8
39249.8
39249.8
39249.8
39249.8
39249.8
39249.8
39249.8
39249.8
39249.8
39249.8
39249.8
39249.8
39249.8
39249.8
39249.8
39249.8
39249.8
39249.8
39249.8
39249.8
39249.8
39249.8
39249.8
39249.8
)
;
    }
    lateral_surface_1
    {
        type            calculated;
        value           nonuniform List<scalar> 
40
(
5.00072
4.99771
4.99695
4.9971
4.99729
4.99667
4.99547
5.00005
4914.92
4914.9
4914.9
4914.87
4914.88
4914.88
4914.9
4914.92
14724.8
14724.8
14724.8
14724.8
14724.8
14724.8
14724.8
14724.8
24534.8
24534.8
24534.8
24534.8
24534.8
24534.8
24534.8
24534.8
34344.8
34344.8
34344.8
34344.8
34344.8
34344.8
34344.8
34344.8
)
;
    }
    lateral_surface_2
    {
        type            calculated;
        value           nonuniform List<scalar> 
40
(
4.99743
4.99679
4.99769
4.99815
4.99901
4.9994
4.99961
5.0026
4914.88
4914.92
4914.91
4914.89
4914.9
4914.86
4914.89
4914.86
14724.8
14724.8
14724.8
14724.8
14724.8
14724.8
14724.8
14724.8
24534.8
24534.8
24534.8
24534.8
24534.8
24534.8
24534.8
24534.8
34344.8
34344.8
34344.8
34344.8
34344.8
34344.8
34344.8
34344.8
)
;
    }
    lateral_surface_3
    {
        type            calculated;
        value           nonuniform List<scalar> 
40
(
4.99547
4.9961
4.99929
4.99732
4.9977
4.99787
4.99764
4.99743
4914.9
4914.91
4914.94
4914.9
4914.9
4914.91
4914.93
4914.88
14724.8
14724.8
14724.8
14724.8
14724.8
14724.8
14724.8
14724.8
24534.8
24534.8
24534.8
24534.8
24534.8
24534.8
24534.8
24534.8
34344.8
34344.8
34344.8
34344.8
34344.8
34344.8
34344.8
34344.8
)
;
    }
    lateral_surface_4
    {
        type            calculated;
        value           nonuniform List<scalar> 
40
(
5.0026
4.99834
4.99925
4.99959
4.9998
5.00015
4.99945
5.00005
4914.86
4914.89
4914.89
4914.85
4914.92
4914.91
4914.91
4914.92
14724.8
14724.8
14724.8
14724.8
14724.8
14724.8
14724.8
14724.8
24534.8
24534.8
24534.8
24534.8
24534.8
24534.8
24534.8
24534.8
34344.8
34344.8
34344.8
34344.8
34344.8
34344.8
34344.8
34344.8
)
;
    }
}


// ************************************************************************* //
