/*--------------------------------*- C++ -*----------------------------------*\
| =========                 |                                                 |
| \\      /  F ield         | OpenFOAM: The Open Source CFD Toolbox           |
|  \\    /   O peration     | Version:  v1612+                                |
|   \\  /    A nd           | Web:      www.OpenFOAM.com                      |
|    \\/     M anipulation  |                                                 |
\*---------------------------------------------------------------------------*/
FoamFile
{
    version     2.0;
    format      ascii;
    class       volScalarField;
    location    "8.2";
    object      p_rgh;
}
// * * * * * * * * * * * * * * * * * * * * * * * * * * * * * * * * * * * * * //

dimensions      [1 -1 -2 0 0 0 0];

internalField   nonuniform List<scalar> 
320
(
-9800.21
-9800.2
-9800.21
-9800.2
0.000825354
-0.00615157
-0.00285211
-0.00497046
-0.00624862
-0.00614033
-0.00592144
-0.0049795
-0.00383272
0.00411505
0.0140489
0.00296991
-9799.8
-9799.76
-9799.78
-9799.8
-9799.76
-9799.78
-9799.77
-9799.75
-9799.75
-9799.83
-9799.96
-9799.83
-9800.21
-9800.21
-9800.21
-9800.2
-9800.2
-9800.2
-9800.2
-9800.21
-9800.21
-9800.22
-9800.21
-9800.22
-9800.21
-9800.21
-9800.21
-9800.21
-9800.21
-9800.21
-9800.2
-9800.2
-9800.2
-9800.2
-9800.21
-9800.21
-9800.21
-9800.21
-9800.21
-9800.21
-0.000459533
-0.00298073
0.00378963
-0.000725154
0.0129703
0.0165148
0.0132449
0.0162288
-0.00292427
-0.00051427
0.0138434
0.0213056
-0.000437389
0.0108877
0.0175387
0.0160357
0.0134643
0.00629979
0.00109751
0.00925095
-9799.81
-9799.77
-9799.93
-9799.81
-9799.98
-9800.01
-9800.01
-9800.01
-9799.79
-9799.84
-9800.01
-9800.01
-9799.78
-9799.96
-9799.99
-9799.99
-9799.97
-9799.9
-9799.8
-9799.95
-9800.21
-9800.21
-9800.2
-9800.2
-9800.19
-9800.19
-9800.18
-9800.18
-9800.2
-9800.19
-9800.19
-9800.19
-9800.2
-9800.2
-9800.2
-9800.2
-9800.2
-9800.21
-9800.22
-9800.2
-9800.21
-9800.21
-9800.2
-9800.2
-9800.19
-9800.19
-9800.19
-9800.19
-9800.2
-9800.19
-9800.19
-9800.2
-9800.21
-9800.2
-9800.21
-9800.21
-9800.21
-9800.21
-9800.21
-9800.2
-9800.21
-9800.2
-9800.21
-9800.2
-9800.21
-9800.2
-9800.2
-9800.2
-9800.2
-9800.2
-9800.2
-9800.21
-9800.21
-9800.21
-9800.21
-9800.21
-9800.21
-9800.21
-9800.2
-9800.2
-9800.19
-9800.19
-9800.19
-9800.19
-9800.2
-9800.19
-9800.2
-9800.2
-9800.21
-9800.21
-9800.21
-9800.21
-9800.21
-9800.21
-9800.21
-9800.21
-0.0048475
-0.00366643
-0.00379558
0.00367973
0.000367994
0.0008838
-0.0136415
-0.0014876
-0.00647145
-0.00514127
-0.0035194
-0.00435115
-0.0154874
-0.000528879
-0.00830277
-0.0101162
-0.00117201
-0.00139742
0.00304742
-0.00399633
-0.00149061
-0.00560625
-0.00867357
0.000699857
-0.00721609
-0.00609543
-0.00523531
-0.0184344
-9799.8
-9799.78
-9799.78
-9799.9
-9799.89
-9799.89
-9799.72
-9799.83
-9799.83
-9799.78
-9799.78
-9799.79
-9799.74
-9799.88
-9799.79
-9799.74
-9799.77
-9799.8
-9799.87
-9799.76
-9799.81
-9799.76
-9799.71
-9799.82
-9799.78
-9799.77
-9799.77
-9799.7
-9800.2
-9800.21
-9800.21
-9800.2
-9800.2
-9800.2
-9800.21
-9800.19
-9800.18
-9800.2
-9800.2
-9800.2
-9800.19
-9800.2
-9800.2
-9800.2
-9800.21
-9800.21
-9800.21
-9800.22
-9800.23
-9800.22
-9800.22
-9800.22
-9800.2
-9800.21
-9800.2
-9800.2
-9800.2
-9800.21
-9800.21
-9800.2
-9800.2
-9800.2
-9800.2
-9800.2
-9800.19
-9800.2
-9800.2
-9800.2
-9800.2
-9800.2
-9800.2
-9800.2
-9800.21
-9800.21
-9800.21
-9800.22
-9800.22
-9800.21
-9800.22
-9800.22
-9800.21
-9800.21
-9800.21
-9800.21
-9800.2
-9800.21
-9800.21
-9800.2
-9800.2
-9800.2
-9800.2
-9800.2
-9800.19
-9800.2
-9800.2
-9800.2
-9800.2
-9800.2
-9800.2
-9800.2
-9800.2
-9800.21
-9800.21
-9800.21
-9800.21
-9800.21
-9800.21
-9800.21
-9800.21
-9800.21
-9800.21
-9800.21
-0.006007
-0.00645964
-0.00319524
-0.00721796
-9799.76
-9799.74
-9799.77
-9799.71
)
;

boundaryField
{
    top_fluid_surface
    {
        type            totalPressure;
        rho             rho;
        psi             none;
        gamma           1;
        p0              uniform 0;
        value           nonuniform List<scalar> 
64
(
-1.54952e-10
-1.16749e-08
-1.78452e-09
-4.74881e-09
-7.48592e-09
-1.23782e-08
-1.06757e-08
-4.1753e-09
-9.98668e-09
0
0
0
0
-5.04278e-09
0
-7.01555e-10
0
0
0
0
-2.68116e-09
-2.7988e-09
0
0
-9.01009e-10
0
0
0
0
0
0
0
-7.09528e-09
-2.26059e-09
-8.33148e-09
0
0
0
-7.96398e-08
-2.65606e-09
-5.38222e-09
-1.33851e-08
-1.36142e-08
-5.09627e-09
-5.51794e-08
0
-2.19631e-08
-2.60882e-08
-2.49555e-09
-5.1528e-10
0
-1.08354e-08
-3.07438e-08
-7.837e-09
-1.20365e-08
0
-1.07644e-08
-6.05906e-09
-1.04583e-08
-8.34723e-08
-1.38011e-08
-5.8295e-09
-1.27913e-09
-7.06714e-09
)
;
    }
    bottom_fluid_surface
    {
        type            fixedFluxPressure;
        gradient        uniform 0;
        value           nonuniform List<scalar> 
64
(
-9800.21
-9800.2
-9800.21
-9800.2
-9800.21
-9800.2
-9800.2
-9800.2
-9800.2
-9800.2
-9800.2
-9800.21
-9800.21
-9800.21
-9800.21
-9800.21
-9800.21
-9800.21
-9800.2
-9800.2
-9800.19
-9800.19
-9800.19
-9800.19
-9800.2
-9800.19
-9800.2
-9800.2
-9800.21
-9800.21
-9800.21
-9800.21
-9800.21
-9800.21
-9800.21
-9800.21
-9800.2
-9800.21
-9800.21
-9800.2
-9800.2
-9800.2
-9800.2
-9800.2
-9800.19
-9800.2
-9800.2
-9800.2
-9800.2
-9800.2
-9800.2
-9800.2
-9800.2
-9800.21
-9800.21
-9800.21
-9800.21
-9800.21
-9800.21
-9800.21
-9800.21
-9800.21
-9800.21
-9800.21
)
;
    }
    lateral_surface_1
    {
        type            fixedFluxPressure;
        gradient        uniform 0;
        value           nonuniform List<scalar> 
40
(
-0.0048475
-0.00366643
-0.00379558
0.00367973
0.000367994
0.0008838
-0.0136415
-0.0184344
-9799.8
-9799.78
-9799.78
-9799.9
-9799.89
-9799.89
-9799.72
-9799.7
-9800.2
-9800.21
-9800.21
-9800.2
-9800.2
-9800.2
-9800.21
-9800.2
-9800.2
-9800.21
-9800.21
-9800.2
-9800.2
-9800.2
-9800.2
-9800.21
-9800.2
-9800.21
-9800.21
-9800.2
-9800.2
-9800.2
-9800.2
-9800.21
)
;
    }
    lateral_surface_2
    {
        type            fixedFluxPressure;
        gradient        uniform 0;
        value           nonuniform List<scalar> 
40
(
-0.000528879
-0.00830277
-0.0101162
-0.00117201
-0.00139742
0.00304742
-0.00399633
-0.00149061
-9799.88
-9799.79
-9799.74
-9799.77
-9799.8
-9799.87
-9799.76
-9799.81
-9800.2
-9800.2
-9800.2
-9800.21
-9800.21
-9800.21
-9800.22
-9800.23
-9800.2
-9800.2
-9800.2
-9800.21
-9800.21
-9800.21
-9800.22
-9800.22
-9800.2
-9800.2
-9800.2
-9800.2
-9800.21
-9800.21
-9800.21
-9800.21
)
;
    }
    lateral_surface_3
    {
        type            fixedFluxPressure;
        gradient        uniform 0;
        value           nonuniform List<scalar> 
40
(
-0.0136415
-0.0014876
-0.00647145
-0.00514127
-0.0035194
-0.00435115
-0.0154874
-0.000528879
-9799.72
-9799.83
-9799.83
-9799.78
-9799.78
-9799.79
-9799.74
-9799.88
-9800.21
-9800.19
-9800.18
-9800.2
-9800.2
-9800.2
-9800.19
-9800.2
-9800.2
-9800.2
-9800.19
-9800.2
-9800.2
-9800.2
-9800.2
-9800.2
-9800.2
-9800.2
-9800.19
-9800.2
-9800.2
-9800.2
-9800.2
-9800.2
)
;
    }
    lateral_surface_4
    {
        type            fixedFluxPressure;
        gradient        uniform 0;
        value           nonuniform List<scalar> 
40
(
-0.00149061
-0.00560625
-0.00867357
0.000699857
-0.00721609
-0.00609543
-0.00523531
-0.0184344
-9799.81
-9799.76
-9799.71
-9799.82
-9799.78
-9799.77
-9799.77
-9799.7
-9800.23
-9800.22
-9800.22
-9800.22
-9800.2
-9800.21
-9800.2
-9800.2
-9800.22
-9800.21
-9800.22
-9800.22
-9800.21
-9800.21
-9800.21
-9800.21
-9800.21
-9800.21
-9800.21
-9800.21
-9800.21
-9800.21
-9800.21
-9800.21
)
;
    }
}


// ************************************************************************* //
