/*--------------------------------*- C++ -*----------------------------------*\
| =========                 |                                                 |
| \\      /  F ield         | OpenFOAM: The Open Source CFD Toolbox           |
|  \\    /   O peration     | Version:  v1612+                                |
|   \\  /    A nd           | Web:      www.OpenFOAM.com                      |
|    \\/     M anipulation  |                                                 |
\*---------------------------------------------------------------------------*/
FoamFile
{
    version     2.0;
    format      ascii;
    class       volVectorField;
    location    "8.15";
    object      U;
}
// * * * * * * * * * * * * * * * * * * * * * * * * * * * * * * * * * * * * * //

dimensions      [0 1 -1 0 0 0 0];

internalField   nonuniform List<vector> 
1116
(
(0.405254 0.00319374 -0.300303)
(0.401299 -0.000784241 -0.295148)
(0.390824 0.00243241 -0.2971)
(0.416553 0.00773043 -0.298851)
(0.443219 -0.00260806 -0.300786)
(0.388846 -0.0118088 -0.29867)
(1.04705 0.00197917 -0.176707)
(1.0342 -0.00141546 -0.175289)
(1.0292 -0.00123896 -0.17297)
(1.04821 -0.00723479 -0.177936)
(1.06251 0.00259695 -0.181847)
(1.02661 -0.00174618 -0.172991)
(1.44331 0.00246699 -0.201174)
(1.43828 0.00175783 -0.201835)
(1.43766 -0.00220332 -0.200035)
(1.44394 -0.00706366 -0.20174)
(1.44943 0.00397872 -0.204374)
(1.43578 0.00553384 -0.199582)
(1.46763 0.00105197 -0.0895246)
(1.46523 0.00128888 -0.0877751)
(1.46558 -0.00119651 -0.087988)
(1.46738 -0.00329827 -0.0885344)
(1.46994 0.002116 -0.0904785)
(1.46452 0.00385373 -0.0869572)
(1.17868 -0.00082763 0.0857413)
(1.17284 -6.25443e-05 0.0875567)
(1.17486 0.000203379 0.0864734)
(1.17665 -0.000263594 0.0872527)
(1.17895 -8.87714e-05 0.0859687)
(1.17409 -0.000293415 0.0874218)
(0.878815 -0.00114451 0.159822)
(0.864396 -0.000763917 0.154626)
(0.868562 0.00112915 0.154654)
(0.874185 0.00154254 0.15955)
(0.878652 -0.00166784 0.161131)
(0.865851 -0.00286532 0.153239)
(0.567674 0.00137426 0.0252255)
(0.552129 -0.000750983 0.0127669)
(0.555197 0.00071036 0.0152703)
(0.564874 -0.00070416 0.0220195)
(0.571066 -5.25128e-05 0.0297437)
(0.550203 0.00185322 0.0080775)
(0.024935 0.00147254 -0.309967)
(0.0256629 -0.00027891 -0.318962)
(0.0261238 0.000865182 -0.316286)
(0.0259168 -0.000193355 -0.312407)
(0.0197587 0.000960202 -0.306058)
(0.0293746 0.00239243 -0.3253)
(-0.506123 -0.00115479 -0.584718)
(-0.497727 0.00119261 -0.582585)
(-0.49727 0.00133348 -0.582345)
(-0.505675 0.00200489 -0.584638)
(-0.517061 0.00411297 -0.588913)
(-0.491824 0.00184492 -0.576137)
(-0.70457 -0.00335221 -0.655551)
(-0.708396 0.00139136 -0.641877)
(-0.705078 0.00150442 -0.642891)
(-0.708639 0.00522029 -0.654526)
(-0.71529 -9.08403e-05 -0.66798)
(-0.707669 -0.00510758 -0.627405)
(-0.675516 -0.000877644 -0.602916)
(-0.691935 0.00222303 -0.581718)
(-0.691113 -0.00132822 -0.583983)
(-0.679156 0.00443303 -0.602291)
(-0.678434 -0.00352264 -0.622363)
(-0.70019 -0.00554003 -0.570991)
(-0.31148 0.00955323 -0.460873)
(-0.34615 0.00600551 -0.443794)
(-0.343828 -0.0114549 -0.447592)
(-0.314646 -0.0136287 -0.461149)
(-0.29372 0.0050081 -0.47977)
(-0.357642 0.0196953 -0.442973)
(0.166284 -0.00066803 -1.2379)
(0.126908 -0.00704113 -1.21927)
(0.107255 0.0181944 -1.22717)
(0.196178 0.0277283 -1.22903)
(0.26106 -0.00346912 -1.24551)
(0.112612 -0.0404668 -1.22766)
(1.59543 -0.0120186 -0.911887)
(1.5718 -0.0156387 -0.899382)
(1.55807 0.0118268 -0.908337)
(1.60011 0.0262256 -0.902396)
(1.63988 -0.0195512 -0.89916)
(1.54467 -0.0361464 -0.911889)
(2.1306 -0.00357158 -0.130749)
(2.10912 -0.00383895 -0.116668)
(2.10773 0.00374675 -0.117469)
(2.13058 0.00294558 -0.128478)
(2.15145 -0.00384651 -0.133702)
(2.0864 -0.00982123 -0.115273)
(2.39069 0.00192339 0.35873)
(2.37794 0.00249293 0.369269)
(2.37743 -0.000386628 0.370905)
(2.39199 -0.00511465 0.359359)
(2.40674 0.00626238 0.353937)
(2.36629 0.00623429 0.37297)
(2.51173 0.000797128 0.437691)
(2.50667 0.00146015 0.443075)
(2.50647 -0.000211869 0.443784)
(2.51184 -0.00338641 0.438859)
(2.51798 0.00439447 0.437799)
(2.50301 0.00650771 0.442541)
(2.66992 0.00328199 0.398209)
(2.66519 0.00163089 0.403066)
(2.66188 -0.000590555 0.40222)
(2.6712 -0.000809351 0.401011)
(2.67437 0.00130831 0.401582)
(2.66074 0.00257144 0.400244)
(2.97793 0.00955196 0.582587)
(2.98862 0.00489419 0.586666)
(2.97565 -0.00481206 0.584992)
(2.98885 -0.00676906 0.584154)
(2.99425 0.0020867 0.579642)
(2.97589 0.00798924 0.592408)
(3.45399 0.00985559 1.05601)
(3.47587 0.00622967 1.04549)
(3.46135 -0.00505403 1.04502)
(3.47104 -0.00995188 1.05507)
(3.47749 0.0106465 1.06471)
(3.43888 0.0210156 1.04929)
(3.89564 -0.0307615 1.1961)
(3.98875 -0.0153017 1.18904)
(3.96503 0.0231532 1.18894)
(3.91385 0.0305377 1.19815)
(3.90929 -0.0398521 1.20573)
(3.96635 -0.0401134 1.20004)
(2.9164 -0.0394055 0.725638)
(3.05982 -0.0167345 0.722498)
(3.03791 0.0184523 0.721502)
(2.93681 0.0359033 0.73242)
(2.86981 -0.0440639 0.737708)
(3.13372 -0.0583001 0.721423)
(1.41982 -0.030448 0.33163)
(1.42861 -0.00184183 0.342175)
(1.43733 -0.00759473 0.340744)
(1.42437 0.0170385 0.338447)
(1.39885 -0.0163641 0.346868)
(1.45672 -0.0388141 0.324796)
(0.416368 0.0650423 -0.143543)
(0.211206 0.0560734 -0.136443)
(0.234885 -0.103641 -0.133955)
(0.412116 -0.112624 -0.146226)
(0.540191 0.0622688 -0.142933)
(0.184995 0.138119 -0.149554)
(-0.229774 0.0377276 -2.3612)
(-0.0792767 0.065097 -2.33214)
(0.0245706 -0.127833 -2.30332)
(-0.41917 -0.196832 -2.37431)
(-0.811462 0.0389762 -2.40919)
(-0.00895616 0.22304 -2.31973)
(1.40642 -0.0219687 -2.00039)
(1.83897 0.0674802 -2.17265)
(1.98766 -0.00480872 -2.23201)
(1.47249 0.179483 -1.97842)
(1.19592 -0.0590249 -1.79809)
(2.08104 0.173204 -2.25725)
(1.96459 -0.0192215 -1.05312)
(2.2628 0.00360467 -1.09551)
(2.27913 0.00449207 -1.10546)
(1.99952 0.0890958 -1.04895)
(1.85446 -0.0239814 -1.01203)
(2.45584 0.0746482 -1.12309)
(2.80097 -0.00027917 -0.593284)
(2.91143 0.00360374 -0.593881)
(2.89541 -0.00832617 -0.58712)
(2.81183 0.00625183 -0.594713)
(2.76486 -0.00656302 -0.59035)
(2.94616 0.0321971 -0.590386)
(3.67828 -0.000627062 -0.235612)
(3.70771 0.000126335 -0.236485)
(3.69733 -0.00118224 -0.227564)
(3.68544 -0.00093072 -0.238874)
(3.67798 -0.00247342 -0.240725)
(3.68781 0.00320302 -0.223027)
(4.33896 -0.00496342 -0.166054)
(4.35163 -0.00294432 -0.163693)
(4.34914 0.0054337 -0.156657)
(4.33449 0.012757 -0.167538)
(4.32799 -0.0119522 -0.166929)
(4.34658 -0.0183751 -0.156391)
(5.40002 0.0205326 -0.488879)
(5.36198 0.0137563 -0.459976)
(5.34454 -0.0129296 -0.454291)
(5.42807 -0.0208803 -0.4909)
(5.4965 0.0108699 -0.507708)
(5.28553 0.0113526 -0.442707)
(6.56069 0.0464446 -0.742304)
(6.93152 0.0447643 -0.759532)
(6.82056 -0.0456243 -0.740295)
(6.67012 -0.0443641 -0.759317)
(6.55937 0.109092 -0.76389)
(6.86585 0.153661 -0.705149)
(4.94942 -0.201721 0.553333)
(5.82049 -0.0878619 0.163456)
(5.6634 0.0959483 0.23863)
(4.87523 0.21658 0.552986)
(4.92095 -0.245417 0.683391)
(6.18171 -0.106642 -0.0172665)
(0.395297 -0.15236 2.01989)
(0.476216 -0.118297 1.89762)
(0.348262 0.0554816 1.86577)
(0.317113 0.092592 2.04697)
(0.151026 -0.315921 2.16789)
(0.879279 -0.218076 1.77221)
(-1.42031 0.0316748 1.21932)
(-1.5445 0.00153129 1.50408)
(-1.50006 -0.0531776 1.47061)
(-1.49599 -0.0753559 1.19227)
(-1.49614 -0.0210546 1.05104)
(-1.44486 0.049084 1.56182)
(-1.34884 0.0300191 0.67875)
(-1.3428 0.00485532 1.08015)
(-1.30933 -0.0403927 1.07226)
(-1.37472 -0.0472178 0.637947)
(-1.36292 -0.0174898 0.472442)
(-1.25271 0.0283004 1.16236)
(-0.239413 0.196269 -3.13122)
(0.953964 0.435739 -3.20917)
(1.29282 -0.679711 -3.16238)
(-1.17146 -0.828381 -3.14722)
(-2.67351 0.17637 -2.99979)
(0.876644 1.09073 -3.23196)
(-1.13236 -0.110253 -1.80243)
(0.589574 0.206148 -1.97501)
(1.25807 0.184194 -2.10584)
(-0.691749 0.699251 -1.87251)
(-1.87231 -0.0361562 -2.09207)
(1.82224 0.357474 -2.00248)
(1.17177 -0.144693 -1.64843)
(1.53198 -0.126857 -1.41314)
(1.54359 0.114812 -1.37561)
(1.32077 0.383317 -1.60985)
(1.3116 0.00322428 -1.9031)
(2.62765 0.0402885 -1.03346)
(5.80758 -0.126567 -1.90845)
(5.99187 -0.143609 -1.6082)
(5.85963 0.0407093 -1.59272)
(5.88193 0.128937 -1.89551)
(5.91833 -0.0701967 -2.12083)
(6.73283 -0.0153671 -1.28129)
(10.9643 -0.15268 -2.10133)
(10.9057 -0.154171 -2.03007)
(10.7483 0.118242 -2.04664)
(10.9978 0.199735 -2.09208)
(11.1892 -0.174145 -2.14787)
(11.3901 -0.141018 -1.93719)
(15.993 -0.0938413 -1.75529)
(15.5515 -0.0769877 -1.79102)
(15.3783 0.16525 -1.80515)
(16.0237 0.265354 -1.74348)
(16.3452 -0.248917 -1.74482)
(15.7373 -0.174758 -1.80859)
(19.1585 0.131381 -0.652189)
(19.5941 0.23371 -0.825997)
(19.2421 -0.112745 -0.759347)
(19.6354 0.0415095 -0.701939)
(19.6072 0.030089 -0.690158)
(19.6071 0.205629 -0.833194)
(10.5338 0.114413 0.790785)
(12.8368 0.202877 0.501015)
(12.2075 -0.198437 0.541974)
(11.0565 -0.0925454 0.771378)
(10.3312 0.20982 0.812393)
(13.696 0.389704 0.528335)
(6.60551 0.0252123 6.05569)
(8.73372 0.0591548 4.71268)
(8.28656 -0.118939 4.94821)
(6.82576 -0.0145973 6.07379)
(6.00263 0.253081 6.64823)
(9.53171 0.280068 4.08589)
(0.860485 -0.177769 7.93547)
(3.66271 -0.0887275 8.1993)
(2.93911 0.0254863 8.12529)
(0.732666 0.157287 7.9374)
(0.116267 -0.342548 7.9354)
(5.40654 -0.0119894 7.85566)
(0.634642 -0.301775 1.06559)
(0.159381 -0.168036 1.28761)
(0.0578896 0.24088 1.11545)
(0.860881 0.305735 1.05658)
(0.570476 -0.593669 0.695307)
(0.212042 -0.534152 1.59759)
(-4.50047 -0.0300711 -2.74209)
(-4.37385 -0.00403103 -2.71324)
(-4.37111 0.0378519 -2.71402)
(-4.52011 0.0896726 -2.77356)
(-4.61763 -0.028822 -2.83026)
(-4.26567 -0.101796 -2.69951)
(-0.629693 -0.0342946 -0.341092)
(-0.30616 -0.103873 -0.22506)
(-0.747591 -0.0417553 -0.262777)
(-0.40488 0.418234 -0.392933)
(0.291408 -0.103798 -0.100573)
(-0.311921 0.329426 -0.122618)
(-2.05805 0.0851791 -0.0655261)
(-0.362145 0.0579899 -0.270737)
(0.112739 0.359826 -1.05965)
(-0.680569 0.907875 -0.5489)
(-0.629816 -0.0390317 0.347522)
(-1.96226 -0.00209008 0.184695)
(-2.61641 0.165677 0.402746)
(0.0185346 0.862183 -0.587654)
(0.411902 0.919181 -1.14673)
(-0.646045 0.126344 -0.48654)
(-1.10884 -0.715316 0.12742)
(-2.08277 -0.309581 0.147171)
(-0.651959 0.507592 -0.0565619)
(1.59263 1.15925 -0.678281)
(-0.987293 0.562458 0.429237)
(-2.61377 0.0672497 0.22338)
(-0.457253 -0.394272 0.164817)
(-1.14929 -0.340541 0.0947653)
(2.25717 0.193837 -0.420149)
(3.47519 0.232512 -1.25678)
(3.75401 -0.136906 -1.82624)
(2.33743 0.74685 -0.716185)
(0.698382 0.667671 0.807318)
(0.963627 -0.194978 0.172038)
(3.42464 -0.139073 -0.858073)
(4.3392 0.0925054 -1.87205)
(4.53043 -0.247774 -2.54294)
(4.50645 -0.00428147 -2.0151)
(4.2028 -0.0146531 -0.897956)
(4.3538 0.0376451 -1.34398)
(3.78709 -0.180802 -1.00401)
(4.27945 0.0867067 -1.92037)
(4.23608 0.0218814 -2.4421)
(3.83695 0.194978 -1.80971)
(4.27923 -0.261537 -1.45759)
(4.01005 0.0548512 -1.57099)
(3.51284 -0.204688 -0.793568)
(4.07239 0.00988398 -1.80342)
(4.05132 0.209952 -2.25287)
(3.86615 0.218167 -1.17559)
(4.68242 -0.813899 -1.53863)
(3.73757 0.00658163 -1.35037)
(3.28637 -0.254287 -0.268453)
(3.93074 -0.281173 -1.53847)
(4.1334 0.00466879 -2.13087)
(4.72519 0.121836 -1.32781)
(5.43846 -1.07536 -1.65713)
(3.44874 0.19124 -1.08693)
(2.99243 -0.386161 0.523958)
(3.85141 -0.584688 -1.20314)
(4.16807 -0.347731 -2.08617)
(5.33054 -0.366348 -2.03173)
(5.45017 -0.721941 -2.27206)
(3.09666 0.702631 -0.879512)
(2.36309 -0.333737 0.825768)
(3.13826 -0.393654 -0.911932)
(3.48028 -0.613312 -1.95943)
(3.54965 -0.565278 -2.176)
(3.59593 -0.0156455 -2.76674)
(2.14783 0.967666 -0.656654)
(0.948925 -0.253552 0.318562)
(1.52493 -0.0606464 -0.835763)
(1.77951 -0.140798 -1.2926)
(1.59204 0.0281659 -1.2514)
(1.22232 0.168484 -1.17127)
(0.614223 0.439807 -0.0726567)
(-0.788314 -0.0144987 -2.15287)
(-0.566486 0.278867 -0.154955)
(-1.29569 -0.401174 -1.82722)
(-0.518857 0.667886 -0.443439)
(0.235489 -0.168852 0.0328249)
(-0.697587 0.131109 -1.79527)
(-2.39597 -0.0292079 -2.38874)
(-2.08 0.484891 0.244601)
(-1.96723 -0.0369834 -0.160034)
(-0.87562 0.741348 0.896966)
(-1.71396 -0.585355 0.332689)
(-2.44183 0.14126 -2.3062)
(-3.35691 0.266661 -1.37305)
(-3.14358 0.876462 0.945774)
(-2.60618 0.515119 1.53414)
(-1.8137 -0.640922 1.66634)
(-2.66737 -1.19946 0.609536)
(-3.39683 0.0222779 -1.47701)
(-3.95522 0.421852 0.704461)
(-2.73719 0.663349 2.87732)
(-4.41103 0.152622 4.91733)
(-3.5178 -0.814771 3.58804)
(-2.12669 -1.00801 2.3404)
(-3.40454 -0.18791 0.988307)
(-3.28557 0.579137 2.56209)
(-2.23235 0.796791 4.35771)
(-0.511335 -0.465416 4.37681)
(-0.458295 -0.610209 4.72305)
(-1.38165 -0.705736 5.95145)
(-2.453 -0.455248 5.18028)
(-2.04248 0.564075 2.02801)
(-1.33145 1.00011 2.49786)
(-0.0369192 -0.343549 2.812)
(2.05406 -0.928374 2.37421)
(3.12659 -0.0225022 2.50762)
(1.54528 0.0849344 2.85855)
(-3.51745 0.471138 0.787397)
(-4.21921 0.176637 0.7278)
(-2.58834 -1.18267 1.08343)
(-0.491052 -0.698316 1.25339)
(2.04595 0.359726 1.62173)
(-2.10392 1.04168 0.267277)
(-3.52198 0.817092 0.864318)
(-7.04828 1.74571 0.314339)
(-3.8892 -0.244131 1.68022)
(3.45817 -0.128852 3.23996)
(5.84062 -0.269374 2.35438)
(-3.50077 1.03017 -0.646068)
(2.25742 -0.0563666 0.957755)
(-3.21054 2.44676 1.0148)
(-7.55123 2.36341 1.58463)
(2.30962 0.871402 3.35717)
(6.36661 -0.850168 2.05431)
(-0.949462 0.30954 -1.44274)
(3.89297 -0.704206 0.978258)
(0.773175 1.03482 0.698899)
(-5.70303 1.71458 1.38051)
(3.06897 1.19282 2.27188)
(5.05088 -1.02225 -1.7985)
(1.39851 1.74602 0.178169)
(3.83094 -0.718787 -1.65553)
(4.35278 -0.511475 -1.49844)
(2.49754 -1.69256 1.33627)
(2.58854 1.39062 -3.97897)
(4.05974 -0.854183 -6.60327)
(1.39531 2.2639 0.3523)
(2.54206 0.165923 -3.53188)
(3.42299 0.362237 -4.67179)
(2.81725 -0.131766 -3.66239)
(3.41118 0.363564 -3.635)
(3.33418 -0.760259 -3.78316)
(1.0095 -0.160515 -1.18256)
(0.39872 -0.362689 -3.96069)
(-0.228035 0.177071 -1.54658)
(0.302316 -0.45562 -4.1343)
(-0.285005 0.327733 -2.21861)
(0.0262614 0.323773 -0.366093)
(0.272221 0.42121 -3.19308)
(-1.97728 -1.28396 -3.80919)
(-1.72712 -0.0823643 -1.86552)
(-1.80063 -0.232453 -3.09085)
(-1.45774 1.1114 -0.516318)
(-1.83525 0.925429 -0.378317)
(-2.50387 1.2319 -3.35085)
(-2.97255 -0.882447 -3.33302)
(-3.50413 0.20131 -0.767852)
(-3.5985 0.461613 0.408549)
(-2.65158 0.679999 1.74364)
(-3.70346 0.331887 -1.31473)
(-3.77597 1.10844 -2.99108)
(-3.89985 -0.0948526 -2.13937)
(-5.08893 0.43658 1.79897)
(-5.17985 0.196611 5.2064)
(-4.37885 -0.620429 3.69734)
(-4.76064 -0.533046 -0.547602)
(-3.98878 0.717432 -1.02602)
(-5.39848 0.220274 -0.868977)
(-7.14107 0.324433 3.64419)
(-8.73904 -0.0811596 7.52656)
(-5.70684 -0.588081 7.97905)
(-4.07179 -0.702272 6.21227)
(-3.90341 0.109915 5.18611)
(-6.32707 0.282816 -1.64932)
(-9.78583 0.439752 1.48497)
(-8.3179 -0.216748 1.96743)
(-4.40645 0.310411 0.201098)
(-4.04711 -0.267382 2.26311)
(-3.40073 -0.170685 1.1596)
(-3.72446 -0.387054 -3.03589)
(-8.02933 -0.00460175 -1.93741)
(-4.63272 -0.0353731 -3.08643)
(-2.14754 0.02046 -3.20894)
(-3.02982 0.140562 -2.71025)
(-1.37924 0.459839 -2.71378)
(-3.336 -0.605367 -1.39212)
(-4.12677 -0.945904 -2.31723)
(-2.35452 -1.35984 -1.26357)
(-0.15506 -1.25326 2.04189)
(1.04615 -0.25008 1.5255)
(-0.61556 0.560013 1.11641)
(-4.93291 -0.258353 1.26467)
(-5.91336 0.325627 -0.0980931)
(-5.0615 -0.470208 2.1066)
(0.320857 -0.752014 4.97916)
(2.61427 -0.674428 0.215503)
(0.997492 0.91196 2.24542)
(-2.647 -0.637352 1.53433)
(-4.41306 0.386085 2.83805)
(-7.12239 0.549077 5.0653)
(0.521699 0.869185 4.58534)
(2.73143 0.0132191 -3.83658)
(0.856879 1.16972 1.38332)
(-3.40526 -0.99933 1.48148)
(-1.42325 -0.100749 0.805212)
(-0.383481 -0.89479 0.702187)
(2.02531 1.5237 -4.78182)
(3.69216 -0.689141 -6.92282)
(-2.22494 1.16876 1.84453)
(3.4667 0.443995 -5.27972)
(3.72149 0.602817 -5.84604)
(3.23136 0.395677 -5.03407)
(3.41201 0.554507 -4.2432)
(3.45491 -0.945033 -4.59066)
(2.394 -0.914527 -3.74828)
(1.72915 -0.793398 -3.86642)
(0.25075 0.00490699 -2.06242)
(1.78804 -0.485376 -4.15383)
(1.83333 -0.66655 -3.82156)
(0.722271 0.444759 -1.43793)
(1.6521 0.902121 -2.97952)
(-1.8406 -1.38473 -2.47429)
(-0.36709 0.0130701 -5.87517)
(-1.32821 -1.09755 -6.2254)
(-1.71376 0.65636 -3.23944)
(-2.09798 1.24024 -2.99835)
(-2.41944 2.33877 -1.65606)
(-2.08502 -1.56754 -2.65869)
(-2.27722 -0.126639 -4.93787)
(-3.14404 -0.182895 -3.22686)
(-3.69517 1.41924 -0.51158)
(-3.40986 1.63712 -2.64568)
(-3.16724 2.15817 0.526209)
(-2.50629 -1.15489 -2.43517)
(-4.49027 0.0833192 -2.20332)
(-5.07431 0.0980829 1.41413)
(-5.1907 1.08994 2.78348)
(-5.18444 1.01636 -0.998938)
(-2.18729 0.373159 1.67988)
(-3.12925 -0.947373 -0.178054)
(-6.4587 -0.168263 0.439553)
(-6.76905 -0.303946 4.24329)
(-6.04969 0.383285 7.68073)
(-4.99777 0.365946 5.22647)
(-2.84 0.579627 5.16916)
(-2.64268 -1.00169 1.81639)
(-8.05673 -0.880556 2.44298)
(-7.43169 -1.08525 3.97144)
(-4.66968 -0.545879 4.08897)
(-4.46827 -0.250489 3.79681)
(-3.47577 0.541454 3.1998)
(-2.72931 -1.02652 2.60128)
(-5.62469 -0.925319 2.75258)
(-2.85183 -0.575561 2.72349)
(-1.37385 -0.473888 2.47134)
(-1.71786 -0.343259 2.82661)
(-1.45923 0.144684 2.34283)
(-2.24648 -0.615548 2.57439)
(-1.4683 -1.79504 2.39692)
(-0.276004 -2.62869 2.15922)
(0.455926 -2.16405 2.41827)
(1.06364 -1.28885 2.2508)
(1.28235 -0.319715 2.18055)
(-4.91263 0.414859 2.3968)
(-3.84682 -0.837601 1.98148)
(-2.00236 -2.3885 2.86651)
(0.139471 -1.62921 2.8088)
(1.1492 -1.14633 -0.395359)
(1.73648 -0.178742 1.50308)
(-3.3409 0.401082 3.05315)
(-4.67239 0.803891 3.96417)
(-4.63735 -0.897122 5.67663)
(0.700329 -0.013673 1.40974)
(2.05316 0.270795 -3.70821)
(2.70338 0.216654 -0.658252)
(-5.89404 0.0460408 3.59313)
(-7.96342 1.94179 4.39356)
(-7.83102 1.16128 4.93355)
(0.90323 1.89067 -3.34514)
(3.0339 -0.274645 -5.65385)
(-6.06155 -0.535477 2.19841)
(3.62768 0.0691553 -4.25532)
(3.49289 0.306117 -3.99402)
(3.49243 0.878548 -3.84566)
(3.85504 0.931032 -4.20505)
(3.87742 -0.573239 -4.48352)
(3.24619 -0.727724 -3.80133)
(-3.10598 0.124506 -1.03334)
(-1.7344 0.490119 -1.1197)
(-0.782702 -0.372538 -0.966764)
(-3.59096 -0.276579 -1.16902)
(-4.68341 0.130254 -1.46835)
(-1.01571 0.824 -1.1488)
(-3.88391 -0.104737 1.23662)
(-3.69778 0.0935719 1.96004)
(-2.90071 0.148744 2.22572)
(-4.05079 0.254205 1.23712)
(-4.37849 -0.136895 0.746871)
(-3.14208 -0.0378803 2.00939)
(-3.8854 -0.237342 5.20513)
(-4.28659 -0.0661886 5.16994)
(-3.84537 0.231757 5.25166)
(-3.91917 0.438673 5.34977)
(-4.11733 -0.280846 5.41188)
(-3.77806 -0.267264 5.49001)
(-4.75658 -0.108029 -2.52273)
(-4.90638 -0.0771034 -2.11287)
(-4.69164 0.250583 -1.95684)
(-4.48157 0.49255 -2.59981)
(-4.04647 -0.180454 -3.31916)
(-4.08559 -0.342346 -1.5046)
(-2.45134 -0.0586716 -2.29844)
(-3.40482 -0.0535521 -1.58916)
(-3.59508 0.105104 -1.08947)
(-2.16511 0.400945 -2.37107)
(-1.54606 -0.184466 -3.08114)
(-4.16192 -0.187696 -0.603332)
(-0.492595 -0.0384156 -5.3176)
(-0.916046 -0.0389864 -5.17659)
(-1.19407 0.00347374 -4.91359)
(-0.322852 0.197901 -5.40405)
(-0.0467295 -0.0744792 -5.68312)
(-2.23742 -0.0770933 -3.88215)
(-2.53138 -0.0470825 -5.56429)
(-3.32525 -0.0633107 -5.58711)
(-3.44373 -0.100455 -5.5083)
(-2.34032 -0.138043 -5.77283)
(-1.74594 -0.142397 -6.05494)
(-3.92846 -0.0505209 -4.76908)
(-0.0538263 0.0774923 -5.51985)
(-0.341503 0.106815 -5.58909)
(-0.369151 -0.1308 -5.46619)
(0.115791 -0.140349 -5.66594)
(0.359758 0.0726431 -5.76677)
(-1.20861 0.250996 -5.11201)
(0.0118046 0.031404 -6.33834)
(0.0143842 0.0516681 -6.43553)
(0.0226832 -0.0190009 -6.42297)
(0.00884309 -0.015278 -6.38978)
(-0.0232498 0.105576 -6.41326)
(-0.102751 0.12686 -6.29529)
(-1.64718 -0.00698625 -7.49668)
(-1.78797 0.0290653 -7.9776)
(-1.69805 -0.114203 -7.92733)
(-1.62502 -0.19596 -7.70078)
(-1.58282 0.0514839 -7.66779)
(-1.8578 0.144147 -7.60708)
(-0.532335 0.0950846 -5.84733)
(-0.548307 0.0851603 -6.02202)
(-0.512484 -0.119745 -5.89213)
(-0.544784 -0.172888 -5.94738)
(-0.57164 0.147411 -5.91951)
(-0.684435 0.262323 -5.88104)
(-0.30816 0.0234314 -5.68584)
(-0.316452 0.0143113 -5.76899)
(-0.340961 -0.00716752 -5.7284)
(-0.305945 0.000457735 -5.72689)
(-0.314406 0.0292581 -5.72233)
(-0.36672 0.0375738 -5.70305)
(-0.648684 -0.0505148 -8.10079)
(-0.919202 0.00174875 -8.7776)
(-0.804448 0.0126784 -8.81379)
(-0.751408 0.0812309 -8.13701)
(-0.745634 -0.0600371 -7.93448)
(-0.945985 -0.0344095 -8.56008)
(-1.42212 0.0861859 -6.45361)
(-1.23991 0.0730073 -6.67468)
(-1.14997 -0.114944 -6.615)
(-1.56308 -0.195383 -6.49152)
(-1.78864 0.101636 -6.33029)
(-1.27342 0.211427 -6.62692)
(-0.808472 0.0376515 -4.8755)
(-0.744686 0.0300614 -4.99068)
(-0.745789 -0.0427392 -4.95698)
(-0.827164 -0.0868482 -4.88041)
(-0.888305 0.0578503 -4.82826)
(-0.742901 0.0924373 -4.94665)
(-0.138479 -0.0598443 -5.14358)
(-0.773788 0.0566689 -6.11133)
(-0.804105 0.0886296 -6.23332)
(-0.149866 0.288318 -5.03511)
(0.171489 -0.228811 -4.57646)
(-0.790214 -0.0993095 -6.2836)
(-3.85395 0.0737089 -5.23661)
(-3.77329 0.0766501 -5.70691)
(-3.66875 -0.0972672 -5.76519)
(-4.0143 -0.112528 -5.14738)
(-4.23256 0.122255 -4.71082)
(-3.56544 0.275371 -6.04961)
(-2.74425 0.0280102 -2.79296)
(-2.47213 0.0249477 -3.06956)
(-2.39787 -0.0380948 -3.12531)
(-2.81957 -0.0765673 -2.80267)
(-3.06511 0.113378 -2.60146)
(-2.26925 0.149142 -3.25047)
(4.79619 0.139516 2.20858)
(4.65111 0.280681 1.86747)
(4.62597 -0.25734 1.89434)
(5.23719 -0.0836559 2.34179)
(5.39348 0.0667069 2.5733)
(4.2268 0.43626 1.51997)
(-4.27469 0.0759065 2.06864)
(-4.11621 0.104961 1.64274)
(-4.16716 -0.171321 1.63911)
(-4.32894 -0.0530039 2.30417)
(-4.56048 0.123399 2.67812)
(-3.81139 0.392889 0.770357)
(-4.57514 -0.0100081 2.00299)
(-4.43126 -0.00387631 1.83996)
(-4.39678 -0.0547165 1.7155)
(-4.65693 0.0303908 1.96063)
(-4.85408 0.094956 2.11718)
(-4.03412 0.163558 1.35576)
(0.970115 0.17572 7.58183)
(2.64383 0.23497 7.29385)
(2.29408 -0.313187 7.241)
(1.30579 -0.170493 7.77385)
(0.553207 0.286886 8.09163)
(3.3761 0.646036 7.0569)
(-5.15075 0.102121 8.99348)
(-4.16767 0.156559 9.0578)
(-4.32925 -0.241821 8.97384)
(-5.23208 -0.083557 9.14658)
(-5.82854 0.147768 9.38209)
(-3.16206 0.46739 8.65898)
(-4.1887 -0.0190472 6.40235)
(-4.01961 0.0205982 6.82429)
(-4.03872 -0.0891613 6.72612)
(-4.27691 -0.00150676 6.36165)
(-4.50673 -0.0329162 6.314)
(-3.50439 0.0996543 6.71349)
(-0.695252 0.0635183 12.0667)
(1.0006 0.113896 11.4875)
(0.639818 -0.189291 11.5519)
(-0.703089 0.0661581 12.0859)
(-1.38536 0.208566 12.3931)
(2.15651 0.375134 10.9698)
(-4.45347 -0.0440838 10.9295)
(-3.79744 0.0435929 11.1451)
(-3.97778 -0.0455794 11.0445)
(-4.53844 0.15347 10.8414)
(-4.83321 -0.114748 11.161)
(-2.98998 -0.0625083 10.9292)
(-2.18333 -0.0439062 6.24671)
(-2.34441 0.000435378 6.61606)
(-2.33903 0.0032853 6.48237)
(-2.1909 0.0584756 6.2206)
(-2.31279 -0.124871 6.52195)
(-2.25721 -0.163966 6.60866)
(-1.84798 -0.279516 8.27989)
(-0.851295 -0.175483 8.95045)
(-1.188 0.211657 8.72066)
(-1.94784 0.300366 8.21507)
(-2.18073 -0.492854 8.48519)
(0.133504 -0.413498 9.06998)
(-0.817719 -0.153375 7.20568)
(-0.879708 -0.0824933 7.54533)
(-0.917157 0.126783 7.39648)
(-0.829539 0.121277 7.19299)
(-0.89028 -0.317384 7.38373)
(-0.838282 -0.3517 7.65839)
(0.428718 -0.0123256 3.90348)
(0.349905 0.00367734 3.98539)
(0.352317 -0.000742299 3.92341)
(0.442588 -0.0107744 3.95616)
(0.452908 -0.0372792 3.99442)
(0.265378 -0.0498195 4.04939)
(-1.81849 -0.105876 3.70009)
(-1.89804 -0.0437561 3.66348)
(-1.92539 0.0719525 3.62043)
(-1.74656 0.0941903 3.75272)
(-1.8354 -0.245276 3.83071)
(-1.76836 -0.29505 3.81319)
(0.862365 0.00418485 4.09356)
(0.893381 0.0194009 4.09618)
(0.897502 -0.0277311 4.04481)
(0.892681 -0.0327672 4.13112)
(0.951821 -0.0182211 4.17471)
(0.929248 -0.0271551 4.18454)
(1.57288 0.00533401 1.40226)
(1.58982 0.00726027 1.39601)
(1.57861 -0.0123217 1.37477)
(1.57497 -0.0202984 1.42822)
(1.57699 0.00946141 1.42327)
(1.57291 0.0145778 1.41456)
(-3.25438 -0.00273835 -1.28153)
(-3.22424 -0.00101362 -1.43073)
(-3.23628 -0.00507819 -1.42018)
(-3.26899 -0.00201083 -1.25001)
(-3.29733 -0.0122064 -1.16425)
(-3.2309 -0.0161741 -1.4279)
(2.5092 0.0164652 -2.02271)
(2.5591 0.00447639 -2.14874)
(2.54998 -0.0469045 -2.12805)
(2.52812 -0.0660448 -1.96067)
(2.53971 0.00643721 -1.8747)
(2.56544 0.0392811 -2.02512)
(1.91939 0.00850636 -0.517646)
(1.91038 0.00454972 -0.514139)
(1.91018 -0.0152238 -0.51138)
(1.9262 -0.0229128 -0.511492)
(1.93702 0.00332696 -0.510227)
(1.92038 0.0146143 -0.498932)
(2.18553 0.0338122 0.173413)
(2.26838 0.0599903 0.115031)
(2.24303 0.0256186 0.0429857)
(2.28057 0.00540253 0.161528)
(2.34139 -0.0456018 0.179499)
(2.26677 -0.0467207 0.163725)
(0.948158 0.0124719 -3.94602)
(0.741979 -0.0161184 -4.16354)
(0.428602 -0.0862033 -4.21306)
(0.323933 -0.0675322 -4.20734)
(0.252306 -0.0171698 -4.23596)
(0.456314 -0.000675869 -4.16703)
(-0.46534 0.014921 -0.171882)
(-0.608316 0.0660163 -0.277059)
(-0.72426 0.199831 -0.235888)
(-0.467051 0.25187 0.0377321)
(-0.309695 0.130557 0.172306)
(-0.260564 0.0208246 0.133822)
(0.437477 -0.00779526 -0.176458)
(0.454609 -0.0207935 -0.204053)
(0.470011 -0.0136314 -0.217254)
(0.472445 -0.00340797 -0.23703)
(0.478435 -0.00600472 -0.24166)
(0.457607 -0.002312 -0.227798)
(0.179941 -0.0366709 -1.9367)
(0.191846 -0.0940554 -2.07748)
(0.160964 -0.0884843 -2.09611)
(0.0841073 -0.0550482 -2.05853)
(0.0520156 -0.00860176 -2.09033)
(0.0115371 0.0166269 -2.04218)
(0.337331 0.013 -0.983403)
(0.359953 0.0441105 -0.978792)
(0.390119 0.101357 -0.894588)
(0.451531 0.133444 -0.904477)
(0.480704 0.0893689 -0.914456)
(0.47331 0.0234148 -0.965847)
(0.264891 -0.00215313 0.137213)
(0.264605 -0.00473096 0.135579)
(0.262238 0.000543075 0.132309)
(0.25688 0.0040873 0.137466)
(0.254309 -0.00244579 0.135124)
(0.255647 -0.00275312 0.127407)
(0.620767 -0.0150802 -0.786558)
(0.597103 -0.0398063 -0.808669)
(0.553626 -0.0589434 -0.828728)
(0.520353 -0.0595856 -0.8277)
(0.498374 -0.042199 -0.830111)
(0.509392 -0.0158668 -0.801201)
(-0.163549 0.0119337 -0.782803)
(-0.157641 0.0347521 -0.802601)
(-0.141259 0.0492451 -0.782432)
(-0.0977725 0.0481185 -0.775099)
(-0.0581452 0.0291357 -0.771638)
(-0.041921 0.00684779 -0.762445)
(-0.221035 -0.0016321 0.140436)
(-0.221103 -0.00491206 0.139855)
(-0.220038 -0.00727154 0.138471)
(-0.218428 -0.00843674 0.140618)
(-0.216306 -0.00609576 0.142066)
(-0.214808 -0.00119919 0.132371)
(0.233047 -0.0100978 -0.924936)
(0.232167 -0.0243673 -0.924351)
(0.227232 -0.0281322 -0.928401)
(0.217779 -0.0263926 -0.935834)
(0.212098 -0.0149608 -0.945332)
(0.200778 -0.00216593 -0.934039)
(-0.0846006 0.00534873 -0.875954)
(-0.0795911 0.0183856 -0.889718)
(-0.0672838 0.0299015 -0.881177)
(-0.0528325 0.0312252 -0.882082)
(-0.0425298 0.0203294 -0.882894)
(-0.0371005 0.00585793 -0.881626)
(-0.5251 -0.00108811 -0.16451)
(-0.523061 -0.00428889 -0.164044)
(-0.526817 -0.00811711 -0.165198)
(-0.53269 -0.00973354 -0.16667)
(-0.538566 -0.00566445 -0.167178)
(-0.530921 -0.000466767 -0.171406)
(0.215269 -0.00671354 -2.17846)
(0.216892 -0.0124293 -2.16944)
(0.213435 -0.0135668 -2.18198)
(0.202089 -0.0156911 -2.20953)
(0.198546 -0.0125298 -2.24208)
(0.208226 -0.00476976 -2.20198)
(-0.588399 0.00371136 -0.554975)
(-0.588359 0.00984711 -0.564706)
(-0.582643 0.0139618 -0.554306)
(-0.574773 0.0154256 -0.537309)
(-0.567107 0.00893186 -0.524596)
(-0.565674 0.00127318 -0.530485)
(-2.24298 -0.00343451 0.12328)
(-2.24118 -0.00284837 0.128005)
(-2.24476 0.00331671 0.127658)
(-2.2567 0.00601071 0.120977)
(-2.27107 -0.00490788 0.12232)
(-2.24634 -0.00804223 0.120217)
(0.594709 -0.00568766 -4.20649)
(0.606551 -0.00952194 -4.21151)
(0.610856 -0.00578129 -4.22027)
(0.629986 -0.0108958 -4.2138)
(0.658739 -0.00790957 -4.23086)
(0.644921 0.00111252 -4.21246)
(0.668045 0.00670657 0.437653)
(0.653184 0.00945892 0.448047)
(0.668625 0.00259199 0.452922)
(0.700594 0.000495873 0.448956)
(0.726734 0.0076061 0.455575)
(0.706379 0.00668038 0.467687)
(1.63081 -1.08791 -3.21551)
(-0.793607 0.119794 -1.44883)
(2.47364 0.116663 -2.41065)
(2.52371 -1.45866 -4.13388)
(0.686198 0.579722 -5.10031)
(1.54478 0.371468 -1.84058)
(1.54159 -0.293565 -2.57956)
(-0.0977448 0.446997 -3.86666)
(1.4978 0.407186 -1.33422)
(1.09658 -1.11973 -3.91851)
(0.636094 -0.833009 -4.18561)
(1.69287 -0.29208 -2.0022)
(0.906604 0.121084 -1.46841)
(-0.0128303 -0.00572708 -3.35273)
(1.49371 0.00216476 1.77332)
(1.12382 -0.752338 -0.894146)
(0.332065 -0.202254 -3.62071)
(0.903238 -0.410065 -1.87416)
(-1.76624 -0.0620693 -1.342)
(-0.19183 0.731855 -6.97923)
(-1.66861 0.458074 -7.0015)
(-0.987429 -0.896563 -10.3308)
(-0.494805 -1.39761 -7.72606)
(-2.49176 -0.28585 1.76207)
(1.01195 0.651361 -4.17912)
(0.640781 0.768311 -5.20736)
(0.111213 0.0749132 -5.77831)
(0.928901 -1.06416 -5.37232)
(2.26277 -1.72249 -3.9899)
(1.81387 -0.746109 -2.76752)
(0.287136 0.119528 -4.11514)
(0.347277 0.175816 -4.21573)
(0.193558 -0.0398852 -4.5421)
(0.643409 -0.438688 -4.16607)
(0.785365 -0.532765 -3.99009)
(0.573604 -0.157771 -3.08587)
(-0.706145 0.636685 0.532669)
(0.0575765 1.13986 -8.63321)
(-2.47629 -0.515001 -6.6224)
(-1.41211 -0.543409 -6.34652)
(2.58617 -1.61619 -4.89723)
(2.91574 -0.871497 3.12032)
(2.63456 0.825305 -2.44276)
(1.42365 1.04998 -4.83295)
(1.08644 -0.16043 -4.37581)
(1.94898 -1.13312 -4.32713)
(3.52962 -1.79377 -1.56553)
(3.15335 -0.875204 -1.03612)
(1.53501 0.255709 -2.63122)
(0.834658 0.123184 -3.74771)
(1.40541 -0.160162 -3.16351)
(1.3872 -0.548908 -3.27678)
(1.41277 -0.477656 -3.16875)
(1.93065 -0.058872 -1.73364)
(2.50269 0.798088 0.0388531)
(-0.641025 0.437144 -4.6582)
(-4.54362 -0.591442 -0.577532)
(-5.1379 0.872335 1.32964)
(-0.893412 -0.81676 1.22257)
(3.17297 -0.46939 2.48956)
(3.60478 0.375335 -1.47289)
(1.43676 0.356795 -2.83699)
(-0.653663 -0.855319 -1.61225)
(-1.82743 -0.719183 0.766867)
(3.03569 -1.11093 0.971783)
(3.73184 -0.31793 0.184392)
(1.78359 -0.0637394 -0.945573)
(1.57472 -0.213096 -1.40547)
(1.38169 -0.470321 -1.22305)
(1.04179 -0.498302 -0.42012)
(1.83262 -0.118738 -0.319322)
(1.43906 -0.055853 -0.517762)
(1.67969 -0.529528 1.17393)
(-4.12286 -0.912086 0.934395)
(-5.4085 -1.23579 4.00479)
(-5.03067 0.259652 5.82713)
(-1.13461 0.571759 5.59961)
(1.47655 0.886187 4.15197)
(2.92197 -0.828179 1.64128)
(-0.0762386 -1.3271 1.96397)