/*--------------------------------*- C++ -*----------------------------------*\
| =========                 |                                                 |
| \\      /  F ield         | OpenFOAM: The Open Source CFD Toolbox           |
|  \\    /   O peration     | Version:  v1612+                                |
|   \\  /    A nd           | Web:      www.OpenFOAM.com                      |
|    \\/     M anipulation  |                                                 |
\*---------------------------------------------------------------------------*/
FoamFile
{
    version     2.0;
    format      ascii;
    class       volScalarField;
    location    "10";
    object      alpha.water;
}
// * * * * * * * * * * * * * * * * * * * * * * * * * * * * * * * * * * * * * //

dimensions      [0 0 0 0 0 0 0];

internalField   nonuniform List<scalar> 
320
(
1
1
1
1
2.22326e-05
2.18788e-05
2.39629e-05
2.49458e-05
2.32617e-05
2.2222e-05
2.21889e-05
2.21178e-05
2.21691e-05
2.17407e-05
2.06674e-05
2.32072e-05
0.999976
0.999976
0.999974
0.999974
0.999977
0.999975
0.999976
0.999976
0.999975
0.999979
0.999983
0.999976
1
1
1
1
1
1
1
1
1
1
1
1
1
1
1
1
1
1
1
1
1
1
1
1
1
1
1
1
2.27416e-05
2.16486e-05
2.15983e-05
2.36884e-05
1.98528e-05
1.90082e-05
1.95321e-05
1.94602e-05
2.23796e-05
2.3333e-05
1.79388e-05
1.80793e-05
2.2831e-05
1.85346e-05
1.81737e-05
1.81737e-05
1.84487e-05
1.98435e-05
2.28208e-05
2.02637e-05
0.999975
0.999977
0.999977
0.999975
0.999989
0.99999
0.999991
0.99999
0.999977
0.999972
0.99999
0.99999
0.999975
0.999987
0.999989
0.999989
0.999987
0.999984
0.999976
0.999986
1
1
1
1
1
1
1
1
1
1
1
1
1
1
1
1
1
1
1
1
1
1
1
1
1
1
1
1
1
1
1
1
1
1
1
1
1
1
1
1
1
1
1
1
1
1
1
1
1
1
1
1
1
1
1
1
1
1
1
1
1
1
1
1
1
1
1
1
1
1
1
1
1
1
1
1
2.28486e-05
2.25718e-05
2.32412e-05
2.1457e-05
2.54468e-05
2.2071e-05
2.5122e-05
2.26156e-05
2.30246e-05
2.36176e-05
2.35545e-05
2.3898e-05
2.43698e-05
2.23301e-05
2.26517e-05
2.38658e-05
2.31802e-05
2.31426e-05
2.20796e-05
2.24705e-05
2.31569e-05
2.25176e-05
2.3585e-05
2.16571e-05
2.13549e-05
2.28086e-05
2.23808e-05
2.4691e-05
0.999975
0.999976
0.999972
0.999979
0.999973
0.999982
0.999973
0.999974
0.999973
0.999974
0.999976
0.999976
0.999973
0.999976
0.999976
0.999974
0.999977
0.999975
0.999974
0.999975
0.999977
0.999976
0.999974
0.999976
0.999976
0.999978
0.999977
0.999972
1
1
1
1
1
1
1
1
1
1
1
1
1
1
1
1
1
1
1
1
1
1
1
1
1
1
1
1
1
1
1
1
1
1
1
1
1
1
1
1
1
1
1
1
1
1
1
1
1
1
1
1
1
1
1
1
1
1
1
1
1
1
1
1
1
1
1
1
1
1
1
1
1
1
1
1
1
1
1
1
1
1
1
1
2.19907e-05
2.2609e-05
2.25562e-05
2.30021e-05
0.999975
0.999975
0.999973
0.999972
)
;

boundaryField
{
    top_fluid_surface
    {
        type            inletOutlet;
        inletValue      uniform 0;
        value           nonuniform List<scalar> 
64
(
0
0
0
0
0
0
0
0
0
0
2.06674e-05
0
0
0
2.15983e-05
0
1.98528e-05
1.90082e-05
1.95321e-05
1.94602e-05
2.23796e-05
0
1.79388e-05
1.80793e-05
0
1.85346e-05
1.81737e-05
1.81737e-05
1.84487e-05
1.98435e-05
0
2.02637e-05
0
0
0
2.1457e-05
0
0
0
0
0
0
0
0
0
0
0
0
0
0
0
0
0
0
0
0
2.13549e-05
0
0
0
0
0
0
0
)
;
    }
    bottom_fluid_surface
    {
        type            zeroGradient;
    }
    lateral_surface_1
    {
        type            zeroGradient;
    }
    lateral_surface_2
    {
        type            zeroGradient;
    }
    lateral_surface_3
    {
        type            zeroGradient;
    }
    lateral_surface_4
    {
        type            zeroGradient;
    }
}


// ************************************************************************* //
