/*--------------------------------*- C++ -*----------------------------------*\
| =========                 |                                                 |
| \\      /  F ield         | OpenFOAM: The Open Source CFD Toolbox           |
|  \\    /   O peration     | Version:  v1612+                                |
|   \\  /    A nd           | Web:      www.OpenFOAM.com                      |
|    \\/     M anipulation  |                                                 |
\*---------------------------------------------------------------------------*/
FoamFile
{
    version     2.0;
    format      ascii;
    class       surfaceScalarField;
    location    "10";
    object      alphaPhi;
}
// * * * * * * * * * * * * * * * * * * * * * * * * * * * * * * * * * * * * * //

dimensions      [0 3 -1 0 0 0 0];

internalField   nonuniform List<scalar> 
816
(
4.01318e-06
-1.21843e-05
6.42528e-06
-2.36669e-05
-2.03879e-05
4.5808e-05
7.87281e-06
-5.53555e-07
-1.3461e-05
-6.62176e-06
1.68607e-05
-3.58112e-06
-8.84262e-07
-7.81505e-06
2.75463e-07
-1.58545e-07
-1.34345e-05
-1.40741e-06
-1.07782e-05
2.98838e-05
3.61392e-12
2.23284e-10
5.59907e-07
-5.20951e-09
6.93861e-09
3.74567e-10
1.26759e-06
-1.28045e-09
1.379e-09
6.36998e-09
9.48989e-09
-5.67529e-09
7.60865e-09
1.03964e-08
-1.25298e-06
5.31442e-09
2.92651e-09
1.12942e-08
-2.99088e-06
2.63547e-09
-4.46383e-10
3.76437e-09
-2.20618e-06
-1.05217e-09
8.64739e-09
2.58872e-09
4.94408e-07
6.17257e-09
-4.1349e-09
6.01343e-09
4.12132e-07
2.03224e-09
-4.61915e-09
-2.97765e-09
-1.15714e-06
6.89169e-09
4.97016e-09
-2.09369e-09
7.48899e-07
4.86543e-09
-5.54064e-09
-9.11053e-09
1.06786e-06
3.82118e-09
-5.94185e-09
-2.01793e-06
-5.00215e-09
3.13976e-09
2.44312e-05
-3.3875e-06
-3.35212e-05
-3.26384e-06
1.63588e-05
4.74013e-05
-4.72981e-05
2.70045e-05
9.723e-07
2.50466e-06
-9.38976e-06
-1.48627e-06
5.39655e-05
-2.80201e-06
1.15176e-05
1.75632e-05
-2.58743e-05
1.88157e-05
-2.74157e-05
2.59424e-05
-2.7923e-05
-4.99872e-06
-2.85686e-05
1.58444e-05
3.54047e-05
4.5027e-06
-3.61593e-05
2.76103e-05
1.03649e-06
2.79626e-05
-1.57567e-05
-7.18155e-06
-1.54325e-07
8.21078e-06
-5.76581e-05
3.12175e-05
4.29018e-05
3.22289e-05
-3.33077e-05
1.84377e-05
-6.08106e-06
-2.17368e-05
7.89573e-05
6.06935e-06
-3.78199e-05
-1.73952e-05
-7.93032e-06
6.44357e-06
-1.06299e-05
6.63751e-08
-1.74649e-05
9.83492e-07
-2.43407e-05
-2.1102e-05
-1.31916e-05
5.38803e-07
-4.75994e-06
-5.23342e-07
-2.89141e-05
2.79243e-06
4.45898e-06
-8.6581e-06
-1.10729e-05
-1.24911e-05
-1.45345e-05
6.57723e-07
-1.44277e-05
-5.7885e-06
-2.00855e-05
-4.60632e-06
-1.73862e-05
-1.49394e-05
-1.82312e-05
-6.44187e-06
3.39111e-06
-3.50546e-06
-2.63311e-05
-1.9674e-05
-2.63858e-05
-1.55465e-05
-1.54754e-05
-1.36402e-05
1.10355e-05
3.50684e-05
-6.26423e-06
-9.56919e-06
5.92256e-06
-2.54285e-06
2.50477e-06
-6.76722e-06
4.31258e-06
-1.36631e-05
-6.68471e-06
3.80692e-06
-3.1703e-07
-7.66029e-06
5.44989e-08
-1.05515e-06
-1.77735e-07
-4.90409e-06
-3.61172e-07
-6.20902e-06
-1.24476e-06
-5.91351e-07
-4.96218e-06
-1.63131e-06
-2.19597e-07
-6.41513e-06
-1.30451e-05
-8.94382e-06
-4.44536e-06
7.01041e-08
-8.36718e-07
-1.54076e-05
-1.61975e-06
2.72221e-06
-4.19902e-06
-1.61078e-06
-5.72519e-06
-6.46248e-06
-3.8131e-06
-3.26517e-07
-3.33431e-06
-1.13261e-05
-5.17839e-06
-3.40148e-06
-8.33994e-06
-7.25521e-06
-1.0021e-05
2.64967e-06
-2.68726e-06
-1.42771e-06
-1.19739e-05
-1.53613e-05
-7.58066e-06
-9.09553e-06
-8.17061e-06
-4.56787e-06
6.17329e-06
-3.84883e-06
9.90511e-06
2.59095e-06
-3.30997e-06
-4.31925e-06
-1.93176e-09
3.28644e-09
4.07882e-06
-3.63273e-09
-6.8966e-10
2.85309e-06
-7.05193e-09
-2.82613e-09
-3.82206e-06
-1.64372e-09
5.46126e-09
-1.56086e-06
-7.545e-09
5.85009e-09
-1.13673e-06
-8.69253e-09
-5.59761e-09
1.64737e-09
-1.63569e-06
-6.08394e-09
-2.20155e-09
-2.20123e-06
-6.84816e-09
-7.85854e-09
-1.55773e-06
-9.49454e-09
-4.57844e-09
-4.59802e-06
-5.03597e-09
1.38914e-08
2.96114e-07
-1.15771e-08
-2.36089e-09
3.63133e-09
-1.03943e-05
-4.96633e-09
-4.22507e-09
-4.96826e-06
-6.5906e-09
5.15318e-09
1.76854e-06
-2.83152e-09
2.22646e-10
2.80719e-06
-4.72546e-09
1.58344e-09
1.25327e-09
-9.433e-09
-9.58568e-09
-3.03942e-09
2.52165e-11
-7.28254e-09
-8.31381e-09
-1.36518e-06
-5.08772e-09
-1.05833e-08
4.27149e-07
-3.64694e-09
-6.62346e-09
3.79367e-05
-1.74468e-09
-2.3396e-06
-8.36855e-09
-3.53107e-09
-1.7265e-05
1.59873e-05
-8.63234e-06
1.81278e-06
2.08969e-05
-2.93659e-05
-5.47796e-06
1.81392e-05
2.8105e-06
2.01374e-05
1.93065e-05
-1.11182e-05
5.50583e-06
2.83932e-05
8.22033e-05
-5.25531e-05
-4.14812e-05
-7.06783e-07
0.000102413
-2.44994e-05
-3.17814e-05
9.92968e-05
-5.74266e-05
-6.88063e-05
0.000122445
-6.35135e-05
-4.34905e-05
-1.4662e-05
-8.14857e-06
5.57505e-05
-3.40038e-05
-4.0347e-05
-2.32444e-05
-3.75369e-06
0.000115707
-2.43485e-05
-4.61644e-05
0.000107631
-4.32483e-05
1.49411e-05
-5.93494e-05
-4.64784e-06
8.44237e-07
7.6695e-05
-2.7384e-05
3.43582e-05
8.5651e-05
-6.64065e-05
-4.97351e-05
-6.55724e-06
0.000102752
-1.65138e-05
-4.01154e-05
9.49886e-05
-4.26838e-05
-2.72142e-05
2.98317e-05
-2.99599e-05
-2.87592e-06
-1.50793e-05
-8.03642e-06
8.26663e-05
-3.1362e-05
-4.00967e-05
9.28185e-06
-8.62146e-06
-3.06515e-06
-2.40041e-07
-7.78926e-06
-1.45422e-05
3.28928e-06
-1.00855e-05
3.63008e-06
-1.188e-05
-1.10218e-05
-5.94567e-06
-4.7373e-06
-1.38932e-05
3.73906e-05
2.57424e-05
2.20266e-05
1.25577e-06
4.50336e-05
1.33387e-05
1.72645e-05
4.32541e-05
3.13309e-05
3.90441e-05
5.33123e-05
3.28037e-05
2.14013e-05
-6.46448e-06
3.6617e-06
-3.22728e-05
-1.32281e-05
2.12947e-05
1.16066e-05
-3.18784e-07
4.99251e-05
1.37411e-05
2.09049e-05
4.70832e-05
2.44265e-05
-1.20663e-05
-2.61053e-05
3.13683e-06
-3.76688e-06
3.5093e-05
1.36342e-05
-1.8277e-05
3.83849e-05
3.61024e-05
2.56236e-05
5.21258e-06
4.50529e-05
7.83893e-06
2.40985e-05
4.27152e-05
1.97259e-05
1.7295e-05
1.51087e-05
1.5205e-05
1.45086e-06
-6.13603e-06
4.47802e-06
3.76528e-05
1.66667e-05
2.12183e-05
5.84429e-06
-5.52477e-06
1.70979e-07
-9.90199e-07
-4.17358e-06
-4.73999e-06
3.01487e-07
-5.20769e-06
3.41555e-06
-7.88833e-06
-5.21282e-06
-2.68246e-06
-4.27041e-06
-7.09529e-06
1.29675e-05
1.43343e-05
1.19096e-05
6.39343e-07
1.64145e-05
5.53249e-06
9.28504e-06
1.39015e-05
1.65217e-05
2.01114e-05
1.7359e-05
1.86563e-05
1.10149e-05
-2.11052e-06
1.40053e-06
-1.76458e-05
-1.03342e-06
1.11701e-05
5.32955e-06
1.51063e-07
1.38985e-05
6.94199e-06
1.09057e-05
1.51747e-05
1.28179e-05
-8.30909e-06
-5.2692e-06
1.02017e-06
-2.8352e-06
1.15813e-05
6.03944e-06
-1.01251e-05
1.20667e-05
1.95683e-05
1.40347e-05
2.74989e-06
1.43914e-05
2.43748e-06
1.24958e-05
1.39984e-05
1.0837e-05
9.04382e-06
6.35484e-06
8.43073e-06
3.89901e-07
-1.52353e-06
1.03168e-06
1.07308e-05
9.31679e-06
1.26562e-05
1.13952e-06
-4.45004e-06
3.31536e-06
-6.68735e-06
3.14478e-06
-5.90218e-07
-1.36507e-06
-2.55016e-06
-1.18829e-06
-1.0742e-06
-2.63241e-06
2.6219e-06
-5.42973e-06
1.18766e-06
1.05711e-06
-6.47457e-06
-4.00594e-06
-2.12071e-07
6.18929e-07
-8.56962e-06
-4.92339e-07
-2.71132e-06
-2.9272e-06
-4.01541e-06
-8.44351e-07
-1.58895e-06
-5.68081e-06
-2.38445e-06
-3.09688e-06
-6.14422e-06
-1.30151e-07
-1.11895e-06
-4.7974e-06
-7.80497e-06
-3.32666e-06
-3.43884e-06
3.3627e-06
-3.43969e-06
8.22502e-07
-6.09395e-07
2.0386e-06
-2.16492e-06
1.02358e-06
-3.08061e-06
1.69667e-06
-1.35239e-06
-2.11861e-06
-3.22447e-06
-1.42731e-07
-2.42443e-06
5.64683e-06
6.48267e-06
1.73289e-06
3.62852e-06
5.42686e-06
7.49665e-06
1.07217e-05
8.05583e-06
5.1023e-06
1.91841e-06
-6.46008e-06
6.0124e-06
4.51667e-06
-8.68474e-07
2.63106e-06
4.37905e-06
6.8318e-06
-2.91007e-06
1.90362e-06
-8.08139e-07
4.69032e-06
-3.69253e-06
8.59598e-06
6.35161e-06
1.35133e-06
1.50269e-06
6.58452e-06
5.31222e-06
6.34782e-06
3.15869e-06
1.93112e-06
2.56934e-06
5.61171e-06
5.87587e-06
1.26855e-09
-5.84175e-09
3.61459e-07
6.08084e-10
-6.02357e-07
5.60462e-10
5.32909e-07
-5.91029e-09
-2.7942e-06
1.74835e-09
8.22871e-07
-7.46998e-09
2.8973e-06
9.37904e-09
-4.68457e-07
5.07046e-09
1.08751e-07
1.90158e-09
7.84531e-07
3.09147e-09
-4.15308e-07
1.61942e-09
1.17402e-06
3.54538e-09
-9.27926e-07
2.4159e-09
6.99391e-08
1.99884e-09
2.71566e-06
2.22963e-09
-6.46455e-06
3.06691e-09
1.7278e-06
1.65444e-09
-9.61257e-06
2.76932e-09
1.38901e-06
-4.78963e-11
2.07212e-06
-5.40042e-09
5.0384e-06
3.6666e-09
1.19335e-06
-1.33761e-09
5.02133e-09
5.53822e-10
1.23521e-06
-2.75819e-09
1.92093e-06
-7.22496e-09
-3.78195e-06
-9.30907e-09
3.51305e-05
-9.14594e-09
-1.28413e-05
-4.33621e-06
1.67591e-05
-3.64931e-05
-9.61858e-06
1.41235e-05
2.72926e-06
4.0194e-05
-2.84875e-05
4.20179e-06
5.31914e-05
-2.28135e-05
3.61837e-05
-4.961e-05
-1.47294e-05
4.1732e-05
-9.23489e-05
2.0185e-05
-1.97953e-05
-2.50325e-05
2.41743e-05
-1.3582e-05
-6.91674e-05
9.93863e-06
-8.11046e-05
1.46742e-05
-1.7832e-05
1.37507e-05
-4.09825e-05
-1.28178e-05
3.94986e-05
-5.97786e-06
-3.1998e-05
-4.58053e-06
-3.05147e-05
-3.32671e-06
-5.03333e-05
-9.34453e-07
-1.15774e-05
-1.45009e-05
-6.82342e-06
-2.21744e-05
-5.18178e-05
3.6817e-05
-5.42237e-05
9.59235e-06
-1.97026e-05
-2.2564e-06
1.01777e-06
4.11911e-06
-3.73821e-05
-1.10262e-05
-1.04656e-05
-2.49319e-05
-1.11227e-06
-2.72132e-05
-3.71714e-05
-6.49958e-05
-8.31944e-06
2.04738e-05
-5.19617e-06
-6.94425e-06
1.17e-06
-1.91619e-05
-1.27086e-05
-3.10415e-06
2.50294e-05
1.23633e-05
1.58592e-05
2.94372e-05
-6.1112e-06
-2.17284e-05
-4.11687e-05
-9.9112e-06
-9.52268e-06
1.54232e-05
1.21619e-05
6.931e-06
-2.93736e-05
-4.17635e-06
-3.72099e-05
-9.38283e-06
-8.96114e-06
-1.13818e-05
-1.76509e-05
1.06384e-05
1.74629e-05
4.71908e-06
-1.45552e-05
7.97931e-07
-1.28755e-05
-2.35816e-06
-2.27702e-05
-4.6971e-06
-6.0921e-06
4.31892e-06
-2.14544e-06
1.04629e-05
-2.1851e-05
-1.87131e-05
-2.50512e-05
-4.68961e-06
-8.07495e-06
1.75505e-06
2.42453e-06
1.12477e-06
-1.69964e-05
9.53797e-06
-3.62593e-06
1.37546e-05
-9.4777e-07
1.59946e-05
-1.81338e-05
-2.83825e-05
-3.95372e-06
1.01151e-05
-2.44551e-06
-3.83658e-06
-3.81039e-07
-1.04007e-05
-4.98459e-06
-7.36267e-07
7.7752e-06
8.86457e-06
2.04553e-06
1.61249e-05
9.23104e-07
-1.23394e-05
-1.27724e-05
-5.85172e-06
-4.08909e-06
9.12371e-06
2.75398e-06
5.30632e-06
-9.00474e-06
-3.27538e-06
-9.96274e-06
-6.44125e-06
-4.41985e-06
-7.62673e-06
-5.29146e-06
7.02938e-06
2.87718e-06
3.0602e-06
-5.21777e-06
3.74104e-07
-3.242e-06
-2.36122e-06
-7.23764e-06
-3.65828e-06
-3.84849e-06
2.73184e-06
-2.47689e-06
5.69603e-06
-5.24299e-06
-1.04019e-05
-8.96936e-06
-2.94935e-06
-1.51448e-06
1.99043e-06
-7.38617e-08
3.41754e-07
-4.48796e-06
4.82674e-06
3.91913e-07
7.7119e-06
-2.92569e-06
7.48516e-06
-5.37605e-06
-1.05789e-05
-2.15027e-06
5.24685e-06
-3.07941e-06
-6.61339e-06
-1.00979e-06
9.33121e-07
7.5772e-06
-5.19476e-06
-2.826e-06
3.54658e-06
2.04974e-06
1.71402e-07
-2.33908e-06
-1.68532e-06
1.18213e-06
4.95e-07
-1.10256e-07
-4.93105e-07
-2.44737e-06
-2.37993e-07
3.12556e-06
-5.83533e-06
-1.01876e-06
4.18534e-07
1.28132e-06
4.79783e-06
4.01456e-06
4.24813e-06
-5.12261e-09
5.98494e-09
1.10581e-06
1.76255e-09
-6.96767e-06
-1.02567e-09
-6.00588e-06
-4.56196e-06
-3.62851e-06
2.07332e-05
-1.2758e-05
1.54618e-05
)
;

boundaryField
{
    top_fluid_surface
    {
        type            calculated;
        value           nonuniform List<scalar> 
64
(
0
0
0
0
0
0
0
0
0
0
7.35802e-09
0
0
0
2.64819e-09
0
1.15607e-08
1.52576e-08
1.38032e-08
1.47761e-08
6.88324e-10
0
1.87051e-08
1.76619e-08
0
1.30785e-08
1.40768e-08
1.45225e-08
1.37045e-08
7.62438e-09
0
9.10336e-09
0
0
0
3.95685e-09
0
0
0
0
0
0
0
0
0
0
0
0
0
0
0
0
0
0
0
0
1.3768e-09
0
0
0
0
0
0
0
)
;
    }
    bottom_fluid_surface
    {
        type            calculated;
        value           uniform 0;
    }
    lateral_surface_1
    {
        type            calculated;
        value           uniform 0;
    }
    lateral_surface_2
    {
        type            calculated;
        value           uniform 0;
    }
    lateral_surface_3
    {
        type            calculated;
        value           uniform 0;
    }
    lateral_surface_4
    {
        type            calculated;
        value           uniform 0;
    }
}


// ************************************************************************* //
