/*--------------------------------*- C++ -*----------------------------------*\
| =========                 |                                                 |
| \\      /  F ield         | OpenFOAM: The Open Source CFD Toolbox           |
|  \\    /   O peration     | Version:  v1612+                                |
|   \\  /    A nd           | Web:      www.OpenFOAM.com                      |
|    \\/     M anipulation  |                                                 |
\*---------------------------------------------------------------------------*/
FoamFile
{
    version     2.0;
    format      ascii;
    class       volScalarField;
    location    "10";
    object      p;
}
// * * * * * * * * * * * * * * * * * * * * * * * * * * * * * * * * * * * * * //

dimensions      [1 -1 -2 0 0 0 0];

internalField   nonuniform List<scalar> 
320
(
14724.8
14724.8
14724.8
14724.8
5.01312
5.01304
5.01437
5.01445
5.01489
5.01445
5.01381
5.01306
5.01225
5.01235
5.01343
5.0134
4914.91
4914.91
4914.93
4914.94
4914.93
4914.9
4914.91
4914.91
4914.91
4914.92
4914.89
4914.92
14724.8
14724.8
14724.8
14724.8
14724.8
14724.8
14724.8
14724.8
14724.8
14724.8
14724.8
14724.8
24534.8
24534.8
24534.8
24534.8
24534.8
24534.8
24534.8
24534.8
24534.8
24534.8
24534.8
24534.8
24534.8
24534.8
24534.8
24534.8
5.01329
5.01288
5.01312
5.01388
5.01391
5.01425
5.01478
5.01496
5.0148
5.01472
5.0141
5.01375
5.01396
5.01252
5.01132
5.011
5.01149
5.01267
5.02022
5.01021
4914.92
4914.91
4914.87
4914.93
4914.91
4914.9
4914.91
4914.9
4914.88
4914.91
4914.88
4914.88
4914.92
4914.88
4914.88
4914.88
4914.88
4914.88
4914.95
4914.9
14724.8
14724.8
14724.8
14724.8
14724.8
14724.8
14724.8
14724.8
14724.8
14724.8
14724.8
14724.8
14724.8
14724.8
14724.8
14724.8
14724.8
14724.8
14724.8
14724.8
24534.8
24534.8
24534.8
24534.8
24534.8
24534.8
24534.8
24534.8
24534.8
24534.8
24534.8
24534.8
24534.8
24534.8
24534.8
24534.8
24534.8
24534.8
24534.8
24534.8
34344.8
34344.8
34344.8
34344.8
34344.8
34344.8
34344.8
34344.8
34344.8
34344.8
34344.8
34344.8
34344.8
34344.8
34344.8
34344.8
34344.8
34344.8
34344.8
34344.8
34344.8
34344.8
34344.8
34344.8
34344.8
34344.8
34344.8
34344.8
34344.8
34344.8
34344.8
34344.8
34344.8
34344.8
34344.8
34344.8
5.01241
5.01234
5.01256
5.01287
5.01367
5.01345
5.0139
5.01398
5.01414
5.01439
5.01455
5.01515
5.01498
5.01444
5.01408
5.01606
5.01369
5.01404
5.01217
5.01242
5.01075
5.01059
5.01102
5.01097
5.01146
5.01896
5.00915
5.012
4914.92
4914.91
4914.91
4914.88
4914.94
4914.94
4914.94
4914.91
4914.91
4914.92
4914.93
4914.93
4914.93
4914.91
4914.91
4914.92
4914.93
4914.92
4914.9
4914.92
4914.93
4914.92
4914.92
4914.9
4914.86
4914.95
4914.91
4914.93
14724.8
14724.8
14724.8
14724.8
14724.8
14724.8
14724.8
14724.8
14724.8
14724.8
14724.8
14724.8
14724.8
14724.8
14724.8
14724.8
14724.8
14724.8
14724.8
14724.8
14724.8
14724.8
14724.8
14724.8
14724.8
14724.8
14724.8
14724.8
24534.8
24534.8
24534.8
24534.8
24534.8
24534.8
24534.8
24534.8
24534.8
24534.8
24534.8
24534.8
24534.8
24534.8
24534.8
24534.8
24534.8
24534.8
24534.8
24534.8
24534.8
24534.8
24534.8
24534.8
24534.8
24534.8
24534.8
24534.8
34344.8
34344.9
34344.8
34344.8
34344.8
34344.8
34344.8
34344.8
34344.8
34344.8
34344.8
34344.8
34344.8
34344.8
34344.8
34344.8
34344.8
34344.8
34344.8
34344.8
34344.8
34344.8
34344.8
34344.8
34344.8
34344.8
34344.8
34344.7
5.01373
5.01296
5.01226
5.0136
4914.91
4914.91
4914.9
4914.9
)
;

boundaryField
{
    top_fluid_surface
    {
        type            calculated;
        value           nonuniform List<scalar> 
64
(
-2.11799e-09
-9.88703e-10
-1.41986e-08
-2.77939e-08
-4.69503e-09
-2.31621e-10
-1.46434e-09
-6.59064e-10
-4.62958e-09
-5.20134e-10
0
-1.04943e-08
-4.31075e-09
-4.0128e-10
0
-1.14149e-08
0
0
0
0
0
-8.09933e-09
0
0
-1.06408e-08
0
0
0
0
0
-3.84196e-09
0
-6.0583e-09
-1.64367e-09
-1.49976e-08
0
-4.10721e-08
-7.26646e-10
-7.80968e-08
-1.91244e-09
-1.20403e-09
-2.2959e-08
-2.56088e-08
-1.20177e-08
-2.86427e-08
-3.6075e-11
-1.79384e-09
-1.2039e-08
-7.61969e-09
-5.01818e-09
-1.18362e-09
-1.27108e-08
-2.77432e-08
-6.90115e-09
-2.13605e-08
-3.10924e-09
0
-2.20167e-09
-4.85353e-09
-6.43394e-08
-7.64396e-10
-1.33291e-09
-1.1206e-09
-4.64312e-09
)
;
    }
    bottom_fluid_surface
    {
        type            calculated;
        value           nonuniform List<scalar> 
64
(
39249.8
39249.8
39249.8
39249.8
39249.8
39249.8
39249.8
39249.8
39249.8
39249.8
39249.8
39249.8
39249.8
39249.8
39249.8
39249.8
39249.8
39249.8
39249.8
39249.8
39249.8
39249.8
39249.8
39249.8
39249.8
39249.8
39249.8
39249.8
39249.8
39249.8
39249.8
39249.8
39249.8
39249.8
39249.8
39249.8
39249.8
39249.9
39249.8
39249.8
39249.8
39249.8
39249.8
39249.8
39249.8
39249.8
39249.8
39249.8
39249.8
39249.8
39249.8
39249.8
39249.8
39249.8
39249.8
39249.8
39249.8
39249.8
39249.8
39249.8
39249.8
39249.8
39249.8
39249.7
)
;
    }
    lateral_surface_1
    {
        type            calculated;
        value           nonuniform List<scalar> 
40
(
5.01241
5.01234
5.01256
5.01287
5.01367
5.01345
5.0139
5.012
4914.92
4914.91
4914.91
4914.88
4914.94
4914.94
4914.94
4914.93
14724.8
14724.8
14724.8
14724.8
14724.8
14724.8
14724.8
14724.8
24534.8
24534.8
24534.8
24534.8
24534.8
24534.8
24534.8
24534.8
34344.8
34344.9
34344.8
34344.8
34344.8
34344.8
34344.8
34344.7
)
;
    }
    lateral_surface_2
    {
        type            calculated;
        value           nonuniform List<scalar> 
40
(
5.01444
5.01408
5.01606
5.01369
5.01404
5.01217
5.01242
5.01075
4914.91
4914.91
4914.92
4914.93
4914.92
4914.9
4914.92
4914.93
14724.8
14724.8
14724.8
14724.8
14724.8
14724.8
14724.8
14724.8
24534.8
24534.8
24534.8
24534.8
24534.8
24534.8
24534.8
24534.8
34344.8
34344.8
34344.8
34344.8
34344.8
34344.8
34344.8
34344.8
)
;
    }
    lateral_surface_3
    {
        type            calculated;
        value           nonuniform List<scalar> 
40
(
5.0139
5.01398
5.01414
5.01439
5.01455
5.01515
5.01498
5.01444
4914.94
4914.91
4914.91
4914.92
4914.93
4914.93
4914.93
4914.91
14724.8
14724.8
14724.8
14724.8
14724.8
14724.8
14724.8
14724.8
24534.8
24534.8
24534.8
24534.8
24534.8
24534.8
24534.8
24534.8
34344.8
34344.8
34344.8
34344.8
34344.8
34344.8
34344.8
34344.8
)
;
    }
    lateral_surface_4
    {
        type            calculated;
        value           nonuniform List<scalar> 
40
(
5.01075
5.01059
5.01102
5.01097
5.01146
5.01896
5.00915
5.012
4914.93
4914.92
4914.92
4914.9
4914.86
4914.95
4914.91
4914.93
14724.8
14724.8
14724.8
14724.8
14724.8
14724.8
14724.8
14724.8
24534.8
24534.8
24534.8
24534.8
24534.8
24534.8
24534.8
24534.8
34344.8
34344.8
34344.8
34344.8
34344.8
34344.8
34344.8
34344.7
)
;
    }
}


// ************************************************************************* //
