/*--------------------------------*- C++ -*----------------------------------*\
| =========                 |                                                 |
| \\      /  F ield         | OpenFOAM: The Open Source CFD Toolbox           |
|  \\    /   O peration     | Version:  v1612+                                |
|   \\  /    A nd           | Web:      www.OpenFOAM.com                      |
|    \\/     M anipulation  |                                                 |
\*---------------------------------------------------------------------------*/
FoamFile
{
    version     2.0;
    format      ascii;
    class       volScalarField;
    location    "10";
    object      p_rgh;
}
// * * * * * * * * * * * * * * * * * * * * * * * * * * * * * * * * * * * * * //

dimensions      [1 -1 -2 0 0 0 0];

internalField   nonuniform List<scalar> 
320
(
-9800.21
-9800.2
-9800.2
-9800.2
-0.000819806
0.000835196
-0.00804621
-0.012789
-0.00409211
0.000559714
8.63466e-05
-0.000323429
-0.00138317
0.000821062
0.00716225
-0.0053184
-9799.74
-9799.74
-9799.69
-9799.68
-9799.73
-9799.73
-9799.73
-9799.73
-9799.73
-9799.77
-9799.86
-9799.73
-9800.21
-9800.2
-9800.2
-9800.2
-9800.19
-9800.21
-9800.2
-9800.2
-9800.21
-9800.2
-9800.2
-9800.2
-9800.21
-9800.2
-9800.21
-9800.2
-9800.2
-9800.2
-9800.2
-9800.2
-9800.2
-9800.2
-9800.2
-9800.2
-9800.2
-9800.2
-9800.2
-9800.2
-0.00314659
0.00180313
0.00228229
-0.0071928
0.0116247
0.016107
0.0140704
0.0146015
0.000141103
-0.00461182
0.0211977
0.0201612
-0.00291311
0.0167023
0.0172665
0.0169477
0.0160939
0.0104389
0.00340002
0.00591569
-9799.72
-9799.75
-9799.79
-9799.7
-9799.94
-9799.96
-9799.96
-9799.95
-9799.78
-9799.68
-9799.98
-9799.97
-9799.72
-9799.93
-9799.96
-9799.96
-9799.94
-9799.88
-9799.7
-9799.9
-9800.21
-9800.21
-9800.2
-9800.2
-9800.18
-9800.18
-9800.17
-9800.18
-9800.2
-9800.2
-9800.19
-9800.19
-9800.2
-9800.19
-9800.19
-9800.19
-9800.2
-9800.2
-9800.2
-9800.2
-9800.2
-9800.22
-9800.2
-9800.2
-9800.19
-9800.19
-9800.19
-9800.19
-9800.2
-9800.2
-9800.2
-9800.19
-9800.2
-9800.2
-9800.19
-9800.2
-9800.2
-9800.2
-9800.22
-9800.21
-9800.2
-9800.2
-9800.2
-9800.2
-9800.2
-9800.2
-9800.2
-9800.2
-9800.2
-9800.2
-9800.2
-9800.2
-9800.2
-9800.2
-9800.2
-9800.21
-9800.2
-9800.21
-9800.21
-9800.2
-9800.19
-9800.19
-9800.19
-9800.19
-9800.2
-9800.2
-9800.2
-9800.2
-9800.2
-9800.2
-9800.2
-9800.2
-9800.2
-9800.21
-9800.22
-9800.23
-0.00455215
-0.00326031
-0.00632698
0.00272823
-0.0160169
0.000303938
-0.0142025
-0.00184275
-0.0036824
-0.00633573
-0.00587347
-0.00695727
-0.00943194
1.8329e-05
-0.0019108
-0.00588183
-0.0048974
-0.00436027
-0.00102094
-0.00268828
-0.00771778
-0.00474376
-0.00955372
-0.000155152
0.0018171
0.00219806
-0.0055187
-0.0139849
-9799.72
-9799.73
-9799.69
-9799.81
-9799.66
-9799.79
-9799.66
-9799.71
-9799.7
-9799.69
-9799.72
-9799.71
-9799.68
-9799.74
-9799.73
-9799.69
-9799.74
-9799.71
-9799.72
-9799.72
-9799.73
-9799.73
-9799.69
-9799.74
-9799.78
-9799.71
-9799.75
-9799.66
-9800.2
-9800.21
-9800.23
-9800.21
-9800.2
-9800.18
-9800.2
-9800.2
-9800.2
-9800.2
-9800.19
-9800.2
-9800.2
-9800.2
-9800.2
-9800.2
-9800.19
-9800.2
-9800.21
-9800.2
-9800.2
-9800.2
-9800.21
-9800.21
-9800.22
-9800.19
-9800.2
-9800.22
-9800.19
-9800.18
-9800.23
-9800.22
-9800.2
-9800.19
-9800.2
-9800.2
-9800.2
-9800.2
-9800.2
-9800.2
-9800.2
-9800.2
-9800.2
-9800.2
-9800.2
-9800.2
-9800.2
-9800.2
-9800.2
-9800.2
-9800.2
-9800.21
-9800.21
-9800.2
-9800.21
-9800.23
-9800.21
-9800.14
-9800.19
-9800.2
-9800.2
-9800.2
-9800.2
-9800.2
-9800.2
-9800.2
-9800.2
-9800.2
-9800.2
-9800.2
-9800.2
-9800.2
-9800.2
-9800.2
-9800.2
-9800.2
-9800.2
-9800.2
-9800.2
-9800.2
-9800.2
-9800.2
-9800.21
-9800.27
0.000973081
-0.00282438
-0.00327233
-0.00411263
-9799.73
-9799.72
-9799.7
-9799.69
)
;

boundaryField
{
    top_fluid_surface
    {
        type            totalPressure;
        rho             rho;
        psi             none;
        gamma           1;
        p0              uniform 0;
        value           nonuniform List<scalar> 
64
(
-2.11799e-09
-9.88703e-10
-1.41986e-08
-2.77939e-08
-4.69503e-09
-2.31621e-10
-1.46434e-09
-6.59064e-10
-4.62958e-09
-5.20134e-10
0
-1.04943e-08
-4.31075e-09
-4.0128e-10
0
-1.14149e-08
0
0
0
0
0
-8.09933e-09
0
0
-1.06408e-08
0
0
0
0
0
-3.84196e-09
0
-6.0583e-09
-1.64367e-09
-1.49976e-08
0
-4.10721e-08
-7.26646e-10
-7.80968e-08
-1.91244e-09
-1.20403e-09
-2.2959e-08
-2.56088e-08
-1.20177e-08
-2.86427e-08
-3.6075e-11
-1.79384e-09
-1.2039e-08
-7.61969e-09
-5.01818e-09
-1.18362e-09
-1.27108e-08
-2.77432e-08
-6.90115e-09
-2.13605e-08
-3.10924e-09
0
-2.20167e-09
-4.85353e-09
-6.43394e-08
-7.64396e-10
-1.33291e-09
-1.1206e-09
-4.64312e-09
)
;
    }
    bottom_fluid_surface
    {
        type            fixedFluxPressure;
        gradient        uniform 0;
        value           nonuniform List<scalar> 
64
(
-9800.2
-9800.2
-9800.2
-9800.2
-9800.2
-9800.2
-9800.2
-9800.2
-9800.2
-9800.2
-9800.2
-9800.2
-9800.2
-9800.2
-9800.2
-9800.21
-9800.2
-9800.21
-9800.21
-9800.2
-9800.19
-9800.19
-9800.19
-9800.19
-9800.2
-9800.2
-9800.2
-9800.2
-9800.2
-9800.2
-9800.2
-9800.2
-9800.2
-9800.21
-9800.22
-9800.23
-9800.21
-9800.14
-9800.19
-9800.2
-9800.2
-9800.2
-9800.2
-9800.2
-9800.2
-9800.2
-9800.2
-9800.2
-9800.2
-9800.2
-9800.2
-9800.2
-9800.2
-9800.2
-9800.2
-9800.2
-9800.2
-9800.2
-9800.2
-9800.2
-9800.2
-9800.2
-9800.21
-9800.27
)
;
    }
    lateral_surface_1
    {
        type            fixedFluxPressure;
        gradient        uniform 0;
        value           nonuniform List<scalar> 
40
(
-0.00455215
-0.00326031
-0.00632698
0.00272823
-0.0160169
0.000303938
-0.0142025
-0.0139849
-9799.72
-9799.73
-9799.69
-9799.81
-9799.66
-9799.79
-9799.66
-9799.66
-9800.2
-9800.21
-9800.23
-9800.21
-9800.2
-9800.18
-9800.2
-9800.22
-9800.19
-9800.18
-9800.23
-9800.22
-9800.2
-9800.19
-9800.2
-9800.23
-9800.21
-9800.14
-9800.19
-9800.2
-9800.2
-9800.2
-9800.2
-9800.27
)
;
    }
    lateral_surface_2
    {
        type            fixedFluxPressure;
        gradient        uniform 0;
        value           nonuniform List<scalar> 
40
(
1.8329e-05
-0.0019108
-0.00588183
-0.0048974
-0.00436027
-0.00102094
-0.00268828
-0.00771778
-9799.74
-9799.73
-9799.69
-9799.74
-9799.71
-9799.72
-9799.72
-9799.73
-9800.2
-9800.2
-9800.2
-9800.19
-9800.2
-9800.21
-9800.2
-9800.2
-9800.2
-9800.2
-9800.2
-9800.2
-9800.2
-9800.2
-9800.2
-9800.2
-9800.2
-9800.2
-9800.2
-9800.2
-9800.2
-9800.2
-9800.2
-9800.2
)
;
    }
    lateral_surface_3
    {
        type            fixedFluxPressure;
        gradient        uniform 0;
        value           nonuniform List<scalar> 
40
(
-0.0142025
-0.00184275
-0.0036824
-0.00633573
-0.00587347
-0.00695727
-0.00943194
1.8329e-05
-9799.66
-9799.71
-9799.7
-9799.69
-9799.72
-9799.71
-9799.68
-9799.74
-9800.2
-9800.2
-9800.2
-9800.2
-9800.19
-9800.2
-9800.2
-9800.2
-9800.2
-9800.2
-9800.2
-9800.2
-9800.2
-9800.2
-9800.2
-9800.2
-9800.2
-9800.2
-9800.2
-9800.2
-9800.2
-9800.2
-9800.2
-9800.2
)
;
    }
    lateral_surface_4
    {
        type            fixedFluxPressure;
        gradient        uniform 0;
        value           nonuniform List<scalar> 
40
(
-0.00771778
-0.00474376
-0.00955372
-0.000155152
0.0018171
0.00219806
-0.0055187
-0.0139849
-9799.73
-9799.73
-9799.69
-9799.74
-9799.78
-9799.71
-9799.75
-9799.66
-9800.2
-9800.2
-9800.21
-9800.21
-9800.22
-9800.19
-9800.2
-9800.22
-9800.2
-9800.2
-9800.2
-9800.21
-9800.21
-9800.2
-9800.21
-9800.23
-9800.2
-9800.2
-9800.2
-9800.2
-9800.2
-9800.2
-9800.21
-9800.27
)
;
    }
}


// ************************************************************************* //
