/*--------------------------------*- C++ -*----------------------------------*\
| =========                 |                                                 |
| \\      /  F ield         | OpenFOAM: The Open Source CFD Toolbox           |
|  \\    /   O peration     | Version:  v1612+                                |
|   \\  /    A nd           | Web:      www.OpenFOAM.com                      |
|    \\/     M anipulation  |                                                 |
\*---------------------------------------------------------------------------*/
FoamFile
{
    version     2.0;
    format      ascii;
    class       surfaceScalarField;
    location    "10";
    object      phi;
}
// * * * * * * * * * * * * * * * * * * * * * * * * * * * * * * * * * * * * * //

dimensions      [0 3 -1 0 0 0 0];

internalField   nonuniform List<scalar> 
816
(
4.00417e-06
-1.22077e-05
6.44664e-06
-2.36702e-05
-2.04035e-05
4.58306e-05
7.85199e-06
-5.78197e-07
-1.35503e-05
-6.66433e-06
1.69542e-05
-3.60031e-06
-9.1731e-07
-7.86588e-06
1.68538e-07
1.75773e-08
-1.35373e-05
-1.43228e-06
-1.08562e-05
3.00826e-05
-2.24485e-06
1.61385e-05
2.58466e-06
-0.000240756
0.000303894
1.09787e-05
2.28079e-06
-5.66986e-05
7.01745e-05
0.0002635
-2.21865e-06
-0.000235204
0.000316416
0.000412199
-3.17655e-06
0.000208634
0.000130626
0.000501196
-7.65908e-06
0.000111887
-1.33426e-05
0.000174354
-2.87629e-06
-5.14499e-05
0.0003927
0.000124229
1.4244e-06
0.000287677
-0.000177561
0.000279704
1.00087e-07
8.6117e-05
-0.000191887
-0.000135678
-2.50399e-06
0.000307398
0.000235642
-0.000113339
3.20197e-06
0.000238063
-0.000247261
-0.000385547
-4.36919e-06
0.000194205
-0.000278685
1.70408e-05
-0.000223999
5.76382e-05
2.44509e-05
-3.31987e-06
-3.35058e-05
-3.27502e-06
1.63255e-05
4.73718e-05
-4.74101e-05
2.71645e-05
8.97893e-07
2.47626e-06
-9.40271e-06
-1.50323e-06
5.40122e-05
-2.75488e-06
1.15308e-05
1.76028e-05
-2.57595e-05
1.90871e-05
-2.73132e-05
2.59487e-05
-2.77607e-05
-5.05698e-06
-2.86945e-05
1.58594e-05
3.5499e-05
4.48974e-06
-3.62375e-05
2.76001e-05
9.66527e-07
2.80203e-05
-1.58226e-05
-7.27282e-06
-4.71448e-08
8.16268e-06
-5.77344e-05
3.13525e-05
4.29542e-05
3.22848e-05
-3.31858e-05
1.85456e-05
-6.04777e-06
-2.18033e-05
7.90211e-05
6.19296e-06
-3.79518e-05
-1.73266e-05
-7.99595e-06
6.02559e-06
-1.06907e-05
8.60053e-08
-1.74745e-05
1.03016e-06
-2.43763e-05
-2.11109e-05
-1.31695e-05
5.09624e-07
-4.78434e-06
-5.34716e-07
-2.89872e-05
2.75163e-06
4.47904e-06
-8.74542e-06
-1.10433e-05
-1.24526e-05
-1.46049e-05
6.55619e-07
-1.44664e-05
-5.81629e-06
-2.01153e-05
-4.60083e-06
-1.74106e-05
-1.5008e-05
-1.8243e-05
-6.46739e-06
3.37569e-06
-3.50519e-06
-2.63731e-05
-1.9698e-05
-2.64041e-05
-1.54958e-05
-1.54375e-05
-1.36177e-05
1.10494e-05
3.50741e-05
-6.25931e-06
-9.54827e-06
5.93758e-06
-2.58984e-06
2.47908e-06
-6.77541e-06
4.30036e-06
-1.36875e-05
-6.71161e-06
3.80228e-06
-3.35453e-07
-7.69607e-06
4.3641e-08
-1.07744e-06
-2.09866e-07
-4.93913e-06
-3.73641e-07
-6.26184e-06
-1.27218e-06
-6.07856e-07
-4.99627e-06
-1.6204e-06
-1.1249e-07
-6.43809e-06
-1.30739e-05
-8.91324e-06
-4.43897e-06
8.06454e-08
-8.67792e-07
-1.54362e-05
-1.63975e-06
2.70162e-06
-4.24329e-06
-1.62166e-06
-5.721e-06
-6.49867e-06
-3.80118e-06
-3.28655e-07
-3.33873e-06
-1.13332e-05
-5.19047e-06
-3.39188e-06
-8.36437e-06
-7.25732e-06
-1.00203e-05
2.63757e-06
-2.6905e-06
-1.42005e-06
-1.20058e-05
-1.53757e-05
-7.59595e-06
-9.08363e-06
-8.1532e-06
-4.56263e-06
6.19256e-06
-3.80331e-06
9.91717e-06
2.56509e-06
-3.21704e-06
-4.32482e-06
-8.45344e-05
0.000174774
-1.64679e-06
-0.000151149
-3.42125e-05
6.17919e-06
-0.000299328
-0.000124353
-7.55548e-06
-7.45724e-05
0.000228251
-3.03255e-06
-0.000294157
0.000291047
-2.30371e-06
-0.000389664
-0.000248214
8.168e-05
-4.95688e-06
-0.000263147
-0.00011354
-6.35851e-06
-0.000287627
-0.000352167
-3.84593e-06
-0.000400324
-0.000194407
-1.3959e-05
-0.00021295
0.000601328
-7.34546e-07
-0.000477544
-9.74671e-05
0.000204467
-3.55296e-06
-0.000225859
-0.000184298
-6.42746e-06
-0.000282011
0.000236337
6.20951e-06
-0.00012307
2.5428e-05
3.8161e-06
-0.000206706
8.96136e-05
4.06467e-06
-0.000429589
-0.000418395
-0.000169618
2.46386e-06
-0.000308274
-0.000452138
1.60282e-06
-0.000229135
-0.000533547
1.53294e-05
-0.00015754
-0.000227544
3.75594e-06
-5.72625e-05
-7.20225e-06
-0.000388591
-0.000147083
-1.71105e-05
1.60737e-05
-8.5825e-06
1.87071e-06
2.09538e-05
-2.9355e-05
-5.47781e-06
1.80204e-05
2.59054e-06
2.01941e-05
1.92488e-05
-1.11277e-05
5.42991e-06
2.85098e-05
8.25259e-05
-5.27104e-05
-4.14005e-05
-7.28432e-07
0.000102706
-2.44506e-05
-3.17487e-05
9.96687e-05
-5.73525e-05
-6.8599e-05
0.000122765
-6.35604e-05
-4.37044e-05
-1.48392e-05
-8.35291e-06
5.59358e-05
-3.41988e-05
-4.05543e-05
-2.33152e-05
-3.79696e-06
0.000115901
-2.45902e-05
-4.62827e-05
0.000107841
-4.34226e-05
1.50316e-05
-5.93594e-05
-4.66752e-06
8.32044e-07
7.6799e-05
-2.7451e-05
3.44639e-05
8.58301e-05
-6.65962e-05
-4.99162e-05
-6.551e-06
0.000102924
-1.66757e-05
-4.01301e-05
9.50974e-05
-4.27032e-05
-2.78449e-05
2.98371e-05
-2.97376e-05
-2.33698e-06
-1.47247e-05
-8.10324e-06
8.28648e-05
-3.14763e-05
-4.00844e-05
9.35665e-06
-8.6674e-06
-3.1125e-06
-2.51358e-07
-7.89105e-06
-1.44878e-05
3.39112e-06
-1.01299e-05
3.53675e-06
-1.18235e-05
-1.10813e-05
-5.97788e-06
-4.74384e-06
-1.39045e-05
3.74789e-05
2.57487e-05
2.21007e-05
1.23471e-06
4.51564e-05
1.34145e-05
1.73325e-05
4.34128e-05
3.14157e-05
3.91982e-05
5.34471e-05
3.28447e-05
2.14598e-05
-6.53896e-06
3.61834e-06
-3.23564e-05
-1.32945e-05
2.13184e-05
1.15912e-05
-3.37327e-07
5.00313e-05
1.37325e-05
2.09344e-05
4.71667e-05
2.43886e-05
-1.20699e-05
-2.61181e-05
3.13425e-06
-3.78713e-06
3.5149e-05
1.36657e-05
-1.82582e-05
3.84748e-05
3.61524e-05
2.56757e-05
5.24733e-06
4.51301e-05
7.88242e-06
2.41505e-05
4.27846e-05
1.97978e-05
1.72502e-05
1.51753e-05
1.53071e-05
1.56675e-06
-6.02189e-06
4.39e-06
3.78103e-05
1.66643e-05
2.1249e-05
5.98728e-06
-5.42235e-06
9.86777e-08
-1.18543e-06
-4.27836e-06
-4.81026e-06
4.16317e-07
-5.28312e-06
3.45203e-06
-7.7722e-06
-5.24503e-06
-2.63411e-06
-4.21017e-06
-7.06799e-06
1.30214e-05
1.43444e-05
1.19486e-05
6.39371e-07
1.64293e-05
5.55977e-06
9.30655e-06
1.39397e-05
1.65522e-05
2.01812e-05
1.74029e-05
1.8668e-05
1.10492e-05
-2.12676e-06
1.37878e-06
-1.76911e-05
-1.06476e-06
1.11705e-05
5.33456e-06
1.33013e-07
1.39238e-05
6.94691e-06
1.09187e-05
1.52061e-05
1.28077e-05
-8.31549e-06
-5.25994e-06
1.00824e-06
-2.84318e-06
1.16081e-05
6.05825e-06
-1.01121e-05
1.20968e-05
1.95969e-05
1.40533e-05
2.7871e-06
1.44011e-05
2.45062e-06
1.2551e-05
1.40013e-05
1.08575e-05
9.10531e-06
6.34562e-06
8.4403e-06
4.06349e-07
-1.49294e-06
8.95387e-07
1.09601e-05
9.15498e-06
1.26263e-05
1.11925e-06
-4.46462e-06
3.30756e-06
-6.67115e-06
3.14182e-06
-5.86042e-07
-1.39577e-06
-2.56795e-06
-1.20335e-06
-1.07181e-06
-2.65837e-06
2.61479e-06
-5.43732e-06
1.21302e-06
1.12119e-06
-6.52373e-06
-3.93485e-06
-2.05457e-07
6.57299e-07
-8.60144e-06
-4.94513e-07
-2.73335e-06
-2.92479e-06
-4.03439e-06
-8.37556e-07
-1.59822e-06
-5.68104e-06
-2.37829e-06
-3.10752e-06
-6.14003e-06
-1.34264e-07
-1.10385e-06
-4.81508e-06
-7.81757e-06
-3.30492e-06
-3.4363e-06
3.36387e-06
-3.41784e-06
7.44384e-07
-4.62378e-07
2.16733e-06
-1.76286e-06
4.66811e-07
-3.0749e-06
1.49183e-06
-1.42674e-06
-2.18096e-06
-3.28758e-06
-1.29002e-07
-2.43154e-06
5.68272e-06
6.48957e-06
1.75557e-06
3.65142e-06
5.44652e-06
7.5133e-06
1.07513e-05
8.06323e-06
5.12064e-06
1.9074e-06
-6.47145e-06
5.99619e-06
4.53406e-06
-8.75755e-07
2.63831e-06
4.38693e-06
6.83309e-06
-2.91159e-06
1.899e-06
-8.15816e-07
4.69336e-06
-3.68608e-06
8.60946e-06
6.35775e-06
1.38056e-06
1.52194e-06
6.63171e-06
5.32739e-06
6.45663e-06
3.12322e-06
2.10489e-06
2.35151e-06
5.34151e-06
5.70761e-06
5.64084e-05
-0.000233042
1.14304e-06
2.54882e-05
-1.82313e-06
1.83045e-05
2.68708e-06
-0.000235356
-3.32228e-06
6.62981e-05
3.92977e-06
-0.000299175
1.13919e-05
0.000371952
-7.36152e-07
0.000223442
-1.59207e-07
7.88772e-05
3.10818e-06
0.000129556
-4.01591e-07
6.43512e-05
6.23628e-06
0.000147618
-3.93337e-06
0.000103607
-7.66378e-07
9.3675e-05
1.07753e-05
7.7948e-05
-8.08302e-07
0.000151308
-6.37202e-06
6.39492e-05
-4.86881e-06
0.000138472
-4.55572e-06
-1.74189e-05
9.13794e-06
-0.000214276
6.90679e-06
0.000159677
4.23998e-06
-6.07934e-05
3.11934e-06
2.2912e-05
6.02769e-06
-0.000133829
1.14396e-05
-0.000387637
1.15681e-05
-0.000316209
-8.88764e-06
-0.000402592
-8.81281e-07
-1.04927e-06
1.67911e-05
-3.65608e-05
-9.65594e-06
1.42609e-05
2.71517e-06
4.01771e-05
-2.85282e-05
4.00416e-06
5.29937e-05
-2.29271e-05
3.61429e-05
-4.95939e-05
-1.45945e-05
4.19008e-05
-9.23457e-05
2.02237e-05
-1.99117e-05
-2.51298e-05
2.39948e-05
-1.36377e-05
-6.92787e-05
9.86798e-06
-8.10698e-05
1.47491e-05
-1.77454e-05
1.38761e-05
-4.10139e-05
-1.28263e-05
3.9437e-05
-6.11424e-06
-3.20582e-05
-4.52366e-06
-3.05197e-05
-3.26101e-06
-5.02358e-05
-8.00168e-07
-1.15826e-05
-1.46121e-05
-6.94145e-06
-2.22804e-05
-5.18468e-05
3.68694e-05
-5.41747e-05
9.63919e-06
-1.97049e-05
-2.09437e-06
9.64648e-07
4.47295e-06
-3.74708e-05
-1.19645e-05
-1.08503e-05
-2.44396e-05
-6.62245e-07
-2.7377e-05
-3.71526e-05
-6.49603e-05
-8.30081e-06
2.06044e-05
-5.27003e-06
-6.78566e-06
9.50152e-07
-1.93203e-05
-1.26656e-05
-3.19923e-06
2.51081e-05
1.23007e-05
1.59283e-05
2.94755e-05
-6.01154e-06
-2.16717e-05
-4.12033e-05
-9.91587e-06
-9.58682e-06
1.53724e-05
1.21199e-05
6.90161e-06
-2.93887e-05
-4.16096e-06
-3.71605e-05
-9.33274e-06
-8.95536e-06
-1.13525e-05
-1.7679e-05
1.0596e-05
1.74886e-05
4.68798e-06
-1.45431e-05
7.91929e-07
-1.288e-05
-2.32274e-06
-2.2731e-05
-4.65146e-06
-6.12499e-06
4.27546e-06
-2.21408e-06
1.04446e-05
-2.18602e-05
-1.86894e-05
-2.50405e-05
-4.63553e-06
-8.08701e-06
1.80678e-06
2.4027e-06
1.15637e-06
-1.70261e-05
9.29957e-06
-3.71014e-06
1.39121e-05
-8.68845e-07
1.60928e-05
-1.80963e-05
-2.82897e-05
-4.08621e-06
1.04264e-05
-2.34048e-06
-3.41055e-06
-7.79358e-07
-1.05042e-05
-5.378e-06
-8.71584e-07
7.63308e-06
8.78537e-06
2.04881e-06
1.61283e-05
9.96444e-07
-1.23065e-05
-1.27533e-05
-5.83699e-06
-4.11423e-06
9.11196e-06
2.71926e-06
5.28553e-06
-9.01602e-06
-3.26774e-06
-9.94018e-06
-6.4202e-06
-4.41824e-06
-7.60319e-06
-5.32376e-06
7.02487e-06
2.84504e-06
3.04457e-06
-5.23163e-06
3.56254e-07
-3.24099e-06
-2.35773e-06
-7.20928e-06
-3.62725e-06
-3.84179e-06
2.7089e-06
-2.49613e-06
5.68416e-06
-5.23895e-06
-1.03957e-05
-8.9554e-06
-2.91368e-06
-1.51146e-06
2.02843e-06
-8.85413e-08
3.65033e-07
-4.50812e-06
4.74134e-06
3.12596e-07
7.79428e-06
-2.97617e-06
7.66858e-06
-5.29624e-06
-1.02314e-05
-2.76447e-06
5.7979e-06
-2.65063e-06
-6.47936e-06
-1.01388e-06
8.96224e-07
7.55337e-06
-5.201e-06
-2.82068e-06
3.55331e-06
2.05106e-06
1.68116e-07
-2.34369e-06
-1.65846e-06
1.19361e-06
4.89609e-07
-1.14834e-07
-4.97947e-07
-2.43877e-06
-2.42342e-07
3.12106e-06
-5.83674e-06
-9.90177e-07
4.46415e-07
1.27258e-06
4.72582e-06
4.21312e-06
4.70225e-06
-0.000224341
0.00028843
-9.77875e-06
6.73859e-05
-1.46017e-06
-6.35357e-05
3.38305e-07
-5.90713e-06
-3.66205e-06
2.0857e-05
-1.27677e-05
1.53933e-05
)
;

boundaryField
{
    top_fluid_surface
    {
        type            calculated;
        value           nonuniform List<scalar> 
64
(
-7.95299e-05
-3.30056e-05
-0.000329194
-0.000484925
-0.000177376
-1.18879e-05
-5.78654e-05
-4.85555e-05
-0.000124907
-1.81286e-05
0.000363465
-0.000231422
-0.000178678
-2.33177e-06
0.000115243
-0.000290645
0.000577218
0.000793189
0.000699715
0.000753482
1.9746e-05
-0.000220982
0.00102152
0.000964563
-0.000211812
0.000717814
0.000776984
0.000794861
0.000749026
0.000412426
-0.000196324
0.000391217
-0.000201675
-0.000119576
-0.000296495
0.000182799
-0.000599654
-3.55042e-05
-0.000671123
-9.96495e-05
-0.000122434
-0.000338623
-0.000341194
-0.0002925
-0.000428544
-1.8811e-06
-8.05047e-05
-0.000285904
-0.000195679
-0.000193509
-6.68698e-05
-0.000238347
-0.000385074
-0.000204161
-0.000395831
-8.55926e-05
6.65953e-05
-0.000188589
-0.000144918
-0.000623703
-3.80931e-05
-9.07752e-05
-9.39928e-05
-0.000175051
)
;
    }
    bottom_fluid_surface
    {
        type            calculated;
        value           uniform 0;
    }
    lateral_surface_1
    {
        type            calculated;
        value           uniform 0;
    }
    lateral_surface_2
    {
        type            calculated;
        value           uniform 0;
    }
    lateral_surface_3
    {
        type            calculated;
        value           uniform 0;
    }
    lateral_surface_4
    {
        type            calculated;
        value           uniform 0;
    }
}


// ************************************************************************* //
