/*--------------------------------*- C++ -*----------------------------------*\
| =========                 |                                                 |
| \\      /  F ield         | OpenFOAM: The Open Source CFD Toolbox           |
|  \\    /   O peration     | Version:  v1612+                                |
|   \\  /    A nd           | Web:      www.OpenFOAM.com                      |
|    \\/     M anipulation  |                                                 |
\*---------------------------------------------------------------------------*/
FoamFile
{
    version     2.0;
    format      ascii;
    class       volVectorField;
    location    "10";
    object      U;
}
// * * * * * * * * * * * * * * * * * * * * * * * * * * * * * * * * * * * * * //

dimensions      [0 1 -1 0 0 0 0];

internalField   nonuniform List<vector> 
320
(
(1.47303e-05 -1.49703e-05 2.9613e-05)
(-5.8798e-06 -7.08108e-06 1.63961e-05)
(-1.29382e-05 -8.48352e-06 -4.62581e-07)
(5.53492e-06 2.20711e-05 2.63857e-05)
(0.000237157 0.00016408 -6.50844e-05)
(-0.000247578 -3.34338e-05 -4.4468e-05)
(0.000291488 9.02006e-05 -0.000168515)
(0.000185093 0.000459398 -0.000235771)
(0.000236537 0.000354564 -9.69023e-05)
(-7.64892e-05 0.00057931 -2.15231e-05)
(-0.000242977 0.000431903 -5.41173e-05)
(-9.2418e-06 0.000150663 -3.6306e-05)
(-0.000544148 0.000405537 -9.62245e-05)
(-0.000539817 -0.000145032 -3.22532e-05)
(-0.000499296 0.000382902 0.00023555)
(-0.000239382 0.000304575 -0.000144874)
(2.31491e-05 7.59407e-07 4.54384e-05)
(2.35139e-05 -1.53326e-05 5.1442e-05)
(7.68714e-05 1.91833e-06 1.21903e-05)
(4.37099e-05 4.03556e-06 -7.20406e-06)
(6.13338e-05 -1.02392e-05 3.16641e-05)
(2.14672e-05 4.97321e-05 3.69798e-05)
(-1.07494e-05 4.26921e-05 4.7555e-05)
(2.23272e-06 -1.26784e-05 2.38803e-05)
(-6.03776e-05 4.90699e-05 7.25719e-05)
(-4.61267e-05 -6.68564e-05 3.99196e-05)
(-5.2085e-05 7.92319e-06 -9.8872e-05)
(-1.76236e-05 3.08325e-05 2.41553e-05)
(-9.70681e-06 1.45863e-06 2.36974e-05)
(-1.05416e-05 8.22863e-06 4.09816e-05)
(-4.08743e-05 4.58725e-08 7.25553e-06)
(-2.3039e-05 1.10491e-06 -1.39039e-05)
(-3.33994e-05 4.9715e-06 2.16006e-05)
(-9.13572e-06 -2.92014e-05 1.96656e-05)
(7.57553e-06 -2.54223e-05 2.47164e-05)
(1.91529e-06 6.28915e-06 7.54784e-06)
(3.64248e-05 -2.90312e-05 4.26254e-05)
(2.87288e-05 3.48853e-05 2.61965e-05)
(3.07102e-05 -3.86762e-06 -5.7742e-05)
(9.45891e-06 -1.78539e-05 1.22393e-05)
(9.21578e-06 -8.80526e-06 1.14352e-05)
(-3.83289e-06 -4.43006e-06 -2.00836e-06)
(-6.13312e-06 -4.83751e-06 4.4798e-07)
(3.99399e-06 1.15556e-05 -2.66093e-06)
(-3.59506e-06 3.74431e-07 1.00044e-05)
(-5.91177e-06 5.15615e-06 2.58492e-06)
(-2.15447e-05 -9.01295e-07 2.61704e-06)
(-1.24858e-05 1.1e-06 5.01003e-06)
(-1.70578e-05 4.31625e-06 4.39576e-06)
(-4.77091e-06 -1.6492e-05 9.10924e-06)
(5.32087e-06 -1.42224e-05 1.02805e-05)
(1.3922e-06 4.49152e-06 5.41597e-06)
(1.96376e-05 -1.69372e-05 1.08e-05)
(1.62302e-05 1.93781e-05 4.81079e-06)
(1.7163e-05 -1.89264e-06 -1.41449e-05)
(6.5359e-06 -9.88177e-06 5.94007e-06)
(-0.000442303 0.000202411 -9.28521e-05)
(0.000264711 0.000360113 -2.83295e-05)
(-0.000334092 0.000124663 6.92738e-05)
(0.000120808 0.000403613 -0.000151095)
(0.000292509 0.00053548 0.000347652)
(0.000284517 3.04339e-05 0.000475779)
(0.000201198 0.000143802 0.000423868)
(-3.29536e-05 -0.000348982 0.000466567)
(-3.77619e-05 -0.000414342 1.61643e-05)
(-0.000577934 5.46626e-05 -0.000127274)
(-0.000613536 0.000215245 0.000587847)
(0.000236456 0.000152293 0.000562535)
(8.18259e-05 5.36572e-05 -0.000145882)
(-0.000496898 0.000185471 0.000403722)
(0.000441689 -0.000270648 0.000438294)
(0.000105355 0.000105283 0.000458913)
(9.94813e-05 0.000239612 0.000432822)
(0.00015112 0.000709582 0.000208295)
(0.000107615 0.0002181 -8.7658e-05)
(0.0001057 0.000344284 0.00025122)
(-5.83118e-05 -1.31488e-05 1.02386e-05)
(2.54439e-05 6.64291e-06 4.19537e-05)
(1.12838e-05 -3.43029e-05 -7.94854e-06)
(3.04053e-05 1.35903e-06 1.75244e-05)
(3.66721e-06 6.06891e-05 -0.000113516)
(2.39774e-05 -2.0378e-06 -0.000148418)
(-1.28946e-05 1.07608e-06 -0.00013534)
(-1.4721e-05 -6.61851e-05 -0.000171956)
(6.47089e-06 -7.07979e-05 1.54921e-05)
(-5.52959e-05 -1.38968e-05 3.51346e-05)
(-5.21832e-05 1.63771e-05 -0.000146939)
(6.02664e-05 6.91807e-06 -0.000147535)
(2.54633e-05 -1.73787e-06 6.75204e-05)
(-5.14551e-05 9.68674e-06 -9.71667e-05)
(4.95469e-05 -6.48351e-05 -0.00010766)
(-1.95704e-05 -7.3544e-06 -0.000127828)
(1.37476e-05 2.1292e-05 -0.000119725)
(3.86875e-05 5.82288e-05 -3.47306e-05)
(7.18174e-06 -5.47925e-06 1.92561e-05)
(2.93726e-05 1.06089e-05 -9.68551e-05)
(3.08145e-05 5.70316e-06 7.12855e-06)
(-1.13521e-05 -3.73214e-06 1.87743e-05)
(-4.46654e-06 1.83082e-05 1.15844e-06)
(-1.71031e-05 8.8695e-07 6.09334e-06)
(-2.24473e-06 -3.083e-05 -5.32823e-05)
(-1.24346e-05 2.30315e-06 -6.10524e-05)
(7.95459e-06 3.89864e-07 -6.63731e-05)
(6.47422e-06 3.59845e-05 -7.74845e-05)
(-1.96966e-06 3.85165e-05 1.13669e-05)
(3.14191e-05 6.35799e-06 2.94556e-05)
(3.05445e-05 -7.71241e-06 -8.32158e-05)
(-2.9957e-05 -2.17658e-06 -7.16816e-05)
(-9.32686e-06 1.28122e-06 4.80609e-05)
(3.1876e-05 -7.10226e-06 -5.46319e-05)
(-2.48915e-05 3.53249e-05 -6.14096e-05)
(1.29419e-05 3.13365e-06 -7.37354e-05)
(-2.96521e-06 -1.42078e-05 -6.8131e-05)
(-1.89708e-05 -3.42443e-05 -2.3594e-05)
(-3.83749e-06 1.56406e-06 8.92477e-06)
(-1.49793e-05 -5.48542e-06 -6.5079e-05)
(1.82567e-05 4.49631e-06 -8.41241e-07)
(-5.82185e-06 -2.1052e-07 8.94908e-06)
(-2.55706e-06 1.2342e-05 -6.97812e-06)
(-8.67613e-06 2.62862e-06 5.76806e-06)
(-5.06799e-07 -1.59862e-05 -2.11716e-05)
(-7.06207e-06 1.34725e-06 -2.82535e-05)
(5.12086e-06 5.67486e-08 -2.15356e-05)
(5.21436e-06 1.92734e-05 -2.91916e-05)
(-1.54545e-06 1.95215e-05 2.98993e-06)
(1.71562e-05 2.99267e-06 -9.34585e-07)
(1.66888e-05 -4.59812e-06 -1.96333e-05)
(-1.69933e-05 -1.26077e-06 -2.42584e-05)
(-3.41723e-06 1.08657e-06 5.99074e-06)
(1.89383e-05 -5.38371e-06 -1.74918e-05)
(-1.35468e-05 1.9322e-05 -1.77506e-05)
(9.20301e-06 1.78653e-06 -1.97101e-05)
(-9.5722e-07 -7.31537e-06 -1.97381e-05)
(-9.9985e-06 -1.8501e-05 -8.1376e-06)
(3.28645e-08 1.46987e-06 3.47089e-06)
(-8.29983e-06 -2.55253e-06 -1.30973e-05)
(1.95283e-06 -6.06911e-06 2.40235e-06)
(6.03384e-07 -2.48403e-06 1.87349e-06)
(-5.98632e-06 -2.63252e-06 1.39488e-07)
(1.20627e-06 8.8975e-06 3.66106e-06)
(-6.44958e-06 -4.38189e-07 3.21044e-06)
(-3.76967e-06 3.71396e-06 5.91286e-06)
(-1.01911e-05 6.95712e-07 6.75575e-07)
(-3.78001e-06 -1.0933e-06 -1.95362e-06)
(-6.97581e-06 2.13585e-07 2.74102e-06)
(-1.9786e-06 -6.53552e-06 1.62577e-06)
(3.44955e-06 -4.08438e-06 4.14753e-06)
(1.53585e-06 5.78006e-08 1.45066e-07)
(1.11699e-05 -7.36928e-06 4.56269e-06)
(8.11294e-06 9.31438e-06 4.17632e-06)
(1.07665e-05 -2.94734e-06 -5.03663e-06)
(3.76777e-06 -3.43611e-06 2.93446e-06)
(9.35817e-06 1.85847e-06 6.53179e-07)
(-5.19721e-06 -1.92244e-06 1.07151e-06)
(-5.305e-07 3.9523e-06 1.75633e-07)
(-2.69651e-06 -2.00318e-06 -4.57488e-07)
(-2.9909e-06 -7.59314e-06 -5.63947e-06)
(-5.59099e-06 2.63046e-06 -5.56891e-06)
(-9.66396e-07 7.31227e-07 -6.98171e-06)
(-3.25968e-07 1.06988e-05 -6.59359e-06)
(-9.07408e-07 9.81539e-06 1.18934e-06)
(6.17386e-06 9.50207e-07 2.83572e-06)
(6.92414e-06 -4.00791e-06 -7.87738e-06)
(-5.38731e-06 -1.49117e-06 -6.73723e-06)
(-2.70137e-06 -2.44411e-07 4.11628e-06)
(8.07063e-06 -1.45034e-06 -5.94579e-06)
(-6.55801e-06 7.76972e-06 -6.67815e-06)
(3.52645e-06 1.00391e-07 -8.37062e-06)
(-1.75178e-06 -3.03617e-06 -7.91685e-06)
(-4.23938e-06 -1.04144e-05 -3.97104e-06)
(-2.79082e-06 -1.84666e-06 -3.28794e-07)
(-5.96123e-06 -2.76035e-06 -8.13327e-06)
(0.000357469 0.000396295 -0.000110075)
(-0.000256298 9.11148e-05 -5.73353e-05)
(0.000315177 0.000209888 -0.000173191)
(-0.000291288 3.73492e-05 0.000129085)
(-0.000115386 0.000167206 -0.000286608)
(0.000213468 0.000273698 -3.81221e-05)
(-0.000756896 0.000243459 -0.000395213)
(-0.00079223 0.000471435 -6.18456e-05)
(-0.000819563 1.39733e-06 -4.90721e-05)
(-0.000820064 0.000147082 -0.000214285)
(-0.000817924 0.000118131 -0.000226313)
(-0.000358207 3.36517e-05 -0.000155034)
(-0.000368204 0.000236485 -0.000239344)
(-0.000176231 -5.04204e-05 8.49411e-06)
(-1.29495e-05 -0.000242385 -5.98972e-05)
(-0.000173116 -0.000615484 -0.000155171)
(-8.21606e-05 -0.000678681 -0.000123448)
(-4.39907e-05 -0.000300337 -0.000100182)
(-0.000223716 -0.000554518 -4.86543e-05)
(0.000238836 -0.000571102 -0.000159442)
(0.000163316 -0.000355685 -0.000235555)
(0.000378281 4.98739e-05 -0.000117483)
(0.000481476 6.49023e-05 -0.000206691)
(0.000338886 -9.79968e-05 -7.88574e-05)
(0.00014522 0.000390376 1.54281e-05)
(2.147e-05 0.000255053 -6.63576e-05)
(0.00018416 0.000456067 -9.85244e-05)
(0.000133126 0.000345375 -0.000358718)
(4.67456e-05 4.8441e-05 1.61418e-05)
(-1.36737e-05 9.45246e-06 -1.29332e-06)
(4.43024e-05 3.80936e-06 4.4459e-05)
(2.88122e-05 -9.41458e-06 -6.86003e-05)
(-1.80847e-05 -1.37086e-05 -3.4517e-05)
(-3.18825e-05 3.90761e-05 1.5416e-05)
(-6.5413e-05 2.18289e-05 0.000120628)
(-8.26718e-05 5.71798e-05 2.44258e-05)
(-6.89284e-05 -1.46449e-05 -3.0445e-05)
(-9.52643e-05 -3.46329e-05 9.07439e-05)
(-0.000104593 9.12826e-06 9.88798e-05)
(-2.00108e-05 9.1605e-06 2.532e-05)
(-2.46595e-05 2.1565e-05 5.15931e-05)
(1.54519e-05 6.17706e-06 -4.08141e-05)
(1.1669e-05 -3.39322e-05 4.09386e-05)
(6.49451e-07 -6.07894e-05 3.71348e-05)
(7.35178e-06 -8.67345e-05 6.08933e-05)
(-5.28322e-07 -7.89819e-06 1.59276e-05)
(2.69378e-06 -6.07466e-05 1.22516e-05)
(2.46022e-05 -6.20229e-05 6.66827e-05)
(1.84601e-05 -3.58177e-05 7.74018e-05)
(4.46681e-05 -3.45073e-05 2.45259e-05)
(4.87854e-05 1.32839e-05 5.37819e-06)
(6.53097e-05 -8.60609e-06 4.92686e-05)
(1.88992e-05 1.36825e-06 1.28336e-05)
(8.46343e-06 2.15079e-05 6.1904e-06)
(4.58775e-05 2.64127e-05 4.6852e-05)
(2.42803e-05 2.68383e-05 9.56527e-05)
(-2.491e-05 -2.54777e-05 4.39034e-06)
(7.71409e-06 -5.11264e-06 -3.55556e-06)
(-2.23123e-05 -2.37933e-06 1.4227e-05)
(-1.51625e-05 5.84538e-06 -3.84125e-05)
(8.24561e-06 8.31434e-06 -3.30691e-05)
(1.90053e-05 -1.95106e-05 1.64516e-05)
(3.57702e-05 -1.29168e-05 6.60709e-05)
(4.23631e-05 -3.05342e-05 1.32864e-05)
(3.60646e-05 1.02472e-05 -1.90285e-05)
(5.03125e-05 2.00277e-05 4.64416e-05)
(5.56888e-05 -4.97177e-06 6.47881e-05)
(9.36801e-06 -4.28665e-06 1.03147e-05)
(1.28865e-05 -1.45538e-05 2.98006e-05)
(-1.15346e-05 -7.39864e-06 -3.4694e-05)
(-8.81746e-06 1.70219e-05 2.2094e-05)
(-6.16011e-07 3.28332e-05 2.14642e-05)
(-1.41232e-06 4.81773e-05 3.73872e-05)
(6.84555e-06 4.28935e-06 6.28876e-06)
(2.37165e-06 3.20052e-05 1.75417e-07)
(-1.15187e-05 3.37947e-05 3.74237e-05)
(-8.97301e-06 1.86418e-05 3.58052e-05)
(-2.4126e-05 1.7382e-05 1.52079e-05)
(-2.69249e-05 -7.10319e-06 -6.71571e-06)
(-3.43734e-05 2.95604e-06 2.75628e-05)
(-9.76705e-06 -4.73623e-06 7.89624e-06)
(-4.86832e-06 -1.38621e-05 -4.78371e-06)
(-2.51943e-05 -1.5371e-05 2.7901e-05)
(-1.47633e-05 -1.50478e-05 3.83103e-05)
(-1.26353e-05 -1.4515e-05 5.60354e-06)
(4.19452e-06 -2.06382e-06 1.38907e-06)
(-1.14411e-05 -4.53272e-07 1.03132e-05)
(-8.7521e-06 3.55564e-06 -1.21935e-05)
(6.78124e-06 5.74155e-06 -1.52714e-07)
(1.24133e-05 -1.19017e-05 -4.94719e-06)
(1.77046e-05 -7.17958e-06 1.7692e-05)
(2.2427e-05 -1.68453e-05 6.58997e-06)
(1.68441e-05 4.72546e-06 -4.40055e-06)
(2.58046e-05 1.33726e-05 1.39111e-05)
(3.01572e-05 -2.34839e-06 1.09919e-05)
(4.18694e-06 -4.54906e-06 7.96689e-06)
(6.08878e-06 -8.82555e-06 6.72469e-06)
(-7.63169e-06 -5.60823e-06 -2.01059e-06)
(-5.77433e-06 8.11177e-06 7.48519e-06)
(-5.18291e-07 1.73223e-05 5.51288e-06)
(-3.62881e-07 2.53157e-05 9.58008e-06)
(5.5152e-06 6.9496e-07 6.58489e-06)
(1.40476e-06 1.63839e-05 4.7649e-06)
(-6.74869e-06 1.82265e-05 7.29368e-06)
(-4.65036e-06 9.58665e-06 1.33153e-05)
(-1.32905e-05 1.05664e-05 1.55025e-06)
(-1.34042e-05 -4.34981e-06 1.30125e-06)
(-1.94249e-05 1.79256e-07 5.90355e-06)
(-5.91017e-06 -9.02564e-07 -4.98189e-07)
(-1.82773e-06 -8.18219e-06 6.40726e-06)
(-1.55621e-05 -8.17255e-06 7.77311e-06)
(-7.44843e-06 -6.40135e-06 1.72888e-05)
(-8.3844e-06 -7.33287e-06 -6.9705e-07)
(2.92984e-06 -2.7949e-06 6.45888e-08)
(-8.54345e-06 -9.047e-07 7.91847e-07)
(-3.68897e-06 5.51363e-07 -2.80076e-06)
(1.35433e-06 2.25387e-06 -3.90753e-06)
(9.1886e-07 -3.49956e-06 2.78134e-06)
(1.29466e-05 -1.65606e-06 7.41406e-06)
(1.47902e-05 -8.51292e-06 1.982e-06)
(1.20269e-05 2.72013e-06 -9.28628e-07)
(1.48798e-05 4.17144e-06 3.91953e-06)
(1.54669e-05 2.72758e-07 8.05758e-06)
(4.45385e-06 -3.55901e-08 7.96435e-07)
(5.61637e-06 -4.45611e-06 3.48413e-06)
(-9.52539e-07 1.25755e-06 -3.31742e-06)
(-1.35568e-06 7.82641e-06 2.87014e-06)
(4.62546e-07 8.78716e-06 1.01206e-06)
(-3.13908e-07 1.42877e-05 4.256e-06)
(1.49496e-06 3.71392e-06 1.1536e-06)
(3.15592e-06 1.00916e-05 4.87484e-07)
(-2.75383e-06 8.62845e-06 2.92807e-06)
(-3.23501e-06 6.28725e-06 4.32824e-06)
(-5.57623e-06 4.82979e-06 1.31399e-06)
(-6.1749e-06 -2.56333e-06 -1.05802e-06)
(-8.23976e-06 1.54887e-06 3.07414e-06)
(-1.58987e-06 -3.98624e-06 2.22819e-08)
(-1.81164e-06 -5.15803e-06 -2.38744e-07)
(-4.90136e-06 -3.73534e-06 2.97418e-06)
(-2.78669e-06 -5.2182e-06 3.80771e-06)
(-7.41491e-05 0.000407559 -3.90998e-05)
(-0.000408493 0.00019798 -5.16315e-05)
(5.46055e-05 0.000189883 -4.73413e-05)
(-0.000194793 -8.32442e-05 -9.63652e-05)
(-2.07192e-05 2.97128e-05 5.96818e-05)
(1.24448e-05 1.66211e-05 1.54732e-05)
(3.18631e-05 1.29605e-05 1.66504e-07)
(-2.16476e-06 -4.39082e-05 2.9625e-05)
)
;

boundaryField
{
    top_fluid_surface
    {
        type            pressureInletOutletVelocity;
        value           nonuniform List<vector> 
64
(
(0 0 -6.50844e-05)
(0 0 -4.4468e-05)
(0 0 -0.000168515)
(0 0 -0.000235771)
(0 0 -9.69023e-05)
(0 0 -2.15231e-05)
(0 0 -5.41173e-05)
(0 0 -3.6306e-05)
(0 0 -9.62245e-05)
(0 0 -3.22532e-05)
(-0.000499296 0.000382902 0.00023555)
(0 0 -0.000144874)
(0 0 -9.28521e-05)
(0 0 -2.83295e-05)
(-0.000334092 0.000124663 6.92738e-05)
(0 0 -0.000151095)
(0.000292509 0.00053548 0.000347652)
(0.000284517 3.04339e-05 0.000475779)
(0.000201198 0.000143802 0.000423868)
(-3.29536e-05 -0.000348982 0.000466567)
(-3.77619e-05 -0.000414342 1.61643e-05)
(0 0 -0.000127274)
(-0.000613536 0.000215245 0.000587847)
(0.000236456 0.000152293 0.000562535)
(0 0 -0.000145882)
(-0.000496898 0.000185471 0.000403722)
(0.000441689 -0.000270648 0.000438294)
(0.000105355 0.000105283 0.000458913)
(9.94813e-05 0.000239612 0.000432822)
(0.00015112 0.000709582 0.000208295)
(0 0 -8.7658e-05)
(0.0001057 0.000344284 0.00025122)
(0 0 -0.000110075)
(0 0 -5.73353e-05)
(0 0 -0.000173191)
(-0.000291288 3.73492e-05 0.000129085)
(0 0 -0.000286608)
(0 0 -3.81221e-05)
(0 0 -0.000395213)
(0 0 -6.18456e-05)
(0 0 -4.90721e-05)
(0 0 -0.000214285)
(0 0 -0.000226313)
(0 0 -0.000155034)
(0 0 -0.000239344)
(0 0 8.49411e-06)
(0 0 -5.98972e-05)
(0 0 -0.000155171)
(0 0 -0.000123448)
(0 0 -0.000100182)
(0 0 -4.86543e-05)
(0 0 -0.000159442)
(0 0 -0.000235555)
(0 0 -0.000117483)
(0 0 -0.000206691)
(0 0 -7.88574e-05)
(0.00014522 0.000390376 1.54281e-05)
(0 0 -6.63576e-05)
(0 0 -9.85244e-05)
(0 0 -0.000358718)
(0 0 -3.90998e-05)
(0 0 -5.16315e-05)
(0 0 -4.73413e-05)
(0 0 -9.63652e-05)
)
;
    }
    bottom_fluid_surface
    {
        type            noSlip;
    }
    lateral_surface_1
    {
        type            noSlip;
    }
    lateral_surface_2
    {
        type            noSlip;
    }
    lateral_surface_3
    {
        type            noSlip;
    }
    lateral_surface_4
    {
        type            noSlip;
    }
}


// ************************************************************************* //
