/*--------------------------------*- C++ -*----------------------------------*\
| =========                 |                                                 |
| \\      /  F ield         | OpenFOAM: The Open Source CFD Toolbox           |
|  \\    /   O peration     | Version:  v1612+                                |
|   \\  /    A nd           | Web:      www.OpenFOAM.com                      |
|    \\/     M anipulation  |                                                 |
\*---------------------------------------------------------------------------*/
FoamFile
{
    version     2.0;
    format      ascii;
    class       volScalarField;
    location    "9.65";
    object      alpha.water;
}
// * * * * * * * * * * * * * * * * * * * * * * * * * * * * * * * * * * * * * //

dimensions      [0 0 0 0 0 0 0];

internalField   nonuniform List<scalar> 
1116
(
0.759419
0.761114
0.761554
0.756366
0.755223
0.759971
0.831704
0.834413
0.836944
0.833565
0.835304
0.836892
0.937856
0.938717
0.939454
0.938147
0.938088
0.939454
0.941209
0.941237
0.941264
0.941255
0.94126
0.941177
0.941437
0.941466
0.941487
0.941495
0.941504
0.94144
0.941651
0.941676
0.941696
0.941716
0.941731
0.941679
0.941719
0.94174
0.941761
0.941783
0.941793
0.941767
0.94174
0.941761
0.941783
0.941793
0.941793
0.941793
0.886675
0.88211
0.884541
0.884456
0.885044
0.884659
0.783032
0.782068
0.78207
0.782444
0.782897
0.782302
0.786033
0.786688
0.786268
0.785923
0.786048
0.786623
0.670518
0.657836
0.662836
0.669277
0.662103
0.663062
0.254597
0.257473
0.257168
0.25464
0.254014
0.257059
0.286928
0.285774
0.286024
0.288698
0.290429
0.285606
0.314114
0.308191
0.30828
0.315463
0.318467
0.306913
0.358269
0.353381
0.352327
0.357068
0.357737
0.34946
0.389001
0.386436
0.385392
0.388116
0.387539
0.382988
0.43038
0.429295
0.428889
0.430423
0.429972
0.428175
0.488141
0.487033
0.486952
0.488479
0.488808
0.487777
0.602219
0.601468
0.601288
0.601807
0.602487
0.602133
0.815327
0.815716
0.81517
0.814297
0.814338
0.814564
0.823381
0.823381
0.823381
0.823425
0.823479
0.823416
0.816954
0.82331
0.820081
0.821851
0.823416
0.814405
0.528642
0.526879
0.526865
0.528554
0.526281
0.525668
3.38781e-07
1.5792e-07
9.12948e-08
2.5339e-07
3.37821e-07
3.41813e-08
-2.15965e-10
3.44325e-10
4.33128e-10
7.88081e-10
-3.78958e-10
1.67381e-11
7.24295e-13
4.3383e-12
3.2802e-12
4.42978e-12
5.27031e-13
4.4411e-13
2.42208e-13
2.08394e-13
2.07693e-13
2.24167e-13
2.46205e-12
2.11115e-13
9.06395e-12
5.88918e-13
1.0531e-12
3.36973e-12
2.50889e-10
1.37201e-11
7.30128e-10
4.62321e-11
8.29259e-11
2.63064e-10
2.70337e-09
1.06745e-09
8.6343e-10
3.73662e-10
4.34737e-10
6.62333e-10
6.92678e-10
3.52177e-10
2.01675e-10
2.12694e-10
1.98759e-10
2.01104e-10
1.13169e-10
-2.37947e-11
-1.85349e-06
-2.00431e-06
-1.78243e-06
-2.07794e-06
-2.16317e-06
-1.46673e-06
0.0609254
0.0621876
0.0623174
0.0613519
0.0595817
0.064371
0.411352
0.382361
0.387618
0.376877
0.370405
0.39766
0.528837
0.528251
0.528111
0.528808
0.528125
0.52702
-3.24865e-08
-1.83551e-08
-9.87611e-09
-2.55805e-08
-3.94848e-08
-5.05415e-09
3.82867e-13
4.18987e-13
1.21857e-12
2.02294e-12
4.6066e-13
3.31829e-13
2.41887e-13
2.03292e-13
2.0404e-13
2.18688e-13
4.57909e-13
2.11026e-13
1.09629e-13
1.54211e-13
1.62627e-13
1.25994e-13
1.31674e-14
6.17738e-14
1.41924e-15
1.13537e-14
1.08558e-14
9.72041e-15
6.06062e-17
1.62353e-13
8.40301e-10
5.87599e-13
1.73504e-14
1.2338e-10
3.86319e-08
1.71525e-09
6.63232e-08
7.01024e-09
1.62611e-08
3.96468e-08
6.70215e-08
6.15444e-09
7.3679e-10
6.53006e-10
6.5265e-10
4.78108e-10
2.73309e-10
1.73986e-10
-4.76141e-07
-1.94519e-06
-1.96245e-06
-1.9513e-06
-2.06928e-06
-2.30869e-06
4.5792e-05
4.82772e-05
4.87837e-05
4.81174e-05
4.63288e-05
5.12267e-05
0.00342949
0.00058083
0.000529077
0.00052766
0.000524771
0.000520381
0.504585
0.494343
0.495301
0.493212
0.487878
0.498571
0.0972747
0.0986969
0.0988272
0.0974038
0.0936631
0.0909019
0.0973111
0.0989916
0.0990893
0.0984175
0.0962017
0.0899998
0.0988001
0.0992703
0.0993758
0.0993678
0.0990085
0.094239
0.0993209
0.0994324
0.0993933
0.0993757
0.0988377
0.0988658
0.0994024
0.0994474
0.0994015
0.0992223
0.098867
0.098964
0.0993913
0.0994279
0.0912449
0.0992683
0.0992242
0.099138
0.0993489
0.0993982
0.099348
0.0993143
0.0992604
0.0990586
0.0992644
0.0993479
0.0905862
0.0638757
0.0990586
0.0985871
0.092496
0.0992952
0.0466974
0.0108712
0.0806946
0.0975405
0.0185842
0.0413376
0.0230553
0.00513067
0.0179924
0.0407147
0.00448946
0.00524459
0.0207491
0.0207258
0.0159147
0.0316416
0.00846503
0.00723325
0.0166888
0.0206856
0.0196604
0.0232008
0.0175808
0.0320156
0.0379463
0.0152717
0.00652009
0.0034914
0.0199387
0.0349907
0.0330611
0.0177013
0.0114613
0.00601615
0.0267048
0.0331656
0.0324347
0.0302979
0.0226571
0.0137261
0.0367001
0.040841
0.0435099
0.0442937
0.0376645
0.0246932
0.0482071
0.0542448
0.0648735
0.0448657
0.0366738
0.0348871
0.0670703
0.0583941
0.0437043
0.0444797
0.029762
0.0362216
0.0897263
0.0618907
0.0460976
0.0544359
0.0252067
0.0399388
0.0945384
0.087318
0.075043
0.0575449
0.044835
0.0573984
0.0436461
0.0968154
0.0805431
0.0167563
0.0775001
0.0781674
0.00448946
0.0904468
0.061079
0.00431699
0.040754
0.0694092
0.00448946
0.0177225
0.0134783
0.00755602
0.00309525
0.00987666
0.00729087
0.00214121
0.00190851
0.00296956
0.0019529
0.0019529
7.00879e-08
4.40395e-09
3.93985e-09
3.70748e-09
3.93985e-09
7.54427e-09
8.31494e-08
4.73961e-09
4.10736e-09
3.47511e-09
8.1037e-09
8.33477e-09
0.00186398
1.70235e-08
3.48448e-09
3.27102e-09
3.47511e-09
2.89633e-08
0.00187492
4.28961e-09
3.56801e-09
3.47511e-09
3.56487e-09
2.74044e-08
2.10237e-07
0.00083255
0.000779994
3.56702e-09
2.89413e-08
1.19649e-07
7.06283e-07
0.00418807
0.00123011
3.35267e-09
9.4624e-08
5.64157e-08
3.92972e-07
0.000813916
0.00268474
1.56716e-09
4.97037e-09
1.06988e-08
6.42803e-06
9.05511e-08
0.00634216
0.00444651
7.46295e-10
2.05819e-09
0.0123548
0.0117846
0.0398587
0.0117715
0.0135382
0.00280642
0.0368446
0.0738737
0.0352212
0.00210386
0.0219832
0.0395649
0.0208601
0.0366091
0.0112208
0.00183811
0.00411573
0.0269769
0.00275271
0.00172395
0.00163567
0.00176194
0.00497913
0.00230443
5.22105e-07
5.58877e-07
3.01347e-08
5.30896e-06
1.02487e-06
2.89728e-07
2.14861e-06
4.51099e-07
4.13398e-08
1.78923e-07
6.56886e-07
2.83344e-07
1.32855e-08
1.06401e-07
5.69586e-09
2.5539e-09
1.50208e-06
2.06033e-05
9.63199e-09
7.40507e-08
3.17081e-08
3.33352e-09
2.51352e-06
2.31643e-05
3.95684e-09
5.85903e-09
5.96927e-09
3.35209e-09
1.20869e-06
1.42961e-05
7.98833e-08
5.96891e-09
3.35337e-09
1.56776e-09
2.07281e-07
3.03471e-07
1.30791e-07
5.73324e-08
1.56719e-09
5.9942e-10
7.48023e-10
2.06179e-09
9.01773e-08
3.54934e-09
5.99394e-10
5.48026e-10
5.99404e-10
7.5117e-10
0.0012858
9.05614e-08
0.00180791
0.00989813
0.00422416
2.0631e-09
0.00482435
0.00846884
0.0198863
0.00214515
0.0128899
0.00911524
0.015917
0.0253541
0.00608099
0.00200546
0.00738829
0.0181395
0.00345962
0.00194937
0.00163567
0.00200366
0.0117096
0.00248188
0.000111553
0.000100617
0.000105582
0.000110141
0.000110853
6.21758e-05
0.000111936
4.00992e-05
1.68635e-05
0.000112423
0.000118858
6.23519e-05
0.00010573
6.7835e-104
1.95067e-265
8.56626e-06
0.000111903
0.00011198
-1.91571e-11
-1.64997e-10
-1.03453e-10
-2.16247e-10
-2.85045e-12
-6.62304e-12
1.92789e-07
1.40053e-06
1.07727e-06
1.49183e-06
2.20907e-08
6.92475e-08
1.83285e-21
9.52684e-09
2.95171e-23
5.99798e-09
1.3945e-21
1.75971e-14
1.09957e-13
4.26576e-13
5.14003e-13
4.01602e-13
3.82368e-15
4.68091e-14
-5.41281e-13
-2.71814e-12
-1.93272e-12
-4.24247e-12
-9.25138e-17
-1.34046e-13
-5.76546e-18
1.37443e-11
2.16591e-12
-9.03566e-17
5.90332e-23
1.82146e-25
4.54672e-16
1.13392e-14
9.57461e-15
1.86708e-15
4.49392e-16
1.48093e-14
-4.3605e-17
3.0186e-15
3.85642e-15
-4.60287e-16
-3.98212e-16
1.62447e-17
1.20583e-17
-3.24411e-17
2.06151e-14
1.04875e-17
4.16479e-18
1.16051e-19
2.96946e-16
1.17771e-15
2.43996e-15
-3.29485e-19
2.83586e-17
3.88112e-12
1.65281e-17
5.28099e-17
-3.03092e-17
-1.40889e-16
1.94056e-17
1.47679e-13
4.46947e-19
5.60611e-17
7.30057e-17
2.00722e-18
2.18616e-18
6.34124e-22
2.13377e-16
4.14884e-10
-4.10014e-16
-7.66273e-14
1.56456e-09
4.01693e-09
4.12091e-22
4.60353e-11
1.35427e-19
2.45327e-18
6.66385e-21
7.52204e-11
3.93166e-24
4.49945e-23
1.65652e-19
3.12287e-21
1.0983e-20
7.62152e-29
6.57678e-08
7.10108e-09
1.08065e-08
2.00139e-08
5.68907e-08
6.17127e-09
1.5134e-08
8.77398e-10
4.36257e-10
5.29474e-21
3.04512e-24
5.33986e-10
2.69855e-18
6.2774e-20
2.92997e-29
3.08239e-28
5.55692e-29
1.28575e-32
3.31207e-09
7.31577e-10
3.41825e-09
3.60688e-09
5.35526e-10
1.71431e-10
2.85854e-07
6.49653e-09
2.56249e-07
2.56493e-07
1.93685e-07
8.83311e-11
1.43804e-07
7.45022e-09
1.50617e-07
5.31243e-08
3.25962e-09
5.56565e-10
-6.41839e-08
-3.03492e-08
-4.90197e-09
2.36481e-09
-6.65077e-09
-2.18392e-08
3.10595e-08
2.01581e-09
3.12462e-08
8.06183e-08
2.87812e-08
-1.24428e-11
1.13985e-06
5.67153e-10
1.14771e-06
1.37818e-06
2.66021e-07
-1.15403e-15
3.31485e-06
3.13418e-06
3.21847e-06
3.2332e-06
3.07254e-06
3.30668e-06
1.60957e-07
3.11184e-08
1.10394e-07
3.28628e-07
9.5522e-08
2.87811e-08
6.02278e-07
2.03144e-09
9.0747e-07
8.42061e-07
1.43049e-07
3.55875e-13
0.00284018
0.000144531
0.000140399
0.000138849
0.000135711
0.000144287
0.0030964
0.0003028
0.000287647
0.000353289
0.000258317
0.000324871
0.0011164
0.000156898
5.77353e-05
8.77854e-05
6.26577e-05
7.80208e-05
0.126321
0.222657
0.207859
0.182725
0.19733
0.205604
3.84851e-06
0.000492523
7.92608e-05
4.09044e-05
0.00011772
7.85695e-05
8.91651e-05
5.55181e-06
1.19612e-06
3.60127e-06
5.06519e-06
2.21982e-06
0.0197775
0.0197778
0.0197778
0.0197778
0.0197761
0.0197577
0.00413913
0.00257168
0.000828247
0.000150403
0.00011449
0.00185639
8.67651e-05
5.33593e-05
4.37161e-05
4.25698e-05
4.25698e-05
4.25698e-05
0.0196575
0.0194831
0.0197324
0.0195819
0.0179891
0.018303
0.000850978
0.000670799
0.000888711
0.0007964
0.000503944
0.000317228
0.000120468
8.83221e-05
5.33593e-05
4.44166e-05
4.30807e-05
8.1817e-05
0.00952771
0.00882191
0.00923288
0.00989715
0.00946368
0.00845555
0.010942
0.00859217
0.00912878
0.0116806
0.0113786
0.00829036
0.00204777
0.00118952
0.00117981
0.00198323
0.00179425
0.000948424
0.0227996
0.0271516
0.0225043
0.023094
0.0273967
0.0234475
0.0287803
0.029787
0.0275032
0.0275122
0.0284647
0.0269145
0.00328748
0.00259673
0.00240484
0.0029549
0.00272605
0.00239249
0.162653
0.188626
0.170549
0.167502
0.182897
0.16961
0.0117318
0.0270132
0.0149788
0.0108625
0.0167016
0.0170637
1.05138e-21
2.66646e-20
4.65445e-21
3.2806e-21
2.27266e-20
7.31491e-21
0.221358
0.22332
0.22332
0.22112
0.218683
0.217538
3.01892e-07
0.0162062
0.00225646
1.40213e-06
0.00545019
0.00391756
1.67107e-18
2.0936e-18
-1.57072e-11
1.15662e-07
-2.79354e-12
-6.32838e-12
9.33291e-07
1.49656e-06
6.10035e-06
4.34823e-06
2.25787e-07
8.28411e-07
2.22344e-07
2.48259e-07
4.77319e-06
1.93216e-18
7.29201e-08
3.70388e-07
0
0
0
0
0
0
3.05723e-06
6.04092e-07
2.33593e-07
3.24832e-07
8.83632e-07
2.11429e-06
5.20012e-07
4.12622e-08
1.14737e-07
1.3991e-18
6.49079e-08
6.89657e-07
0
4.34023e-138
1.42766e-134
7.14795e-103
6.37474e-109
6.71999e-114
2.42846e-06
3.81633e-07
1.99521e-08
2.0963e-09
5.88765e-07
1.20359e-07
6.77347e-08
9.14874e-13
3.88454e-09
2.09111e-09
1.40646e-14
1.19128e-07
0
1.29804e-17
3.2747e-09
6.16374e-11
9.51924e-20
8.50192e-116
1.49263e-07
5.15114e-09
8.18578e-08
6.05894e-08
2.72314e-07
1.84102e-06
7.97402e-19
1.38325e-14
2.47136e-11
2.45653e-09
1.24959e-17
2.59878e-20
3.18583e-89
7.4223e-17
2.52566e-10
4.08043e-20
8.76457e-22
5.82684e-104
9.6761e-10
3.8164e-09
2.85558e-07
1.15729e-07
6.15637e-07
6.35348e-06
-1.06763e-17
8.81685e-08
1.03591e-08
1.95301e-08
4.47891e-08
4.12519e-09
1.00096e-92
2.19254e-24
5.03092e-20
5.25635e-24
1.93274e-28
7.33069e-201
1.04969e-06
5.76345e-06
2.58583e-06
7.18151e-08
4.76639e-07
2.84694e-06
5.04404e-07
4.28503e-07
5.11499e-07
2.3426e-07
2.79702e-07
1.92195e-07
4.07407e-99
4.38647e-28
-2.90646e-20
8.27652e-09
8.85361e-08
5.82028e-215
8.61881e-06
1.77714e-05
3.0291e-06
7.95943e-10
6.02897e-08
3.33538e-09
3.33377e-05
2.66996e-05
9.78318e-07
4.68576e-10
4.37172e-08
7.84602e-08
1.98956e-08
-5.84688e-17
-4.48473e-20
7.92924e-10
2.28367e-08
1.09871e-07
3.56438e-06
2.28198e-08
5.52333e-10
4.966e-10
6.99788e-10
1.57348e-09
1.58274e-06
3.57773e-07
1.35775e-12
2.483e-10
4.966e-10
1.73792e-09
-9.88569e-17
1.21389e-19
5.35729e-18
-1.16235e-17
1.03426e-07
8.41261e-07
0.00212234
0.000452672
0.0012033
0.00560395
0.00184747
3.02035e-09
5.83103e-13
0.000105764
0.000208017
0.000371466
5.37608e-05
0.000155186
4.17593e-24
9.70001e-26
1.14622e-17
-2.9023e-21
4.2582e-21
1.30982e-13
0.00405206
0.00155848
0.00469448
0.00502218
0.00754233
0.00986066
0.00309813
3.56413e-06
0.00173143
0.0050071
0.00275686
0.00129694
0.000363623
9.8485e-15
0.000228776
0.00289387
0.000295536
1.9073e-18
0.00580593
0.0100125
0.00432165
0.00237736
0.00682432
0.015173
0.00662795
0.000519156
0.00244365
0.00406274
0.00740742
0.00741927
0.00266292
3.56413e-06
0.000770709
0.00210608
0.00177557
6.08113e-07
0.018159
0.00984376
0.00165315
0.00972628
0.0192518
0.014153
0.0109845
0.0105631
0.00616815
0.0054449
0.00661385
0.00787321
0.000699233
0.00228826
0.00229577
6.0139e-05
4.25698e-05
0.000113539
)
;

boundaryField
{
    seabed_topleft_surface
    {
        type            zeroGradient;
    }
    seabed_topright_surface
    {
        type            zeroGradient;
    }
    breakwater_top_surface
    {
        type            zeroGradient;
    }
    breakwater_left_surface
    {
        type            zeroGradient;
    }
    breakwater_right_surface
    {
        type            zeroGradient;
    }
    water_front_surface
    {
        type            zeroGradient;
    }
    water_back_surface
    {
        type            zeroGradient;
    }
    water_left_surface
    {
        type            zeroGradient;
    }
    water_right_surface
    {
        type            zeroGradient;
    }
    water_top_surface
    {
        type            inletOutlet;
        inletValue      uniform 0;
        value           nonuniform List<scalar> 
180
(
0.00010573
0
0
0
0.000111903
0.00011198
0
0
0
0
0
0
0
0
0
0
0
0
0
0
0
0
0
0
0
0
0
0
0
0
0
0
0
0
0
0
0
0
0
0
0
0
0
0
0
0
0
0
0
0
0
0
0
0
6.02278e-07
2.03144e-09
9.0747e-07
8.42061e-07
1.43049e-07
3.55875e-13
0.0011164
0.000156898
5.77353e-05
8.77854e-05
6.26577e-05
7.80208e-05
8.91651e-05
5.55181e-06
1.19612e-06
3.60127e-06
5.06519e-06
2.21982e-06
8.67651e-05
5.33593e-05
4.37161e-05
4.25698e-05
4.25698e-05
4.25698e-05
0.000120468
8.83221e-05
5.33593e-05
4.44166e-05
4.30807e-05
8.1817e-05
0.00204777
0.00118952
0.00117981
0.00198323
0.00179425
0.000948424
0.00328748
0.00259673
0.00240484
0.0029549
0.00272605
0.00239249
0
0
0
0
0
0
0
0
0
0
0
0
0
0
0
0
0
0
0
0
0
0
0
0
0
0
0
0
0
0
0
0
0
0
0
0
0
0
0
0
0
0
0
0
0
0
0
0
0
0
0
0
0
0
0
0
0
0
0
0
0
0
0
0
0
0
0.000363623
9.8485e-15
0.000228776
0.00289387
0.000295536
0
0.00266292
3.56413e-06
0.000770709
0.00210608
0.00177557
6.08113e-07
0.000699233
0.00228826
0.00229577
6.0139e-05
4.25698e-05
0.000113539
)
;
    }
}


// ************************************************************************* //
