/*--------------------------------*- C++ -*----------------------------------*\
| =========                 |                                                 |
| \\      /  F ield         | OpenFOAM: The Open Source CFD Toolbox           |
|  \\    /   O peration     | Version:  v1612+                                |
|   \\  /    A nd           | Web:      www.OpenFOAM.com                      |
|    \\/     M anipulation  |                                                 |
\*---------------------------------------------------------------------------*/
FoamFile
{
    version     2.0;
    format      ascii;
    class       volScalarField;
    location    "9.65";
    object      p;
}
// * * * * * * * * * * * * * * * * * * * * * * * * * * * * * * * * * * * * * //

dimensions      [1 -1 -2 0 0 0 0];

internalField   nonuniform List<scalar> 
1116
(
6610.37
6617.86
6616.44
6605.92
6600.07
6613.46
6986.61
6986.42
6989.56
6996.94
7000.82
6994.07
7640.61
7631.45
7633.6
7645.09
7645.37
7629.88
8132.11
8118.94
8117.08
8128.35
8128.9
8108.16
8550.57
8544.58
8542.09
8546.08
8544.59
8534.96
8989.94
8988.58
8986.99
8988.08
8986.48
8982.57
9692.58
9692.6
9692.56
9692.19
9690.24
9693.73
10689.6
10692.3
10691.7
10691.7
10692.7
10695
12028.9
12028.7
12028.6
12028.1
12029.4
12027.7
13470.6
13463.4
13460.5
13462.6
13455.1
13460.3
14281.4
14292.5
14285.4
14274.7
14279.1
14289.6
14304.7
14289.6
14287.1
14288.2
14270.3
14285.2
1248.33
1261.03
1259.39
1248.37
1246.55
1258.93
1406.48
1402.14
1402.41
1414.64
1426.22
1399.09
1544.81
1518.81
1518.43
1551.88
1567.04
1512.33
1752.58
1730.89
1725.37
1747.07
1749.92
1711.43
1912.65
1901.59
1896.57
1908.56
1905.72
1884.57
2126.38
2121.56
2119.86
2127.06
2124.58
2116.19
2419.72
2414.44
2413.8
2421.89
2423.43
2417.8
2983.07
2978.17
2977.21
2981.25
2984.74
2980.98
4254.27
4255.17
4252.36
4245.61
4236.78
4259
5517.5
5512.51
5512.12
5503.53
5485.44
5525.92
6411.26
6403.39
6391.64
6386.64
6383.62
6398.5
8024.39
8022.9
8017.38
8015.55
7999.75
8030.68
-25.8858
-25.8254
-25.8399
-25.8628
-25.76
-25.8294
-28.2237
-27.9693
-27.9064
-28.2717
-28.4449
-28.0094
-31.5696
-31.2825
-31.1677
-31.2815
-31.5078
-30.931
-32.1094
-32.1004
-32.0135
-31.8805
-31.852
-31.8294
-31.183
-31.3463
-31.3483
-31.1978
-31.1975
-31.3152
-28.6295
-28.7747
-28.8757
-28.7456
-28.8583
-28.9852
-14.0278
-13.923
-14.0445
-14.1419
-14.2317
-14.0628
113.265
113.9
113.764
113.463
113.535
114.447
352.423
351.567
351.538
352.05
351.243
354.633
619.355
616.307
618.218
622.892
623.723
622.205
2068.53
1980.98
1963.44
1953.98
1967.55
1989.84
4645.91
4651.3
4651.9
4641.34
4644.49
4629.94
-25.4145
-25.4884
-25.5171
-25.3805
-25.2489
-25.5127
-25.5299
-25.5445
-25.5595
-25.5767
-25.4722
-25.5973
-25.3539
-25.2004
-25.2487
-25.3724
-25.3852
-25.3313
-27.1819
-27.0708
-27.0696
-27.1492
-27.1223
-27.0645
-28.2362
-28.186
-28.1937
-28.2007
-28.1684
-28.1589
-30.852
-30.8923
-30.9032
-30.876
-30.8734
-30.8413
-34.2763
-33.9274
-34.0287
-34.2837
-34.1452
-34.3067
-15.2351
-15.0315
-14.9858
-15.0437
-14.8186
-15.1851
-9.69628
-10.5561
-10.8769
-10.2907
-10.3266
-9.7901
19.1266
8.38399
5.64244
5.26034
4.62212
2.84487
213.522
154.213
142.703
139.92
137.135
130.542
1211.25
1029.03
1064.98
1028.76
1012.6
1037.16
720.368
743.995
726.424
638.122
583.684
537.518
746.237
761.044
730.088
662.482
619.204
570.368
803.783
801.831
765.768
741.813
716.367
692.531
869.482
843.966
837.844
830.51
796.718
793.834
939.858
910.312
944.716
900.439
840.016
863.913
997.084
954.605
944.838
945.211
862.648
907.472
1043.84
961.112
1027.77
1056.14
957.266
1000
1120.81
1019.97
1110.79
1080.33
1081.39
1127.33
1075.42
1050.16
1088.54
946.88
1019.57
1190.69
872.183
931.608
968.002
820.321
910.458
1009.35
767.057
783.476
786.416
763.273
773.706
838.556
664.984
657.009
636.31
602.046
588.027
617.831
89.4123
128.169
140.574
62.4269
45.2409
36.9269
97.6429
144.516
130.111
71.194
50.6359
37.6924
143.456
148.939
140.531
127.694
96.9643
69.1752
185.142
182.903
192.357
193.826
165.709
119.467
227.633
250.294
285.959
212.63
170.714
163.083
290.206
247.593
224.618
197.52
141.434
174.595
408.835
293.167
238.983
254.105
145.131
201.755
455.288
407.085
375.716
368.299
242.823
287.906
499.277
402.011
281.09
287.194
198.136
351.92
500.415
408.702
371.336
390.85
361.764
399.791
539.049
511.985
466.655
436.772
429.326
456.696
503.582
499.359
467.83
452.981
456.023
466.139
-24.288
-24.8168
-24.2364
-23.9071
-23.1112
-22.3466
-23.7946
-24.3589
-23.608
-22.9341
-22.4153
-22.0587
-20.4623
-23.4591
-22.6939
-22.5804
-22.8659
-21.8752
-20.3192
-21.5923
-21.0191
-22.0362
-22.8617
-22.8626
-16.3183
-15.8762
-16.9866
-19.0579
-20.0287
-20.6732
-16.996
-15.643
-11.3857
-14.8603
-15.0976
-14.7868
-9.96288
-13.9389
-7.23496
-9.14242
-9.42542
-8.74704
0.56204
-6.05547
5.18939
2.88392
-6.43933
-0.759112
81.3089
38.0387
58.7367
-7.58957
-9.88173
22.3069
261.533
79.1109
34.407
151.394
77.2379
38.0084
363.593
298.857
257.341
272.055
274.514
250.266
361.152
364.684
337.011
325.965
335.712
352.856
-31.9811
-33.8944
-35.7115
-32.1484
-30.352
-29.0922
-31.9247
-33.6955
-34.3097
-32.6135
-31.1445
-29.2071
-32.7738
-33.1058
-33.2273
-32.8697
-32.5489
-31.0454
-34.4866
-34.3574
-34.1849
-34.0259
-34.2995
-33.3718
-36.2029
-37.0888
-35.483
-34.1023
-35.031
-34.1893
-37.5948
-40.1387
-34.3191
-32.915
-34.583
-33.0928
-34.3567
-41.2314
-32.8986
-30.6169
-32.7615
-30.8711
-34.2819
-43.1985
-35.1194
-34.3748
-35.5809
-29.9885
-25.6503
-30.3844
-17.7845
-9.28086
-11.1866
-10.1357
32.5549
2.02144
25.7187
75.3606
26.876
14.0762
119.16
40.7207
66.4666
132.464
133.837
116.691
242.904
230.986
208.651
212.243
222.191
252.144
-46.5199
-46.7431
-46.861
-46.7711
-46.6425
-46.7241
-51.9862
-51.6048
-51.7497
-51.6882
-51.9532
-52.0198
-69.2702
-68.7257
-68.5325
-68.9934
-69.9458
-69.513
-46.0197
-46.3291
-46.4339
-46.1864
-45.9898
-46.0453
-55.1045
-55.2379
-55.3574
-55.2609
-55.2436
-55.1956
-69.8317
-69.5684
-69.5772
-69.7435
-70.1467
-70.2335
-45.0832
-45.0578
-45.0677
-45.0535
-45.0532
-45.0501
-54.7526
-54.7502
-54.7534
-54.7545
-54.7627
-54.7654
-69.2286
-69.2139
-69.217
-69.2423
-69.2915
-69.2902
-45.4971
-45.4932
-45.4986
-45.4814
-45.4811
-45.4639
-55.742
-55.7455
-55.7521
-55.7562
-55.7668
-55.7656
-69.9319
-69.9241
-69.9301
-69.9494
-69.9821
-69.9863
-44.7912
-44.7934
-44.7938
-44.7953
-44.7904
-44.7951
-55.7669
-55.7793
-55.7759
-55.7832
-55.7849
-55.7966
-70.1977
-70.2115
-70.2087
-70.2174
-70.2258
-70.2264
-44.2779
-44.2554
-44.2583
-44.261
-44.2528
-44.2516
-55.8543
-55.8054
-55.8226
-55.8257
-55.8295
-55.7995
-70.5034
-70.5447
-70.5244
-70.5479
-70.5725
-70.587
-38.7048
-38.6595
-38.6832
-38.7174
-38.6574
-38.7068
-53.4198
-53.5177
-53.4575
-53.5425
-53.5574
-53.6367
-70.8498
-70.9697
-70.8651
-70.897
-70.8485
-70.8659
-31.645
-31.3872
-31.5478
-31.0604
-31.132
-30.8956
-54.0455
-52.2924
-52.728
-52.8725
-52.4878
-51.6691
-69.0635
-69.59
-69.2935
-69.4124
-69.7044
-70.0079
-26.4222
-25.2008
-26.8022
-26.6595
-26.109
-25.148
-38.58
-40.6786
-40.9734
-40.4921
-41.2082
-41.5562
-77.7181
-79.681
-77.9542
-77.7932
-77.752
-77.8851
-1.69814
-14.4533
-15.1148
-17.193
-19.1791
-18.8128
-37.4031
-42.9903
-42.5901
-43.7813
-45.4822
-45.1749
-75.5828
-76.8894
-76.6465
-77.0983
-77.3171
-77.1074
68.1471
45.6062
47.2295
42.1654
37.4254
38.237
-65.1109
-61.9989
-58.2907
-59.9645
-61.861
-61.7731
-102.162
-85.0921
-78.6444
-77.26
-77.1184
-77.3495
490.351
470.781
636.552
535.537
512.244
604.403
-116.459
-127.624
-105.611
-102.257
-103.284
-99.7092
-94.7656
-87.6639
-82.1381
-79.7637
-75.4554
-77.1682
162.344
159.596
137.977
109.526
91.418
119.943
-28.3818
-33.2068
-33.8788
-34.8291
-36.0828
-34.3971
-74.3611
-76.0307
-75.3891
-73.3746
-71.9215
-71.8838
164.7
157.44
152.293
143.007
130.642
133.618
-30.1168
-32.3134
-33.9933
-35.4555
-35.0735
-32.6918
-75.8931
-76.1033
-75.1533
-73.4101
-71.5871
-70.8043
237.56
230.294
224.781
220.486
215.423
213.754
-34.2572
-33.5764
-38.0032
-41.9355
-42.4539
-36.7441
-97.656
-96.5128
-95.0108
-94.2323
-92.0105
-89.9396
338.862
339.15
336.387
330.737
339.923
341.898
-82.0529
-65.1841
-85.8246
-95.9612
-89.3834
-82.1879
-127.578
-123.38
-121.298
-122.826
-120.462
-116.162
571.556
542.824
625.968
631.604
657.56
642.986
-3.19609
51.9185
-23.3637
-41.7098
-8.1876
-16.2466
-90.9394
-88.897
-90.6881
-90.3615
-88.9039
-88.4758
789.17
500.386
1007.35
1005.31
896.575
970.39
-70.3427
-43.0837
-47.4846
-58.6998
-49.3912
-47.6567
-76.5762
-75.6747
-79.8464
-79.5978
-78.2771
-79.2309
-43.4307
-43.6636
-43.4098
-42.6337
-42.5002
-42.3889
-53.6868
-53.6155
-53.4544
-53.3787
-53.3297
-53.309
-64.1045
-64.1064
-63.9436
-64.016
-64.0506
-64.0406
-43.5826
-43.7477
-43.8975
-43.4916
-42.9816
-42.5582
-53.9954
-54.0336
-54.0978
-53.8948
-53.739
-53.5572
-64.5565
-64.6158
-64.5242
-64.5249
-64.5393
-64.4718
-44.3174
-43.7702
-43.5106
-43.3498
-43.1451
-42.9622
-54.1084
-54.0507
-53.9814
-53.9109
-53.7979
-53.7165
-64.7291
-64.7903
-64.6823
-64.7003
-64.6893
-64.6215
-46.1413
-44.8544
-44.1477
-43.9148
-44.0381
-44.1369
-54.56
-54.4102
-54.2595
-54.1968
-54.248
-54.2836
-64.9025
-65.027
-64.9561
-64.9429
-64.9322
-64.7782
-46.1649
-45.3672
-43.8816
-43.0312
-43.9179
-43.5213
-53.681
-53.5609
-53.3609
-53.2898
-53.4526
-53.2729
-64.6226
-64.8955
-64.8908
-64.7841
-64.6213
-64.2146
-44.8285
-45.9445
-43.0764
-41.3552
-42.9159
-41.1305
-51.5466
-51.5056
-51.7061
-51.6438
-51.7906
-50.993
-63.8722
-64.4274
-64.7764
-64.6351
-64.3403
-63.7167
-39.3178
-41.6252
-38.9739
-36.0568
-39.35
-36.978
-47.1184
-46.9315
-47.5134
-47.8769
-48.4031
-47.4259
-63.2867
-63.9119
-64.6767
-64.6722
-64.4957
-64.0265
-38.357
-40.1506
-38.4011
-36.8263
-36.5031
-33.883
-43.1881
-43.1386
-44.2679
-44.7384
-45.2159
-44.8591
-63.5535
-64.0443
-65.7103
-65.4077
-64.9876
-64.708
-37.9623
-39.6861
-31.6334
-4.50286
-22.929
-24.9474
-52.0883
-50.3758
-46.5919
-40.7821
-48.436
-47.5025
-73.2703
-75.022
-75.1383
-73.6568
-71.5166
-68.7554
8.37326
-12.3683
-5.96772
26.2815
6.6384
-4.72943
-44.1221
-45.9208
-42.9058
-34.2663
-32.767
-32.0213
-79.4874
-78.2719
-77.5054
-85.9138
-76.3695
-76.8321
19.0188
-28.8555
-23.7101
31.387
8.6162
36.5964
-68.6383
-70.5697
-75.593
-64.8011
-56.8158
-40.6443
-95.9023
-87.7183
-93.9829
-98.1389
-88.8323
-80.2798
125.143
120.292
129.454
135.852
122.96
180.465
-40.2537
-40.059
-18.6335
-23.2396
-30.0056
-12.0086
-89.2565
-101.521
-89.9463
-75.1905
-75.596
-74.0428
)
;

boundaryField
{
    seabed_topleft_surface
    {
        type            calculated;
        value           nonuniform List<scalar> 
72
(
10349.3
10365.1
10365.9
10329.8
10318.4
10355.1
11081
11094.1
11109.7
11100.4
11112.9
11113.9
12256.9
12252
12257.8
12262.8
12262.8
12254
12764.9
12751.9
12750.1
12761.4
12761.9
12740.8
13184.5
13178.6
13176.2
13180.3
13178.8
13168.9
13624.9
13623.7
13622.2
13623.4
13621.8
13617.7
14327.9
14328
14328.1
14327.8
14325.9
14329.3
15325
15327.8
15327.3
15327.3
15328.4
15330.7
16393.6
16370.9
16382.8
16381.8
16386.1
16382.4
17325.6
17313.7
17310.8
17314.7
17309.5
17311.7
18151.2
18165.5
18156.3
18143.9
18148.9
18162.3
17606.5
17529.1
17551.1
17583.9
17530.7
17550.3
)
;
    }
    seabed_topright_surface
    {
        type            calculated;
        value           nonuniform List<scalar> 
72
(
1203.58
1234.2
1217.27
1121.97
1049.14
989.398
1229.63
1252.7
1222.23
1151.32
1097.14
1017.81
1294.5
1294.86
1259.31
1235.32
1208.11
1160.82
1362.76
1337.79
1331.48
1324.06
1287.62
1284.87
1433.54
1404.21
1438.39
1393.23
1331.06
1355.43
1490.71
1448.41
1398.4
1438.23
1355.45
1399.85
1537.25
1454.77
1521.18
1549.38
1450.24
1491.99
1613.81
1513.38
1561.12
1399.32
1573.38
1617
1535.13
1543.31
1323.07
1005.25
1421.26
1675.22
968.482
1139.78
1086.28
850.47
1003.85
1214.46
794.053
814.185
893.36
870.102
856.88
999.057
711.527
697.496
723.29
708.678
689.618
736.83
)
;
    }
    breakwater_top_surface
    {
        type            calculated;
        value           nonuniform List<scalar> 
36
(
264.16
261.414
239.795
211.344
193.228
221.663
265.929
257.814
253.889
243.865
223.696
228.21
289.152
278.427
274.928
273.888
266.701
260.092
455.487
477.1
451.565
448.805
479.075
461.698
1373.47
1472.02
1466.58
1457.28
1558.68
1479
1878.75
1599.58
2106.55
2093.72
1973.05
2041.25
)
;
    }
    breakwater_left_surface
    {
        type            calculated;
        value           nonuniform List<scalar> 
24
(
14316
14300.7
14298.2
14299.5
14281.4
14296.3
8033.13
8031.61
8026.09
8024.28
8008.45
8039.37
4654.47
4659.86
4660.45
4649.91
4653.04
4638.48
1219.27
1036.88
1072.85
1036.6
1020.35
1045.08
)
;
    }
    breakwater_right_surface
    {
        type            calculated;
        value           nonuniform List<scalar> 
24
(
665.143
657.148
636.608
602.411
588.375
618.239
503.718
499.411
467.878
453.047
456.072
466.188
361.212
364.728
337.054
326.01
335.809
352.909
242.975
231.033
208.693
212.29
222.392
252.199
)
;
    }
    water_front_surface
    {
        type            calculated;
        value           nonuniform List<scalar> 
186
(
6610.37
6986.61
7640.61
8132.11
8550.57
8989.94
9692.58
10689.6
12028.9
13470.6
14281.4
14304.7
1248.33
1406.48
1544.81
1752.58
1912.65
2126.38
2419.72
2983.07
4254.27
5517.5
6411.26
8024.39
-25.8858
-28.2237
-31.5696
-32.1094
-31.183
-28.6295
-14.0278
113.265
352.423
619.355
2068.53
4645.91
-25.4145
-25.5299
-25.3539
-27.1819
-28.2362
-30.852
-34.2763
-15.2351
-9.69628
19.1266
213.522
1211.25
720.368
746.237
803.783
869.482
939.858
997.084
1043.84
1120.81
1075.42
872.183
767.057
664.984
89.4123
97.6429
143.456
185.142
227.633
290.206
408.835
455.288
499.277
500.415
539.049
503.582
-24.288
-23.7946
-20.4623
-20.3192
-16.3183
-16.996
-9.96288
0.56204
81.3089
261.533
363.593
361.152
-31.9811
-31.9247
-32.7738
-34.4866
-36.2029
-37.5948
-34.3567
-34.2819
-25.6503
32.5549
119.16
242.904
-46.5199
-51.9862
-69.2702
-46.0197
-55.1045
-69.8317
-45.0832
-54.7526
-69.2286
-45.4971
-55.742
-69.9319
-44.7912
-55.7669
-70.1977
-44.2779
-55.8543
-70.5034
-38.7048
-53.4198
-70.8498
-31.645
-54.0455
-69.0635
-26.4222
-38.58
-77.7181
-1.69814
-37.4031
-75.5828
68.1471
-65.1109
-102.162
490.351
-116.459
-94.7656
162.344
-28.3818
-74.3611
164.7
-30.1168
-75.8931
237.56
-34.2572
-97.656
338.862
-82.0529
-127.578
571.556
-3.19609
-90.9394
789.17
-70.3427
-76.5762
-43.4307
-53.6868
-64.1045
-43.5826
-53.9954
-64.5565
-44.3174
-54.1084
-64.7291
-46.1413
-54.56
-64.9025
-46.1649
-53.681
-64.6226
-44.8285
-51.5466
-63.8722
-39.3178
-47.1184
-63.2867
-38.357
-43.1881
-63.5535
-37.9623
-52.0883
-73.2703
8.37326
-44.1221
-79.4874
19.0188
-68.6383
-95.9023
125.143
-40.2537
-89.2565
)
;
    }
    water_back_surface
    {
        type            calculated;
        value           nonuniform List<scalar> 
186
(
6613.46
6994.07
7629.88
8108.16
8534.96
8982.57
9693.73
10695
12027.7
13460.3
14289.6
14285.2
1258.93
1399.09
1512.33
1711.43
1884.57
2116.19
2417.8
2980.98
4259
5525.92
6398.5
8030.68
-25.8294
-28.0094
-30.931
-31.8294
-31.3152
-28.9852
-14.0628
114.447
354.633
622.205
1989.84
4629.94
-25.5127
-25.5973
-25.3313
-27.0645
-28.1589
-30.8413
-34.3067
-15.1851
-9.7901
2.84487
130.542
1037.16
537.518
570.368
692.531
793.834
863.913
907.472
1000
1127.33
1190.69
1009.35
838.556
617.831
36.9269
37.6924
69.1752
119.467
163.083
174.595
201.755
287.906
351.92
399.791
456.696
466.139
-22.3466
-22.0587
-21.8752
-22.8626
-20.6732
-14.7868
-8.74704
-0.759112
22.3069
38.0084
250.266
352.856
-29.0922
-29.2071
-31.0454
-33.3718
-34.1893
-33.0928
-30.8711
-29.9885
-10.1357
14.0762
116.691
252.144
-46.7241
-52.0198
-69.513
-46.0453
-55.1956
-70.2335
-45.0501
-54.7654
-69.2902
-45.4639
-55.7656
-69.9863
-44.7951
-55.7966
-70.2264
-44.2516
-55.7995
-70.587
-38.7068
-53.6367
-70.8659
-30.8956
-51.6691
-70.0079
-25.148
-41.5562
-77.8851
-18.8128
-45.1749
-77.1074
38.237
-61.7731
-77.3495
604.403
-99.7092
-77.1682
119.943
-34.3971
-71.8838
133.618
-32.6918
-70.8043
213.754
-36.7441
-89.9396
341.898
-82.1879
-116.162
642.986
-16.2466
-88.4758
970.39
-47.6567
-79.2309
-42.3889
-53.309
-64.0406
-42.5582
-53.5572
-64.4718
-42.9622
-53.7165
-64.6215
-44.1369
-54.2836
-64.7782
-43.5213
-53.2729
-64.2146
-41.1305
-50.993
-63.7167
-36.978
-47.4259
-64.0265
-33.883
-44.8591
-64.708
-24.9474
-47.5025
-68.7554
-4.72943
-32.0213
-76.8321
36.5964
-40.6443
-80.2798
180.465
-12.0086
-74.0428
)
;
    }
    water_left_surface
    {
        type            calculated;
        value           nonuniform List<scalar> 
42
(
6623.17
6630.7
6629.28
6618.68
6612.81
6626.27
1252.55
1265.3
1263.64
1252.59
1250.76
1263.19
-25.8696
-25.8092
-25.8237
-25.8466
-25.7438
-25.8132
-25.3987
-25.4725
-25.5013
-25.3646
-25.233
-25.4968
-46.5199
-46.7431
-46.861
-46.7711
-46.6425
-46.7241
-51.9862
-51.6048
-51.7497
-51.6882
-51.9532
-52.0198
-69.2702
-68.7257
-68.5325
-68.9934
-69.9458
-69.513
)
;
    }
    water_right_surface
    {
        type            calculated;
        value           nonuniform List<scalar> 
42
(
722.023
745.673
728.105
639.779
585.278
539.065
89.7189
128.713
141.216
62.6954
45.3649
37.001
-24.2718
-24.8006
-24.2202
-23.8909
-23.0951
-22.3304
-31.9652
-33.8786
-35.6956
-32.1325
-30.3362
-29.0763
-43.4307
-43.6636
-43.4098
-42.6337
-42.5002
-42.3889
-53.6868
-53.6155
-53.4544
-53.3787
-53.3297
-53.309
-64.1045
-64.1064
-63.9436
-64.016
-64.0506
-64.0406
)
;
    }
    water_top_surface
    {
        type            calculated;
        value           nonuniform List<scalar> 
180
(
-75.9232
-70.8698
-70.7798
-70.2881
-76.3467
-76.352
-75.2358
-74.9131
-74.9023
-75.0525
-75.4405
-75.5069
-73.9568
-73.9597
-73.969
-73.9704
-73.9941
-74.019
-75.3468
-75.3511
-75.3593
-75.3656
-75.4053
-75.4096
-76.2058
-76.2297
-76.2271
-76.2285
-76.2416
-76.2528
-77.5512
-77.5737
-77.561
-77.5819
-77.589
-77.5855
-78.5936
-78.9859
-78.8766
-78.9312
-78.8742
-78.91
-80.3545
-82.9157
-81.5822
-80.7751
-81.3986
-82.7893
-74.5913
-87.4124
-77.7062
-75.4878
-79.7989
-85.6238
-68.7113
-68.6701
-68.7323
-68.7278
-68.6798
-68.67
-145.257
-79.4334
-72.6307
-74.6922
-72.9684
-74.0223
-74.7868
-69.0509
-68.7521
-68.9171
-69.0175
-68.8223
-74.6222
-72.3305
-71.669
-71.5903
-71.5903
-71.5903
-76.9342
-74.729
-72.3305
-71.717
-71.6254
-74.2828
-209.15
-150.272
-149.607
-204.722
-191.758
-133.733
-294.195
-246.809
-233.645
-271.38
-255.681
-232.798
-84.9151
-77.6334
-81.8803
-87.2497
-80.4982
-78.2632
-75.1227
-70.6017
-70.5303
-71.3371
-68.9105
-68.9171
-69.4073
-69.4275
-69.0364
-69.4091
-69.5596
-69.4854
-70.0785
-70.1618
-70.214
-70.2318
-70.1521
-70.0388
-70.0745
-70.1975
-70.299
-70.3336
-70.2579
-70.1798
-70.0232
-70.239
-70.4368
-70.57
-70.5639
-70.3325
-69.6192
-70.0058
-70.3491
-70.586
-70.5389
-69.9346
-69.3123
-69.9802
-70.4501
-70.8387
-70.7067
-69.758
-69.0221
-69.9262
-70.7061
-70.816
-70.6425
-69.5197
-69.612
-71.6744
-72.1317
-72.8508
-71.9836
-69.9879
-76.6736
-79.9303
-72.7524
-78.4592
-76.4333
-71.2058
-93.615
-68.6949
-84.3643
-267.193
-88.9442
-70.027
-251.35
-68.9145
-121.542
-213.15
-190.476
-68.7117
-116.638
-225.647
-226.163
-72.7956
-71.5903
-76.4589
)
;
    }
}


// ************************************************************************* //
