/*--------------------------------*- C++ -*----------------------------------*\
| =========                 |                                                 |
| \\      /  F ield         | OpenFOAM: The Open Source CFD Toolbox           |
|  \\    /   O peration     | Version:  v1612+                                |
|   \\  /    A nd           | Web:      www.OpenFOAM.com                      |
|    \\/     M anipulation  |                                                 |
\*---------------------------------------------------------------------------*/
FoamFile
{
    version     2.0;
    format      ascii;
    class       surfaceScalarField;
    location    "9.65";
    object      phi;
}
// * * * * * * * * * * * * * * * * * * * * * * * * * * * * * * * * * * * * * //

dimensions      [0 3 -1 0 0 0 0];

internalField   nonuniform List<scalar> 
2916
(
-0.010556
-0.164469
0.175025
0.00396632
-0.186404
0.171882
0.0308322
-0.192628
0.165762
0.0127597
-0.152088
0.170161
-0.0319439
-0.131995
0.176699
-0.191507
0.159563
0.00109049
-0.308282
0.142722
-0.000259303
-0.322136
0.137082
-0.00499993
-0.325406
0.137519
-0.00232545
-0.305013
0.15025
-0.00565929
-0.293047
0.164386
-0.331806
0.134639
0.000945181
-0.300005
-0.0092216
-0.00186909
-0.307437
-0.0118852
-0.00836093
-0.308158
-0.0107558
-0.00429649
-0.301117
-0.00796012
-0.000433223
-0.296501
-0.000408997
-0.319668
-0.0125714
-0.000239059
-0.244091
-0.0556751
-0.00131868
-0.250279
-0.0560783
-0.00475498
-0.250797
-0.0539256
-0.00347265
-0.246434
-0.0559649
-0.000521619
-0.244032
-0.0554202
-0.264453
-0.055736
-0.000164072
-0.181778
-0.0621486
-0.000806262
-0.187491
-0.0621462
-0.00233285
-0.188075
-0.0611945
-0.00193364
-0.183114
-0.0637197
-0.00156164
-0.180081
-0.0643237
-0.200246
-0.0657691
0.000552395
-0.108187
-0.0741443
-0.000218832
-0.113511
-0.0732089
-0.0010305
-0.114318
-0.0729455
-0.00066404
-0.10801
-0.0754701
-0.00172902
-0.103029
-0.075987
-0.123641
-0.078334
0.0020146
-0.0545662
-0.055635
0.000530839
-0.0569359
-0.0550909
0.00044853
-0.0591313
-0.0551047
-7.73566e-05
-0.0517339
-0.0557504
-0.00215196
-0.0448854
-0.0560686
-0.0670896
-0.0587032
0.00286875
0.00422183
-0.0616568
0.000958733
0.00602943
-0.0610553
-0.000691971
0.00391848
-0.061399
-0.000295678
0.00764442
-0.0597746
0.000910661
0.0107235
-0.0568152
-0.00167208
-0.0645068
-7.24949e-05
0.0835218
-0.0792274
0.000546483
0.0810789
-0.0756685
0.000460334
0.0813141
-0.0773094
-0.00216405
0.0849056
-0.0746368
-0.00283668
0.0836226
-0.0722265
0.077349
-0.0818578
-0.00753149
0.000862241
0.090191
0.000740047
-0.0197475
0.0925549
0.00515536
-0.0169637
0.0938626
-0.000353781
0.00356065
0.0868541
-0.00804009
0.00862677
0.0826821
-0.0245836
0.0938924
-0.00912476
-0.172891
0.182878
0.0017269
-0.197792
0.167193
0.00493064
-0.192615
0.172447
0.000754345
-0.16904
0.176776
0.000675923
-0.161812
0.170517
-0.199036
0.175129
0.0269453
-0.199836
0.00330077
-0.174147
-0.00253837
-0.186775
0.0169832
-0.188561
0.0147454
-0.159574
-0.184291
-0.00577564
-0.108201
0.289002
-0.0365482
-0.0633278
0.265982
-0.0653289
-0.0637038
0.258247
-0.0349915
-0.149831
0.289655
0.027398
-0.176762
0.291072
-0.0727933
0.259755
-0.0037998
-0.0609483
0.0992694
0.00601493
-0.0260006
0.0899401
0.020938
-0.0296199
0.0885115
0.00858758
-0.0664643
0.079233
-0.00315218
-0.0676271
0.0669904
-0.0302491
0.0889429
0.0014964
0.0436727
-0.115339
0.00929341
0.0692802
-0.114963
0.0230663
0.0610019
-0.115151
0.0193157
0.0500863
-0.12076
0.00725088
0.0588072
-0.114779
0.0729718
-0.108542
0.000525393
0.273937
-0.286465
0.00803562
0.2895
-0.283808
0.0165556
0.283953
-0.285397
0.0160268
0.283788
-0.289138
0.0104874
0.294059
-0.285132
0.305492
-0.277769
0.000788456
0.568815
-0.357815
0.00222801
0.578591
-0.352677
0.00176425
0.577485
-0.354263
0.00658576
0.576427
-0.36118
0.0141478
0.581873
-0.3597
0.603428
-0.349557
0.00141622
0.839137
-0.345882
-0.000786636
0.845348
-0.337763
-0.00751801
0.847441
-0.336169
-0.00106621
0.842723
-0.348218
0.0109212
0.842783
-0.348884
0.871465
-0.33545
0.00111365
1.03613
-0.253743
-0.000665645
1.03945
-0.247411
-0.00744258
1.04296
-0.243845
-0.00374314
1.03508
-0.251806
0.00771489
1.02805
-0.252796
1.06151
-0.241029
0.00224389
1.04749
-0.0752556
0.000944555
1.05082
-0.0711303
-0.00211818
1.05277
-0.0681512
-0.00108697
1.04456
-0.0702813
0.00568727
1.03657
-0.0721107
1.06474
-0.0620551
0.0047365
0.869368
0.0941529
0.00172399
0.880035
0.0981304
0.00277608
0.876808
0.0976033
0.00168157
0.87532
0.0956927
-0.00258078
0.877265
0.0913432
0.87775
0.102552
-0.00120605
0.494136
0.46663
0.00045148
0.515986
0.454947
0.00850714
0.505689
0.456926
0.000374505
0.518859
0.451447
-0.0199765
0.533058
0.44724
0.492346
0.459321
-0.00436911
0.0732131
0.60817
0.00590026
0.0694977
0.603412
0.011392
0.0652339
0.60741
-0.00411063
0.0959293
0.615209
-0.0303525
0.103696
0.626121
0.048623
0.588499
0.0235505
-0.150174
0.00283626
-0.0839356
-0.00624939
-0.112456
0.0189625
-0.117844
0.0199143
-0.0568306
-0.115753
0.0416257
0.920355
-0.672979
0.0346599
0.962883
-0.689935
-0.0497094
1.00311
-0.660496
-0.0381942
0.935499
-0.657359
0.0884442
0.899356
-0.734923
1.00291
-0.654714
0.0160491
2.41254
-1.40897
0.0316765
2.45268
-1.41548
0.00755536
2.4892
-1.37346
-0.00153452
2.45547
-1.43165
0.0483462
2.45794
-1.54147
2.4727
-1.3325
-0.0395184
4.0507
-1.71397
0.00527442
4.04181
-1.74888
0.0347982
4.07071
-1.72618
0.0190551
4.08821
-1.73775
0.0151836
4.09825
-1.75122
4.07871
-1.69936
-0.0418677
5.78905
-1.98295
-0.0193259
5.73775
-2.00229
0.0089355
5.75139
-1.99434
-0.00187623
5.79955
-1.98966
0.00845037
5.80009
-1.9973
5.77019
-1.9608
-0.0228603
7.61784
-2.16375
-0.0183343
7.55589
-2.17535
-0.00775595
7.56237
-2.17582
-0.00605824
7.60997
-2.1733
0.0184865
7.59665
-2.1808
7.59129
-2.15217
-0.00363024
9.40281
-2.12722
-0.0053131
9.33928
-2.11947
-0.0144412
9.34928
-2.11395
0.00351227
9.3846
-2.1408
0.0315808
9.36354
-2.14385
9.39238
-2.10496
-0.00824418
10.8329
-1.67557
0.00626971
10.7602
-1.68286
0.00199044
10.7755
-1.6658
0.0159434
10.8001
-1.6813
0.0353054
10.7741
-1.68269
10.8276
-1.64095
-0.062349
9.33358
1.4864
0.00232789
9.28981
1.33459
0.0362909
9.30221
1.37119
0.00562627
9.31071
1.44981
-0.0052833
9.33703
1.37585
9.28181
1.47846
-0.0020974
4.49375
4.93608
0.00376465
4.45917
4.92291
0.00959235
4.45213
4.94186
0.00413333
4.45233
4.95953
-0.0531055
4.49412
4.99149
4.4071
4.92416
-0.00859933
1.57422
3.39476
-0.00940393
1.54783
3.36709
0.00212837
1.53867
3.35885
-0.00266004
1.54915
3.35942
-0.0209586
1.57923
3.38042
1.49401
3.35145
-0.0251573
0.377
1.83054
-0.0187822
0.319191
1.82568
0.0146379
0.316035
1.79663
-0.0183963
0.343178
1.85421
-0.0744388
0.357256
1.90414
0.274597
1.73347
-0.00261162
0.229438
-0.00643069
0.239074
-0.0168935
0.214042
-0.0015418
0.209982
0.0474986
0.251386
0.206342
0.0955808
-0.364945
-0.403615
0.0653949
-0.414692
-0.245056
-0.0685969
-0.405511
-0.120993
-0.0317605
-0.382102
-0.312093
0.102423
-0.383912
-0.485195
-0.451333
-0.100958
0.0336259
-0.199037
-1.6085
0.00354648
-0.204344
-1.59576
-0.0015942
-0.234183
-1.53965
-0.00409133
-0.208558
-1.6027
-0.022855
-0.204673
-1.70195
-0.283758
-1.52293
0.00719951
-0.345298
-1.57491
0.0216009
-0.351452
-1.61618
0.0213017
-0.357817
-1.60225
0.0270985
-0.354478
-1.59763
0.0320285
-0.358234
-1.60259
-0.360414
-1.59068
0.00222838
-0.55364
-1.77684
-0.0024574
-0.556874
-1.79218
-0.00647373
-0.5622
-1.78594
-0.00950592
-0.558786
-1.78232
-0.0126489
-0.555582
-1.79681
-0.565918
-1.76795
0.00398309
-0.72139
-1.99998
7.85683e-05
-0.718395
-2.00992
-0.0127454
-0.717595
-2.0076
-0.011109
-0.729965
-2.00376
-0.00423366
-0.729614
-2.01365
-0.725106
-1.99722
0.0108774
-0.612589
-2.2469
0.00547927
-0.589686
-2.24277
-0.0047033
-0.584265
-2.2371
0.000481281
-0.624136
-2.25182
-0.0025486
-0.613129
-2.2573
-0.604141
-2.22847
-0.0824078
0.626296
-2.83204
0.00247243
0.488555
-2.84598
0.0571522
0.525753
-2.8305
0.0157344
0.582903
-2.84692
0.0452814
0.504865
-2.83023
0.623917
-2.82373
-0.18489
3.88904
-1.59145
-0.0285055
3.59256
-1.9258
0.0424799
3.65029
-1.82434
-0.0507473
3.79873
-1.67279
-0.0185957
3.68919
-1.84062
3.78776
-1.70398
-0.0505571
4.6744
4.20128
-0.0179434
4.73323
3.74962
-0.0190086
4.75044
3.84277
-0.0363376
4.83349
3.9421
-0.0738189
4.82051
3.89765
4.83772
3.80038
0.24541
2.73122
5.09252
0.0647074
3.15477
5.12626
0.00796723
3.20181
4.96423
0.00410208
3.20029
4.99649
0.0250033
3.1833
4.99673
3.24285
4.97132
0.421787
0.723131
3.41685
0.110504
1.01198
4.27975
0.0350102
0.949679
4.12425
0.00024995
0.958716
4.13055
-0.0207911
0.977957
4.13053
0.92449
4.03105
0.0774331
0.875135
0.0230594
1.30543
0.0144967
1.17228
0.00527938
1.17791
0.00638458
1.22824
1.13722
0.00641383
0.246377
-0.252791
0.065776
0.279166
-0.338528
0.12145
0.283538
-0.339212
-0.0576889
0.283281
-0.104143
-0.0763308
0.197462
-0.17882
0.184108
-0.260438
0.0450162
0.469054
-0.267693
0.111943
0.490759
-0.278519
0.245704
0.445549
-0.295772
0.163794
0.341751
0.0234404
0.0741304
0.331346
-0.0442201
0.323978
-0.0657401
0.0997788
0.612568
-0.243293
0.0819113
0.757629
-0.249003
0.253484
0.531505
-0.25753
0.345058
0.281222
-0.0310449
0.0970802
0.513493
0.0658306
0.433225
-0.0121664
0.251545
0.630799
-0.269776
0.209369
0.971028
-0.171224
0.298808
0.455589
-0.0135229
0.235629
0.309696
0.0347054
-0.0521512
0.781145
0.0201285
0.511378
-0.130305
0.409357
0.670599
-0.449157
0.432123
0.996685
-0.0484234
0.284041
0.214938
0.388734
-0.0744346
0.380868
0.287303
-0.268186
0.983763
-0.00886664
0.612266
-0.369073
0.516294
0.800678
-0.646373
0.509827
0.922614
0.0805377
-0.109
-0.0126336
0.846399
-0.357377
0.443091
0.186154
-0.393402
1.1007
-0.0809146
0.746362
-0.527498
0.552805
1.0466
-0.798727
0.606863
0.929445
-0.0608877
0.373026
0.0365588
0.184644
-0.16922
1.06107
-0.0757316
-0.404155
1.53617
-0.200535
0.987066
-0.64486
0.532895
1.39219
-0.878481
0.64369
1.1968
-0.378147
0.260092
0.471702
-0.0515454
-0.872754
2.07424
0.119676
-0.699227
2.11521
-0.752561
1.23804
-0.950203
-0.0522897
1.75772
-0.313247
0.52273
1.43293
-0.811151
0.0901981
0.966908
-0.062674
-1.91906
2.49431
1.58918
-1.31641
2.1283
-0.615747
1.01633
-1.09469
-1.22882
1.95922
1.02732
-0.697521
1.69075
-0.78912
-0.133267
0.576967
-0.17431
-1.96902
1.25744
3.07263
-1.33555
1.17387
0.320959
0.423472
-0.742694
-1.37756
1.31858
2.0182
-1.55295
1.54556
0.320577
-1.03995
0.104589
-0.0406215
-0.611427
-0.00649626
0.835412
-0.30155
0.0536645
0.81033
0.308779
-0.186856
0.673834
0.64475
0.235098
1.9843
-0.286075
0.625761
-0.394157
0.101585
-0.112332
-0.228161
0.196446
-0.414944
0.0880443
0.0741092
-0.178953
0.09484
-0.669359
0.207995
0.0650858
-0.791245
0.399963
0.0872959
-0.383407
0.315357
0.0741673
-0.168381
0.111502
-0.0565824
-0.75683
0.276857
0.300323
-0.486523
0.351507
-0.805493
-0.0435771
0.171469
-0.8451
0.506869
0.156046
-0.595756
0.899063
0.227742
-0.589989
0.224033
0.720792
-0.454791
0.476666
0.0116898
-0.367393
0.450997
-0.43589
-0.3137
0.219379
-0.359134
0.305738
0.248503
-0.742939
1.07662
0.421131
-0.898444
0.429147
0.859343
-0.485136
0.663182
0.0288436
-0.415203
0.649597
-0.439757
0.0489253
0.460292
-0.718564
0.499036
0.435042
-0.601944
0.944212
0.631447
-0.635365
0.584135
0.658919
-0.361238
0.887696
-0.312432
-0.144962
0.832262
-0.447364
0.391363
0.587205
-0.274504
0.646882
0.661149
-0.194324
0.587048
0.77487
-0.0924553
0.635832
0.166278
-0.100049
1.17491
-0.833538
0.0324113
0.888992
-0.108652
0.0887303
0.698143
0.679143
0.578745
0.950726
-0.593437
0.521914
0.903715
-0.152928
0.718048
-0.0878005
-0.198353
1.55172
-0.977185
-0.212789
1.19167
-0.349132
-0.377315
1.10055
-0.0532374
0.495763
1.56172
-1.5598
0.60825
1.27449
-0.683793
1.07444
-0.393003
-0.576308
1.47567
-0.226119
-0.660643
1.88424
-0.986384
-0.728023
1.70662
-0.590237
0.0653165
2.27691
-1.38885
0.449239
2.04505
-1.90705
1.73722
-1.16374
-0.0354604
1.39091
-0.193034
-0.240789
2.44277
-1.16435
-0.637557
1.93101
0.109705
-0.446693
2.39004
1.28519
-0.144057
2.31484
-1.18817
2.25111
-1.75264
0.601735
1.51733
0.299169
0.670681
2.52774
-0.943041
0.116156
1.75366
0.557562
-0.656958
2.05972
4.17605
-0.441268
1.75538
0.664724
2.47525
-1.4081
0.784469
1.54371
1.20736
1.42441
2.11399
0.0943849
0.833294
0.999449
1.30471
-0.384747
0.830516
3.28266
-0.510754
0.61091
2.08081
2.21499
-0.43735
0.96987
1.21858
2.01445
3.05371
0.493117
3.14655
-0.757806
2.18303
-0.96637
0.591316
1.44506
0.426657
-0.0439625
-0.308585
0.343317
0.160433
-0.746448
-0.465852
0.0722076
-0.0542814
-0.896567
-0.0958546
0.143165
-0.530968
-0.0699121
-0.464066
0.00142288
-0.588972
0.077175
0.308916
-0.129728
-0.224308
0.782206
-1.12578
-0.543972
0.455176
-0.908403
-0.579747
0.387923
-1.04376
-0.366432
0.391674
-1.26489
0.376631
-0.0208472
0.178067
0.855062
-0.712523
0.22881
1.0726
-0.777027
0.0842473
0.740421
-0.499816
-0.0170358
0.896839
-1.15057
-0.0358929
0.969377
-1.45729
1.08013
0.119952
-0.0129918
1.25792
-0.361018
0.194348
0.923758
-0.498254
0.384146
0.861584
-1.02952
0.45112
1.26687
-1.03895
0.320235
1.51857
-1.05367
1.50038
0.558899
-1.04992
1.64005
0.355353
-0.554865
0.810698
-0.829361
0.531268
0.741999
-1.24105
0.921514
1.49154
-0.809241
0.866085
1.83414
-0.352598
1.49562
1.03713
-1.71616
2.03304
0.489631
-1.06014
1.2363
-1.19027
0.572235
0.72533
-0.936562
1.165
1.34894
-1.0436
1.25526
1.83942
-0.248469
1.51842
1.14465
-1.21624
1.41228
0.859808
-1.11673
1.67499
-0.887333
0.354951
0.956934
-1.75652
1.27622
1.09904
-2.23117
1.47438
1.82388
-0.866414
1.60545
0.994344
-1.17186
0.149357
2.20867
-1.26356
1.71471
-0.934398
0.175896
1.80519
-2.87795
1.63315
1.74286
-3.48993
1.14871
2.08076
-1.67949
1.49475
0.0956767
-1.8792
1.17173
0.663789
-1.44974
2.31173
-2.19083
-0.22074
2.06476
-1.37887
0.613502
1.35052
0.843283
0.797253
1.75449
-1.04566
1.95291
-1.41354
-0.298046
1.73527
0.0336774
-0.758055
2.42624
-0.597541
-1.39091
1.45306
1.80213
-0.251365
-0.259418
4.64645
0.483417
-0.0280105
1.71245
2.13049
-1.10226
1.03021
1.60545
0.30696
0.968381
1.96081
0.62165
-0.399874
0.806932
3.31909
-1.06293
-0.964969
4.65126
0.0185428
-1.00547
1.9768
1.68294
0.0287432
1.17968
1.64435
2.745
3.44919
1.46081
5.23767
-0.419105
3.09797
-0.987258
0.154002
2.14074
0.236918
0.0325853
-0.578087
0.279153
0.036728
-0.825409
0.0207293
-0.193139
0.397283
0.0468182
-0.136938
0.254016
0.0805105
0.089189
-0.586945
0.0313841
-0.539844
0.328909
0.40654
-0.83259
0.33324
0.160128
-1.25351
0.0220317
0.229828
-1.02016
-0.348276
0.250012
-1.0604
-0.602295
0.249582
-1.17126
0.21114
-0.802898
-0.295469
0.9942
-1.00471
-0.214499
0.566805
-1.26467
-0.00815971
0.528844
-1.00517
-0.0941751
0.358594
-1.17314
-0.447119
0.423345
-1.27811
0.790557
-0.906583
-0.415876
1.62815
-0.579087
-0.450451
1.24023
-1.1371
-0.285312
0.67873
-1.34455
-0.152525
0.539084
-1.35223
-0.319791
0.869751
-1.33281
1.28954
-0.259875
-0.279221
1.81011
0.45261
-0.737407
1.96326
-1.09421
-0.462856
0.890519
-1.72739
-0.150113
0.86993
-1.45283
-0.0221161
1.39596
-1.0068
1.30105
1.00351
-0.250291
1.2805
1.26953
-0.928769
2.4803
-1.02883
-0.375605
1.31268
-1.91189
0.0581433
1.03877
-1.64619
0.342926
1.7913
-0.928592
1.34322
1.44541
0.259012
-0.0719152
1.95321
0.0137377
2.09129
-0.253047
0.129145
1.45341
-2.01266
0.223578
0.943891
-2.23073
0.465397
1.77583
-1.09277
1.56029
1.24266
0.385191
-1.02756
2.77912
0.307221
1.18185
0.0530074
-0.0488
1.47665
-2.54518
-0.216795
0.804753
-3.1828
-0.0335037
1.3271
-1.41405
1.04757
0.574894
-0.617626
-0.315961
0.569817
-1.49176
1.76405
-1.8989
-0.781571
1.54204
-2.15444
0.641872
0.0491319
0.175462
1.23998
0.882504
-1.19918
1.28428
-0.410268
-1.32412
0.930464
0.111375
-2.4019
2.06992
0.174364
-2.02196
0.686158
2.27807
-0.0418094
-2.10081
4.81625
1.20826
-1.36989
2.71477
1.43319
-0.0429241
0.186722
0.753738
0.296964
-0.433729
1.22742
2.0846
-1.19115
-0.371703
5.13438
-0.603044
-2.20321
4.16555
0.190258
-1.98741
1.80102
0.561977
1.09022
1.39012
1.00797
2.91005
3.15668
2.56524
5.21078
1.04352
2.41647
-0.870024
0.0801372
1.8327
0.0426311
-0.336964
-0.109281
0.0711348
-0.157207
-0.116353
0.0075202
0.0612739
-0.118653
0.0782053
-0.255337
-0.127443
0.140104
-0.396604
-0.150491
0.21467
-0.175524
-0.512206
0.145915
0.0293278
-0.112018
-0.733474
0.176077
0.406805
-0.668934
0.211384
0.670985
-0.645719
0.1262
0.260713
0.0203594
-0.00669212
0.455267
0.0201139
-0.471396
-0.0997052
-0.0800607
0.0441772
0.334696
0.060792
0.688698
0.0113089
0.302072
-0.127997
-0.129769
0.0383085
-1.98095
0.224853
0.0160656
-1.93732
0.247455
0.0151657
-1.90011
0.242706
0.0131565
-1.95663
0.228493
-0.026446
-2.02148
0.208645
-1.94011
0.215212
-0.0635207
-1.94952
0.0614188
-0.00427994
-1.90324
0.0827498
0.111306
-1.89089
0.0865757
0.128187
-1.92173
0.0744196
0.0223751
-1.9693
0.0469338
-1.95376
0.0561339
-0.0660281
-0.0102256
-0.00811016
0.00646771
0.0745634
0.00884237
0.109765
-0.000395728
0.0431111
-0.0263801
-0.0259678
0.00776198
-1.72532
0.367493
0.00646575
-1.7458
0.378368
0.0158136
-1.74555
0.376659
0.0141216
-1.73665
0.369197
-0.0076181
-1.7319
0.359703
-1.74195
0.358859
0.00276191
-1.73676
0.0700962
0.00425681
-1.74128
0.0767316
0.00780882
-1.74164
0.0791137
0.0149588
-1.74045
0.0710696
0.0112137
-1.73938
0.058149
-1.74154
0.066944
-0.00250739
0.0297021
0.000750719
0.036472
0.00740802
0.0365872
0.0111259
0.0318996
0.00266467
0.0233289
0.019769
0.00289345
-1.94249
0.530254
0.00589509
-1.94883
0.532009
0.0146477
-1.94939
0.531355
0.0122717
-1.94291
0.532164
-0.0105225
-1.94759
0.533273
-1.94222
0.522605
0.000752728
-1.98295
0.109793
0.00282574
-1.9839
0.109739
0.00714948
-1.98403
0.109435
0.0110054
-1.98487
0.109171
0.00506435
-1.99031
0.106816
-1.98286
0.112652
-0.0018966
0.0365481
0.00129917
0.0378151
0.0063166
0.0371845
0.00718659
0.0368493
0.000910749
0.0358838
0.035072
0.00535464
-2.09947
0.624386
0.00474721
-2.10666
0.629357
0.0097954
-2.10572
0.624422
0.00626229
-2.10033
0.632272
-0.00386749
-2.10266
0.632409
-2.10218
0.623702
0.00510917
-2.10582
0.11104
0.00116286
-2.11037
0.117401
0.000986056
-2.10901
0.112908
0.00347907
-2.10936
0.115708
0.00546471
-2.11157
0.113741
-2.10846
0.124392
0.00182121
0.0378744
0.000439763
0.0410946
0.00166067
0.0388783
0.00158336
0.0397381
-0.000388027
0.0402899
0.0417301
-0.000615366
-2.31573
0.693833
0.00453655
-2.31156
0.692987
0.0116775
-2.31246
0.692639
0.0045986
-2.31097
0.698504
-0.00679918
-2.31636
0.702858
-2.30392
0.692354
-0.000765393
-2.31422
0.110298
0.00177124
-2.31121
0.114513
0.00629165
-2.31213
0.108064
0.00691202
-2.31398
0.118099
-0.00112988
-2.31571
0.121139
-2.30651
0.125853
0.00454747
0.00349031
3.32229e-05
0.0220194
0.00364016
0.00900384
0.00597464
0.0120355
0.00364345
0.0165681
0.0282515
0.034954
-2.41364
0.240475
0.00814862
-2.4542
0.328015
0.00299329
-2.44854
0.315835
0.0258616
-2.44611
0.274832
0.0610686
-2.42992
0.26735
-2.42013
0.349831
0.0522976
-2.39996
0.0443179
0.000590852
-2.45355
0.165567
0.0128465
-2.44613
0.0933956
0.0437311
-2.44993
0.0910381
0.0679127
-2.43803
0.105068
-2.43574
0.209375
0.0299693
-0.00867706
-0.00198501
0.0641562
0.000666407
0.0108051
0.0129973
0.00662813
0.0202919
0.0211431
0.0667113
-0.142324
-2.89692
1.68826
0.0295108
-3.29861
1.52898
0.00545143
-3.10796
1.62352
-0.108373
-2.95801
1.67388
-0.181115
-3.13189
1.63136
-3.15925
1.62399
-0.187317
-2.70927
0.0439908
0.0229242
-3.0116
-0.331681
0.0725281
-2.84584
-0.21833
-0.0364416
-2.73438
-0.0236188
-0.119056
-2.82235
-0.12186
-2.94589
-0.123052
0.0802325
-0.19829
-0.0279654
0.0293901
-0.00542718
-0.124559
0.0825903
-0.165912
0.0994356
-0.100348
0.0810288
-0.295305
1.89835
4.28649
0.0207688
0.50227
4.46026
0.0101798
0.94921
4.52767
-0.200616
1.15196
4.67482
-0.293745
0.91507
4.70706
0.495433
4.63519
0.0424949
-0.430528
2.33038
0.211274
-2.1317
2.13351
0.0235099
-1.21145
2.1301
-0.295435
-0.946351
2.39363
-0.364752
-1.43104
2.29356
-2.12651
2.13414
0.09045
1.25581
-0.0947626
1.45281
-0.076792
1.03838
-0.120026
1.03274
-0.0612318
1.0421
1.09534
0.814188
6.47722
2.0876
0.303439
6.13336
3.96391
0.180102
5.68024
3.93499
0.0811641
5.65952
4.11071
-0.0646908
5.60637
4.24327
5.43187
4.10994
1.17764
5.79501
1.83495
0.696109
4.89894
3.84946
0.362154
4.34963
3.79467
0.124079
4.28637
4.00485
-0.135615
3.99488
4.16475
3.54227
3.88812
1.15403
1.53352
0.900893
3.53665
0.501173
3.20614
0.0931076
3.18083
-0.210903
3.24878
2.96641
1.15144
4.84312
-0.490102
0.452249
7.65402
1.28883
0.285716
7.39825
0.827525
0.180707
7.31519
1.03108
-0.0207661
7.27288
1.3024
7.18919
0.931039
1.17673
5.88105
-0.379714
0.78161
8.93583
2.96278
0.546584
8.44009
2.98785
0.394824
8.31636
3.15544
0.0698416
8.06661
3.696
7.98563
3.16152
0.241473
-0.0126753
0.380302
3.07878
0.395474
2.91986
0.382017
2.83642
0.0810201
3.34729
2.82647
0.400978
-1.35322
1.33727
0.0617876
1.09825
1.8352
0.0079903
0.401036
1.65257
0.113491
0.549836
1.55366
0.0187661
0.928878
1.69648
0.446568
1.64045
0.117457
-1.92095
0.070562
-1.22524
3.5403
1.86342
-0.692012
2.07138
0.784286
0.356054
2.27615
0.381069
-0.022452
3.39569
1.60769
2.49297
1.09267
-2.50137
0.17148
-1.561
1.37965
-1.1013
1.16792
-0.505541
1.10808
0.0220785
1.86689
1.55762
0.141518
0.35199
-0.423878
-0.0696306
0.274407
0.321035
-0.487087
0.0331624
0.240938
0.267304
-0.561902
0.328067
0.0714107
0.16819
-0.688122
0.689459
-0.126427
0.119793
-0.757836
0.835881
0.310249
-0.64152
0.204843
0.422788
0.817008
-0.545318
-0.342488
0.559922
0.87217
-0.900692
0.212423
0.47335
0.845995
-1.06584
0.573719
0.0536769
0.919964
-1.27117
0.939063
-0.285658
0.974915
-1.10992
0.594125
1.01539
-0.746897
-0.2439
0.497505
-0.348165
-0.153916
0.576512
-0.674445
0.590249
0.376938
-0.785785
1.01431
0.130528
-0.600689
0.725082
-0.108242
-0.198888
0.211937
0.0264452
-0.215866
0.0733857
0.536597
-1.03386
0.0896099
0.527195
-1.03051
0.105305
0.477533
-1.05513
0.0747644
0.499812
-1.15739
-0.00429973
0.513749
-1.19252
0.462562
-1.10838
0.248816
1.18181
-1.43935
0.269097
1.1358
-1.52958
0.157259
1.05542
-1.53189
-0.0858184
1.10741
-1.63569
-0.17895
1.13114
-1.63418
1.01817
-1.48145
0.0975239
-0.565911
-0.0617711
-0.566403
-0.333538
-0.548273
-0.388915
-0.62956
-0.175865
-0.541921
-0.275334
0.0691198
0.736895
-1.83988
0.0818075
0.710661
-1.75386
0.0694284
0.706873
-1.74962
0.0664628
0.65642
-1.81085
0.0382598
0.610948
-1.77527
0.700923
-1.77104
0.0394141
1.25184
-1.9937
0.131733
1.10571
-2.01695
0.104624
1.08572
-1.88362
0.0105521
1.08827
-1.97347
-0.0262431
0.998003
-1.98444
1.05853
-1.86531
-0.0657578
-1.32467
0.00140803
-1.20774
-0.0106265
-1.09384
-0.154568
-1.29521
-0.183188
-1.30619
-0.975301
0.0384325
0.457577
-2.33588
0.0397683
0.318958
-2.07415
0.0453232
0.389528
-2.14471
0.0285682
0.356515
-2.15061
0.0102861
0.276239
-2.03322
0.37745
-2.13821
-0.140607
0.702526
-2.09805
0.0687158
0.481576
-2.38889
0.0770524
0.503219
-2.00565
-0.054578
0.518869
-2.00419
0.000823938
0.430882
-2.19448
0.524022
-2.01106
-0.226614
-1.86251
-0.0350918
-2.06653
0.0610819
-1.82119
-0.128843
-1.82075
-0.160644
-1.99641
-1.80921
0.0598884
-0.244441
-2.15133
-0.0878657
-0.00575865
-1.92064
-0.0658504
-0.183139
-1.98358
0.0394362
-0.289799
-1.9661
0.0320268
-0.182378
-1.84344
-0.159873
-1.94631
-0.410112
-1.1408
-0.79157
0.00601045
-0.663826
-2.14695
-0.0357185
-1.01525
-1.13181
-0.210246
-1.35554
-0.763925
0.010323
-0.973317
-1.62411
-0.865525
-1.29508
-0.286001
-0.757593
-0.0902587
-1.46996
-0.0774607
-1.11922
-0.243933
-0.975435
-0.136207
-1.43378
-1.33765
0.174107
-0.98817
-0.172253
0.260921
-0.113166
-0.390099
0.101621
-0.627226
0.0400507
-0.0853819
-0.265803
-0.590649
-1.11853
-0.287109
-0.32615
-0.254857
-0.769877
-0.273756
-0.99118
-0.00255132
-0.373003
-0.470764
-0.493441
-0.309372
-0.326894
-0.359233
-0.0352828
-0.159476
-0.499734
0.0811247
-0.418425
-0.684776
0.118318
-0.080573
-0.00294773
0.0623811
0.306435
-0.3434
0.210411
0.199147
-0.724314
0.244659
-0.499127
0.158432
-0.0150936
-0.603064
0.118424
-0.157474
-0.675798
0.133403
0.0121838
-0.263896
0.0912923
0.051766
-0.526769
0.143789
-0.0733197
-0.730406
0.13118
-0.678331
0.105886
-0.0157771
0.070514
-0.087731
0.0630189
0.0406799
0.0726468
0.108563
0.0640791
0.044226
0.0561997
0.0577495
0.0622499
-0.925519
0.111805
-0.0633225
-1.04809
0.0384695
-0.139631
-0.973793
0.0923254
-0.119893
-1.01263
0.142909
-0.119025
-1.08071
0.153244
-0.863025
0.0995355
0.074641
-0.913712
0.0319782
0.0423735
-0.971172
0.0887593
-0.0241669
-0.921101
0.105142
-0.0543475
-0.941924
0.103264
-0.114044
-0.979445
0.0896114
-0.918733
0.0475496
0.00439704
0.0608233
-0.0305123
0.0616195
0.015894
0.0550993
0.0451969
0.0487176
0.00880098
0.0451896
0.0440118
-0.202021
-0.890508
0.199622
-0.197734
-1.18099
-0.0494979
-0.0472427
-1.04587
-0.0174704
0.00964584
-1.07268
-0.0144359
-0.00724677
-1.13404
0.026072
-0.968186
0.153892
0.145842
-0.896797
-0.107573
0.0467114
-0.960843
-0.03226
-0.0216098
-0.91986
0.0474569
-0.0675717
-0.97356
0.050104
-0.104673
-1.00099
-0.00634442
-0.949818
-0.0754924
0.00569691
0.066525
-0.0310508
0.0846233
0.0141609
0.0669028
0.0232042
0.0534475
-0.0142737
0.0468442
0.0211465
-0.201935
-0.725645
0.548116
-0.0607784
-1.37813
0.0503746
-0.0494699
-1.28612
-0.0872078
-0.0593377
-1.25004
-0.106762
-0.130019
-1.34341
0.107353
-0.814845
0.578842
0.280867
-0.863768
-0.250317
0.115622
-1.02213
-0.223013
-0.0507224
-1.01724
-0.0550792
-0.119251
-1.07469
-0.0567114
-0.209956
-1.12811
-0.130938
-0.981193
-0.119101
0.0530884
0.0415222
-0.00619461
0.0822881
-0.00322583
0.0647028
-0.0128749
0.0434578
-0.0601903
0.0192265
-0.0336418
0.22323
-0.128869
0.906365
0.198879
-1.31916
0.299669
-0.0555718
-1.48194
-0.0782129
-0.213797
-1.37018
-0.0311853
-0.304655
-1.29891
0.490321
0.115727
1.16197
0.479436
-0.64246
-0.216163
0.246859
-1.01827
-0.291329
-0.116646
-1.06743
-0.106082
-0.362355
-1.09863
-0.0825537
-0.583911
-1.12337
-0.0849196
-0.694544
0.107259
0.130227
0.0180787
0.0182627
0.0646451
-0.0634754
0.0736491
-0.102397
0.0442452
-0.166274
0.00568498
-0.0338799
0.888749
0.614636
0.672507
0.639282
-0.967399
0.487706
0.146236
-1.635
0.137943
-0.274424
-1.48376
0.22705
-0.393231
-1.30751
0.988047
0.577547
1.6366
0.736371
-0.296464
-0.0414348
0.593499
-1.01756
-0.0982915
0.0499006
-1.19104
-0.00644429
-0.419931
-1.16458
0.0680941
-0.807081
-1.14574
0.140458
-0.519794
0.397521
0.264361
0.0754095
0.118635
0.0747501
-0.0738429
0.101985
-0.145534
0.0813656
-0.223928
0.0314978
0.0234988
1.30963
1.31369
0.00240791
1.38787
-0.173915
0.330324
0.605757
-1.55884
0.466233
-0.229458
-1.47033
0.301863
-0.514434
-1.13044
1.3107
0.521137
1.84369
0.973822
0.0698027
0.228628
1.08785
-0.824048
0.437818
0.33304
-1.26758
0.457103
-0.33536
-1.10031
0.366479
-0.772735
-1.00568
0.453069
-0.383414
0.529337
0.313411
0.298699
0.205414
0.230057
-0.0918765
0.238094
-0.185004
0.208167
-0.235259
0.16193
0.125883
1.45006
1.63814
-0.306667
1.76614
-0.161712
0.228954
0.50485
-1.76317
0.945516
-1.00303
-2.03599
0.662938
-1.11114
-1.05551
1.06026
0.305523
1.00192
1.16911
-0.0191578
0.716814
1.49733
-1.12216
1.07005
0.378166
-1.49406
1.30715
-0.679072
-1.46182
0.849543
-0.911076
-1.07809
0.707651
-0.366201
0.289984
0.412476
0.632126
0.366198
0.496323
-0.187569
0.744655
-0.410314
0.549924
-0.349305
0.431911
0.31392
0.656935
-0.665429
0.271642
-0.149618
-1.93474
1.07134
-0.973814
-1.97968
1.59495
0.360071
-1.29729
0.801807
0.566965
-1.37277
1.02696
0.302002
0.856613
0.597793
-1.45529
0.908879
0.371595
-2.26812
1.62963
-0.70255
-1.41729
1.81891
-0.363616
-1.94617
1.15948
-0.534005
-1.56043
1.0657
-0.288667
0.346647
0.449047
0.929779
0.111918
1.16974
-0.557865
1.62397
-0.936166
1.42942
-0.960534
1.06132
0.324154
-0.821315
-0.19303
1.39736
-2.64297
0.921618
2.14574
-2.22648
2.60279
0.853744
0.226909
4.52642
-1.36176
1.30799
3.19702
-0.536382
0.422467
1.69922
-1.24151
0.0570039
1.90035
-2.08414
0.977124
2.41675
-1.53529
2.79187
1.08097
0.188238
4.36387
-0.401499
0.824153
2.7921
0.834713
0.0094517
1.58381
-1.14817
1.87769
-0.931337
1.94066
-0.331676
1.37575
-0.802721
0.752468
-0.720157
1.22429
0.639281
-0.136819
0.711618
1.11953
-1.19893
4.12092
1.17154
-1.0537
6.39836
-0.555465
-0.0714356
4.04672
-2.22519
0.0592569
3.03337
-1.89942
1.89334
0.955348
-1.25854
2.18344
1.68707
-1.28891
5.58803
0.980011
-0.17333
7.01833
-0.654583
0.233867
4.94117
-1.70314
0.0905805
4.64603
-0.634659
2.37628
1.19146
-2.04809
1.75305
-0.946323
1.22007
0.0249261
-0.273768
-0.20692
-0.893217
-0.66053
0.108797
0.672673
0.719681
1.33819
1.66745
3.41361
2.54468
4.10615
1.6204
1.80501
-0.319966
0.956965
2.67292
0.143265
2.5395
1.23651
3.5128
2.07321
3.1886
1.10886
2.00528
-0.239365
2.26465
3.38112
0.108698
0.636927
0.170343
-0.232545
-0.437079
)
;

boundaryField
{
    seabed_topleft_surface
    {
        type            calculated;
        value           uniform 0;
    }
    seabed_topright_surface
    {
        type            calculated;
        value           uniform 0;
    }
    breakwater_top_surface
    {
        type            calculated;
        value           uniform 0;
    }
    breakwater_left_surface
    {
        type            calculated;
        value           uniform 0;
    }
    breakwater_right_surface
    {
        type            calculated;
        value           uniform 0;
    }
    water_front_surface
    {
        type            calculated;
        value           uniform 0;
    }
    water_back_surface
    {
        type            calculated;
        value           uniform 0;
    }
    water_left_surface
    {
        type            calculated;
        value           uniform 0;
    }
    water_right_surface
    {
        type            calculated;
        value           uniform 0;
    }
    water_top_surface
    {
        type            calculated;
        value           nonuniform List<scalar> 
180
(
0.717015
-1.16899
-1.14448
-1.01103
0.534981
0.887106
-1.97297
-1.92345
-1.92162
-1.94523
-2.00427
-2.01445
-1.77418
-1.77454
-1.77605
-1.77646
-1.78062
-1.78461
-1.98789
-1.98844
-1.98964
-1.99068
-1.99658
-1.99725
-2.10897
-2.11227
-2.11192
-2.11217
-2.11401
-2.1155
-2.28438
-2.28762
-2.28587
-2.28862
-2.28966
-2.28939
-2.41776
-2.46373
-2.45058
-2.45686
-2.44989
-2.45391
-2.59989
-2.86864
-2.73301
-2.64985
-2.71771
-2.86077
-1.97508
-3.36991
-2.39237
-2.10177
-2.63229
-3.20205
4.36327
3.06824
2.58159
2.54635
2.09222
1.4603
7.18577
9.25487
8.7112
8.67423
8.2691
8.20659
0.396273