/*--------------------------------*- C++ -*----------------------------------*\
| =========                 |                                                 |
| \\      /  F ield         | OpenFOAM: The Open Source CFD Toolbox           |
|  \\    /   O peration     | Version:  v1612+                                |
|   \\  /    A nd           | Web:      www.OpenFOAM.com                      |
|    \\/     M anipulation  |                                                 |
\*---------------------------------------------------------------------------*/
FoamFile
{
    version     2.0;
    format      ascii;
    class       volVectorField;
    location    "9.65";
    object      U;
}
// * * * * * * * * * * * * * * * * * * * * * * * * * * * * * * * * * * * * * //

dimensions      [0 1 -1 0 0 0 0];

internalField   nonuniform List<vector> 
1116
(
(-0.117094 0.000961775 0.265663)
(-0.170648 -0.01974 0.265796)
(-0.185911 0.0279624 0.257571)
(-0.0754371 0.0298852 0.26434)
(-0.0233172 -0.00674205 0.27182)
(-0.173527 -0.0514093 0.249431)
(-0.523951 0.0112975 0.360849)
(-0.560285 -0.00911239 0.372662)
(-0.570146 0.00855173 0.380133)
(-0.511225 -0.0176817 0.364765)
(-0.478859 0.0135262 0.368273)
(-0.575563 -0.0256642 0.373017)
(-0.634119 0.0051706 0.120828)
(-0.651649 -0.00387611 0.123569)
(-0.654062 0.000411863 0.13035)
(-0.635155 -0.0154352 0.11672)
(-0.621548 0.00644736 0.117901)
(-0.675264 -0.00793897 0.120965)
(-0.555797 0.00113043 -0.0999901)
(-0.568181 -0.00201828 -0.103418)
(-0.568539 -0.000849359 -0.101536)
(-0.560311 -0.00709982 -0.102335)
(-0.555338 0.0004172 -0.101585)
(-0.594616 -0.0022119 -0.105357)
(-0.452322 0.00124484 -0.219102)
(-0.464154 -0.00178382 -0.22198)
(-0.465455 -5.8697e-05 -0.222082)
(-0.456246 -0.00378836 -0.219803)
(-0.451594 -0.000165739 -0.218792)
(-0.492714 -0.0037278 -0.222825)
(-0.342628 0.00185373 -0.240216)
(-0.354535 -0.000898814 -0.240965)
(-0.355657 0.000339626 -0.241702)
(-0.343754 -0.00200028 -0.240241)
(-0.335969 0.000573582 -0.24107)
(-0.377469 -0.0045273 -0.240821)
(-0.144214 0.00382923 -0.181977)
(-0.154636 -0.00015311 -0.183511)
(-0.156621 0.00123528 -0.184036)
(-0.142732 -0.000233038 -0.181632)
(-0.130854 -3.0906e-05 -0.181823)
(-0.172586 -0.00371165 -0.181992)
(-0.12337 0.00575588 -0.1542)
(-0.125627 0.000573668 -0.162401)
(-0.131537 0.00105392 -0.162342)
(-0.113466 -0.00256971 -0.151713)
(-0.0955625 0.00192546 -0.141694)
(-0.148492 0.000177776 -0.168611)
(0.0968858 0.000258637 -0.0894829)
(0.103672 -0.000400123 -0.0927558)
(0.101606 0.0016237 -0.0933847)
(0.101667 -0.000911467 -0.0845553)
(0.0984398 -0.00288932 -0.081235)
(0.0933965 -0.00279449 -0.106887)
(0.276186 -0.00994828 0.0468467)
(0.259903 -0.00404717 0.0549794)
(0.263343 0.00548543 0.0577934)
(0.277016 0.00428906 0.0410174)
(0.272255 -0.00545516 0.0275054)
(0.252607 -0.00821847 0.0613118)
(-0.361519 -0.012505 -0.446786)
(-0.425706 -0.0034001 -0.478367)
(-0.415755 0.00606706 -0.468118)
(-0.354917 0.00301707 -0.452227)
(-0.336949 -0.00152806 -0.468567)
(-0.431103 0.00342347 -0.453952)
(-0.632464 0.0276201 -0.810299)
(-0.676058 0.0215035 -0.799192)
(-0.661737 -0.0141847 -0.802045)
(-0.629195 0.0105281 -0.818246)
(-0.624233 0.0183274 -0.809732)
(-0.665693 0.0152312 -0.788612)
(-0.211429 -0.0162484 0.340334)
(-0.109946 0.00816242 0.331883)
(-0.116105 -0.079485 0.317911)
(-0.348949 -0.0582977 0.322978)
(-0.438781 -0.0126239 0.33897)
(-0.136762 0.0740814 0.30257)
(-0.17684 -0.0349931 0.16036)
(-0.109338 0.0266767 0.128312)
(-0.104958 -0.0168328 0.124039)
(-0.198116 0.0590262 0.187371)
(-0.208607 -0.0376792 0.241649)
(-0.119315 0.0275401 0.118561)
(-0.0744638 -0.0275643 -0.15219)
(-0.00635871 0.0288158 -0.167435)
(-0.0258614 -0.0130193 -0.169974)
(-0.072571 0.066848 -0.142981)
(-0.0628457 -0.0216311 -0.118482)
(-0.0144334 0.0293172 -0.168511)
(0.249648 -0.0163206 -0.113948)
(0.288779 0.0162868 -0.118925)
(0.273118 -0.00278391 -0.114771)
(0.272974 0.0414149 -0.114054)
(0.299092 -0.00646933 -0.112177)
(0.309671 0.0207828 -0.1243)
(0.810252 -0.00853008 -0.0441702)
(0.833207 0.00945877 -0.0433699)
(0.827756 -0.00612429 -0.040239)
(0.829878 0.0112214 -0.0498193)
(0.846922 0.00149265 -0.0539264)
(0.877698 0.0212356 -0.0597568)
(1.45837 -0.00411361 -0.0688306)
(1.47455 0.00622936 -0.0664563)
(1.47651 -0.00820666 -0.0652277)
(1.46889 -0.00396758 -0.0731128)
(1.47282 0.00142527 -0.0747632)
(1.52832 0.0174392 -0.0869145)
(1.83959 -0.00226815 -0.0667415)
(1.84889 0.00385387 -0.0638166)
(1.85522 -0.00544743 -0.0635432)
(1.84248 -0.00709652 -0.0673074)
(1.83962 0.000130841 -0.0679775)
(1.89434 0.0130803 -0.0799423)
(2.2099 9.28398e-05 -0.120597)
(2.21506 0.00354152 -0.110711)
(2.22267 -0.00182324 -0.112289)
(2.20234 -0.00184414 -0.1158)
(2.17802 0.000113132 -0.113271)
(2.25241 0.00974501 -0.118635)
(2.01069 0.00549949 -0.197925)
(2.02303 0.0033261 -0.183424)
(2.02217 0.000308641 -0.188206)
(2.00824 0.00463561 -0.188185)
(2.00016 -0.00248482 -0.183099)
(2.04038 -0.000794541 -0.191484)
(1.56376 0.0013771 0.289762)
(1.59742 -0.00369801 0.289375)
(1.58648 0.00488531 0.291645)
(1.59236 0.0111934 0.281519)
(1.60601 -0.0112785 0.278218)
(1.57307 -0.0209545 0.289772)
(0.591309 -0.00807366 1.08337)
(0.638818 -0.000501903 1.06267)
(0.609346 0.0109975 1.07036)
(0.653754 0.0116842 1.07235)
(0.697626 -0.0209694 1.06734)
(0.567052 -0.0326199 1.06346)
(0.00336254 0.0178739 -0.0991229)
(-0.0426464 0.0246502 -0.00358642)
(-0.0419093 -0.0196996 -0.0536938)
(0.0538526 0.0098554 -0.0428766)
(0.0685687 0.0199669 0.0696117)
(-0.0769819 0.0265214 -0.0551162)
(0.562773 -0.00977208 0.381825)
(0.597301 0.0959098 0.32497)
(0.693979 -0.0364737 0.315949)
(0.517619 -0.0661188 0.403311)
(0.395247 0.0062078 0.384929)
(0.699968 0.143612 0.335763)
(3.25992 -0.0308346 -0.0318189)
(3.39333 0.0718537 -0.02595)
(3.46666 -0.00146274 -0.0215398)
(3.35939 0.00678642 -0.109259)
(3.32517 -0.0135988 -0.203627)
(3.44195 0.134225 -0.0111545)
(6.3926 -0.0611392 -0.600628)
(6.42843 0.00177944 -0.593559)
(6.49792 0.00993138 -0.588498)
(6.48617 0.0488815 -0.637895)
(6.52005 -0.0289316 -0.63378)
(6.49312 0.0768572 -0.55715)
(9.90213 -0.0565764 -1.41787)
(9.83139 -0.0255042 -1.41418)
(9.87289 -0.00852859 -1.42289)
(9.94145 0.0291897 -1.42926)
(9.95829 -0.0344388 -1.40969)
(9.9034 0.0529082 -1.37694)
(13.0112 -0.0364021 -1.84024)
(12.8819 -0.0160758 -1.82889)
(12.8981 -0.0178923 -1.83975)
(13.0129 0.00851105 -1.8513)
(12.998 -0.0213325 -1.84031)
(12.9588 0.049925 -1.79698)
(16.966 -0.0160173 -1.77039)
(16.8479 0.00616051 -1.74055)
(16.856 -0.0196087 -1.73694)
(16.9322 0.00108642 -1.78033)
(16.8968 0.00188415 -1.78133)
(16.9184 0.0528433 -1.71212)
(18.6798 -0.0198818 -1.21893)
(18.5442 0.0101977 -1.19599)
(18.5773 -0.00271107 -1.17988)
(18.6317 0.0061794 -1.21462)
(18.5823 0.018165 -1.22001)
(18.689 0.0603227 -1.14892)
(25.3192 -0.0633752 0.637599)
(25.2088 -0.0246646 0.654951)
(25.2389 0.024058 0.66679)
(25.25 0.0295712 0.653379)
(25.2197 -0.0252223 0.644717)
(25.2983 0.0297027 0.702754)
(12.5831 -0.0136819 1.36959)
(12.4876 0.00107318 1.35786)
(12.499 0.00768646 1.36345)
(12.5197 0.0209442 1.37355)
(12.6333 -0.0382564 1.38746)
(12.3886 -0.0171584 1.3562)
(5.64173 -0.00314033 1.28159)
(5.62358 -0.0129263 1.24813)
(5.60531 -0.00569304 1.25468)
(5.60479 0.011723 1.25023)
(5.66249 -0.0177438 1.24411)
(5.53858 -0.0206452 1.26503)
(1.75176 -0.031955 1.4736)
(1.60702 -0.029978 1.47217)
(1.58416 0.00215685 1.47957)
(1.62213 0.0229529 1.50772)
(1.69595 -0.0615879 1.55857)
(1.46634 -0.064446 1.41356)
(0.245955 -0.00291482 -0.380041)
(0.184884 -0.00210964 -0.243798)
(0.185462 -0.00986864 -0.290779)
(0.267494 -0.0261877 -0.320024)
(0.290094 0.0246477 -0.226754)
(0.10029 0.0560121 -0.302831)
(-1.51811 -0.000402462 -2.13958)
(-1.72776 0.167341 -2.15088)
(-1.57343 -0.057046 -2.04651)
(-1.59052 -0.0573101 -2.11052)
(-1.61232 0.0125358 -2.3351)
(-1.57079 0.14453 -2.0474)
(-0.104419 0.0578245 -4.15535)
(-0.0974804 0.00543146 -4.17614)
(-0.207327 0.00134772 -4.04729)
(-0.115289 -0.00613134 -4.15898)
(-0.0972992 0.0032598 -4.40308)
(-0.398032 -0.0574502 -3.93536)
(-0.976894 0.0163357 -4.51974)
(-1.00311 0.00415821 -4.62182)
(-1.00199 0.0297023 -4.56184)
(-1.00257 0.00282777 -4.56734)
(-1.02345 0.0527278 -4.59968)
(-0.99844 0.00739897 -4.50915)
(-1.09677 0.0140146 -4.79107)
(-1.10929 -0.00662785 -4.83268)
(-1.12833 0.000830993 -4.80238)
(-1.11128 -0.017847 -4.80689)
(-1.10664 0.00383084 -4.85823)
(-1.13034 -0.0263018 -4.737)
(-1.89707 0.00952383 -5.03191)
(-1.90026 0.000503605 -5.05838)
(-1.90264 -0.000915073 -5.04747)
(-1.90618 -0.0248019 -5.05082)
(-1.90356 0.00792073 -5.08786)
(-1.91196 -0.0169429 -5.01009)
(-2.15942 0.0124626 -5.1117)
(-2.16347 0.00419244 -5.10293)
(-2.15332 0.00616562 -5.0796)
(-2.19496 -0.0122927 -5.14223)
(-2.20905 0.0126761 -5.15111)
(-2.15674 -0.0160871 -5.07042)
(-2.02095 -0.0611633 -4.98829)
(-1.90982 -0.0617481 -5.01111)
(-1.89177 0.0634907 -4.96774)
(-2.04134 0.0211353 -4.99301)
(-1.97723 0.0213604 -4.97315)
(-1.97964 0.0460741 -4.94801)
(4.64458 -0.215925 2.3718)
(3.86641 -0.103604 1.88865)
(4.03834 0.0535434 1.98773)
(4.46963 0.00957727 2.24122)
(4.04173 -0.0784577 2.02898)
(4.58596 0.0262915 2.25442)
(12.8547 -0.0950134 12.8185)
(12.5056 -0.0286157 12.7799)
(12.6217 -0.0117488 12.8433)
(12.8694 -0.00325168 12.8717)
(12.8035 -0.0866935 12.8916)
(12.8274 -0.0246675 12.8479)
(9.74017 0.118783 9.22213)
(10.5136 0.15217 9.31697)
(10.5309 0.0197717 9.22923)
(10.5594 0.0107762 9.19415)
(10.5535 0.00282215 9.22884)
(10.6805 0.0188346 9.21513)
(3.31836 0.285756 5.29632)
(4.2601 0.240777 5.06183)
(4.1911 0.0548596 4.97507)
(4.20422 0.0328065 5.05123)
(4.22406 -0.0246143 5.08854)
(4.12236 -0.0382244 4.82124)
(2.07063 0.0515843 1.1279)
(2.18679 0.061831 0.991384)
(2.08911 -0.00395401 0.952668)
(2.1235 0.0244187 0.972421)
(2.16411 -0.0167465 1.01716)
(2.01293 0.0327794 0.939308)
(-0.207439 -0.080545 -0.475212)
(-0.284235 0.104121 -0.371444)
(-0.248762 0.0464851 -0.661636)
(-0.274048 0.149112 0.12075)
(-0.158004 -0.237683 -0.137536)
(-0.114583 0.0641171 -0.596041)
(-0.719114 -0.134224 -0.694881)
(-0.795824 0.247973 -0.272508)
(-0.805645 -0.0334005 -0.738885)
(-0.820385 0.469365 0.134082)
(-0.589194 -0.116035 0.147579)
(-0.532129 0.23761 -0.705351)
(-1.12777 -0.0227846 -0.602672)
(-1.17226 0.244396 -0.134552)
(-0.936003 -0.107479 -0.616644)
(-0.585228 0.634966 -0.262562)
(-0.816773 0.0277464 0.165442)
(-0.798379 0.14603 -0.540025)
(-1.26223 0.117653 -0.606506)
(-1.7948 0.334575 -0.225773)
(-1.17451 0.105838 -0.135667)
(-0.558478 0.523201 -0.0456044)
(-1.24731 -0.104045 -0.0624364)
(-0.888305 0.0210368 -0.672747)
(-1.1792 0.155373 -0.858607)
(-2.07135 0.573133 -0.576222)
(-0.710156 0.380734 0.301131)
(-0.673641 0.143398 0.429817)
(-1.79435 -0.332734 -0.290481)
(-1.00175 -0.121725 -1.01172)
(-1.27929 0.180805 -1.10455)
(-1.81047 0.761699 -0.669938)
(-0.172983 0.224481 0.759765)
(-0.918639 -0.38994 0.371364)
(-2.00452 -0.437595 -0.342273)
(-1.18439 -0.228203 -1.14081)
(-1.64756 0.317659 -1.38351)
(-1.64216 0.629699 -0.962395)
(0.189192 0.713897 -0.658603)
(-1.06249 0.0980322 0.225111)
(-2.48433 -0.527459 -0.212022)
(-1.61942 -0.161124 -1.08788)
(-2.21696 0.348254 -1.44859)
(-1.88043 0.558421 -1.10749)
(-0.0921734 0.908642 -1.18035)
(-3.20941 -0.502107 0.603208)
(-3.53481 -1.0751 -0.650574)
(-2.07231 -0.205632 -1.23005)
(-2.91806 -0.353095 -0.433187)
(-2.55381 0.250702 -1.52391)
(-1.41864 0.979348 -1.0971)
(-5.14793 -1.00711 1.8535)
(-4.51402 -2.05527 -0.583226)
(-2.3785 -0.281926 -1.30022)
(-3.84953 -1.26222 0.383421)
(-2.36013 -0.879807 -1.67224)
(-2.03325 -0.241779 -0.513383)
(-5.8898 -0.445014 3.3499)
(-4.16031 -2.43839 0.444545)
(-1.14735 0.0373562 -0.749112)
(-4.39191 -0.687438 1.64207)
(-3.60775 -1.76299 -0.142595)
(0.315189 -1.46249 -1.77668)
(0.270355 -0.643202 -1.59002)
(-0.195623 -0.727745 -1.21253)
(-0.285076 0.288751 -0.718095)
(-1.14268 0.608703 0.579436)
(-2.87514 0.718314 2.12277)
(-0.0908704 -0.28993 -0.687204)
(0.574696 -0.392174 -1.71539)
(0.658858 -0.33756 -1.47918)
(-0.465695 0.192452 -0.484151)
(0.135407 -0.724001 -0.631499)
(0.188154 0.0511621 -0.888482)
(0.267146 -0.324565 -0.553366)
(-0.00286265 0.595713 -0.582358)
(0.0491958 0.304008 -0.664462)
(0.00467282 0.250915 -0.52888)
(-0.409032 -0.909656 -0.477888)
(-0.560026 -0.342732 -0.74357)
(-0.479284 -0.63593 -0.329367)
(-0.272077 0.486873 -0.0654398)
(-0.257987 0.599485 -0.370607)
(-0.351771 1.01021 0.358408)
(-0.756358 -0.636072 -0.418285)
(-0.715521 -0.186474 -0.826264)
(-0.130801 -0.566675 -0.33369)
(-0.43917 0.0139482 0.162205)
(-0.736452 0.528923 0.0598174)
(-0.679069 1.38046 0.451179)
(-1.07799 -0.604231 -0.430632)
(-1.06807 -0.380454 -0.39267)
(-0.797475 -0.364847 0.0971722)
(-0.632325 0.473087 0.222844)
(-1.08004 0.466986 0.165652)
(-1.16233 1.19604 0.0772885)
(-1.47007 -0.592321 -0.823291)
(-1.55399 -0.133035 0.425581)
(-1.17354 -0.0843221 1.29813)
(-1.10542 0.744366 0.674252)
(-1.38391 0.430156 0.256966)
(-1.19178 0.798074 -0.502093)
(-1.84921 -0.577542 -1.27439)
(-1.83488 0.340422 1.0281)
(-1.43142 -0.268296 2.34905)
(-1.55611 0.461523 0.300094)
(-1.6073 0.475069 -0.0461398)
(-1.11823 0.718547 -1.01815)
(-2.59077 -0.55641 -1.49636)
(-1.98902 0.0810068 0.785996)
(-1.81578 -0.55784 1.29647)
(-2.33082 -0.00395655 -0.551212)
(-1.90555 0.714541 -0.757728)
(-1.41447 0.729363 -1.58852)
(-3.03558 -0.623691 -1.74872)
(-2.92862 -0.500949 -0.193624)
(-3.03018 -0.863079 0.981977)
(-3.74625 -0.395252 -0.258304)
(-2.91178 0.468902 -2.40644)
(-2.37875 0.546112 -2.5303)
(-2.67379 0.196506 -0.616061)
(-4.26905 -0.284347 -1.57684)
(-3.98253 -0.247911 0.738764)
(-5.66944 -0.701422 3.13215)
(-4.38125 -0.433269 -1.99421)
(-3.61338 0.281926 -3.06835)
(-3.23403 0.298531 2.77413)
(-5.02803 0.472818 -1.47607)
(-4.05543 0.78023 -0.356487)
(-6.52063 -0.402853 7.16848)
(-5.10186 -1.16653 0.429995)
(-4.46921 0.370593 -2.32944)
(-4.86967 0.481435 5.12633)
(-5.44774 0.999624 0.963783)
(-3.4675 1.49181 1.58782)
(-3.72583 0.112598 4.5801)
(-2.85292 -1.03817 3.815)
(-4.98151 0.335339 -0.198849)
(-2.3597 0.364323 1.8166)
(-4.04663 1.8577 5.52189)
(-1.44197 1.41704 3.53398)
(-1.03692 -0.352967 2.30612)
(-0.525063 -1.22023 0.988398)
(-3.77906 -0.336561 1.55526)
(0.399494 0.0280548 0.791577)
(0.260297 0.673976 -1.35831)
(0.432212 0.0710256 -1.88104)
(0.658392 -1.04376 -0.98028)
(0.492546 -0.548032 -0.305596)
(0.222583 -0.385322 0.0703062)
(-0.23078 -0.110229 1.3784)
(-0.818237 0.207271 -2.00823)
(-0.611845 -0.569114 -2.43721)
(-0.27771 -0.428196 -2.14768)
(-0.225224 -0.631815 -2.0785)
(-0.27548 -0.0672976 1.97396)
(-1.21434 -0.530475 0.433396)
(-2.10358 0.746707 -0.791961)
(-1.11509 -0.175505 -0.873861)
(-1.04434 0.3043 -2.71767)
(-1.06925 -0.352876 -3.3241)
(-1.50149 0.319695 2.48295)
(-2.2857 -0.64814 0.502361)
(-2.18618 0.595183 -1.04996)
(-1.69509 -0.124968 -2.4969)
(-2.1118 0.758664 -2.23884)
(-2.30825 0.08837 -2.38257)
(-3.01935 0.567933 2.17885)
(-3.15686 -1.01066 -0.108829)
(-1.31642 -0.893692 -1.96288)
(-1.21781 -0.152085 -2.15557)
(-2.74397 1.05964 -1.33199)
(-3.4362 0.772324 -0.549746)
(-3.30221 0.885569 1.19416)
(-2.98114 -1.80193 -1.29109)
(-1.45363 -1.42544 -1.34704)
(-1.54863 -0.354534 0.19693)
(-2.87575 1.20419 -2.10219)
(-3.797 1.18966 -0.381065)
(-2.98656 1.31758 0.811012)
(-4.71535 -1.40577 -1.53125)
(-3.05072 -1.25445 -1.93653)
(-1.0578 -0.568513 -1.46305)
(-1.21401 1.09199 -4.86298)
(-3.55699 1.36329 -1.96695)
(-3.09526 1.63304 0.356122)
(0.508485 -1.57281 1.15168)
(-2.59328 -1.24554 -3.01361)
(-2.22612 -0.685663 -3.12353)
(-2.03442 0.989684 -5.07749)
(-3.09828 1.66038 -4.51337)
(-2.73978 1.06506 -1.26506)
(-1.6933 -1.98944 -0.358409)
(-3.62908 -1.84844 -2.70236)
(-4.35285 -0.794808 -0.145519)
(-4.03282 0.30379 1.6825)
(-3.55907 0.816883 -2.28907)
(-2.70642 0.898475 -3.47568)
(-3.13606 0.206632 -1.2291)
(-4.64376 -0.946861 -1.97029)
(-4.27812 -0.551525 2.46215)
(-3.78954 -1.01473 8.46222)
(-3.65021 0.0278527 2.1898)
(-3.81901 0.871748 -2.98596)
(-3.52614 0.960621 0.0865402)
(-5.03658 0.784375 -0.432521)
(-3.38119 0.822785 3.72063)
(1.02297 -1.33986 8.63902)
(2.1869 -0.758385 4.68708)
(-4.29854 0.735389 -1.34205)
(-3.52477 0.520734 3.06595)
(-4.68675 2.12697 6.24243)
(-2.94472 2.43279 8.01772)
(-0.0915482 0.473453 5.19755)
(1.08587 -1.11805 0.776669)
(-3.48712 -0.450367 3.28393)
(0.265003 0.249325 -1.55286)
(0.0281862 0.111377 -1.79871)
(0.850682 0.252969 1.51258)
(0.990844 -0.143521 1.63781)
(0.127255 0.234803 -0.890284)
(0.0539014 -0.0519257 -1.61089)
(-0.354333 0.169346 -1.64152)
(-0.0903466 0.325887 -2.64455)
(-0.137483 0.221944 -1.51136)
(-0.424222 -0.139751 -1.74199)
(-0.42728 -0.530172 -2.29145)
(-0.131853 -0.457789 -1.91043)
(-1.039 -0.253372 -2.69705)
(-0.422191 -0.322502 -2.19324)
(-0.753348 -0.0946046 -1.22597)
(-0.480296 0.0844369 -1.99097)
(-0.364467 -0.298291 -2.35319)
(-0.527551 -0.401541 -1.8637)
(-2.56247 -0.390739 -1.64316)
(-1.66232 -0.4066 -1.12273)
(-1.05049 -0.394386 -1.8784)
(-0.607743 -0.0891062 -2.12041)
(-1.01265 -0.258715 -1.92954)
(-2.40923 -0.237052 0.224752)
(-3.82997 -0.23065 1.09164)
(-3.05853 -0.411342 -1.52922)
(-1.22952 -0.776911 -3.10067)
(-1.23272 -0.0142276 -2.04613)
(-2.16325 -0.364946 -1.0002)
(-3.01033 0.350734 2.43552)
(-3.59246 -0.412981 2.52603)
(-4.09881 -0.260137 -3.2111)
(-1.67346 -1.06232 -3.86653)
(-1.76119 0.279485 -2.53838)
(-3.22536 -0.259671 -0.835492)
(-2.71252 1.0583 2.98759)
(-2.53535 -0.347887 3.84428)
(-5.18193 0.51324 -2.03152)
(-2.59807 -0.286928 -5.13698)
(-1.75541 0.443934 -4.46342)
(-3.69424 -0.211896 -1.59804)
(-3.36212 1.2824 2.81211)
(1.51161 -0.704125 5.91566)
(-2.24407 1.02148 -1.53299)
(-0.956937 -0.0979521 -7.44772)
(0.39416 -0.0517544 -7.77502)
(-2.20363 -0.500389 -2.56146)
(-3.0311 0.556316 1.40361)
(1.61514 -0.715866 2.52605)
(-1.77699 -0.867378 -5.19342)
(-3.10764 -1.3857 -4.57225)
(-3.10486 -0.0443215 2.04273)
(-2.82955 1.10779 -1.47784)
(-1.709 1.23634 -1.68691)
(-1.28772 -0.540237 1.27922)
(-4.15976 -2.35141 0.120423)
(-3.14325 -1.83551 4.61161)
(0.669309 -1.05221 9.41116)
(-1.23121 0.684074 4.29522)
(-2.54436 1.51922 -0.872733)
(-3.06893 0.383457 0.89151)
(-4.52486 -0.207708 2.52215)
(-1.82421 -0.69292 7.96528)
(4.34638 -0.921138 8.15325)
(4.99129 -0.579095 2.43601)
(-3.60964 0.85903 1.43186)
(-1.34741 0.672433 2.57041)
(-3.38531 1.9625 6.11957)
(-1.78637 3.00941 11.1052)
(0.562388 2.03238 6.04953)
(2.31871 -0.00260843 -0.157123)
(-0.470675 -1.27806 4.08383)
(-1.01596 -0.0971939 0.142668)
(-1.14901 0.161603 0.846948)
(-1.14339 -0.0444634 1.31784)
(-1.10325 0.0621241 0.504681)
(-1.12366 0.0955505 -0.0146279)
(-1.23225 0.13899 1.41811)
(-0.301304 -0.502487 -0.991098)
(0.115285 -0.362005 -1.14367)
(0.228854 0.118153 -0.925534)
(-0.0414718 0.690543 -1.0929)
(-0.398449 0.477743 -1.01412)
(-0.325767 0.0174144 -0.309865)
(-0.42256 -0.574503 1.34134)
(0.128892 -0.221457 -2.09847)
(0.173769 0.0865321 -2.05513)
(0.030936 0.524663 -1.79986)
(-0.502399 0.618691 1.0105)
(-0.543785 0.0291861 1.65569)
(0.579093 0.0264938 -2.69845)
(0.661396 0.0267395 -2.63438)
(0.6538 -0.00294847 -2.54605)
(0.600498 0.0407824 -2.67556)
(0.541133 -0.0104515 -2.81665)
(0.557123 -0.0500875 -2.57429)
(0.365486 -0.0513687 -3.95579)
(0.443972 -0.0764945 -3.85933)
(0.455523 0.0645836 -3.81319)
(0.426832 0.159444 -3.89559)
(0.340596 0.0658101 -3.98605)
(0.359336 -0.0199191 -3.92656)
(-0.0251999 -0.0467541 -3.62459)
(0.0122782 -0.0545902 -3.53441)
(0.0241949 0.0361487 -3.53135)
(-0.00351853 0.10281 -3.57364)
(-0.0562595 0.0751611 -3.68061)
(-0.0392458 0.014376 -3.6986)
(0.391119 0.0133105 -2.22352)
(0.419098 0.00375766 -2.28374)
(0.410424 0.00564238 -2.28527)
(0.391411 0.0265096 -2.25803)
(0.359039 -0.00135661 -2.24751)
(0.371682 -0.0127051 -2.28465)
(-0.0494111 0.00270182 -3.55874)
(-0.0256362 0.00223406 -3.57164)
(-0.0183725 0.00496996 -3.56968)
(-0.0461835 0.010666 -3.56755)
(-0.0879581 0.0150928 -3.55993)
(-0.0654171 0.00556662 -3.55827)
(0.0037672 -0.00192396 -3.25234)
(0.0290218 -0.00170173 -3.25322)
(0.0298533 0.00328419 -3.25607)
(0.012319 0.0106652 -3.2565)
(-0.0184154 0.00679885 -3.26377)
(-0.0295188 -0.000492693 -3.27139)
(0.970376 0.00155038 -2.65643)
(0.976417 0.00450085 -2.67825)
(0.976152 0.00478846 -2.68269)
(0.972454 0.024933 -2.65871)
(0.971896 -0.00458346 -2.66466)
(0.955976 -0.0124667 -2.67458)
(0.277278 0.000561158 -3.98741)
(0.276408 0.000666714 -3.98739)
(0.276367 0.0044411 -3.98518)
(0.275808 0.00961765 -3.98813)
(0.270665 0.00912337 -3.99787)
(0.28063 0.00108701 -3.96887)
(0.0883334 -0.00169477 -3.65467)
(0.0903143 -0.00108811 -3.65584)
(0.0897025 0.00354755 -3.65808)
(0.0886668 0.00795158 -3.65982)
(0.0857904 0.0035237 -3.67068)
(0.083744 -0.00131526 -3.67189)
(1.23069 0.0026347 -3.15365)
(1.23106 0.00727529 -3.17025)
(1.22879 0.0013761 -3.17157)
(1.23485 0.0163825 -3.15051)
(1.2404 -0.00383292 -3.15386)
(1.21075 -0.00417129 -3.17018)
(0.20479 0.00510356 -4.1544)
(0.20407 0.00292487 -4.16367)
(0.203637 -8.00128e-05 -4.15908)
(0.203146 0.00144207 -4.16075)
(0.198983 0.00574856 -4.16492)
(0.211933 0.00308953 -4.14854)
(0.0719352 0.00160352 -3.88255)
(0.0748899 0.000916091 -3.88874)
(0.0729677 0.000317344 -3.8881)
(0.0730796 0.00229614 -3.88849)
(0.0726479 0.000292433 -3.89189)
(0.0716355 -0.000806537 -3.8948)
(1.09267 -0.00221027 -3.7365)
(1.11103 0.0015302 -3.72821)
(1.09398 0.00573335 -3.73218)
(1.12041 0.0148004 -3.7232)
(1.11333 -0.00572385 -3.73701)
(1.11143 -0.00666532 -3.71449)
(0.177712 0.00116756 -4.48203)
(0.208021 -0.00148129 -4.47377)
(0.188311 0.00316599 -4.47542)
(0.202317 0.00865695 -4.47802)
(0.197974 0.00227369 -4.48445)
(0.231954 -0.00325238 -4.458)
(0.0748871 0.00463412 -4.21484)
(0.0897828 0.00143332 -4.22025)
(0.0800175 -0.000426769 -4.21725)
(0.0835766 0.00582644 -4.22221)
(0.0836974 0.00467383 -4.22389)
(0.0918995 0.00216012 -4.22302)
(1.89935 0.0509171 -4.55258)
(1.87511 0.0195527 -4.59422)
(1.8935 -0.00675379 -4.58294)
(1.88046 0.0101343 -4.60075)
(1.91087 0.0453347 -4.56634)
(1.86241 0.0572923 -4.55203)
(0.374176 0.0680186 -4.4762)
(0.341762 0.0172762 -4.57555)
(0.341561 -0.0132951 -4.56321)
(0.37082 0.0305136 -4.56181)
(0.385113 0.0587214 -4.53542)
(0.357886 0.0563357 -4.52281)
(-0.0752101 0.0327305 -4.45489)
(-0.0254175 0.0109997 -4.54211)
(-0.0620856 -0.011452 -4.51798)
(-0.0549738 0.0106305 -4.53001)
(-0.0349102 0.0182468 -4.51736)
(0.00486123 0.0151353 -4.52522)
(-0.838745 -0.223529 -6.47781)
(-0.473137 -0.0129831 -7.08094)
(-0.513077 0.0444775 -6.8438)
(-0.629744 -0.0230752 -6.60108)
(-0.716489 -0.212995 -6.94434)
(-0.341364 -0.0927231 -6.71188)
(-0.344839 -0.174136 -4.60501)
(0.140783 -0.0683241 -5.23597)
(-0.12661 0.0762596 -4.87866)
(-0.168662 0.0571793 -4.6587)
(-0.122843 -0.131289 -4.8759)
(0.305852 -0.0370989 -5.06926)
(0.0917749 0.0826167 -4.83315)
(0.390352 0.0302413 -5.33671)
(0.154597 -0.0595502 -5.0807)
(0.1291 0.0452031 -4.91927)
(0.176885 0.0969103 -5.04437)
(0.356016 0.0733466 -5.31292)
(6.93088 -0.34409 6.65815)
(6.19998 -0.08774 4.96807)
(6.55898 0.084652 5.24845)
(6.88849 -0.0503032 5.59643)
(6.89188 -0.314976 5.41602)
(6.52392 -0.168383 5.10172)
(0.701857 -0.23262 1.14122)
(-1.16301 0.261927 -2.70818)
(-0.495819 0.181231 -1.20647)
(0.194562 -0.109063 -0.744488)
(-0.175427 -0.499739 -1.53188)
(-0.621683 -0.164626 -2.9076)
(-1.13264 0.0529211 -3.43966)
(-0.369719 0.0287023 -6.12087)
(-0.850922 -0.126493 -4.24949)
(-1.00983 -0.0511573 -3.69097)
(-0.746137 -0.161861 -4.7163)
(-0.162958 0.0343969 -5.82169)
(9.78365 0.430932 12.0165)
(10.7868 0.616621 11.7827)
(10.65 0.15981 11.34)
(10.8937 0.143705 11.5142)
(10.9725 -0.0379769 11.5202)
(10.9843 -0.0411541 11.336)
(9.07333 0.693265 11.8528)
(9.74842 1.1223 11.0209)
(8.92429 0.385163 9.82857)
(9.17445 0.269592 9.63256)
(9.0631 -0.10438 9.43021)
(8.90958 -0.091759 8.92899)
(6.82148 0.75428 8.28435)
(6.59302 1.23478 5.88511)
(5.21236 0.538264 4.98893)
(5.28391 0.341732 4.92635)
(5.00893 -0.188028 4.08558)
(4.67945 -0.160792 2.92027)
(-2.39339 0.82397 7.34079)
(3.37946 0.880791 10.9413)
(2.28822 0.221116 10.4796)
(3.18493 0.227639 10.5123)
(3.87414 0.0457933 10.5135)
(2.72968 -0.0501281 10.273)
(-2.11885 0.950945 9.98426)
(6.10975 1.18166 16.5742)
(6.66954 0.41638 15.9083)
(7.18023 0.476119 15.6387)
(7.97843 0.181093 15.5037)
(6.97642 -0.0149156 15.37)
(-1.39987 0.223566 13.1439)
(7.36179 0.461672 17.2036)
(7.72226 0.1349 16.2028)
(7.62107 0.495526 16.0934)
(8.1283 0.184695 15.3531)
(7.32557 -0.0487937 15.2314)
(1.23759 0.351856 2.64074)
(3.52888 0.307783 4.38607)
(3.05719 -0.147681 3.94654)
(2.88193 0.145968 3.9538)
(3.34857 0.0389901 4.08904)
(3.07837 0.0159213 3.82407)
(-0.269287 -0.389659 -8.18473)
(3.87194 0.315076 1.8205)
(3.30477 -1.80602 -1.20936)
(3.64325 0.202087 -0.528238)
(5.02765 0.252189 1.32568)
(3.82585 -0.228075 -0.770923)
(1.37412 -3.06403 0.813364)
(4.80386 -1.08251 7.91511)
(3.97838 -1.6765 6.2228)
(3.80763 -0.616432 6.28864)
(5.53662 -0.0877821 7.96022)
(4.25091 0.0604447 6.95753)
(0.859039 0.112909 -0.111245)
(1.06776 0.344178 -0.347437)
(1.08206 0.417485 -0.558169)
(1.27618 0.252633 -0.518117)
(1.42059 -0.0926433 -0.393346)
(1.17574 -0.179318 -0.3837)
(0.54336 0.28378 1.88831)
(1.37452 0.835145 1.89807)
(1.49168 0.936107 1.82521)
(2.07129 0.412629 1.46499)
(1.21349 -0.309233 1.20214)
(0.2327 -0.418124 2.0497)
(0.924025 0.375987 2.57784)
(2.064 0.929484 2.80061)
(2.20291 0.786066 2.65244)
(1.31053 0.468336 3.31459)
(0.147305 -0.0126341 3.76835)
(-0.315833 -0.372047 3.42464)
(1.06205 0.063226 0.029345)
(1.12557 0.12785 0.0214042)
(1.30755 0.15349 0.0225927)
(1.51981 0.154907 0.0219831)
(1.64553 0.0362147 0.0307239)
(1.4702 -0.0353613 -0.00320408)
(1.78196 0.217877 2.61379)
(2.28341 0.432064 2.59442)
(2.44756 0.377475 2.35352)
(2.70159 0.049359 2.47948)
(2.83449 -0.275281 2.52949)
(2.3492 -0.179118 2.28245)
(0.347656 0.114524 4.07617)
(0.779176 0.119913 3.75116)
(0.852528 -0.309162 3.46043)
(0.636662 -0.617885 3.74422)
(0.352877 -0.461851 3.93853)
(0.0790762 -0.118775 3.56572)
(2.97912 0.0520053 0.727579)
(2.91709 0.125096 0.754277)
(2.89435 0.118433 0.713464)
(3.11208 0.102953 0.711029)
(3.1332 0.0805839 0.719944)
(2.95139 0.0285092 0.695787)
(3.75849 -0.00674093 3.00345)
(3.85168 0.126608 2.75707)
(3.64443 0.23716 2.81616)
(3.82358 0.0682803 2.59656)
(3.88257 -0.0440555 2.31393)
(3.63374 -0.00718543 2.78077)
(2.19159 -0.111727 5.91805)
(1.72687 -0.0579137 4.86602)
(1.59117 0.0675717 4.73263)
(2.19652 -0.11879 5.35409)
(2.12736 -0.301333 5.0427)
(1.25441 -0.17082 4.55541)
(4.44632 0.0294042 0.623791)
(4.06454 0.0940551 0.557825)
(4.24014 0.0242529 0.634105)
(4.27047 0.0812067 0.587279)
(4.03197 0.0223148 0.568612)
(4.24936 0.0130688 0.583847)
(4.5081 -0.270143 1.65845)
(4.45951 -0.077672 0.995252)
(4.14828 0.233946 1.24669)
(4.32608 -0.0252766 1.12504)
(4.34875 -0.118521 0.727025)
(4.09824 0.124947 1.22981)
(3.76698 -0.316663 3.95697)
(3.77654 -0.271648 3.03123)
(3.43616 0.177748 2.9747)
(3.64651 -0.0526621 3.24409)
(3.77771 -0.310825 3.00362)
(3.26675 -0.082619 3.15188)
(4.62212 0.082864 0.480611)
(3.88024 0.0670381 0.544098)
(3.99729 -0.290854 0.440051)
(4.04998 0.0685617 0.511546)
(3.73603 0.0497011 0.625555)
(3.92929 0.0463667 0.390115)
(3.31243 -0.795325 -1.65899)
(4.42383 -0.177166 -0.468998)
(3.36005 0.120341 -1.32642)
(3.24146 -0.251852 -1.99617)
(3.84644 -0.221176 -1.4833)
(3.41331 0.219716 -1.15885)
(2.71458 -0.256759 -5.7004)
(3.48178 -0.445075 -4.23451)
(2.90827 0.0669495 -5.14057)
(2.69132 -0.284697 -6.09622)
(3.24808 -0.375912 -4.86413)
(3.08634 -0.0205385 -4.3806)
(3.68431 0.270122 1.17333)
(3.79926 0.108601 1.85576)
(3.62084 -0.475911 1.58267)
(3.4438 0.121106 1.64816)
(3.5137 0.118266 1.8502)
(3.56611 0.0382263 1.52586)
(0.534837 -1.19302 -5.15607)
(4.60666 -0.055367 0.170924)
(1.3092 -0.774634 -3.55088)
(-0.380277 -0.356414 -4.76653)
(2.98879 -0.084006 -2.15541)
(2.01306 0.0688016 -2.81881)
(0.0474605 -0.475897 -3.59266)
(2.18087 -0.806724 -1.96696)
(1.65732 -0.367188 -1.93012)
(1.45336 -0.556895 -2.31058)
(2.69916 -0.357093 -0.695724)
(2.4182 0.193857 -0.704692)
(-0.0509964 0.128036 -0.790002)
(-0.194003 -0.467515 -1.24762)
(0.192918 -0.305948 0.155364)
(-0.239851 0.194018 -0.680301)
(-0.427313 0.312236 -1.4321)
(-0.245482 0.0409925 -0.637249)
(-0.210966 0.120021 -1.00322)
(-0.210432 -0.150107 -1.29074)
(-0.00498455 -0.114685 -0.177417)
(-0.250789 0.131674 -0.67334)
(-0.233717 -0.0304322 -1.29142)
(-0.193482 -0.108399 -1.1753)
(-0.128608 0.0357679 -1.21531)
(-0.104495 -0.0712669 -1.23187)
(-0.133414 -0.0668125 -0.857002)
(-0.11641 0.127946 -1.21684)
(-0.0951777 0.0699349 -1.33485)
(-0.0971066 0.0171647 -1.27804)
(-0.298202 0.116973 -1.67202)
(-0.287166 -0.0145895 -2.06104)
(-0.405569 -0.126058 -2.11814)
(-0.521322 -0.104368 -2.14095)
(-0.495366 -0.0997358 -2.15679)
(-0.371528 -0.100562 -1.36068)
(-0.234014 0.0631059 -1.64999)
(-0.2835 0.0784717 -1.81874)
(-0.313647 -0.0151548 -1.56241)
(-0.27603 -0.0188394 -1.63756)
(-0.251574 -0.0872 -1.8334)
(-0.2051 -0.105629 -1.69188)
(-0.126939 0.024864 -1.6794)
(-0.12062 -0.0208431 -1.72833)
(-0.124812 -0.0251641 -1.75832)
(-0.112684 0.0501233 -1.76841)
(-0.104311 0.0257865 -1.72272)
(-0.109978 -0.00486215 -1.65558)
(-0.143662 -0.079626 -1.40073)
(0.109223 -0.240115 -2.47932)
(-0.0160836 -0.124655 -2.38866)
(-0.110719 0.0280905 -2.28136)
(-0.164747 -0.00455433 -2.32397)
(-0.0452361 -0.00636599 -1.70581)
(0.0919402 0.160746 -1.71112)
(-0.0999731 0.121128 -1.84178)
(-0.150271 -0.030223 -1.54075)
(-0.1709 -0.0134698 -1.72462)
(-0.138009 -0.102812 -1.89144)
(-0.00335059 -0.0899278 -1.74663)
(-0.12975 0.0292515 -1.67701)
(-0.142562 -0.0237712 -1.74885)
(-0.114959 -0.0219127 -1.806)
(-0.0974586 0.0419829 -1.82505)
(-0.0919168 -0.002213 -1.78302)
(-0.0782263 -0.0189672 -1.73866)
(-0.557694 -0.244525 -0.758175)
(0.123751 -0.0528284 -2.87938)
(0.109466 -0.0646117 -2.84111)
(0.191605 -0.0287936 -2.66425)
(0.0884918 -0.10044 -2.79667)
(-0.49176 -0.134784 -1.19909)
(0.393527 0.27345 -1.69191)
(0.259667 0.260125 -2.11971)
(-0.0052863 -0.0375697 -1.92986)
(0.00444919 -0.0500929 -2.01226)
(0.177799 -0.187208 -2.21377)
(0.35613 -0.189137 -1.78125)
(-0.120121 0.0656893 -1.64602)
(-0.178758 0.0157289 -1.77234)
(-0.136316 -0.0224127 -1.88067)
(-0.100435 0.0148647 -1.9502)
(-0.0764076 -0.043971 -1.94707)