/*--------------------------------*- C++ -*----------------------------------*\
| =========                 |                                                 |
| \\      /  F ield         | OpenFOAM: The Open Source CFD Toolbox           |
|  \\    /   O peration     | Version:  v1612+                                |
|   \\  /    A nd           | Web:      www.OpenFOAM.com                      |
|    \\/     M anipulation  |                                                 |
\*---------------------------------------------------------------------------*/
FoamFile
{
    version     2.0;
    format      ascii;
    class       surfaceScalarField;
    location    "9";
    object      alphaPhi;
}
// * * * * * * * * * * * * * * * * * * * * * * * * * * * * * * * * * * * * * //

dimensions      [0 3 -1 0 0 0 0];

internalField   nonuniform List<scalar> 
816
(
-6.93696e-08
-1.12647e-05
6.48776e-06
-1.74918e-05
-1.82237e-05
4.05772e-05
6.18524e-06
2.39448e-06
-1.26371e-05
-1.04969e-06
5.02477e-06
-7.33932e-06
1.72154e-07
-7.57676e-07
2.60199e-06
-5.93288e-06
-1.17096e-05
2.6032e-06
-2.72345e-06
1.0632e-05
1.16773e-08
-7.09994e-09
5.75676e-07
-2.19952e-09
3.14643e-09
1.37751e-08
-6.44324e-07
2.78437e-09
-1.78812e-09
1.3654e-09
1.45151e-06
-2.00893e-09
1.54434e-08
1.79901e-09
1.20896e-06
1.23221e-08
-1.15159e-08
4.98899e-09
1.91079e-06
1.17791e-08
-1.31887e-08
-6.53109e-09
4.40447e-07
5.50871e-09
5.60478e-09
-6.30731e-09
8.26798e-07
6.07324e-09
-4.30096e-09
-3.36093e-10
1.13156e-08
4.51623e-09
-4.30715e-09
-3.11279e-09
-1.54457e-06
1.05474e-08
2.40118e-09
-6.3408e-10
1.19773e-07
1.02926e-09
2.00919e-09
-3.76955e-09
7.00368e-07
-1.0641e-10
9.40252e-10
5.96255e-07
-4.24596e-09
-3.38467e-09
2.2687e-05
-2.85391e-06
-3.15954e-05
-1.05618e-07
1.44599e-05
3.74803e-05
-4.23133e-05
2.55724e-05
6.3036e-07
-1.32069e-06
-3.80902e-06
1.56322e-06
4.50633e-05
-7.00713e-06
2.00996e-05
7.09269e-06
-1.7217e-05
1.46499e-05
-1.64085e-05
1.63626e-05
-1.5781e-05
-1.2016e-06
-2.41543e-05
1.04061e-05
3.151e-05
8.76046e-06
-3.11621e-05
1.7856e-05
7.02625e-06
2.75165e-05
-1.04771e-05
-1.00797e-05
2.17407e-06
8.19022e-06
-5.36458e-05
2.68009e-05
4.26485e-05
2.66685e-05
-3.13726e-05
1.7526e-05
-4.10349e-06
-1.68996e-05
6.84942e-05
9.66943e-06
-3.34045e-05
-1.77343e-05
-3.66553e-06
4.63275e-06
-1.1408e-05
1.20854e-06
-1.59265e-05
1.01331e-06
-2.23713e-05
-1.82493e-05
-1.05955e-05
-3.89248e-07
-2.06501e-06
-1.81052e-07
-2.36189e-05
3.10404e-06
9.18662e-06
-5.28049e-06
-7.07073e-06
-6.91781e-06
-1.10105e-05
2.17517e-06
-1.21384e-05
-6.04577e-06
-1.52418e-05
-1.34789e-06
-1.50467e-05
-1.00134e-05
-1.1579e-05
-4.16447e-06
4.0609e-06
-5.94139e-06
-2.4779e-05
-1.44038e-05
-2.0089e-05
-1.59505e-05
-1.48324e-05
-7.27002e-06
8.25986e-06
2.87812e-05
-1.99485e-06
-9.47112e-06
2.75453e-06
-1.50967e-06
-1.10508e-06
-6.06067e-06
3.93246e-06
-9.01764e-06
-5.96746e-06
3.24281e-06
1.27648e-06
-8.11682e-06
1.42129e-06
-4.06718e-06
5.82487e-07
-3.82873e-07
4.26171e-07
-6.35863e-06
1.06767e-06
1.69768e-06
-6.08617e-06
1.244e-07
-2.13548e-07
-5.73112e-06
-1.261e-05
-6.91121e-06
-3.42352e-06
-4.4666e-07
-6.15559e-07
-1.31926e-05
-5.01284e-07
2.93057e-06
-2.6991e-06
2.39184e-07
-3.10952e-06
-5.30458e-06
-1.87359e-06
1.37115e-06
-3.84519e-06
-8.79202e-06
-4.01856e-06
-8.67617e-07
-5.71528e-06
-5.96031e-06
-5.54982e-06
3.07217e-06
-1.95387e-06
-2.50572e-06
-9.05e-06
-1.13401e-05
-7.42248e-06
-8.95302e-06
-4.3757e-06
-4.41405e-06
3.8715e-06
-1.28414e-06
8.20764e-06
5.84461e-07
-1.96056e-06
-3.98419e-06
6.4603e-09
-1.18271e-09
2.06881e-07
-3.79368e-09
1.17425e-08
-6.16904e-07
-4.03882e-09
9.85765e-09
-4.82691e-06
-6.65777e-10
1.18383e-08
-1.97964e-05
-3.36731e-09
2.85611e-09
-1.02545e-05
-6.60773e-09
-8.19554e-10
-6.10365e-10
1.32598e-09
-4.34312e-10
-4.44155e-09
1.47886e-10
-1.32531e-09
-1.06657e-08
2.80254e-09
-3.06179e-09
-5.76434e-09
-9.27396e-07
1.51709e-09
4.35609e-09
-8.94057e-05
-1.90728e-09
-2.30637e-09
-3.53966e-09
-7.16738e-06
-4.01328e-09
-8.86188e-09
1.64424e-06
-4.5102e-09
-1.86016e-09
1.23711e-06
7.63746e-11
-1.92493e-09
-1.4616e-06
-3.43369e-10
-9.07089e-10
-2.32144e-06
-6.49954e-09
-8.64848e-09
-4.61811e-09
-3.56859e-06
-6.3739e-09
-7.94387e-09
-1.99706e-06
-3.7235e-09
-7.60609e-09
6.18365e-07
-3.87712e-09
-2.34687e-09
1.26698e-06
-2.65928e-09
4.71625e-11
-5.38511e-09
-4.75545e-09
-1.44824e-05
9.03258e-06
-1.54615e-06
3.82362e-06
1.68578e-05
-3.10588e-05
3.19429e-08
1.28201e-05
2.24975e-06
2.13301e-05
1.25576e-05
-7.12977e-06
6.62997e-06
2.10758e-05
6.65086e-05
-4.09562e-05
-3.32205e-05
-3.55679e-06
8.60146e-05
-1.32575e-05
-2.51932e-05
8.40449e-05
-5.01059e-05
-5.62741e-05
0.000107704
-5.62219e-05
-2.88717e-05
-9.47218e-06
-5.47745e-06
4.12914e-05
-1.85843e-05
-3.16497e-05
-1.71866e-05
-5.42015e-06
9.24074e-05
-1.65827e-05
-3.48492e-05
9.11983e-05
-3.81757e-05
1.67506e-05
-5.14366e-05
-4.85199e-06
5.99459e-06
5.80091e-05
-2.16979e-05
3.05813e-05
6.18044e-05
-5.4918e-05
-3.5958e-05
-5.72975e-06
7.64221e-05
-5.43726e-06
-3.55839e-05
7.45161e-05
-3.2075e-05
-2.78578e-05
1.86013e-05
-1.81836e-05
-2.71134e-06
-9.0351e-06
-6.11852e-06
7.01801e-05
-2.45867e-05
-3.64966e-05
8.70157e-06
-5.96196e-06
3.88698e-07
-1.89952e-06
-8.39529e-06
-1.49393e-05
1.73579e-06
-8.91647e-06
2.46527e-06
-1.00157e-05
-6.56811e-06
-3.33348e-06
-6.40461e-06
-1.43942e-05
3.06553e-05
2.32993e-05
2.02855e-05
-9.47831e-07
3.80183e-05
1.08875e-05
1.32252e-05
3.71092e-05
2.75669e-05
3.28609e-05
4.73594e-05
2.96677e-05
1.88659e-05
-4.61906e-06
2.95939e-06
-2.34153e-05
-6.84056e-06
1.7241e-05
1.32655e-05
1.98644e-06
4.0542e-05
1.11261e-05
2.14932e-05
3.96893e-05
2.18827e-05
-5.13204e-06
-2.26681e-05
1.86241e-06
-3.08782e-07
2.66887e-05
1.21343e-05
-1.66258e-05
2.75291e-05
2.97743e-05
2.0841e-05
2.2556e-06
3.30048e-05
4.38465e-06
1.75702e-05
3.31439e-05
1.88701e-05
1.15565e-05
9.11711e-06
1.35243e-05
3.11156e-07
-4.21943e-06
4.76561e-06
3.18096e-05
1.34308e-05
1.92118e-05
5.19207e-06
-3.23085e-06
1.08323e-06
-2.06051e-06
-5.0902e-06
-5.00781e-06
-3.36481e-07
-5.61272e-06
2.94996e-06
-6.65293e-06
-3.13537e-06
-1.49536e-06
-4.71424e-06
-7.09799e-06
1.04567e-05
1.25982e-05
1.16377e-05
-5.38823e-07
1.39172e-05
4.13487e-06
7.10005e-06
1.21123e-05
1.46364e-05
1.70223e-05
1.57289e-05
1.64566e-05
9.41167e-06
-1.35138e-06
4.63601e-07
-1.23539e-05
3.05007e-07
8.08507e-06
6.28747e-06
2.20183e-06
1.1594e-05
5.50248e-06
1.19185e-05
1.29429e-05
1.13805e-05
-3.73902e-06
-4.68763e-06
6.95168e-07
-5.46007e-07
8.4626e-06
5.93105e-06
-9.04559e-06
8.23594e-06
1.62549e-05
1.17253e-05
1.19289e-06
1.03144e-05
1.13451e-06
9.31327e-06
1.03801e-05
1.01646e-05
5.77301e-06
4.0051e-06
7.3746e-06
-7.16338e-07
-1.06928e-06
1.2666e-06
8.93491e-06
7.0763e-06
1.14292e-05
-1.05399e-06
-3.67999e-06
2.6618e-06
-3.88495e-06
2.85973e-06
-1.43851e-07
-2.31378e-06
-4.55976e-06
-4.07043e-07
1.74946e-06
-3.49584e-06
3.36374e-06
-6.20542e-06
2.28377e-06
9.49933e-07
-6.60348e-06
-2.94303e-06
-2.9529e-07
7.53423e-07
-7.44924e-06
-1.00271e-07
-2.28778e-06
-1.63719e-06
-3.87981e-06
7.5899e-07
-2.28732e-06
-4.20353e-06
-1.64439e-07
-1.62291e-06
-2.95068e-06
4.66087e-07
-2.17311e-06
-3.04683e-06
-5.1441e-06
-3.92121e-06
-8.63192e-07
1.7e-06
-1.40485e-06
-5.96854e-07
5.57777e-07
1.63216e-06
-2.02219e-07
-8.94932e-07
-3.57763e-06
6.06328e-07
-2.00275e-06
-1.95192e-06
-2.24989e-06
-6.04009e-07
-2.98663e-06
5.31089e-06
6.02393e-06
8.41295e-07
2.83213e-06
4.17124e-06
6.5354e-06
9.20594e-06
6.83313e-06
4.52315e-06
1.16816e-06
-3.86394e-06
4.05905e-06
4.62793e-06
1.05982e-06
2.23563e-06
6.05571e-06
6.32802e-06
2.94329e-07
1.50552e-06
1.05823e-06
4.42193e-06
-3.96e-06
7.47253e-06
5.66764e-06
2.69663e-07
1.26e-06
4.46937e-06
5.36094e-06
4.17165e-06
2.9633e-06
1.19348e-06
2.32877e-06
3.84757e-06
4.97281e-06
5.14203e-09
-6.49349e-09
6.84494e-08
9.44112e-09
7.55073e-08
1.4281e-08
-3.15977e-06
8.63493e-09
-1.71987e-05
9.94104e-09
-9.45334e-05
-1.64927e-09
-1.79294e-05
6.33681e-09
-7.28652e-06
2.37786e-09
-2.45446e-06
-9.46394e-10
-4.34478e-06
-1.96002e-09
3.25653e-06
-2.27898e-09
2.98766e-06
2.57212e-09
-0.000108729
4.05466e-10
-1.48673e-05
-4.73608e-09
5.26192e-11
-3.61849e-09
-0.000120585
-4.97374e-09
-9.80674e-07
-3.5435e-09
2.06661e-06
-2.29533e-09
1.41539e-06
-3.80427e-09
-3.27318e-06
-4.10059e-09
3.09678e-08
3.29939e-10
-1.30507e-06
-3.98246e-09
-2.43085e-06
-4.73113e-10
-5.98907e-07
-3.38114e-09
1.68038e-06
-5.0054e-09
-2.07464e-05
-6.28537e-09
3.59088e-06
-7.00021e-09
1.58301e-06
7.99208e-07
1.69276e-05
-3.36969e-05
-8.32815e-06
1.53364e-05
6.93122e-06
3.35888e-05
-2.50497e-05
-8.06896e-07
4.72673e-05
-2.30473e-05
4.42252e-05
-4.24837e-05
-1.76253e-05
3.51952e-05
-8.56848e-05
1.75157e-05
-2.20781e-05
-3.25957e-05
2.38625e-05
-1.63221e-05
-5.74376e-05
1.25082e-05
-7.34324e-05
1.923e-05
-1.12358e-05
1.67996e-05
-2.816e-05
-1.33736e-05
3.2379e-05
-9.96527e-06
-3.29661e-05
-6.48386e-06
-2.26327e-05
7.17489e-07
-4.19573e-05
6.68793e-06
-5.6736e-06
-1.03382e-05
-1.0399e-05
-1.70134e-05
-4.71747e-05
3.6483e-05
-5.4124e-05
1.12271e-05
-1.47596e-05
-3.48393e-06
7.81667e-06
-1.15477e-06
-3.88108e-05
-1.79104e-05
-1.26977e-05
-2.37407e-05
-8.52661e-07
-2.15922e-05
-3.31584e-05
-5.24245e-05
-8.18681e-06
1.80819e-05
-4.56248e-06
-5.66173e-06
2.76263e-06
-1.86565e-05
-1.09701e-05
-3.41128e-06
2.22474e-05
1.46609e-05
1.98266e-05
2.73206e-05
-6.92593e-06
-2.09011e-05
-3.75323e-05
-1.10254e-05
-1.1984e-05
1.1375e-05
1.23914e-05
5.76493e-06
-2.41362e-05
-4.89874e-06
-3.30206e-05
-7.89703e-06
-5.35322e-06
-8.25829e-06
-1.07383e-05
9.55926e-06
1.44499e-05
4.05998e-06
-1.41088e-05
1.72391e-06
-9.00639e-06
5.84216e-07
-1.89669e-05
4.97425e-07
-3.79419e-06
7.14467e-06
-4.91974e-06
1.03395e-05
-2.05115e-05
-1.87439e-05
-2.49197e-05
-5.89458e-06
-7.07646e-06
1.86057e-06
4.16991e-06
-7.95342e-07
-1.72621e-05
5.22948e-06
-5.05557e-06
9.91593e-06
-7.12029e-07
1.20473e-05
-1.61218e-05
-2.25855e-05
-4.62696e-06
9.39477e-06
-1.78746e-06
-3.06071e-06
4.25138e-07
-1.04889e-05
-5.00753e-06
-1.9862e-06
6.71696e-06
9.19346e-06
3.79754e-06
1.47434e-05
2.10644e-07
-1.11048e-05
-1.14225e-05
-6.74503e-06
-4.86308e-06
6.70908e-06
2.85431e-06
4.40808e-06
-7.35649e-06
-3.79061e-06
-8.38625e-06
-5.71569e-06
-2.98219e-06
-5.27515e-06
-3.00132e-06
6.52672e-06
2.30506e-06
3.11877e-06
-4.83339e-06
1.86908e-06
-2.12319e-06
4.37719e-07
-6.03196e-06
1.89469e-07
-2.82685e-06
4.37619e-06
-3.29224e-06
5.38705e-06
-5.54688e-06
-1.0294e-05
-8.78404e-06
-3.40286e-06
-1.75925e-06
1.52139e-06
1.85059e-07
-5.93389e-07
-5.20487e-06
2.08003e-06
-3.5116e-07
5.54084e-06
-2.62658e-06
5.70002e-06
-4.53916e-06
-8.11924e-06
-3.8257e-06
5.74268e-06
-2.24979e-06
-6.34843e-06
-1.54369e-06
1.47118e-06
6.65532e-06
-4.72852e-06
-3.38286e-06
2.39364e-06
1.5014e-06
-2.04281e-07
-2.15784e-06
-8.17433e-07
1.67504e-06
1.32544e-06
1.37375e-06
1.65983e-06
5.1362e-07
1.82343e-06
3.23044e-06
-5.89493e-06
-1.74277e-06
-2.50774e-07
-1.32511e-07
2.43949e-06
2.64631e-06
3.87944e-06
7.41018e-09
4.71849e-09
-1.03562e-06
-1.15642e-09
4.81844e-07
8.43736e-09
-1.42651e-06
9.65504e-07
-4.14062e-06
2.15559e-05
-1.41482e-05
9.47332e-06
)
;

boundaryField
{
    top_fluid_surface
    {
        type            calculated;
        value           nonuniform List<scalar> 
64
(
0
0
0
0
0
0
0
0
0
0
2.06682e-09
0
0
0
3.96913e-09
7.45052e-10
1.38892e-08
1.47602e-08
1.40727e-08
1.50045e-08
0
0
1.37676e-08
1.22193e-08
0
9.11334e-09
1.15167e-08
1.08525e-08
7.71666e-09
2.1193e-09
0
5.82605e-09
0
0
0
4.84264e-09
2.77247e-11
4.10451e-09
0
1.69434e-09
3.15754e-09
0
0
1.58468e-09
0
3.88128e-09
1.96697e-09
0
0
0
1.14323e-09
0
0
0
0
0
1.21694e-10
0
0
0
0
0
0
0
)
;
    }
    bottom_fluid_surface
    {
        type            calculated;
        value           uniform 0;
    }
    lateral_surface_1
    {
        type            calculated;
        value           uniform 0;
    }
    lateral_surface_2
    {
        type            calculated;
        value           uniform 0;
    }
    lateral_surface_3
    {
        type            calculated;
        value           uniform 0;
    }
    lateral_surface_4
    {
        type            calculated;
        value           uniform 0;
    }
}


// ************************************************************************* //
