/*--------------------------------*- C++ -*----------------------------------*\
| =========                 |                                                 |
| \\      /  F ield         | OpenFOAM: The Open Source CFD Toolbox           |
|  \\    /   O peration     | Version:  v1612+                                |
|   \\  /    A nd           | Web:      www.OpenFOAM.com                      |
|    \\/     M anipulation  |                                                 |
\*---------------------------------------------------------------------------*/
FoamFile
{
    version     2.0;
    format      ascii;
    class       volScalarField;
    location    "9";
    object      alpha.water;
}
// * * * * * * * * * * * * * * * * * * * * * * * * * * * * * * * * * * * * * //

dimensions      [0 0 0 0 0 0 0];

internalField   nonuniform List<scalar> 
320
(
1
1
1
1
2.13481e-05
2.09163e-05
2.04536e-05
2.05202e-05
2.06153e-05
1.98809e-05
2.06504e-05
2.16664e-05
2.25228e-05
2.15101e-05
2.03217e-05
2.09883e-05
0.999976
0.999976
0.999978
0.999976
0.999976
0.999978
0.999977
0.999976
0.999977
0.99998
0.999989
0.999979
1
1
1
1
1
1
1
1
1
1
1
1
1
1
1
1
1
1
1
1
1
1
1
1
1
1
1
1
2.17109e-05
2.11008e-05
1.94822e-05
2.03589e-05
1.65708e-05
1.58233e-05
1.58233e-05
1.58233e-05
2.03503e-05
2.17808e-05
1.64551e-05
1.68793e-05
2.04496e-05
1.82256e-05
1.76297e-05
1.81153e-05
1.9051e-05
1.99768e-05
2.15624e-05
1.91528e-05
0.999975
0.999977
0.999983
0.999976
0.999988
0.99999
0.999991
0.999991
0.999979
0.999977
0.999991
0.999991
0.999978
0.999989
0.999991
0.999991
0.99999
0.999986
0.999978
0.999987
1
1
1
1
1
1
1
1
1
1
1
1
1
1
1
1
1
1
1
1
1
1
1
1
1
1
1
1
1
1
1
1
1
1
1
1
1
1
1
1
1
1
1
1
1
1
1
1
1
1
1
1
1
1
1
1
1
1
1
1
1
1
1
1
1
1
1
1
1
1
1
1
1
1
1
1
2.14234e-05
2.22332e-05
2.25108e-05
2.00463e-05
2.15977e-05
1.94364e-05
2.19803e-05
1.97786e-05
1.98191e-05
1.95963e-05
2.01374e-05
2.1042e-05
2.04065e-05
1.92227e-05
2.13164e-05
2.11199e-05
2.13012e-05
2.03367e-05
2.01012e-05
2.16044e-05
2.11389e-05
2.15958e-05
2.28492e-05
2.06555e-05
2.0865e-05
2.09797e-05
2.10988e-05
2.29415e-05
0.999978
0.999976
0.999974
0.999983
0.999976
0.999981
0.999972
0.999982
0.999979
0.999975
0.999977
0.999977
0.999972
0.999981
0.999976
0.999975
0.999978
0.99998
0.999982
0.999976
0.999976
0.999976
0.999974
0.999977
0.999978
0.999978
0.999978
0.999971
1
1
1
1
1
1
1
1
1
1
1
1
1
1
1
1
1
1
1
1
1
1
1
1
1
1
1
1
1
1
1
1
1
1
1
1
1
1
1
1
1
1
1
1
1
1
1
1
1
1
1
1
1
1
1
1
1
1
1
1
1
1
1
1
1
1
1
1
1
1
1
1
1
1
1
1
1
1
1
1
1
1
1
1
2.19626e-05
2.14083e-05
2.18238e-05
2.24565e-05
0.999977
0.999975
0.999978
0.999973
)
;

boundaryField
{
    top_fluid_surface
    {
        type            inletOutlet;
        inletValue      uniform 0;
        value           nonuniform List<scalar> 
64
(
0
0
0
0
0
0
0
0
0
0
2.03217e-05
0
0
0
1.94822e-05
2.03589e-05
1.65708e-05
1.58233e-05
1.58233e-05
1.58233e-05
0
0
1.64551e-05
1.68793e-05
0
1.82256e-05
1.76297e-05
1.81153e-05
1.9051e-05
1.99768e-05
0
1.91528e-05
0
0
0
2.00463e-05
2.15977e-05
1.94364e-05
0
1.97786e-05
1.98191e-05
0
0
2.1042e-05
0
1.92227e-05
2.13164e-05
0
0
0
2.01012e-05
0
0
0
0
0
2.0865e-05
0
0
0
0
0
0
0
)
;
    }
    bottom_fluid_surface
    {
        type            zeroGradient;
    }
    lateral_surface_1
    {
        type            zeroGradient;
    }
    lateral_surface_2
    {
        type            zeroGradient;
    }
    lateral_surface_3
    {
        type            zeroGradient;
    }
    lateral_surface_4
    {
        type            zeroGradient;
    }
}


// ************************************************************************* //
