/*--------------------------------*- C++ -*----------------------------------*\
| =========                 |                                                 |
| \\      /  F ield         | OpenFOAM: The Open Source CFD Toolbox           |
|  \\    /   O peration     | Version:  v1612+                                |
|   \\  /    A nd           | Web:      www.OpenFOAM.com                      |
|    \\/     M anipulation  |                                                 |
\*---------------------------------------------------------------------------*/
FoamFile
{
    version     2.0;
    format      ascii;
    class       volScalarField;
    location    "9";
    object      p;
}
// * * * * * * * * * * * * * * * * * * * * * * * * * * * * * * * * * * * * * //

dimensions      [1 -1 -2 0 0 0 0];

internalField   nonuniform List<scalar> 
320
(
14724.8
14724.8
14724.8
14724.8
5.00453
5.00447
5.00433
5.00386
5.00368
5.00376
5.00413
5.00425
5.00522
5.00493
5.00529
5.00454
4914.91
4914.9
4914.91
4914.9
4914.9
4914.9
4914.9
4914.91
4914.93
4914.93
4914.92
4914.92
14724.8
14724.8
14724.8
14724.8
14724.8
14724.8
14724.8
14724.8
14724.8
14724.8
14724.8
14724.8
24534.8
24534.8
24534.8
24534.8
24534.8
24534.8
24534.8
24534.8
24534.8
24534.8
24534.8
24534.8
24534.8
24534.8
24534.8
24534.8
5.00469
5.00484
5.00485
5.00327
5.00476
5.00502
5.00369
5.0034
5.00268
5.00219
5.00521
5.00455
5.004
5.00484
5.00537
5.00559
5.00559
5.00523
5.00514
5.0044
4914.91
4914.91
4914.88
4914.85
4914.86
4914.86
4914.87
4914.87
4914.91
4914.89
4914.88
4914.88
4914.9
4914.89
4914.89
4914.9
4914.9
4914.9
4914.92
4914.89
14724.8
14724.8
14724.8
14724.8
14724.8
14724.8
14724.8
14724.8
14724.8
14724.8
14724.8
14724.8
14724.8
14724.8
14724.8
14724.8
14724.8
14724.8
14724.8
14724.8
24534.8
24534.8
24534.8
24534.8
24534.8
24534.8
24534.8
24534.8
24534.8
24534.8
24534.8
24534.8
24534.8
24534.8
24534.8
24534.8
24534.8
24534.8
24534.8
24534.8
34344.8
34344.8
34344.8
34344.8
34344.8
34344.8
34344.8
34344.8
34344.8
34344.8
34344.8
34344.8
34344.8
34344.8
34344.8
34344.8
34344.8
34344.8
34344.8
34344.8
34344.8
34344.8
34344.8
34344.8
34344.8
34344.8
34344.8
34344.8
34344.8
34344.8
34344.8
34344.8
34344.8
34344.8
34344.8
34344.8
5.00492
5.00491
5.00554
5.00396
5.00075
5.00521
5.0062
5.00604
5.00528
5.00336
5.00234
4.99963
5.00579
5.00446
5.0014
5.00651
5.00503
5.0041
5.00477
5.00513
5.00505
5.00558
5.00581
5.00605
5.0042
5.00728
5.00459
5.00456
4914.92
4914.92
4914.92
4914.88
4914.84
4914.86
4914.89
4914.88
4914.87
4914.88
4914.9
4914.83
4914.87
4914.87
4914.83
4914.9
4914.92
4914.91
4914.88
4914.91
4914.9
4914.91
4914.92
4914.9
4914.86
4914.92
4914.91
4914.91
14724.8
14724.8
14724.8
14724.8
14724.8
14724.8
14724.8
14724.8
14724.8
14724.8
14724.8
14724.8
14724.8
14724.8
14724.8
14724.8
14724.8
14724.8
14724.8
14724.8
14724.8
14724.8
14724.8
14724.8
14724.8
14724.8
14724.8
14724.8
24534.8
24534.8
24534.8
24534.8
24534.8
24534.8
24534.8
24534.8
24534.8
24534.8
24534.8
24534.8
24534.8
24534.8
24534.8
24534.8
24534.8
24534.8
24534.8
24534.8
24534.8
24534.8
24534.8
24534.8
24534.8
24534.8
24534.8
24534.8
34344.8
34344.7
34344.8
34344.8
34344.8
34344.8
34344.8
34344.8
34344.8
34344.8
34344.8
34344.8
34344.8
34344.8
34344.8
34344.8
34344.8
34344.8
34344.8
34344.8
34344.8
34344.8
34344.8
34344.8
34344.8
34344.8
34344.8
34344.9
5.00462
5.00408
5.00459
5.00417
4914.92
4914.9
4914.92
4914.91
)
;

boundaryField
{
    top_fluid_surface
    {
        type            calculated;
        value           nonuniform List<scalar> 
64
(
-1.10924e-08
-5.48337e-09
-7.53771e-10
-5.97495e-10
-3.93592e-09
0
-5.06006e-09
-1.21463e-08
-3.20858e-08
-1.07277e-08
0
-4.66377e-09
-8.89868e-09
-6.27225e-09
0
0
0
0
0
0
-2.39517e-10
-4.65282e-09
0
0
-4.76329e-09
0
0
0
0
0
-1.01816e-08
0
-6.36431e-09
-1.49361e-08
-2.20043e-08
0
-1.07604e-09
0
-2.52088e-08
0
0
-1.95241e-09
-8.10844e-09
0
-3.90177e-10
0
0
-4.9556e-09
-1.39391e-08
-6.49552e-10
0
-1.46926e-08
-9.63163e-09
-5.77298e-09
-2.19565e-08
-1.35057e-09
-3.18855e-10
-1.66946e-09
-8.58602e-09
-5.6414e-08
-2.07736e-08
-7.80803e-09
-8.22058e-09
-2.72489e-08
)
;
    }
    bottom_fluid_surface
    {
        type            calculated;
        value           nonuniform List<scalar> 
64
(
39249.8
39249.8
39249.8
39249.8
39249.8
39249.8
39249.8
39249.8
39249.8
39249.8
39249.8
39249.8
39249.8
39249.8
39249.8
39249.8
39249.8
39249.8
39249.8
39249.8
39249.8
39249.8
39249.8
39249.8
39249.8
39249.8
39249.8
39249.8
39249.8
39249.8
39249.8
39249.8
39249.8
39249.8
39249.8
39249.8
39249.8
39249.7
39249.8
39249.8
39249.8
39249.8
39249.8
39249.8
39249.8
39249.8
39249.8
39249.8
39249.8
39249.8
39249.8
39249.8
39249.8
39249.8
39249.8
39249.8
39249.8
39249.8
39249.8
39249.8
39249.8
39249.8
39249.8
39249.9
)
;
    }
    lateral_surface_1
    {
        type            calculated;
        value           nonuniform List<scalar> 
40
(
5.00492
5.00491
5.00554
5.00396
5.00075
5.00521
5.0062
5.00456
4914.92
4914.92
4914.92
4914.88
4914.84
4914.86
4914.89
4914.91
14724.8
14724.8
14724.8
14724.8
14724.8
14724.8
14724.8
14724.8
24534.8
24534.8
24534.8
24534.8
24534.8
24534.8
24534.8
24534.8
34344.8
34344.7
34344.8
34344.8
34344.8
34344.8
34344.8
34344.9
)
;
    }
    lateral_surface_2
    {
        type            calculated;
        value           nonuniform List<scalar> 
40
(
5.00446
5.0014
5.00651
5.00503
5.0041
5.00477
5.00513
5.00505
4914.87
4914.83
4914.9
4914.92
4914.91
4914.88
4914.91
4914.9
14724.8
14724.8
14724.8
14724.8
14724.8
14724.8
14724.8
14724.8
24534.8
24534.8
24534.8
24534.8
24534.8
24534.8
24534.8
24534.8
34344.8
34344.8
34344.8
34344.8
34344.8
34344.8
34344.8
34344.8
)
;
    }
    lateral_surface_3
    {
        type            calculated;
        value           nonuniform List<scalar> 
40
(
5.0062
5.00604
5.00528
5.00336
5.00234
4.99963
5.00579
5.00446
4914.89
4914.88
4914.87
4914.88
4914.9
4914.83
4914.87
4914.87
14724.8
14724.8
14724.8
14724.8
14724.8
14724.8
14724.8
14724.8
24534.8
24534.8
24534.8
24534.8
24534.8
24534.8
24534.8
24534.8
34344.8
34344.8
34344.8
34344.8
34344.8
34344.8
34344.8
34344.8
)
;
    }
    lateral_surface_4
    {
        type            calculated;
        value           nonuniform List<scalar> 
40
(
5.00505
5.00558
5.00581
5.00605
5.0042
5.00728
5.00459
5.00456
4914.9
4914.91
4914.92
4914.9
4914.86
4914.92
4914.91
4914.91
14724.8
14724.8
14724.8
14724.8
14724.8
14724.8
14724.8
14724.8
24534.8
24534.8
24534.8
24534.8
24534.8
24534.8
24534.8
24534.8
34344.8
34344.8
34344.8
34344.8
34344.8
34344.8
34344.8
34344.9
)
;
    }
}


// ************************************************************************* //
