/*--------------------------------*- C++ -*----------------------------------*\
| =========                 |                                                 |
| \\      /  F ield         | OpenFOAM: The Open Source CFD Toolbox           |
|  \\    /   O peration     | Version:  v1612+                                |
|   \\  /    A nd           | Web:      www.OpenFOAM.com                      |
|    \\/     M anipulation  |                                                 |
\*---------------------------------------------------------------------------*/
FoamFile
{
    version     2.0;
    format      ascii;
    class       volScalarField;
    location    "9";
    object      p_rgh;
}
// * * * * * * * * * * * * * * * * * * * * * * * * * * * * * * * * * * * * * //

dimensions      [1 -1 -2 0 0 0 0];

internalField   nonuniform List<scalar> 
320
(
-9800.2
-9800.2
-9800.19
-9800.2
-0.00507931
-0.00302487
-0.000897036
-0.00169083
-0.00233877
0.00134306
-0.00205656
-0.00691852
-0.0101435
-0.00546711
0.0007114
-0.00330309
-9799.74
-9799.75
-9799.77
-9799.75
-9799.75
-9799.78
-9799.76
-9799.74
-9799.74
-9799.78
-9799.92
-9799.78
-9800.2
-9800.21
-9800.21
-9800.21
-9800.21
-9800.21
-9800.21
-9800.2
-9800.19
-9800.19
-9800.18
-9800.2
-9800.2
-9800.2
-9800.2
-9800.2
-9800.2
-9800.21
-9800.21
-9800.2
-9800.21
-9800.2
-9800.2
-9800.2
-9800.2
-9800.19
-9800.19
-9800.2
-0.00669663
-0.00356091
0.00438257
-0.0014952
0.0185584
0.0224875
0.0211553
0.0208616
-0.00204094
-0.00953721
0.0195794
0.0168414
-0.0012052
0.0105379
0.013983
0.0118265
0.00723673
0.00234193
-0.00551677
0.00554637
-9799.72
-9799.76
-9799.87
-9799.79
-9799.97
-9799.99
-9800
-9800
-9799.78
-9799.77
-9800
-9799.99
-9799.77
-9799.95
-9799.98
-9799.97
-9799.95
-9799.89
-9799.75
-9799.92
-9800.2
-9800.19
-9800.21
-9800.22
-9800.2
-9800.2
-9800.2
-9800.2
-9800.21
-9800.21
-9800.19
-9800.18
-9800.19
-9800.18
-9800.18
-9800.18
-9800.18
-9800.19
-9800.19
-9800.19
-9800.21
-9800.19
-9800.2
-9800.22
-9800.21
-9800.2
-9800.2
-9800.2
-9800.21
-9800.2
-9800.2
-9800.19
-9800.2
-9800.19
-9800.19
-9800.19
-9800.19
-9800.19
-9800.19
-9800.18
-9800.2
-9800.2
-9800.2
-9800.2
-9800.2
-9800.21
-9800.21
-9800.21
-9800.2
-9800.2
-9800.2
-9800.2
-9800.2
-9800.2
-9800.19
-9800.2
-9800.21
-9800.19
-9800.19
-9800.21
-9800.21
-9800.21
-9800.21
-9800.2
-9800.21
-9800.2
-9800.19
-9800.2
-9800.2
-9800.19
-9800.19
-9800.2
-9800.19
-9800.19
-9800.19
-9800.17
-0.00505946
-0.00903683
-0.00976968
0.000732791
-0.0100837
0.00496575
-0.0065092
0.00412755
0.00316251
0.00233148
-0.00133595
-0.00848039
0.000797762
0.00526654
-0.00805379
-0.00197471
-0.00435289
-0.000555262
0.00126866
-0.00572883
-0.00353518
-0.00523656
-0.011151
-0.000163091
-0.0030391
-0.000524422
-0.00380062
-0.0128506
-9799.76
-9799.73
-9799.71
-9799.87
-9799.81
-9799.85
-9799.69
-9799.85
-9799.83
-9799.75
-9799.77
-9799.83
-9799.72
-9799.85
-9799.82
-9799.73
-9799.76
-9799.79
-9799.85
-9799.74
-9799.74
-9799.74
-9799.7
-9799.76
-9799.81
-9799.76
-9799.76
-9799.67
-9800.21
-9800.22
-9800.19
-9800.21
-9800.23
-9800.22
-9800.22
-9800.2
-9800.21
-9800.22
-9800.22
-9800.23
-9800.22
-9800.21
-9800.23
-9800.21
-9800.2
-9800.2
-9800.2
-9800.2
-9800.21
-9800.19
-9800.19
-9800.2
-9800.21
-9800.2
-9800.2
-9800.19
-9800.21
-9800.25
-9800.18
-9800.19
-9800.21
-9800.21
-9800.23
-9800.21
-9800.21
-9800.21
-9800.21
-9800.21
-9800.21
-9800.2
-9800.2
-9800.21
-9800.2
-9800.2
-9800.19
-9800.19
-9800.21
-9800.21
-9800.19
-9800.19
-9800.2
-9800.21
-9800.2
-9800.16
-9800.19
-9800.28
-9800.23
-9800.2
-9800.2
-9800.2
-9800.22
-9800.22
-9800.22
-9800.21
-9800.2
-9800.21
-9800.22
-9800.21
-9800.2
-9800.2
-9800.2
-9800.2
-9800.19
-9800.17
-9800.18
-9800.2
-9800.2
-9800.2
-9800.2
-9800.22
-9800.2
-9800.13
-0.00799984
-0.00582425
-0.00735116
-0.0108672
-9799.74
-9799.73
-9799.75
-9799.69
)
;

boundaryField
{
    top_fluid_surface
    {
        type            totalPressure;
        rho             rho;
        psi             none;
        gamma           1;
        p0              uniform 0;
        value           nonuniform List<scalar> 
64
(
-1.10924e-08
-5.48337e-09
-7.53771e-10
-5.97495e-10
-3.93592e-09
0
-5.06006e-09
-1.21463e-08
-3.20858e-08
-1.07277e-08
0
-4.66377e-09
-8.89868e-09
-6.27225e-09
0
0
0
0
0
0
-2.39517e-10
-4.65282e-09
0
0
-4.76329e-09
0
0
0
0
0
-1.01816e-08
0
-6.36431e-09
-1.49361e-08
-2.20043e-08
0
-1.07604e-09
0
-2.52088e-08
0
0
-1.95241e-09
-8.10844e-09
0
-3.90177e-10
0
0
-4.9556e-09
-1.39391e-08
-6.49552e-10
0
-1.46926e-08
-9.63163e-09
-5.77298e-09
-2.19565e-08
-1.35057e-09
-3.18855e-10
-1.66946e-09
-8.58602e-09
-5.6414e-08
-2.07736e-08
-7.80803e-09
-8.22058e-09
-2.72489e-08
)
;
    }
    bottom_fluid_surface
    {
        type            fixedFluxPressure;
        gradient        uniform 0;
        value           nonuniform List<scalar> 
64
(
-9800.2
-9800.2
-9800.2
-9800.2
-9800.2
-9800.21
-9800.21
-9800.21
-9800.2
-9800.2
-9800.2
-9800.2
-9800.2
-9800.2
-9800.19
-9800.2
-9800.21
-9800.19
-9800.19
-9800.21
-9800.21
-9800.21
-9800.21
-9800.2
-9800.21
-9800.2
-9800.19
-9800.2
-9800.2
-9800.19
-9800.19
-9800.2
-9800.19
-9800.19
-9800.19
-9800.17
-9800.19
-9800.28
-9800.23
-9800.2
-9800.2
-9800.2
-9800.22
-9800.22
-9800.22
-9800.21
-9800.2
-9800.21
-9800.22
-9800.21
-9800.2
-9800.2
-9800.2
-9800.2
-9800.19
-9800.17
-9800.18
-9800.2
-9800.2
-9800.2
-9800.2
-9800.22
-9800.2
-9800.13
)
;
    }
    lateral_surface_1
    {
        type            fixedFluxPressure;
        gradient        uniform 0;
        value           nonuniform List<scalar> 
40
(
-0.00505946
-0.00903683
-0.00976968
0.000732791
-0.0100837
0.00496575
-0.0065092
-0.0128506
-9799.76
-9799.73
-9799.71
-9799.87
-9799.81
-9799.85
-9799.69
-9799.67
-9800.21
-9800.22
-9800.19
-9800.21
-9800.23
-9800.22
-9800.22
-9800.19
-9800.21
-9800.25
-9800.18
-9800.19
-9800.21
-9800.21
-9800.23
-9800.16
-9800.19
-9800.28
-9800.23
-9800.2
-9800.2
-9800.2
-9800.22
-9800.13
)
;
    }
    lateral_surface_2
    {
        type            fixedFluxPressure;
        gradient        uniform 0;
        value           nonuniform List<scalar> 
40
(
0.00526654
-0.00805379
-0.00197471
-0.00435289
-0.000555262
0.00126866
-0.00572883
-0.00353518
-9799.85
-9799.82
-9799.73
-9799.76
-9799.79
-9799.85
-9799.74
-9799.74
-9800.21
-9800.23
-9800.21
-9800.2
-9800.2
-9800.2
-9800.2
-9800.21
-9800.2
-9800.2
-9800.21
-9800.2
-9800.2
-9800.19
-9800.19
-9800.21
-9800.21
-9800.2
-9800.2
-9800.2
-9800.2
-9800.19
-9800.17
-9800.18
)
;
    }
    lateral_surface_3
    {
        type            fixedFluxPressure;
        gradient        uniform 0;
        value           nonuniform List<scalar> 
40
(
-0.0065092
0.00412755
0.00316251
0.00233148
-0.00133595
-0.00848039
0.000797762
0.00526654
-9799.69
-9799.85
-9799.83
-9799.75
-9799.77
-9799.83
-9799.72
-9799.85
-9800.22
-9800.2
-9800.21
-9800.22
-9800.22
-9800.23
-9800.22
-9800.21
-9800.23
-9800.21
-9800.21
-9800.21
-9800.21
-9800.21
-9800.21
-9800.2
-9800.22
-9800.22
-9800.22
-9800.21
-9800.2
-9800.21
-9800.22
-9800.21
)
;
    }
    lateral_surface_4
    {
        type            fixedFluxPressure;
        gradient        uniform 0;
        value           nonuniform List<scalar> 
40
(
-0.00353518
-0.00523656
-0.011151
-0.000163091
-0.0030391
-0.000524422
-0.00380062
-0.0128506
-9799.74
-9799.74
-9799.7
-9799.76
-9799.81
-9799.76
-9799.76
-9799.67
-9800.21
-9800.19
-9800.19
-9800.2
-9800.21
-9800.2
-9800.2
-9800.19
-9800.21
-9800.21
-9800.19
-9800.19
-9800.2
-9800.21
-9800.2
-9800.16
-9800.18
-9800.2
-9800.2
-9800.2
-9800.2
-9800.22
-9800.2
-9800.13
)
;
    }
}


// ************************************************************************* //
