/*--------------------------------*- C++ -*----------------------------------*\
| =========                 |                                                 |
| \\      /  F ield         | OpenFOAM: The Open Source CFD Toolbox           |
|  \\    /   O peration     | Version:  v1612+                                |
|   \\  /    A nd           | Web:      www.OpenFOAM.com                      |
|    \\/     M anipulation  |                                                 |
\*---------------------------------------------------------------------------*/
FoamFile
{
    version     2.0;
    format      ascii;
    class       surfaceScalarField;
    location    "9";
    object      phi;
}
// * * * * * * * * * * * * * * * * * * * * * * * * * * * * * * * * * * * * * //

dimensions      [0 3 -1 0 0 0 0];

internalField   nonuniform List<scalar> 
816
(
6.96165e-08
-1.12884e-05
6.52988e-06
-1.75878e-05
-1.82197e-05
4.04959e-05
6.17655e-06
2.43857e-06
-1.262e-05
-1.0921e-06
5.16551e-06
-7.26032e-06
1.77604e-07
-8.4108e-07
2.6333e-06
-6.00125e-06
-1.16802e-05
2.55595e-06
-2.77489e-06
1.08173e-05
0.000547352
-0.000338289
2.45142e-06
-0.000107028
0.000145876
0.000667034
-1.01163e-06
0.000129254
-8.17655e-05
7.09379e-05
3.63267e-06
-8.80955e-05
0.00074592
9.01e-05
5.79937e-06
0.0006016
-0.000548751
0.000240906
6.14885e-06
0.000574409
-0.000590988
-0.00032524
8.65953e-07
0.000291524
0.000267965
-0.000299442
5.04286e-06
0.000310194
-0.000189885
-2.27596e-05
4.85324e-08
0.000212797
-0.000198835
-0.000141789
-3.57862e-06
0.00046979
0.00010068
-3.16915e-05
8.20281e-07
4.56932e-05
9.65067e-05
-0.000178786
2.04742e-06
-1.00531e-05
5.1417e-05
3.64964e-06
-0.000198877
-0.000162546
2.27053e-05
-2.93096e-06
-3.16771e-05
-9.17905e-08
1.43295e-05
3.7608e-05
-4.23331e-05
2.56652e-05
5.32042e-07
-1.30374e-06
-3.79457e-06
1.94421e-06
4.52901e-05
-6.98535e-06
1.99912e-05
7.22387e-06
-1.73577e-05
1.46777e-05
-1.65221e-05
1.64654e-05
-1.59509e-05
-1.23239e-06
-2.42072e-05
1.03194e-05
3.15504e-05
8.6669e-06
-3.12453e-05
1.78889e-05
6.94722e-06
2.74196e-05
-1.05495e-05
-1.00231e-05
2.07688e-06
8.17772e-06
-5.35716e-05
2.70535e-05
4.27094e-05
2.66895e-05
-3.12347e-05
1.76251e-05
-4.12008e-06
-1.68054e-05
6.88516e-05
9.84629e-06
-3.34189e-05
-1.77061e-05
-3.65723e-06
4.63145e-06
-1.13423e-05
1.19243e-06
-1.59282e-05
9.29478e-07
-2.2404e-05
-1.82878e-05
-1.05837e-05
-4.04487e-07
-2.06606e-06
-5.7541e-08
-2.36372e-05
3.11078e-06
9.12454e-06
-5.2496e-06
-7.1358e-06
-6.94901e-06
-1.10276e-05
2.15514e-06
-1.21585e-05
-6.05103e-06
-1.52889e-05
-1.40128e-06
-1.50398e-05
-1.01054e-05
-1.16689e-05
-4.16666e-06
4.05595e-06
-5.94795e-06
-2.47536e-05
-1.43878e-05
-2.01562e-05
-1.59662e-05
-1.47758e-05
-7.29513e-06
8.35562e-06
2.89199e-05
-1.97953e-06
-9.42687e-06
2.81956e-06
-1.562e-06
-1.05425e-06
-6.08021e-06
3.95879e-06
-9.08551e-06
-5.96273e-06
3.22057e-06
1.32663e-06
-8.12174e-06
1.43107e-06
-4.03627e-06
5.8272e-07
-4.41421e-07
4.42145e-07
-6.32679e-06
1.06999e-06
1.66601e-06
-6.02173e-06
1.39677e-07
-3.72724e-07
-5.73029e-06
-1.26465e-05
-6.95108e-06
-3.41919e-06
-4.86342e-07
-5.3428e-07
-1.3217e-05
-4.4607e-07
2.94512e-06
-2.67488e-06
2.68523e-07
-3.15459e-06
-5.29713e-06
-1.9014e-06
1.3759e-06
-3.83088e-06
-8.83191e-06
-4.03641e-06
-9.11279e-07
-5.75655e-06
-5.97784e-06
-5.59885e-06
3.04369e-06
-1.94828e-06
-2.52148e-06
-9.0838e-06
-1.13508e-05
-7.4022e-06
-8.95696e-06
-4.41418e-06
-4.36093e-06
3.93673e-06
-1.28039e-06
8.23072e-06
6.41095e-07
-2.03679e-06
-4.00104e-06
0.000296108
-5.85962e-05
3.60679e-09
-0.000171717
0.00055635
-2.35314e-07
-0.000184654
0.000520902
-1.208e-05
-2.02897e-05
0.000564629
-1.2007e-05
-0.000127198
0.000169267
2.22273e-06
-0.000343661
-5.4029e-05
-2.62391e-05
4.36562e-06
-1.92847e-05
-0.000277047
5.86304e-06
-6.42331e-05
-0.000517123
2.24896e-07
-0.000141454
-0.000255096
-1.42055e-05
0.000103217
0.000149355
-4.28272e-06
-0.000148159
-9.95061e-05
-0.000196646
1.3468e-06
-0.000202827
-0.000429836
7.44759e-06
-0.000216517
-0.000105377
5.40154e-06
2.66315e-06
-0.00011458
-1.7592e-06
-1.63228e-05
-5.19039e-05
-4.94889e-06
-0.000298553
-0.000402757
-0.000247594
-7.89345e-06
-0.000281372
-0.000407931
-3.51033e-06
-0.00018779
-0.000351599
-3.43064e-06
-0.000172944
-0.00011536
8.31806e-06
-0.000148636
2.78049e-06
-0.000255309
-0.000227194
-1.4462e-05
9.06784e-06
-1.64842e-06
3.78842e-06
1.69588e-05
-3.11365e-05
-5.49686e-09
1.33063e-05
2.36239e-06
2.14032e-05
1.23021e-05
-7.49097e-06
6.86368e-06
2.10759e-05
6.65892e-05
-4.09278e-05
-3.33023e-05
-3.57626e-06
8.61131e-05
-1.32093e-05
-2.52743e-05
8.42348e-05
-5.00863e-05
-5.65325e-05
0.000107867
-5.62928e-05
-2.87422e-05
-9.3804e-06
-4.77689e-06
4.13938e-05
-1.87347e-05
-3.15017e-05
-1.66707e-05
-5.44353e-06
9.26208e-05
-1.66841e-05
-3.49243e-05
9.14169e-05
-3.83318e-05
1.67644e-05
-5.15535e-05
-4.87961e-06
5.97251e-06
5.81745e-05
-2.15764e-05
3.05709e-05
6.20522e-05
-5.49933e-05
-3.60491e-05
-5.78938e-06
7.67148e-05
-5.45684e-06
-3.55573e-05
7.48386e-05
-3.19793e-05
-2.78645e-05
1.87378e-05
-1.78504e-05
-2.69518e-06
-9.08854e-06
-6.15769e-06
7.02715e-05
-2.4683e-05
-3.65594e-05
8.60168e-06
-6.05397e-06
3.78187e-07
-1.75884e-06
-8.19617e-06
-1.50013e-05
1.65293e-06
-8.86252e-06
2.39322e-06
-1.00425e-05
-6.67882e-06
-3.4336e-06
-6.29444e-06
-1.44264e-05
3.07347e-05
2.34616e-05
2.02114e-05
-9.18916e-07
3.80496e-05
1.09386e-05
1.32303e-05
3.7144e-05
2.76517e-05
3.28751e-05
4.74303e-05
2.97568e-05
1.89467e-05
-4.62069e-06
3.12789e-06
-2.35564e-05
-6.9484e-06
1.73541e-05
1.33965e-05
1.93723e-06
4.0618e-05
1.1244e-05
2.1505e-05
3.98396e-05
2.19153e-05
-5.16689e-06
-2.26836e-05
1.86207e-06
-3.16001e-07
2.67462e-05
1.21744e-05
-1.67052e-05
2.7674e-05
2.98852e-05
2.08706e-05
2.30471e-06
3.31681e-05
4.38982e-06
1.76585e-05
3.32278e-05
1.89408e-05
1.1567e-05
9.16387e-06
1.36799e-05
3.23579e-07
-4.20456e-06
4.84182e-06
3.18018e-05
1.35517e-05
1.92105e-05
4.99983e-06
-3.45628e-06
1.08608e-06
-1.62424e-06
-4.89276e-06
-4.96572e-06
-3.95212e-07
-5.53782e-06
2.83541e-06
-6.80359e-06
-3.15218e-06
-1.60192e-06
-4.79444e-06
-7.18532e-06
1.04926e-05
1.26426e-05
1.16023e-05
-5.26314e-07
1.4052e-05
4.14568e-06
7.13213e-06
1.21732e-05
1.46334e-05
1.70227e-05
1.57557e-05
1.64674e-05
9.38262e-06
-1.30914e-06
5.26267e-07
-1.23831e-05
3.85326e-07
8.22974e-06
6.26246e-06
2.20979e-06
1.15835e-05
5.57751e-06
1.18837e-05
1.2959e-05
1.14223e-05
-3.78464e-06
-4.68321e-06
7.17363e-07
-4.84164e-07
8.44641e-06
5.91983e-06
-9.09886e-06
8.18376e-06
1.61704e-05
1.18785e-05
1.15805e-06
1.04288e-05
1.11519e-06
9.36582e-06
1.04739e-05
1.01623e-05
5.75973e-06
4.04579e-06
7.45768e-06
-8.01053e-07
-1.08067e-06
1.42889e-06
8.80985e-06
7.32409e-06
1.15429e-05
-1.00191e-06
-3.69168e-06
2.68366e-06
-3.95315e-06
2.80213e-06
-7.96248e-08
-2.3002e-06
-4.56635e-06
-4.08031e-07
1.72084e-06
-3.45904e-06
3.39172e-06
-6.13576e-06
2.24187e-06
8.18039e-07
-6.59209e-06
-3.11017e-06
-3.6141e-07
6.73965e-07
-7.41017e-06
-1.35319e-07
-2.25947e-06
-1.65951e-06
-3.84175e-06
7.68937e-07
-2.21382e-06
-4.26574e-06
-1.88532e-07
-1.66446e-06
-2.98498e-06
4.23893e-07
-2.16936e-06
-3.14433e-06
-5.08177e-06
-3.95476e-06
-8.62723e-07
1.73794e-06
-1.38185e-06
-5.22798e-07
4.86662e-07
1.44704e-06
-8.08394e-07
-4.0291e-08
-3.54243e-06
9.80914e-07
-1.89528e-06
-1.84682e-06
-2.14999e-06
-6.60627e-07
-2.97767e-06
5.18777e-06
6.0782e-06
7.74666e-07
2.82557e-06
4.1585e-06
6.50668e-06
9.23777e-06
6.79246e-06
4.4933e-06
1.14897e-06
-3.96459e-06
4.21398e-06
4.58117e-06
1.1013e-06
2.27136e-06
6.03497e-06
6.35085e-06
2.01675e-07
1.57523e-06
1.07688e-06
4.48742e-06
-3.83014e-06
7.30263e-06
5.80874e-06
2.04757e-07
1.22079e-06
4.46706e-06
5.34345e-06
4.12264e-06
3.00715e-06
9.85897e-07
2.58372e-06
4.05849e-06
5.27281e-06
0.000238313
-0.00028146
-3.37363e-08
0.000414503
1.57543e-06
0.000649617
-1.10917e-05
0.00046171
-1.89688e-05
0.000408408
1.46147e-05
-8.30359e-05
5.06436e-06
0.000288611
-5.82834e-06
0.00013289
-5.90512e-06
-4.41537e-05
-1.22723e-05
-8.67093e-05
7.0872e-06
-6.64836e-05
6.82154e-08
4.3139e-05
2.6712e-06
3.53768e-05
1.38271e-06
-0.000164308
-1.23408e-05
-0.000258282
-7.4406e-06
-0.000211659
3.11757e-09
-0.000164811
4.17697e-06
-0.000118645
4.86116e-06
-0.000179166
-6.08842e-06
-0.000194852
1.0717e-06
1.44415e-05
-1.04838e-06
-0.000176509
-3.8551e-06
-2.95888e-05
-6.47809e-07
-0.000139399
-7.60569e-06
-0.00027453
-6.67945e-06
-0.000270468
-1.9141e-07
-0.000305561
5.64761e-06
2.27251e-06
1.69512e-05
-3.35698e-05
-8.197e-06
1.53714e-05
7.03178e-06
3.37677e-05
-2.52562e-05
4.88968e-08
4.73491e-05
-2.35348e-05
4.37333e-05
-4.26619e-05
-1.77316e-05
3.53236e-05
-8.58294e-05
1.75433e-05
-2.213e-05
-3.26203e-05
2.37781e-05
-1.64931e-05
-5.7625e-05
1.31109e-05
-7.34097e-05
1.88416e-05
-1.17805e-05
1.68181e-05
-2.85102e-05
-1.30086e-05
3.22559e-05
-1.06653e-05
-3.3453e-05
-6.63513e-06
-2.26379e-05
8.04988e-07
-4.18776e-05
6.76886e-06
-5.66784e-06
-1.03758e-05
-1.04684e-05
-1.70172e-05
-4.7232e-05
3.6387e-05
-5.41909e-05
1.1225e-05
-1.48922e-05
-3.44732e-06
7.62617e-06
-6.8675e-07
-3.89034e-05
-1.83382e-05
-1.29627e-05
-2.37378e-05
-7.69294e-07
-2.15531e-05
-3.32334e-05
-5.28409e-05
-8.0941e-06
1.79032e-05
-4.51172e-06
-5.99749e-06
3.11408e-06
-1.83987e-05
-1.10453e-05
-3.21632e-06
2.20667e-05
1.4582e-05
1.96028e-05
2.7266e-05
-6.98897e-06
-2.10298e-05
-3.75179e-05
-1.09623e-05
-1.19155e-05
1.14698e-05
1.22589e-05
5.75065e-06
-2.42951e-05
-4.824e-06
-3.31011e-05
-7.99324e-06
-5.47404e-06
-8.28458e-06
-1.08288e-05
9.66684e-06
1.43143e-05
3.95422e-06
-1.44167e-05
1.59947e-06
-9.10204e-06
5.43494e-07
-1.89055e-05
4.89408e-07
-3.74196e-06
7.16671e-06
-4.97545e-06
1.04337e-05
-2.06419e-05
-1.88992e-05
-2.48898e-05
-5.94458e-06
-6.89818e-06
1.94481e-06
4.19629e-06
-6.72543e-07
-1.7356e-05
5.17908e-06
-5.16895e-06
9.88259e-06
-6.41441e-07
1.19734e-05
-1.6096e-05
-2.28902e-05
-4.23865e-06
8.89864e-06
-1.96862e-06
-3.80909e-06
7.29528e-07
-1.03839e-05
-4.56672e-06
-1.82775e-06
6.84075e-06
9.28434e-06
3.71372e-06
1.4837e-05
4.76092e-08
-1.12553e-05
-1.1507e-05
-6.79277e-06
-4.75713e-06
6.71358e-06
2.94675e-06
4.42968e-06
-7.34504e-06
-3.75058e-06
-8.43144e-06
-5.70976e-06
-3.02577e-06
-5.43049e-06
-2.94818e-06
6.52279e-06
2.47135e-06
3.2239e-06
-4.81364e-06
1.84374e-06
-2.19997e-06
3.78657e-07
-6.06012e-06
1.1545e-07
-2.77844e-06
4.34139e-06
-3.26342e-06
5.62975e-06
-5.70022e-06
-1.0291e-05
-9.08389e-06
-3.59721e-06
-1.85164e-06
1.49764e-06
2.7012e-07
-4.76056e-07
-5.14824e-06
2.15945e-06
-3.43405e-07
5.43329e-06
-2.55061e-06
5.32133e-06
-4.5051e-06
-8.51387e-06
-2.93598e-06
5.05418e-06
-2.872e-06
-6.56021e-06
-1.59116e-06
1.49568e-06
6.82045e-06
-4.70285e-06
-3.432e-06
2.31314e-06
1.46583e-06
-1.58598e-07
-2.03507e-06
-8.79077e-07
1.53532e-06
1.31395e-06
1.39406e-06
1.68136e-06
4.27499e-07
1.60112e-06
3.32948e-06
-5.67445e-06
-1.78131e-06
-3.00213e-07
-8.38515e-08
2.59643e-06
2.50454e-06
3.06778e-06
0.00034266
0.000216653
-3.66547e-06
-5.03382e-05
1.93128e-06
0.000386139
-3.43226e-06
2.76654e-06
-4.00212e-06
2.1538e-05
-1.42065e-05
9.61251e-06
)
;

boundaryField
{
    top_fluid_surface
    {
        type            calculated;
        value           nonuniform List<scalar> 
64
(
-0.000250303
-0.000166053
-6.46825e-05
-7.51946e-05
-0.000142973
4.49209e-06
-0.000147732
-0.000293695
-0.000448273
-0.000252346
0.000104243
-0.000160956
-0.000265742
-0.000182074
0.000196318
1.0243e-05
0.000843231
0.000966856
0.000905707
0.000949985
-6.03832e-05
-0.000132449
0.000867371
0.000746066
-0.000123561
0.000496684
0.000644113
0.000585582
0.000395715
0.000107594
-0.000254218
0.000298418
-0.000211972
-0.000349299
-0.000406503
0.000190046
-4.79344e-05
0.00021846
-0.000355895
0.000114006
0.000163969
-3.27752e-05
-0.000160084
5.23541e-06
-1.53363e-05
0.000219059
2.29276e-05
-0.000170405
-0.000271646
-5.16223e-05
5.00691e-05
-0.000283425
-0.000207893
-0.000207456
-0.000427949
-7.08402e-05
-3.81755e-05
-0.000109758
-0.000206767
-0.000589874
-0.000360006
-0.000242964
-0.000270209
-0.000452
)
;
    }
    bottom_fluid_surface
    {
        type            calculated;
        value           uniform 0;
    }
    lateral_surface_1
    {
        type            calculated;
        value           uniform 0;
    }
    lateral_surface_2
    {
        type            calculated;
        value           uniform 0;
    }
    lateral_surface_3
    {
        type            calculated;
        value           uniform 0;
    }
    lateral_surface_4
    {
        type            calculated;
        value           uniform 0;
    }
}


// ************************************************************************* //
