/*--------------------------------*- C++ -*----------------------------------*\
| =========                 |                                                 |
| \\      /  F ield         | OpenFOAM: The Open Source CFD Toolbox           |
|  \\    /   O peration     | Version:  v1612+                                |
|   \\  /    A nd           | Web:      www.OpenFOAM.com                      |
|    \\/     M anipulation  |                                                 |
\*---------------------------------------------------------------------------*/
FoamFile
{
    version     2.0;
    format      ascii;
    class       volVectorField;
    location    "9";
    object      U;
}
// * * * * * * * * * * * * * * * * * * * * * * * * * * * * * * * * * * * * * //

dimensions      [0 1 -1 0 0 0 0];

internalField   nonuniform List<vector> 
320
(
(9.59869e-06 -1.37371e-05 2.6822e-05)
(-9.37014e-06 -9.10019e-06 6.35496e-06)
(-1.73326e-05 -7.72652e-06 -4.25793e-06)
(2.27603e-06 2.12778e-05 1.1762e-05)
(0.000604423 -5.69459e-06 -0.000148946)
(0.000471638 -0.000234897 -0.000104722)
(0.000869633 -2.21345e-05 -3.88271e-05)
(0.000731658 0.000147195 -3.45686e-05)
(0.00083384 4.85819e-05 -8.87234e-05)
(0.000333552 0.000415343 -1.54386e-05)
(0.000278817 0.00047777 -0.000100599)
(0.00035496 0.000206628 -0.000155861)
(-0.000323195 0.000508047 -0.000253321)
(-0.000227819 -0.000180778 -0.000146476)
(-0.000218917 0.000222286 9.24408e-05)
(6.5694e-05 0.000188785 -9.65792e-05)
(2.1931e-05 -8.46515e-07 4.26563e-05)
(2.13058e-05 -1.42089e-05 4.54151e-05)
(5.89171e-05 -1.40569e-06 5.65285e-06)
(2.71696e-05 -2.05623e-06 -1.76328e-05)
(4.36323e-05 -1.08273e-05 2.21957e-05)
(1.64256e-05 4.12011e-05 3.36591e-05)
(-1.43288e-05 2.87662e-05 4.33794e-05)
(-3.48456e-06 -1.75628e-05 1.78799e-05)
(-5.38883e-05 4.15933e-05 6.5394e-05)
(-3.91616e-05 -5.75356e-05 3.88255e-05)
(-4.70317e-05 6.97365e-06 -8.4954e-05)
(-1.60275e-05 2.46e-05 2.48182e-05)
(-1.02174e-05 5.38211e-07 2.27472e-05)
(-1.21527e-05 4.6231e-06 3.65453e-05)
(-3.42874e-05 -1.80224e-06 2.86323e-06)
(-1.77453e-05 6.91853e-07 -2.13696e-05)
(-2.68937e-05 6.19733e-06 1.15662e-05)
(-9.17154e-06 -2.16439e-05 1.61875e-05)
(4.55403e-06 -1.69873e-05 2.0943e-05)
(-1.63993e-06 7.89101e-06 4.28562e-06)
(2.5672e-05 -2.17213e-05 4.09103e-05)
(1.89464e-05 3.25157e-05 2.58765e-05)
(2.31142e-05 -1.99833e-06 -4.7477e-05)
(7.45705e-06 -1.32063e-05 1.29012e-05)
(4.94148e-06 -7.94354e-06 9.88788e-06)
(-6.8092e-06 -5.2202e-06 -3.76427e-06)
(-9.57852e-06 -4.35536e-06 -7.71358e-07)
(1.23346e-06 1.14615e-05 -5.54683e-06)
(-4.97557e-06 2.79659e-07 8.49709e-06)
(-7.27865e-06 2.81207e-06 1.56266e-06)
(-1.8656e-05 -1.72051e-06 7.36895e-07)
(-1.01647e-05 5.68211e-07 2.32811e-06)
(-1.44368e-05 5.47356e-06 2.10787e-06)
(-5.58731e-06 -1.2256e-05 7.07359e-06)
(3.01974e-06 -9.68119e-06 8.39736e-06)
(-1.35936e-06 5.3246e-06 4.05201e-06)
(1.3196e-05 -1.32622e-05 9.9874e-06)
(1.0427e-05 1.77613e-05 4.28405e-06)
(1.21728e-05 -6.17633e-07 -1.28148e-05)
(4.67434e-06 -6.60088e-06 4.96568e-06)
(-0.000139899 0.000180231 -0.000133407)
(0.000731211 0.000210827 -0.000112002)
(0.000397533 -2.1886e-05 0.000113891)
(0.000589364 0.000200489 1.06088e-05)
(0.000505492 0.000435256 0.00046537)
(0.000558821 -9.39069e-05 0.00054058)
(0.000451596 1.9037e-05 0.000500991)
(0.000359828 -0.00053828 0.000547549)
(0.000313252 -0.000515056 -2.18869e-05)
(-0.000105111 5.77046e-05 -9.64657e-05)
(-0.000160532 0.000147179 0.000489161)
(0.00051212 0.000188361 0.000425364)
(0.000409106 0.000238083 -9.76042e-05)
(-0.000232812 0.000367939 0.00028797)
(0.000471751 -0.000115019 0.000367492)
(0.000150565 0.000210314 0.0003499)
(0.000114733 0.00025802 0.000250018)
(0.000237865 0.000612419 6.83734e-05)
(0.000252174 7.12157e-05 -0.0001427)
(0.000252237 0.000176352 0.000186467)
(-4.72183e-05 -1.62075e-05 1.05621e-06)
(2.00373e-05 9.2838e-07 4.24003e-05)
(1.03821e-05 -3.35795e-05 -7.28457e-06)
(1.89587e-05 -1.29085e-06 1.04292e-05)
(3.08346e-06 4.88136e-05 -9.17676e-05)
(2.51945e-05 -6.00618e-06 -0.000122856)
(-1.49419e-05 -4.40733e-07 -0.000107904)
(-1.44996e-05 -5.302e-05 -0.000145443)
(5.5216e-06 -5.38609e-05 1.17366e-05)
(-4.15229e-05 -6.30932e-06 1.86137e-05)
(-3.90099e-05 1.71797e-05 -0.00011358)
(4.88312e-05 3.62221e-06 -0.000119516)
(1.69752e-05 -3.81971e-06 6.08891e-05)
(-4.7553e-05 8.52641e-06 -7.57127e-05)
(3.62133e-05 -5.48958e-05 -8.09497e-05)
(-2.50277e-05 -9.17553e-06 -9.84581e-05)
(7.11529e-06 2.02129e-05 -9.73847e-05)
(2.79742e-05 5.2335e-05 -2.23607e-05)
(6.1431e-06 -1.03934e-06 1.44752e-05)
(3.10206e-05 8.03555e-06 -8.01068e-05)
(2.61518e-05 7.46118e-06 1.88157e-06)
(-8.2306e-06 -2.71555e-06 2.07593e-05)
(-7.02915e-06 1.54136e-05 1.92826e-06)
(-1.27225e-05 2.13057e-06 3.08359e-06)
(1.33428e-06 -2.84581e-05 -4.54039e-05)
(-9.79124e-06 -3.89259e-07 -5.32791e-05)
(8.99582e-06 -1.70748e-06 -5.83567e-05)
(7.13893e-06 2.98604e-05 -7.04262e-05)
(-2.18447e-06 3.26379e-05 7.2641e-06)
(2.33379e-05 7.38309e-06 1.71327e-05)
(2.27352e-05 -6.33728e-06 -6.79262e-05)
(-2.72583e-05 -8.48435e-07 -6.09683e-05)
(-1.25962e-05 1.07854e-06 4.13371e-05)
(2.16e-05 -4.58203e-06 -4.14622e-05)
(-2.11194e-05 2.9839e-05 -4.46789e-05)
(1.19214e-05 5.23532e-06 -5.37759e-05)
(-5.61335e-06 -1.02944e-05 -5.26993e-05)
(-1.86306e-05 -2.52294e-05 -1.34524e-05)
(-4.21143e-06 3.57862e-06 5.30304e-06)
(-1.54347e-05 -4.54738e-06 -5.55544e-05)
(1.48587e-05 5.26496e-06 -2.40385e-06)
(-4.47127e-06 3.16956e-07 8.75477e-06)
(-4.80889e-06 1.04379e-05 -6.23214e-06)
(-7.28463e-06 3.07353e-06 4.29681e-06)
(1.90017e-06 -1.45439e-05 -1.65455e-05)
(-6.20993e-06 -6.75179e-08 -2.38405e-05)
(5.6052e-06 -1.00092e-06 -1.83387e-05)
(4.88383e-06 1.60404e-05 -2.61204e-05)
(-2.35559e-06 1.639e-05 1.94426e-06)
(1.20612e-05 3.3325e-06 -2.35067e-06)
(1.1636e-05 -4.0721e-06 -1.6201e-05)
(-1.63494e-05 -6.16911e-07 -2.07454e-05)
(-5.9966e-06 1.21328e-06 5.4425e-06)
(1.28574e-05 -3.49415e-06 -1.27956e-05)
(-1.20515e-05 1.61414e-05 -1.18586e-05)
(7.89691e-06 2.89599e-06 -1.44789e-05)
(-2.29438e-06 -5.38032e-06 -1.49535e-05)
(-9.70924e-06 -1.36971e-05 -5.55957e-06)
(-6.38464e-07 2.96654e-06 2.46714e-06)
(-8.81253e-06 -1.7993e-06 -1.06652e-05)
(-1.78806e-08 -5.01848e-06 2.3094e-06)
(-1.69829e-06 -2.45434e-06 7.26158e-07)
(-7.88296e-06 -2.0458e-06 -2.25839e-07)
(-9.29303e-07 8.30688e-06 1.98631e-06)
(-6.87412e-06 -2.66886e-07 2.97275e-06)
(-4.93537e-06 2.65526e-06 4.9443e-06)
(-8.97755e-06 1.97878e-07 2.8186e-07)
(-3.44579e-06 -1.0125e-06 -2.70974e-06)
(-6.51673e-06 8.27018e-07 1.77071e-06)
(-2.84973e-06 -4.53109e-06 1.45905e-06)
(1.17459e-06 -2.11678e-06 3.50987e-06)
(-8.10316e-07 1.05961e-06 -5.16938e-08)
(7.04705e-06 -5.19003e-06 4.29244e-06)
(4.4084e-06 9.09923e-06 3.95222e-06)
(7.38889e-06 -1.44551e-06 -3.91976e-06)
(2.11263e-06 -1.71322e-06 2.94391e-06)
(7.22234e-06 2.60602e-06 2.42062e-07)
(-4.38633e-06 -1.47674e-06 1.40975e-06)
(-2.16304e-06 3.19294e-06 3.25815e-07)
(-2.19627e-06 -1.39062e-06 -9.29398e-07)
(-1.47409e-06 -7.21156e-06 -4.66488e-06)
(-4.78813e-06 1.40573e-06 -4.82649e-06)
(-4.50104e-07 6.45371e-09 -6.1514e-06)
(-4.45963e-07 8.90291e-06 -6.15715e-06)
(-1.38084e-06 8.47169e-06 6.09867e-07)
(3.76732e-06 1.19549e-06 1.5143e-06)
(4.07189e-06 -3.25619e-06 -6.53302e-06)
(-6.52015e-06 -6.78321e-07 -5.87857e-06)
(-4.80969e-06 -7.62244e-09 3.62527e-06)
(4.23957e-06 -4.34603e-07 -4.58475e-06)
(-6.53432e-06 6.91188e-06 -4.91631e-06)
(2.44423e-06 1.22861e-06 -6.27072e-06)
(-2.86177e-06 -1.70412e-06 -6.2066e-06)
(-4.68056e-06 -7.31437e-06 -2.49234e-06)
(-3.17911e-06 -4.33506e-07 -2.25504e-07)
(-6.19446e-06 -1.79441e-06 -6.41325e-06)
(0.000403135 0.000293778 -0.000112821)
(3.0707e-05 0.000137046 -0.000172836)
(0.000807101 0.000122676 -0.000209782)
(0.000484108 5.78738e-05 0.000146196)
(0.000414728 3.6933e-05 -4.5898e-05)
(0.000373709 0.000231482 9.59176e-05)
(-0.000532866 0.000165429 -0.000224539)
(-0.00060509 0.000382063 4.98851e-05)
(-0.000587366 -7.40888e-05 0.000110732)
(-0.000584475 -4.81936e-05 -6.24885e-05)
(-0.000655901 -8.66888e-05 -0.000127345)
(-0.000138165 -4.82882e-05 -4.20736e-05)
(-0.000187507 0.000157551 -2.79348e-05)
(-3.85265e-05 -0.000120983 0.000139356)
(0.000325889 -0.000269955 -3.54385e-05)
(0.000203528 -0.000551934 -9.9555e-05)
(0.000187543 -0.00063254 -0.000166968)
(0.000174931 -0.000231755 -3.60431e-05)
(2.64009e-05 -0.000400489 2.35123e-05)
(0.000313013 -0.000488506 -0.000171421)
(0.000112641 -0.000243907 -0.000138792)
(0.00035675 0.00020308 -0.000107452)
(0.000429154 0.000152462 -0.000209554)
(0.000300401 -9.22983e-05 -5.19726e-05)
(7.98967e-05 0.00035936 -2.49938e-05)
(4.81877e-05 0.000198606 -5.77834e-05)
(0.000209207 0.000334839 -0.000131042)
(0.000205998 0.000290823 -0.000335899)
(4.43293e-05 3.73034e-05 1.3599e-05)
(-8.93055e-06 7.43195e-06 -6.96214e-06)
(3.93022e-05 -9.78033e-07 3.52504e-05)
(2.35348e-05 -1.18397e-05 -6.43903e-05)
(-2.34541e-05 -1.41246e-05 -4.6057e-05)
(-2.79815e-05 3.05732e-05 1.66479e-05)
(-5.22607e-05 1.69366e-05 0.000104891)
(-6.59015e-05 5.18576e-05 2.61116e-05)
(-4.92179e-05 -1.9434e-05 -3.28081e-05)
(-7.93234e-05 -4.17292e-05 7.83596e-05)
(-9.04754e-05 9.63404e-06 9.07173e-05)
(-1.67092e-05 1.41801e-05 1.90661e-05)
(-2.24551e-05 2.47923e-05 3.47579e-05)
(1.43917e-05 7.62269e-06 -3.48888e-05)
(1.31372e-05 -2.922e-05 3.97684e-05)
(6.49176e-06 -4.70381e-05 2.86648e-05)
(6.66159e-06 -7.47043e-05 5.38319e-05)
(-8.38437e-06 -4.88096e-06 1.06886e-05)
(-2.82768e-06 -4.93453e-05 1.5283e-05)
(2.04408e-05 -4.95912e-05 5.7261e-05)
(1.59677e-05 -3.35803e-05 7.17857e-05)
(3.19801e-05 -3.69531e-05 1.52004e-05)
(3.39121e-05 1.25017e-05 -7.55996e-06)
(5.36566e-05 -4.54238e-06 4.53763e-05)
(9.16543e-06 6.00847e-06 1.21156e-05)
(7.3392e-06 2.76402e-05 6.09646e-06)
(3.78381e-05 2.19769e-05 4.3993e-05)
(2.12896e-05 2.07513e-05 7.74374e-05)
(-2.2575e-05 -2.07669e-05 4.13577e-06)
(5.63039e-06 -4.2334e-06 -5.59438e-06)
(-1.81694e-05 -2.47404e-07 1.41306e-05)
(-1.70013e-05 5.70529e-06 -3.29562e-05)
(9.57225e-06 9.72356e-06 -3.84318e-05)
(2.16054e-05 -1.65942e-05 1.69054e-05)
(3.02225e-05 -1.05363e-05 6.09191e-05)
(3.62801e-05 -2.92522e-05 1.64097e-05)
(2.94288e-05 5.86079e-06 -1.8535e-05)
(4.25349e-05 1.76316e-05 3.69916e-05)
(4.87589e-05 -4.99399e-06 5.73219e-05)
(7.69101e-06 -5.4668e-06 4.40587e-06)
(1.06554e-05 -1.14604e-05 1.87138e-05)
(-1.11452e-05 -4.0415e-06 -2.83928e-05)
(-7.31062e-06 1.77585e-05 2.30499e-05)
(-9.4975e-07 2.66038e-05 1.5012e-05)
(-2.85879e-06 4.14397e-05 3.04884e-05)
(2.09726e-06 2.204e-06 1.92094e-06)
(-3.09346e-06 2.67466e-05 4.59629e-06)
(-1.16458e-05 2.68954e-05 3.48452e-05)
(-8.38588e-06 1.72785e-05 3.70437e-05)
(-1.80032e-05 1.89978e-05 1.27126e-05)
(-1.9232e-05 -6.21325e-06 -8.14754e-06)
(-2.9458e-05 1.95533e-06 2.9377e-05)
(-6.98689e-06 -5.93351e-07 1.14126e-05)
(-4.82435e-06 -1.00098e-05 -4.27199e-06)
(-2.05759e-05 -1.09033e-05 2.50584e-05)
(-1.11857e-05 -1.13776e-05 3.08231e-05)
(-1.14044e-05 -1.16956e-05 4.45689e-06)
(2.55854e-06 -1.97303e-06 -1.07456e-06)
(-1.01488e-05 6.0425e-07 8.74903e-06)
(-1.00361e-05 3.70477e-06 -1.09358e-05)
(6.32444e-06 5.83128e-06 -2.69967e-06)
(1.30344e-05 -9.90428e-06 -2.58201e-06)
(1.51789e-05 -5.30383e-06 1.66754e-05)
(1.97794e-05 -1.61699e-05 7.26164e-06)
(1.3552e-05 1.98397e-06 -4.41693e-06)
(2.18306e-05 1.16592e-05 1.16582e-05)
(2.62103e-05 -2.48616e-06 9.47582e-06)
(3.30648e-06 -5.07767e-06 6.13337e-06)
(4.74394e-06 -6.99272e-06 4.19989e-06)
(-7.0189e-06 -3.2115e-06 -1.5814e-06)
(-5.27718e-06 8.55103e-06 7.37635e-06)
(-1.6384e-06 1.41268e-05 3.98429e-06)
(-2.26498e-06 2.18236e-05 8.17063e-06)
(1.518e-06 4.42495e-08 4.78105e-06)
(-1.73082e-06 1.43094e-05 5.51462e-06)
(-6.69765e-06 1.46314e-05 8.08014e-06)
(-4.56341e-06 8.95583e-06 1.36006e-05)
(-1.02391e-05 1.10992e-05 2.28718e-06)
(-9.6048e-06 -3.50646e-06 4.97816e-07)
(-1.66402e-05 1.56969e-07 6.93208e-06)
(-4.0677e-06 1.0382e-06 9.61804e-08)
(-1.90569e-06 -5.70356e-06 5.37802e-06)
(-1.27377e-05 -5.50155e-06 6.35505e-06)
(-5.60837e-06 -4.56626e-06 1.40627e-05)
(-7.83696e-06 -5.70328e-06 -4.76008e-07)
(1.79495e-06 -2.28004e-06 -3.34756e-07)
(-7.46107e-06 -2.75996e-07 6.73307e-07)
(-5.02151e-06 7.94713e-07 -2.51426e-06)
(1.42697e-06 2.58255e-06 -4.11344e-06)
(1.97839e-06 -2.82859e-06 2.47559e-06)
(1.07579e-05 -8.7004e-07 6.736e-06)
(1.27165e-05 -8.15704e-06 2.42238e-06)
(9.81251e-06 1.22181e-06 -1.24309e-06)
(1.25326e-05 3.32944e-06 3.12105e-06)
(1.31353e-05 -1.03618e-07 6.89591e-06)
(3.52614e-06 -3.17731e-07 2.88369e-07)
(4.34621e-06 -3.59664e-06 2.00911e-06)
(-1.26601e-06 1.79671e-06 -2.88009e-06)
(-1.72135e-06 7.40891e-06 2.48292e-06)
(-9.76077e-07 7.28544e-06 5.88684e-07)
(-2.07393e-06 1.24567e-05 3.454e-06)
(-1.05404e-06 2.83931e-06 8.57503e-07)
(1.27621e-07 8.70115e-06 1.10724e-06)
(-3.35601e-06 6.95113e-06 2.83207e-06)
(-2.98434e-06 5.52275e-06 4.33642e-06)
(-4.41274e-06 5.36552e-06 1.07645e-06)
(-4.53068e-06 -1.51767e-06 -1.09087e-06)
(-7.1589e-06 1.97468e-06 3.11881e-06)
(-8.51872e-07 -1.76277e-06 4.52451e-07)
(-1.60737e-06 -3.22716e-06 3.64545e-09)
(-3.64562e-06 -2.05199e-06 2.73579e-06)
(-1.86499e-06 -3.92266e-06 3.47138e-06)
(0.000307211 0.000317628 -0.000203831)
(0.000379094 5.47321e-05 -0.000124964)
(0.000439127 0.000149706 -0.000128223)
(0.000299947 -0.000135926 -0.000233447)
(-1.87706e-05 2.91924e-05 5.48662e-05)
(9.82549e-06 1.48515e-05 3.12655e-06)
(2.98191e-05 1.33302e-05 -7.01275e-06)
(-9.9435e-06 -4.22537e-05 9.34178e-06)
)
;

boundaryField
{
    top_fluid_surface
    {
        type            pressureInletOutletVelocity;
        value           nonuniform List<vector> 
64
(
(0 0 -0.000148946)
(0 0 -0.000104722)
(0 0 -3.88271e-05)
(0 0 -3.45686e-05)
(0 0 -8.87234e-05)
(0.000333552 0.000415343 -1.54386e-05)
(0 0 -0.000100599)
(0 0 -0.000155861)
(0 0 -0.000253321)
(0 0 -0.000146476)
(-0.000218917 0.000222286 9.24408e-05)
(0 0 -9.65792e-05)
(0 0 -0.000133407)
(0 0 -0.000112002)
(0.000397533 -2.1886e-05 0.000113891)
(0.000589364 0.000200489 1.06088e-05)
(0.000505492 0.000435256 0.00046537)
(0.000558821 -9.39069e-05 0.00054058)
(0.000451596 1.9037e-05 0.000500991)
(0.000359828 -0.00053828 0.000547549)
(0 0 -2.18869e-05)
(0 0 -9.64657e-05)
(-0.000160532 0.000147179 0.000489161)
(0.00051212 0.000188361 0.000425364)
(0 0 -9.76042e-05)
(-0.000232812 0.000367939 0.00028797)
(0.000471751 -0.000115019 0.000367492)
(0.000150565 0.000210314 0.0003499)
(0.000114733 0.00025802 0.000250018)
(0.000237865 0.000612419 6.83734e-05)
(0 0 -0.0001427)
(0.000252237 0.000176352 0.000186467)
(0 0 -0.000112821)
(0 0 -0.000172836)
(0 0 -0.000209782)
(0.000484108 5.78738e-05 0.000146196)
(0 0 -4.5898e-05)
(0.000373709 0.000231482 9.59176e-05)
(0 0 -0.000224539)
(-0.00060509 0.000382063 4.98851e-05)
(-0.000587366 -7.40888e-05 0.000110732)
(0 0 -6.24885e-05)
(0 0 -0.000127345)
(-0.000138165 -4.82882e-05 -4.20736e-05)
(0 0 -2.79348e-05)
(-3.85265e-05 -0.000120983 0.000139356)
(0.000325889 -0.000269955 -3.54385e-05)
(0 0 -9.9555e-05)
(0 0 -0.000166968)
(0 0 -3.60431e-05)
(2.64009e-05 -0.000400489 2.35123e-05)
(0 0 -0.000171421)
(0 0 -0.000138792)
(0 0 -0.000107452)
(0 0 -0.000209554)
(0 0 -5.19726e-05)
(0 0 -2.49938e-05)
(0 0 -5.77834e-05)
(0 0 -0.000131042)
(0 0 -0.000335899)
(0 0 -0.000203831)
(0 0 -0.000124964)
(0 0 -0.000128223)
(0 0 -0.000233447)
)
;
    }
    bottom_fluid_surface
    {
        type            noSlip;
    }
    lateral_surface_1
    {
        type            noSlip;
    }
    lateral_surface_2
    {
        type            noSlip;
    }
    lateral_surface_3
    {
        type            noSlip;
    }
    lateral_surface_4
    {
        type            noSlip;
    }
}


// ************************************************************************* //
