/*--------------------------------*- C++ -*----------------------------------*\
| =========                 |                                                 |
| \\      /  F ield         | OpenFOAM: The Open Source CFD Toolbox           |
|  \\    /   O peration     | Version:  v1612+                                |
|   \\  /    A nd           | Web:      www.OpenFOAM.com                      |
|    \\/     M anipulation  |                                                 |
\*---------------------------------------------------------------------------*/
FoamFile
{
    version     2.0;
    format      ascii;
    class       surfaceScalarField;
    location    "3.65";
    object      alphaPhi;
}
// * * * * * * * * * * * * * * * * * * * * * * * * * * * * * * * * * * * * * //

dimensions      [0 3 -1 0 0 0 0];

internalField   nonuniform List<scalar> 
2916
(
4.82216e-06
0.239721
-0.0862678
5.60665e-06
0.239721
-0.0862695
7.61862e-06
0.239722
-0.0862689
3.68347e-06
0.239723
-0.0862693
-3.57286e-06
0.239722
-0.0862706
0.239719
-0.0862646
9.71024e-06
0.462974
-0.0701633
6.91606e-06
0.462976
-0.0701598
8.86189e-06
0.462977
-0.070161
3.68939e-06
0.462977
-0.0701586
-9.46732e-06
0.462977
-0.0701562
0.462972
-0.0701637
1.07154e-05
0.653818
-0.0446801
7.26203e-06
0.653828
-0.0446775
6.14722e-06
0.653826
-0.0446774
2.98298e-06
0.653827
-0.0446772
-5.15062e-06
0.653828
-0.0446763
0.653817
-0.0446782
1.20358e-05
0.81464
-0.0336238
7.46602e-06
0.814658
-0.0336204
5.37241e-06
0.814653
-0.0336205
2.73967e-06
0.814654
-0.0336207
-4.66367e-06
0.814657
-0.0336197
0.814641
-0.0336216
1.26178e-05
0.945389
-0.02684
7.22071e-06
0.945411
-0.0268354
4.50041e-06
0.945407
-0.026836
1.8717e-06
0.945407
-0.0268362
-5.40623e-06
0.94541
-0.0268349
0.945391
-0.0268379
1.22136e-05
1.03676
-0.0156884
7.05901e-06
1.03679
-0.0156827
3.48622e-06
1.03678
-0.0156836
1.79198e-07
1.03678
-0.0156836
-6.03287e-06
1.03679
-0.0156823
1.03676
-0.0156861
1.09334e-05
1.02563
0.0293485
7.03158e-06
1.02566
0.0293591
1.92914e-06
1.02565
0.0293591
-2.42055e-06
1.02565
0.0293594
-6.83678e-06
1.02565
0.0293597
1.02563
0.0293535
7.30735e-06
0.828925
0.196701
6.11909e-06
0.828953
0.196706
1.27595e-07
0.828951
0.196708
-5.06811e-06
0.828948
0.196709
-7.62222e-06
0.828952
0.196704
0.828915
0.196706
7.09309e-06
0.354907
0.474026
5.5463e-06
0.35493
0.474039
-6.861e-07
0.354934
0.474039
-7.04769e-06
0.35493
0.47404
-1.34333e-05
0.354938
0.474035
0.354883
0.474034
1.56105e-05
-0.173633
0.52854
6.97884e-06
-0.17361
0.528564
1.13163e-07
-0.173601
0.528558
-7.02981e-06
-0.173606
0.528559
-2.16473e-05
-0.17359
0.528558
-0.173674
0.52855
2.88673e-05
-0.399566
0.225974
6.84877e-06
-0.399542
0.226024
-1.82515e-07
-0.399538
0.226014
-5.37665e-06
-0.39954
0.22601
-2.27097e-05
-0.399524
0.226022
-0.399592
0.225966
-8.41656e-06
-0.400452
-1.50159e-05
-0.40043
-1.12262e-05
-0.400436
-3.9267e-06
-0.400443
1.31584e-05
-0.400436
-0.400474
-2.25278e-07
0.0135668
-6.7679e-07
-1.51205e-07
0.0135655
-6.76676e-07
7.08596e-07
0.013566
-6.76802e-07
2.88997e-07
0.0135647
-6.76887e-07
-1.06693e-06
0.013564
-6.76854e-07
0.0135685
-6.77004e-07
-8.44242e-08
0.00352094
-2.48605e-06
-4.60938e-08
0.00351987
-2.4862e-06
1.77748e-08
0.0035197
-2.48637e-06
5.8826e-08
0.00352024
-2.48635e-06
5.87621e-08
0.00352079
-2.48604e-06
0.00352175
-2.4861e-06
-1.14483e-07
0.0066325
-1.01825e-07
-3.47022e-08
0.00663427
-1.01906e-07
-3.89626e-08
0.00663309
-1.01889e-07
5.98456e-08
0.00663532
-1.0188e-07
2.56474e-07
0.00663762
-1.01908e-07
0.00663271
-1.0183e-07
-1.59469e-07
0.0263248
-4.27962e-08
-3.09167e-08
0.0263266
-4.27516e-08
-2.00227e-08
0.0263252
-4.27583e-08
1.45493e-07
0.0263268
-4.27204e-08
4.7185e-07
0.0263293
-4.27052e-08
0.0263261
-4.28338e-08
6.26474e-08
0.065562
-4.67642e-08
7.38883e-08
0.0655656
-4.67655e-08
6.8931e-08
0.0655635
-4.67593e-08
2.69531e-07
0.0655647
-4.67571e-08
4.65102e-07
0.0655682
-4.67562e-08
0.0655645
-4.67535e-08
9.45672e-07
0.129154
-1.16388e-10
3.54857e-07
0.129162
-1.16728e-10
2.57115e-07
0.129158
-1.15755e-10
4.10974e-07
0.129159
-1.14849e-10
-1.0942e-07
0.129164
-1.14584e-10
0.129158
-1.10182e-10
2.40873e-06
0.235393
0.000727792
6.05344e-07
0.23541
0.000728026
2.16856e-07
0.235403
0.000727956
2.99566e-07
0.235404
0.000727885
-1.1085e-06
0.235411
0.00072797
0.235399
0.000727926
6.83022e-06
0.450409
0.00826726
1.19358e-06
0.450431
0.00826804
3.08337e-07
0.450418
0.00826756
-1.80997e-07
0.450417
0.00826756
-4.84219e-06
0.450424
0.00826785
0.450411
0.00826733
2.32967e-05
0.745532
0.0676171
6.13814e-06
0.745619
0.0676261
1.8077e-06
0.745581
0.067619
-1.50791e-06
0.74558
0.0676196
-1.74846e-05
0.745607
0.0676209
0.74555
0.0676203
5.74143e-05
0.62823
0.524255
1.94949e-05
0.628395
0.524276
9.07597e-06
0.628339
0.524264
-2.07961e-06
0.628339
0.524264
-3.31365e-05
0.628389
0.52426
0.628263
0.524265
8.47737e-05
0.274335
0.579863
2.40365e-05
0.274507
0.580052
1.17304e-05
0.274464
0.57998
-3.92512e-07
0.274463
0.579976
-4.35271e-05
0.274512
0.580022
0.274369
0.579895
-2.60781e-05
-0.126063
-1.49464e-05
-0.125906
-3.85042e-06
-0.125955
6.42873e-06
-0.125962
2.69976e-05
-0.125917
-0.12605
-2.57884e-12
8.95251e-10
-6.75231e-07
-1.24962e-12
8.94755e-10
-6.7512e-07
-8.11095e-13
8.94574e-10
-6.75238e-07
8.38197e-13
8.94829e-10
-6.75319e-07
3.46279e-12
8.9521e-10
-6.75288e-07
8.95176e-10
-6.75437e-07
-3.79708e-12
5.61898e-09
-2.49626e-06
-1.24987e-12
5.61818e-09
-2.4964e-06
3.20746e-13
5.61772e-09
-2.49657e-06
2.22238e-12
5.6182e-09
-2.49655e-06
5.11973e-12
5.61907e-09
-2.49625e-06
5.61918e-09
-2.4963e-06
-2.83058e-13
1.63067e-09
-1.03811e-07
-4.74083e-14
1.63105e-09
-1.03887e-07
1.43023e-13
1.63081e-09
-1.03868e-07
2.54665e-13
1.63064e-09
-1.03862e-07
3.7565e-13
1.63093e-09
-1.03892e-07
1.63065e-09
-1.03813e-07
-1.60553e-13
1.87314e-09
-4.99132e-08
-5.23989e-14
1.87243e-09
-4.98644e-08
3.86575e-14
1.87231e-09
-4.98737e-08
1.0702e-13
1.87172e-09
-4.98369e-08
1.88392e-13
1.87152e-09
-4.98214e-08
1.87308e-09
-4.99513e-08
-1.63284e-13
2.88186e-09
-5.52694e-08
-9.66967e-14
2.88166e-09
-5.52729e-08
-3.13044e-14
2.88126e-09
-5.52679e-08
4.44633e-14
2.88105e-09
-5.52662e-08
1.38793e-13
2.88093e-09
-5.52653e-08
2.88073e-09
-5.52606e-08
-1.61498e-13
2.87837e-09
-7.61086e-09
-1.48189e-13
2.87799e-09
-7.61268e-09
-9.97069e-14
2.8776e-09
-7.61184e-09
-2.70437e-14
2.87723e-09
-7.61071e-09
4.96666e-14
2.87711e-09
-7.61039e-09
2.87668e-09
-7.60527e-09
-1.35073e-08
0.000729928
-1.34929e-06
-1.14485e-08
0.000730157
-1.35058e-06
-8.7264e-09
0.000730083
-1.35102e-06
-3.49824e-09
0.000730009
-1.35124e-06
4.3164e-09
0.000730097
-1.35206e-06
0.000730054
-1.348e-06
-3.20608e-08
0.0088042
0.000153493
1.58301e-08
0.0088051
0.000153521
3.70371e-09
0.00880462
0.000153508
-5.25956e-09
0.00880455
0.000153505
9.47067e-08
0.00880482
0.000153505
0.00880444
0.000153508
1.46458e-06
0.0727106
0.003557
2.24561e-07
0.0727135
0.00356687
2.60882e-07
0.0727088
0.00356264
2.00298e-07
0.07271
0.00356202
-6.30249e-07
0.0727085
0.00356599
0.0727119
0.00356003
4.50394e-05
0.35948
-0.0144964
1.11513e-05
0.359636
-0.0145598
8.08866e-06
0.359576
-0.014537
3.86216e-06
0.359578
-0.0145338
-1.81751e-05
0.359619
-0.0145538
0.359528
-0.014517
0.000337419
0.237911
0.611225
5.06389e-05
0.238179
0.61184
8.79514e-06
0.238087
0.611588
1.04486e-05
0.238098
0.611536
-0.000180107
0.238169
0.611722
0.237968
0.611382
-8.87742e-05
0.111932
-1.88257e-05
0.112198
-4.40618e-06
0.112113
1.59027e-05
0.112111
7.43991e-05
0.112189
0.111988
8.81836e-13
-3.73341e-07
-8.68294e-08
8.59466e-13
-3.73223e-07
-8.67832e-08
-5.70181e-12
-3.73264e-07
-8.68209e-08
-6.70929e-12
-3.7327e-07
-8.68574e-08
-8.38192e-13
-3.7323e-07
-8.68562e-08
-3.73402e-07
-8.68905e-08
1.24721e-11
-3.5998e-07
-1.3629e-06
2.16265e-11
-3.59946e-07
-1.36357e-06
-2.35938e-12
-3.59954e-07
-1.36285e-06
-5.42377e-12
-3.59963e-07
-1.36303e-06
2.12009e-11
-3.59959e-07
-1.36438e-06
-3.59999e-07
-1.36315e-06
2.72314e-13
-6.60961e-08
-4.06078e-07
3.38744e-13
-6.60541e-08
-4.06121e-07
8.47515e-14
-6.60602e-08
-4.0612e-07
-1.89986e-13
-6.60318e-08
-4.06118e-07
2.92296e-13
-6.60234e-08
-4.06126e-07
-6.61269e-08
-4.06115e-07
-1.66712e-12
-4.5443e-08
-1.07073e-08
-1.65852e-12
-4.54203e-08
-1.07035e-08
-1.14553e-12
-4.5423e-08
-1.07045e-08
-7.53135e-13
-4.54136e-08
-1.07016e-08
1.60376e-13
-4.54083e-08
-1.07001e-08
-4.54504e-08
-1.07168e-08
-3.87475e-12
-1.55917e-08
-3.65102e-08
-3.55605e-12
-1.55842e-08
-3.65137e-08
-2.47065e-12
-1.55842e-08
-3.65105e-08
-1.38364e-12
-1.55803e-08
-3.6508e-08
7.25112e-13
-1.55772e-08
-3.65072e-08
-1.55904e-08
-3.65075e-08
-8.95875e-13
-5.97128e-10
-2.12273e-08
-6.53335e-13
-5.95442e-10
-2.12217e-08
-4.67531e-13
-5.93459e-10
-2.12219e-08
-1.97653e-13
-5.9169e-10
-2.1218e-08
4.00758e-13
-5.89649e-10
-2.12139e-08
-5.9908e-10
-2.12203e-08
-2.27516e-12
-1.3449e-06
-6.45457e-11
5.14879e-13
-1.34621e-06
-6.48672e-11
1.76766e-12
-1.34665e-06
-6.49005e-11
2.50921e-12
-1.34687e-06
-6.48119e-11
4.93782e-12
-1.34768e-06
-6.49137e-11
-1.34362e-06
-6.4568e-11
1.63597e-09
0.000152143
-1.0781e-09
3.43469e-09
0.000152171
-1.12275e-09
5.32386e-09
0.000152154
-1.11066e-09
4.48042e-09
0.000152155
-1.10575e-09
5.6471e-09
0.000152155
-1.12111e-09
0.000152167
-1.0834e-09
4.95966e-07
0.00361976
7.5894e-05
7.156e-08
0.00363032
7.6171e-05
3.90446e-08
0.00362545
7.63869e-05
8.69863e-08
0.00362462
7.65067e-05
-2.38118e-07
0.0036291
7.64253e-05
0.00362275
7.61746e-05
2.89621e-05
-0.137737
0.000141923
8.28185e-06
-0.137139
0.000130064
2.23665e-07
-0.137282
0.000134419
-2.45841e-06
-0.137334
0.00013532
-1.47666e-05
-0.13717
0.000130734
-0.137547
0.000139219
0.0013126
0.0880102
-0.00440864
8.79622e-05
0.0880524
-0.00391052
-0.000103441
0.0880271
-0.00423729
7.64184e-05
0.0880357
-0.00418176
-0.000756875
0.0879515
-0.00391166
0.0880756
-0.00421662
-1.22645e-05
0.199188
8.19598e-06
0.199462
2.35405e-05
0.199357
4.5757e-05
0.199358
-1.94417e-05
0.199438
0.199277
-2.08072e-40
-1.18852e-33
1.16857e-36
-1.65481e-40
-1.18114e-33
1.16074e-36
-1.41063e-40
-1.17673e-33
1.15585e-36
-1.16591e-40
-1.17151e-33
1.1542e-36
-7.03682e-41
-1.19582e-33
1.17643e-36
-1.15592e-33
1.13662e-36
-1.55043e-37
-1.1584e-30
1.23347e-33
-1.75701e-37
-1.1518e-30
1.22578e-33
-1.81156e-37
-1.14815e-30
1.22117e-33
-1.62052e-37
-1.13928e-30
1.21572e-33
-8.80121e-38
-1.16458e-30
1.24089e-33
-1.12652e-30
1.19942e-33
-7.16519e-35
-5.28526e-28
6.34267e-31
-1.20833e-34
-5.25806e-28
6.30642e-31
-1.37504e-34
-5.24484e-28
6.28626e-31
-1.28537e-34
-5.18555e-28
6.23751e-31
-8.03477e-35
-5.30834e-28
6.37577e-31
-5.1398e-28
6.16693e-31
-5.19337e-32
-1.47745e-25
2.06175e-28
-7.41686e-32
-1.47071e-25
2.05086e-28
-7.55938e-32
-1.46816e-25
2.04553e-28
-6.61542e-32
-1.44583e-25
2.02222e-28
-4.22026e-32
-1.48221e-25
2.06989e-28
-1.43693e-25
2.00389e-28
-2.26508e-29
-2.7908e-23
4.60211e-26
-2.3559e-29
-2.7798e-23
4.57889e-26
-1.77607e-29
-2.77759e-23
4.56981e-26
-1.12814e-29
-2.72358e-23
4.49943e-26
-5.73676e-30
-2.79633e-23
4.61192e-26
-2.71506e-23
4.47033e-26
-4.76349e-27
-3.7126e-21
7.17983e-24
-2.53795e-27
-3.70054e-21
7.14333e-24
7.75821e-28
-3.7018e-21
7.13423e-24
3.05035e-27
-3.61296e-21
6.99388e-24
3.15882e-27
-3.71543e-21
7.18022e-24
-3.61415e-21
6.97194e-24
-2.61994e-25
-3.50855e-19
7.67607e-22
6.00556e-25
-3.50006e-19
7.63585e-22
1.44782e-24
-3.50621e-19
7.63396e-22
1.79421e-24
-3.40479e-19
7.45076e-22
1.47885e-24
-3.50753e-19
7.66516e-22
-3.41985e-19
7.46193e-22
4.97552e-23
-2.29219e-17
4.87511e-20
2.02741e-22
-2.2893e-17
4.84858e-20
3.20616e-22
-2.29772e-17
4.85621e-20
3.3896e-22
-2.21795e-17
4.72041e-20
2.56288e-22
-2.28967e-17
4.87133e-20
-2.23956e-17
4.76123e-20
1.03441e-20
-4.36621e-17
1.03745e-18
2.33932e-20
-4.36017e-17
1.02345e-18
3.14163e-20
-4.37495e-17
1.03014e-18
3.03267e-20
-4.21331e-17
1.01125e-18
2.14488e-20
-4.35169e-17
1.0626e-18
-4.25388e-17
1.04754e-18
1.03428e-18
-3.49107e-14
2.11127e-15
1.77971e-18
-3.4857e-14
2.11192e-15
2.13475e-18
-3.48925e-14
2.12679e-15
1.86803e-18
-3.34445e-14
1.98345e-15
1.28717e-18
-3.48431e-14
2.12441e-15
-3.38828e-14
2.01742e-15
9.02299e-17
-7.65007e-13
6.07791e-13
1.06521e-16
-7.69033e-13
6.11877e-13
1.27657e-16
-7.84309e-13
6.26403e-13
7.30792e-17
-7.52571e-13
6.01438e-13
6.01073e-17
-7.72759e-13
6.15849e-13
-7.7832e-13
6.24645e-13
-6.93483e-16
-2.04049e-11
-1.19056e-15
-2.04581e-11
-1.08606e-15
-2.06729e-11
-1.26793e-15
-1.97683e-11
-1.03429e-15
-2.04758e-11
-2.02759e-11
-3.50564e-39
-2.84031e-32
5.13673e-35
-2.73989e-39
-2.82239e-32
5.10177e-35
-2.19881e-39
-2.80881e-32
5.07414e-35
-1.53525e-39
-2.76343e-32
5.00151e-35
-3.44159e-40
-2.83639e-32
5.13184e-35
-2.72749e-32
4.92651e-35
-2.76175e-36
-3.01637e-29
5.8677e-32
-3.24458e-36
-2.99891e-29
5.83038e-32
-3.12774e-36
-2.98647e-29
5.80211e-32
-2.44651e-36
-2.93211e-29
5.70817e-32
-8.06647e-37
-3.01033e-29
5.85864e-32
-2.90029e-29
5.63335e-32
-2.01776e-33
-1.50617e-26
3.23946e-29
-2.92003e-33
-1.49831e-26
3.22051e-29
-2.85389e-33
-1.49323e-26
3.20703e-29
-2.4269e-33
-1.46274e-26
3.14852e-29
-1.48421e-33
-1.5021e-26
3.23234e-29
-1.45034e-26
3.11396e-29
-9.9617e-31
-4.65847e-24
1.12284e-26
-1.05243e-30
-4.63705e-24
1.11681e-26
-7.455e-31
-4.62529e-24
1.11292e-26
-5.17189e-31
-4.51979e-24
1.09011e-26
-3.74187e-31
-4.64252e-24
1.11935e-26
-4.49336e-24
1.08066e-26
-5.50802e-29
-9.93359e-22
2.67801e-24
2.34549e-28
-9.8944e-22
2.66453e-24
5.10667e-28
-9.87872e-22
2.65722e-24
5.74588e-28
-9.62805e-22
2.59626e-24
4.07247e-28
-9.89305e-22
2.66648e-24
-9.59924e-22
2.58055e-24
9.7416e-26
-1.537e-19
4.53385e-22
2.63719e-25
-1.53197e-19
4.51178e-22
3.75132e-25
-1.53111e-19
4.50303e-22
3.73992e-25
-1.48791e-19
4.3882e-22
2.65574e-25
-1.53008e-19
4.50905e-22
-1.48803e-19
4.37576e-22
6.3393e-23
-1.75989e-17
5.42569e-20
1.0642e-22
-1.75522e-17
5.39919e-20
1.24992e-22
-1.75604e-17
5.39393e-20
1.13991e-22
-1.70033e-17
5.24228e-20
7.86639e-23
-1.75209e-17
5.39339e-20
-1.70593e-17
5.24956e-20
1.23818e-20
-2.05674e-17
3.32714e-17
1.85896e-20
-2.04891e-17
3.32479e-17
2.05108e-20
-2.04632e-17
3.34315e-17
1.77754e-20
-1.98374e-17
3.2403e-17
1.17888e-20
-2.04322e-17
3.35586e-17
-1.98366e-17
3.29365e-17
2.31248e-18
-1.87765e-13
1.71068e-15
2.84406e-18
-1.87148e-13
1.71031e-15
2.57652e-18
-1.86794e-13
1.72468e-15
1.79695e-18
-1.80869e-13
1.6757e-15
1.13051e-18
-1.87286e-13
1.73986e-15
-1.81174e-13
1.71665e-15
8.22134e-16
-2.35118e-11
-2.34308e-11
1.03663e-15
-2.35026e-11
-2.3358e-11
1.05426e-15
-2.35566e-11
-2.33034e-11
5.66292e-16
-2.2569e-11
-2.27153e-11
5.9052e-16
-2.35174e-11
-2.35415e-11
-2.29087e-11
-2.25833e-11
-8.49954e-14
-2.01397e-10
1.65641e-10
-1.86031e-13
-2.01827e-10
1.66066e-10
-1.64207e-13
-2.04934e-10
1.68873e-10
-3.21994e-13
-1.96791e-10
1.62459e-10
-1.24205e-13
-2.01889e-10
1.65813e-10
-2.02226e-10
1.66965e-10
-1.0101e-12
-2.19009e-10
-1.53964e-12
-2.2007e-10
-9.21256e-13
-2.24819e-10
-1.37582e-12
-2.14054e-10
-1.44125e-12
-2.20635e-10
-2.22239e-10
-9.89906e-36
-1.57918e-28
5.04465e-31
-4.41641e-36
-1.57553e-28
5.03173e-31
-1.16784e-36
-1.57332e-28
5.02272e-31
2.34698e-36
-1.55799e-28
4.98208e-31
5.66454e-36
-1.60119e-28
5.11477e-31
-1.55175e-28
4.95847e-31
-5.47954e-33
-1.41538e-25
5.03813e-28
-3.97349e-33
-1.41259e-25
5.02633e-28
-1.28124e-33
-1.41143e-25
5.01918e-28
2.5019e-33
-1.39442e-25
4.97021e-28
6.17448e-33
-1.4346e-25
5.10795e-28
-1.39063e-25
4.95016e-28
-4.83596e-30
-5.68903e-23
2.36887e-25
-4.15528e-30
-5.68048e-23
2.36407e-25
-1.09984e-30
-5.6808e-23
2.36207e-25
1.50291e-30
-5.59425e-23
2.33357e-25
2.48728e-30
-5.76165e-23
2.40077e-25
-5.59061e-23
2.32715e-25
-1.08758e-27
-1.31945e-20
6.67722e-23
1.11732e-27
-1.31835e-20
6.66638e-23
3.6256e-27
-1.32009e-20
6.66638e-23
4.6361e-27
-1.29431e-20
6.56457e-23
3.71391e-27
-1.3346e-20
6.7608e-23
-1.29747e-20
6.55997e-23
7.08614e-25
-1.91858e-18
1.20421e-20
2.00309e-24
-1.91873e-18
1.20289e-20
2.93512e-24
-1.92456e-18
1.20434e-20
2.99793e-24
-1.87639e-18
1.18075e-20
2.18378e-24
-1.9375e-18
1.21747e-20
-1.88892e-18
1.18363e-20
3.4667e-22
-1.81015e-16
1.40026e-18
6.55198e-22
-1.81233e-16
1.39972e-18
8.14101e-22
-1.8217e-16
1.40376e-18
7.54844e-22
-1.76451e-16
1.36861e-18
5.20244e-22
-1.82541e-16
1.41329e-18
-1.78545e-16
1.37812e-18
4.80165e-20
-2.71227e-16
1.03389e-16
8.05084e-20
-2.71521e-16
1.03451e-16
9.24619e-20
-2.72883e-16
1.03976e-16
7.96209e-20
-2.64425e-16
1.00727e-16
5.14544e-20
-2.73378e-16
1.04236e-16
-2.6753e-16
1.02006e-16
5.72479e-18
-2.3401e-15
9.78634e-15
8.00393e-18
-2.39423e-15
9.80297e-15
7.72736e-18
-2.65419e-15
9.88069e-15
5.15284e-18
-1.29691e-15
9.49482e-15
2.13726e-18
-2.68481e-15
9.8504e-15
-1.92462e-15
9.71941e-15
1.1633e-15
-3.50423e-12
3.2746e-12
1.23171e-15
-3.5137e-12
3.28553e-12
8.76805e-16
-3.55548e-12
3.32689e-12
-3.85343e-16
-3.3967e-12
3.18024e-12
-1.24129e-15
-3.55252e-12
3.32457e-12
-3.50177e-12
3.2803e-12
-2.05941e-13
-2.0764e-08
2.78576e-09
-3.89807e-13
-2.07961e-08
2.79261e-09
-4.0797e-13
-2.0904e-08
2.81596e-09
-7.27559e-13
-2.01825e-08
2.70704e-09
-4.29836e-13
-2.09736e-08
2.75548e-09
-2.04281e-08
2.81079e-09
-4.9768e-11
-3.36832e-08
-1.76896e-06
-5.71614e-11
-3.38205e-08
-1.778e-06
-6.64852e-12
-3.43417e-08
-1.79821e-06
-1.07061e-10
-3.30612e-08
-1.71488e-06
-3.96097e-11
-3.44925e-08
-1.7775e-06
-3.36377e-08
-1.75995e-06
-3.55232e-10
-5.6008e-07
-4.17327e-10
-5.67849e-07
1.48278e-10
-5.91142e-07
-4.87377e-10
-5.35905e-07
-3.42352e-10
-5.43365e-07
-5.76863e-07
-6.84894e-37
-4.3041e-29
1.4768e-31
6.08215e-37
-4.29977e-29
1.47446e-31
1.53587e-36
-4.32027e-29
1.48017e-31
2.03296e-36
-4.19822e-29
1.44263e-31
2.15318e-36
-4.36211e-29
1.49833e-31
-4.23931e-29
1.45349e-31
6.88965e-34
-5.23291e-26
1.98239e-28
2.0972e-33
-5.23079e-26
1.98033e-28
3.17202e-33
-5.26077e-26
1.98975e-28
3.69306e-33
-5.09661e-26
1.93354e-28
3.51192e-33
-5.29774e-26
2.00903e-28
-5.1587e-26
1.95249e-28
1.02363e-30
-2.8955e-23
1.27414e-25
2.63395e-30
-2.89618e-23
1.27357e-25
4.05644e-30
-2.91579e-23
1.28085e-25
4.26066e-30
-2.81625e-23
1.24088e-25
3.20748e-30
-2.9287e-23
1.28986e-25
-2.85749e-23
1.25602e-25
2.58365e-27
-9.4391e-21
5.03438e-23
4.68156e-27
-9.44784e-21
5.03521e-23
5.80008e-27
-9.52237e-21
5.06922e-23
5.38025e-27
-9.17094e-21
4.89617e-23
3.7631e-27
-9.54222e-21
5.09173e-23
-9.3281e-21
4.96802e-23
2.13489e-24
-1.96984e-18
1.32335e-20
3.1163e-24
-1.97311e-18
1.32441e-20
3.32811e-24
-1.99104e-18
1.33482e-20
2.76931e-24
-1.91289e-18
1.28557e-20
1.76756e-24
-1.9915e-18
1.33765e-20
-1.95052e-18
1.30771e-20
6.79278e-22
-2.42739e-16
4.55e-17
7.95433e-22
-2.433e-16
4.56865e-17
6.91204e-22
-2.45465e-16
4.61793e-17
4.66428e-22
-2.36763e-16
4.40566e-17
2.4054e-22
-2.44447e-16
4.47708e-17
-2.42044e-16
4.62883e-17
5.45821e-20
-6.55739e-15
6.14375e-15
3.40163e-20
-6.57913e-15
6.16442e-15
-1.14848e-21
-6.60954e-15
6.19047e-15
-2.97807e-20
-6.48261e-15
6.07994e-15
-3.07241e-20
-6.36389e-15
5.94614e-15
-6.75592e-15
6.34349e-15
-5.84313e-18
-1.09286e-12
1.08033e-12
-3.86819e-17
-1.09697e-12
1.08428e-12
-6.04988e-17
-1.10573e-12
1.09269e-12
-7.68884e-17
-1.07073e-12
1.05891e-12
-4.80568e-17
-1.07091e-12
1.05883e-12
-1.11969e-12
1.10628e-12
-2.13234e-14
-1.44584e-10
1.41105e-10
-5.31904e-14
-1.45115e-10
1.41633e-10
-5.91293e-14
-1.46241e-10
1.42687e-10
-7.76366e-14
-1.41781e-10
1.38419e-10
-2.86658e-14
-1.4251e-10
1.38962e-10
-1.47422e-10
1.43869e-10
-1.56103e-11
7.46058e-09
-6.61074e-09
-2.44865e-11
6.79356e-09
-5.95116e-09
7.3548e-12
6.10603e-09
-5.30653e-09
-9.66272e-11
8.34925e-09
-7.42591e-09
1.94239e-11
6.82901e-09
-6.16032e-09
9.64241e-09
-8.76743e-09
-7.56147e-09
-0.00010466
-4.12653e-06
6.5e-09
-0.0001051
-4.23401e-06
4.02399e-08
-0.000106215
-4.3155e-06
-1.84852e-08
-0.000102067
-3.90726e-06
1.2825e-08
-0.000105129
-4.16453e-06
-0.000104459
-4.28438e-06
-9.47524e-08
-0.00103469
1.83448e-09
-0.00103789
7.51342e-08
-0.00104688
3.33835e-07
-0.00101799
4.1127e-07
-0.00103571
-0.00103745
1.14365e-12
-4.94749e-09
1.88195e-09
2.8987e-13
-4.94279e-09
1.87312e-09
-3.82237e-13
-4.94549e-09
1.88888e-09
-8.97774e-13
-4.94688e-09
1.88585e-09
-1.56019e-12
-4.94478e-09
1.857e-09
-4.95096e-09
1.87741e-09
1.84993e-14
4.68256e-16
-8.5935e-09
6.20732e-15
5.12896e-16
-8.58297e-09
-4.13189e-16
5.26463e-16
-8.58753e-09
-6.01668e-15
5.14757e-16
-8.58679e-09
-1.85924e-14
5.11723e-16
-8.57819e-09
5.23949e-16
-8.59687e-09
-1.45767e-20
-3.33825e-18
-6.6939e-21
-3.65587e-18
-1.90118e-21
-3.75249e-18
3.22145e-21
-3.66882e-18
1.39588e-20
-3.64691e-18
-3.73423e-18
5.56252e-11
-3.69505e-07
1.62579e-07
1.78568e-11
-3.68652e-07
1.62605e-07
-7.51783e-12
-3.69622e-07
1.62563e-07
-3.2124e-11
-3.69394e-07
1.62571e-07
-6.73088e-11
-3.67515e-07
1.62654e-07
-3.69313e-07
1.62599e-07
1.67371e-11
2.45602e-15
-5.1141e-14
5.62473e-12
2.69001e-15
-4.87526e-14
-8.91613e-13
2.76134e-15
-4.91121e-14
-7.24513e-12
2.69992e-15
-4.83749e-14
-1.90017e-11
2.68401e-15
-4.72609e-14
2.74838e-15
-5.04279e-14
-7.47274e-20
-2.23882e-17
-3.2083e-20
-2.45155e-17
-6.53959e-21
-2.51625e-17
2.25046e-20
-2.46002e-17
8.61225e-20
-2.44517e-17
-2.50415e-17
1.35202e-11
-2.1227e-12
7.30219e-09
3.25668e-12
-2.02919e-12
7.28604e-09
-2.50781e-12
-2.04161e-12
7.28901e-09
-1.03269e-11
-2.01138e-12
7.28081e-09
-2.0954e-11
-1.97002e-12
7.27685e-09
-2.09237e-12
7.26692e-09
1.71427e-18
1.59275e-14
-2.18977e-12
3.97341e-19
1.74456e-14
-2.09539e-12
-3.12971e-19
1.79077e-14
-2.10863e-12
-9.64473e-19
1.75093e-14
-2.07726e-12
-2.29909e-18
1.74065e-14
-2.03469e-12
1.78223e-14
-2.16062e-12
-4.22757e-19
-8.5051e-17
-1.02975e-19
-9.31698e-17
7.55504e-20
-9.56117e-17
2.47243e-19
-9.34745e-17
6.63833e-19
-9.29151e-17
-9.5138e-17
2.94211e-14
-8.92542e-11
-3.45613e-09
4.82979e-15
-8.75327e-11
-3.4556e-09
-7.98798e-15
-8.77783e-11
-3.45565e-09
-3.14267e-14
-8.71835e-11
-3.45562e-09
-6.3204e-14
-8.64104e-11
-3.4554e-09
-8.88014e-11
-3.45572e-09
8.2542e-16
1.1134e-14
-2.19653e-10
9.35086e-17
1.21945e-14
-2.11496e-10
-2.1035e-16
1.2517e-14
-2.12793e-10
-4.46846e-16
1.22379e-14
-2.0936e-10
-1.12737e-15
1.21659e-14
-2.05852e-10
1.24563e-14
-2.16702e-10
-2.50272e-19
1.40438e-17
-1.52408e-20
1.53872e-17
9.25751e-20
1.58042e-17
1.70149e-19
1.54482e-17
4.00162e-19
1.53523e-17
1.56382e-17
7.66933e-13
-4.00502e-09
4.42573e-09
5.35757e-13
-4.00274e-09
4.42149e-09
3.19316e-13
-4.00552e-09
4.42215e-09
-2.54375e-13
-4.00583e-09
4.42082e-09
-1.09153e-12
-3.99932e-09
4.41945e-09
-3.99618e-09
4.42475e-09
6.34071e-14
5.78859e-16
-1.1563e-13
1.86696e-14
6.34468e-16
-1.14553e-13
2.00026e-15
6.51633e-16
-1.14705e-13
-1.40501e-14
6.36956e-16
-1.142e-13
-6.30194e-14
6.33032e-16
-1.13738e-13
6.44623e-16
-1.15236e-13
-1.82044e-20
-4.66732e-17
-4.44589e-21
-4.66827e-17
1.82675e-21
-4.67001e-17
6.52396e-21
-4.67139e-17
1.86023e-20
-4.67338e-17
-4.66917e-17
4.29952e-13
-2.75104e-11
-5.18751e-10
8.66735e-14
-2.75373e-11
-5.18527e-10
-2.33129e-13
-2.75294e-11
-5.18532e-10
-2.92592e-13
-2.75254e-11
-5.18463e-10
-4.50586e-13
-2.75339e-11
-5.1832e-10
-2.75191e-11
-5.18558e-10
1.71182e-17
-2.57023e-14
-2.76059e-11
7.45217e-18
-2.57155e-14
-2.76316e-11
1.18665e-18
-2.57174e-14
-2.76239e-11
-6.64034e-18
-2.57183e-14
-2.76194e-11
-2.05146e-17
-2.57266e-14
-2.76274e-11
-2.57082e-14
-2.76142e-11
1.77495e-20
-2.57788e-14
4.60521e-21
-2.57919e-14
-3.10094e-21
-2.57939e-14
-8.51188e-21
-2.57948e-14
-1.52478e-20
-2.58031e-14
-2.57847e-14
1.33129e-15
-5.40815e-11
-1.1065e-10
1.25356e-15
-5.41416e-11
-1.10745e-10
1.24299e-15
-5.41287e-11
-1.10753e-10
7.36217e-16
-5.4124e-11
-1.10747e-10
-3.25595e-16
-5.41465e-11
-1.10767e-10
-5.40934e-11
-1.10708e-10
9.81156e-16
-3.94193e-13
-8.35764e-11
1.95178e-16
-3.94453e-13
-8.36622e-11
5.37462e-17
-3.94518e-13
-8.36422e-11
-1.09844e-15
-3.94587e-13
-8.36319e-11
-2.11365e-15
-3.94771e-13
-8.36637e-11
-3.94346e-13
-8.3598e-11
2.97093e-18
-4.19974e-13
-3.04282e-18
-4.20238e-13
-4.55386e-18
-4.2031e-13
-3.73339e-18
-4.20382e-13
-1.36032e-19
-4.20577e-13
-4.2013e-13
5.70095e-14
-1.40193e-08
1.34164e-08
3.41167e-14
-1.40432e-08
1.33988e-08
2.71757e-14
-1.40423e-08
1.34069e-08
1.25396e-14
-1.40419e-08
1.34097e-08
-2.51286e-14
-1.40458e-08
1.34058e-08
-1.40302e-08
1.34156e-08
-8.64479e-13
-1.95537e-10
-1.42099e-08
-2.32022e-13
-1.95643e-10
-1.42225e-08
-1.29786e-13
-1.95637e-10
-1.4223e-08
-1.47786e-13
-1.95653e-10
-1.42214e-08
9.25081e-13
-1.95713e-10
-1.42236e-08
-1.9559e-10
-1.42141e-08
-1.539e-15
-1.96071e-10
-4.87991e-15
-1.96196e-10
-4.51245e-15
-1.96182e-10
-2.56424e-15
-1.96206e-10
4.50309e-15
-1.96278e-10
-1.96131e-10
1.39552e-08
1.7279e-05
5.91447e-05
5.66934e-09
1.72578e-05
5.94404e-05
4.77719e-09
1.72507e-05
5.96718e-05
4.1617e-09
1.72517e-05
5.97956e-05
-7.104e-09
1.72654e-05
5.96796e-05
1.72528e-05
5.94737e-05
-9.6913e-10
8.41862e-07
1.64128e-05
2.6848e-11
8.42374e-07
1.63894e-05
4.68669e-11
8.41941e-07
1.63835e-05
-1.71746e-11
8.41968e-07
1.63844e-05
1.1358e-09
8.42486e-07
1.63971e-05
8.4172e-07
1.63869e-05
-1.19894e-11
8.36816e-07
-4.72403e-12
8.37305e-07
-4.99286e-12
8.36879e-07
-2.49527e-12
8.36902e-07
1.48261e-11
8.37401e-07
8.36675e-07
4.81503e-06
0.000168063
1.52773e-05
4.22376e-07
0.000167933
1.30505e-05
3.42081e-08
0.000167966
1.3605e-05
5.16307e-07
0.000167913
1.38115e-05
-2.55651e-06
0.000167428
1.31556e-05
0.000168564
1.46559e-05
-3.02636e-08
0.000200875
-1.78321e-05
7.22246e-08
0.000201127
-1.83706e-05
3.01658e-08
0.000200877
-1.79479e-05
-2.16704e-08
0.000200737
-1.78508e-05
1.40976e-07
0.000200619
-1.84194e-05
0.000201171
-1.75422e-05
-1.79325e-09
0.000180453
-2.56077e-11
0.000180622
-1.11916e-09
0.00018043
2.77159e-10
0.000180289
1.10219e-08
0.000180066
0.000180812
7.00032e-07
-0.00174365
0.00057631
-1.23675e-06
-0.00146825
0.000922982
-9.32092e-07
-0.00161619
0.000837456
3.17264e-07
-0.00166467
0.000774606
-4.18405e-07
-0.00152804
0.000878337
-0.00169505
0.00065807
-6.44566e-05
0.00985923
-0.0249578
8.99326e-06
0.00987043
-0.024969
1.02047e-05
0.00986078
-0.0249604
-9.40692e-06
0.0098567
-0.0249766
4.67424e-05
0.00984861
-0.0249796
0.00987217
-0.0249415
-1.74667e-06
5.77095e-21
-8.5066e-08
7.29296e-21
4.90827e-07
7.87479e-21
1.46161e-07
8.0716e-21
1.02899e-06
7.83093e-21
5.55106e-21
-0.00025388
-0.095898
0.337039
-1.51668e-05
-0.0949179
0.337235
-5.04294e-06
-0.0952123
0.337246
1.66516e-05
-0.0953113
0.337158
0.000257722
-0.0951144
0.337395
-0.0954678
0.337009
-2.10722e-05
9.29863e-21
0.0969925
3.5603e-05
1.17355e-20
0.0971696
6.13865e-05
1.26768e-20
0.0971098
-4.2952e-06
1.29883e-20
0.097045
-0.000117311
1.25919e-20
0.0969767
8.94649e-21
0.0971877
-4.37057e-26
-7.48731e-22
1.03678e-24
-9.48283e-22
2.42508e-24
-1.02331e-21
1.84433e-24
-1.0461e-21
-6.83785e-25
-1.00985e-21
-7.25112e-22
-4.42474e-05
-0.0680122
-0.120163
0.00163709
-8.41444e-06
-0.0684149
-0.11993
0.0016344
-5.5695e-05
-0.0691169
-0.120096
0.00164994
-5.4658e-06
-0.0667549
-0.120123
0.0016336
0.000403345
-0.0667369
-0.121264
0.00165749
-0.0686989
-0.121235
0.00161995
2.82381e-05
0.0529178
-0.265002
0.000377546
-0.000249468
0.0531524
-0.265679
0.000391174
-0.000838195
0.053462
-0.266714
0.000416242
-0.000154699
0.0522922
-0.264158
0.000345673
0.0014974
0.0514698
-0.264518
0.000343339
0.0539945
-0.266005
0.000397908
9.77964e-05
-0.0466045
0.013159
-8.92162e-05
-0.0467321
0.0136457
-0.00056321
-0.0471033
0.0140606
-9.70458e-05
-0.045476
0.0125088
0.000697568
-0.0428374
0.0122293
-0.0494221
0.0136439
-0.000204023
-0.264927
-0.304824
-0.000101113
-0.265128
-0.304278
-0.000167066
-0.265462
-0.304126
3.25436e-05
-0.265268
-0.307158
0.00124762
-0.265654
-0.309944
-0.265943
-0.305723
-0.000145726
-0.0277461
-0.190457
-0.000433361
-0.0280984
-0.190685
-0.0014393
-0.0279447
-0.190692
-0.000487191
-0.0284572
-0.189933
0.00393726
-0.0311709
-0.187373
-0.0249386
-0.192026
4.65372e-06
1.98348e-22
-2.1149e-05
2.50694e-22
-8.04942e-05
2.7047e-22
-1.80184e-05
2.76622e-22
0.000156931
2.66393e-22
1.89858e-22
-2.85846e-05
-0.237139
-0.449438
7.52689e-05
-0.237006
-0.449246
0.000102657
-0.236597
-0.448967
2.30412e-05
-0.23823
-0.451874
0.000394885
-0.238689
-0.454474
-0.237061
-0.448723
-3.74496e-05
1.13317e-22
-0.0989054
-2.71829e-05
1.43159e-22
-0.0989457
-7.98593e-05
1.5426e-22
-0.0987419
-6.42251e-05
1.58514e-22
-0.0991172
2.44086e-05
1.5342e-22
-0.0988782
1.08493e-22
-0.098394
1.60447e-26
4.54547e-22
9.7553e-26
5.7431e-22
9.59359e-26
6.1984e-22
1.22827e-25
6.34651e-22
-1.65822e-25
6.13273e-22
4.36269e-22
0.000223821
-0.229009
-0.444726
0.000312436
-0.229011
-0.444792
0.000577906
-0.228929
-0.44473
0.000319052
-0.229347
-0.444934
-0.000320613
-0.229919
-0.44523
-0.228276
-0.444548
-4.74584e-05
2.24708e-22
-0.280075
-2.76486e-05
2.84009e-22
-0.280223
-8.665e-05
3.06151e-22
-0.280261
-5.79158e-05
3.13982e-22
-0.28053
0.000269053
3.03856e-22
-0.281622
2.15056e-22
-0.279069
2.18023e-25
9.97417e-22
2.31094e-25
1.26074e-21
4.46349e-25
1.36074e-21
5.35262e-25
1.39226e-21
-3.58673e-25
1.34645e-21
9.59894e-22
0.000158382
-0.113363
-0.325768
0.000145338
-0.113274
-0.325749
0.000275465
-0.11334
-0.325768
7.04555e-05
-0.11309
-0.325884
-0.000591973
-0.112495
-0.326316
-0.113997
-0.325387
-4.48025e-05
4.79667e-22
-0.281093
-3.41599e-05
6.06264e-22
-0.281331
-0.000228222
6.53959e-22
-0.281289
3.91544e-06
6.70369e-22
-0.281181
0.000804591
6.49322e-22
-0.281421
4.60077e-22
-0.281081
5.23444e-25
1.54279e-21
4.0934e-25
1.95104e-21
3.85076e-25
2.10629e-21
4.32701e-25
2.15392e-21
2.40088e-25
2.08222e-21
1.48859e-21
2.9488e-06
0.0170234
7.01667e-05
0.0171706
0.000187893
0.0171158
4.86251e-05
0.0171702
-0.000496987
0.0173805
0.0168804
-1.23507e-05
1.19333e-21
2.52891e-05
1.50815e-21
3.50819e-07
1.62822e-21
1.21945e-05
1.66636e-21
0.000104033
1.61252e-21
1.14974e-21
8.49425e-25
8.38009e-25
1.25647e-24
3.80573e-25
-1.95577e-24
6.81411e-33
1.62756e-27
-2.84221e-25
1.42428e-32
1.63168e-27
-2.84999e-25
1.64421e-32
1.63584e-27
-2.85891e-25
1.57328e-32
1.60454e-27
-2.79927e-25
1.26211e-32
1.6141e-27
-2.81366e-25
1.63284e-27
-2.85635e-25
6.72285e-35
2.54367e-29
-2.85995e-27
1.06686e-34
2.54968e-29
-2.86727e-27
1.11895e-34
2.55517e-29
-2.87487e-27
9.39669e-35
2.50973e-29
-2.81865e-27
6.28823e-35
2.52625e-29
-2.83542e-27
2.5491e-29
-2.86955e-27
2.31117e-37
-1.17619e-29
3.05072e-37
-1.17888e-29
3.02756e-37
-1.1814e-29
2.28167e-37
-1.1607e-29
1.30403e-37
-1.16748e-29
-1.1783e-29
1.49964e-29
2.02952e-24
-3.00273e-22
2.1985e-29
2.03509e-24
-3.01163e-22
2.54561e-29
2.04146e-24