/*--------------------------------*- C++ -*----------------------------------*\
| =========                 |                                                 |
| \\      /  F ield         | OpenFOAM: The Open Source CFD Toolbox           |
|  \\    /   O peration     | Version:  v1612+                                |
|   \\  /    A nd           | Web:      www.OpenFOAM.com                      |
|    \\/     M anipulation  |                                                 |
\*---------------------------------------------------------------------------*/
FoamFile
{
    version     2.0;
    format      ascii;
    class       volScalarField;
    location    "3.65";
    object      p_rgh;
}
// * * * * * * * * * * * * * * * * * * * * * * * * * * * * * * * * * * * * * //

dimensions      [1 -1 -2 0 0 0 0];

internalField   nonuniform List<scalar> 
1116
(
6812.98
6812.94
6812.95
6812.96
6812.94
6812.96
6658.78
6658.73
6658.74
6658.76
6658.75
6658.76
6935.06
6935.03
6935.04
6935.06
6935.06
6935.03
7490.25
7490.23
7490.24
7490.25
7490.25
7490.24
8137.24
8137.22
8137.22
8137.24
8137.24
8137.23
8874.21
8874.18
8874.19
8874.2
8874.2
8874.21
9863.43
9863.38
9863.39
9863.39
9863.38
9863.42
11716.8
11716.8
11716.8
11716.8
11716.8
11716.9
14437.4
14437.4
14437.4
14437.4
14437.4
14437.4
18529
18528.9
18528.9
18528.9
18528.9
18528.9
21838.1
21838
21838
21838
21837.9
21838
24069.5
24069.4
24069.4
24069.4
24069.4
24069.4
329.976
329.948
329.957
329.933
329.922
330.014
39.6026
39.5908
39.5883
39.5967
39.6047
39.6133
52.0884
52.0919
52.0855
52.1002
52.1147
52.0945
168.263
168.273
168.265
168.28
168.297
168.271
415.63
415.645
415.636
415.65
415.67
415.644
813.501
813.513
813.51
813.523
813.545
813.523
1359.97
1359.99
1359.99
1360.01
1360.03
1360.01
2496.86
2496.79
2496.81
2496.82
2496.81
2496.87
7034.32
7034.06
7034.15
7034.15
7034.07
7034.3
17959.7
17959.3
17959.4
17959.4
17959.2
17959.6
23858.2
23857.8
23857.9
23857.9
23857.7
23857.9
26610.6
26610.5
26610.5
26610.5
26610.5
26610.5
1.4391
1.43936
1.43939
1.43963
1.4398
1.43935
1.95224
1.9524
1.95248
1.95262
1.9527
1.95249
3.53577
3.5358
3.53583
3.53576
3.53569
3.53562
6.93203
6.93198
6.93193
6.93176
6.93165
6.93173
8.75585
8.75583
8.75585
8.7559
8.75599
8.75616
9.88929
9.88936
9.88952
9.88983
9.8902
9.89054
15.3741
15.3737
15.3732
15.3732
15.3736
15.374
34.5407
34.5406
34.5386
34.5373
34.5373
34.5362
140.317
140.307
140.309
140.308
140.307
140.313
5303.37
5301.89
5302.49
5302.47
5302.03
5302.94
25275.3
25272.5
25273.5
25273.3
25272.2
25274.3
31653.4
31653.4
31653.4
31653.4
31653.4
31653.4
1.93958
1.93972
1.93978
1.93979
1.93971
1.93948
2.88193
2.88209
2.88214
2.88209
2.88199
2.88176
4.09327
4.09329
4.0933
4.09314
4.09299
4.09298
7.08994
7.08989
7.08988
7.08973
7.08966
7.08991
9.82132
9.82128
9.82133
9.82129
9.82137
9.82162
10.879
10.879
10.879
10.879
10.879
10.8792
12.1388
12.1381
12.138
12.1379
12.1378
12.1385
13.6966
13.6916
13.6918
13.6915
13.6909
13.6935
29.9819
29.9569
29.9649
29.9644
29.9566
29.9739
631.643
629.015
630.028
630.192
629.23
630.822
21388.3
21384.8
21384
21383.4
21383.9
21385.2
37167.6
37167
37167.5
37167.6
37167.2
37167.6
0.74084
0.740771
0.740773
0.740807
0.740849
0.740881
0.766539
0.766546
0.766586
0.766639
0.766697
0.766758
0.817587
0.817645
0.817692
0.817734
0.817776
0.817818
0.892353
0.892407
0.892436
0.892461
0.892488
0.892509
0.98779
0.98781
0.987827
0.987854
0.987889
0.987915
1.09713
1.09712
1.09714
1.09717
1.09721
1.09722
1.20574
1.2057
1.2057
1.20569
1.20567
1.20564
1.28406
1.28398
1.28391
1.28383
1.28374
1.28366
1.28236
1.28226
1.28209
1.28186
1.28164
1.28148
1.0765
1.07646
1.07647
1.0765
1.07666
1.0768
0.616661
0.616789
0.617029
0.616922
0.617303
0.617604
-0.757503
-0.757303
-0.756859
-0.756643
-0.756345
-0.756377
0.712154
0.712134
0.712166
0.712221
0.712286
0.71235
0.739648
0.739688
0.739742
0.7398
0.739865
0.739934
0.792757
0.79282
0.792857
0.792883
0.792907
0.792929
0.865596
0.865633
0.865632
0.865621
0.865609
0.865595
0.947582
0.947574
0.94755
0.947532
0.947517
0.947497
1.02204
1.022
1.02197
1.02196
1.02194
1.02191
1.06506
1.065
1.06497
1.06496
1.06496
1.06495
1.0555
1.05548
1.05555
1.05569
1.05585
1.05596
1.0154
1.01553
1.01595
1.01651
1.01722
1.01764
1.08469
1.08502
1.08565
1.08584
1.08719
1.08763
0.790217
0.790593
0.79151
0.790494
0.791639
0.792737
-2.5312
-2.53095
-2.52943
-2.52957
-2.52943
-2.52906
0.651916
0.651933
0.651978
0.652038
0.652102
0.652163
0.683343
0.683394
0.683444
0.683491
0.683538
0.683583
0.748519
0.748562
0.748575
0.748572
0.748562
0.74855
0.853153
0.853147
0.85311
0.853059
0.853006
0.85296
1.00878
1.00873
1.00867
1.0086
1.00854
1.00849
1.23336
1.2333
1.23324
1.23318
1.23312
1.23306
1.54368
1.54364
1.54364
1.54365
1.54367
1.54371
1.91771
1.91779
1.91801
1.9183
1.91867
1.91904
2.2772
2.27742
2.27787
2.27834
2.27917
2.28015
2.25186
2.25226
2.25334
2.25324
2.25475
2.25536
2.18972
2.18968
2.19387
2.18904
2.1915
2.19618
-4.23629
-4.23427
-4.22908
-4.24016
-4.22858
-4.24043
0.557199
0.557242
0.557288
0.557337
0.557383
0.557422
0.58867
0.588719
0.588751
0.588772
0.588786
0.588793
0.652519
0.652533
0.652511
0.652472
0.652427
0.652384
0.746719
0.746676
0.746607
0.746529
0.746457
0.746407
0.862489
0.86243
0.862368
0.862308
0.862259
0.862229
0.980626
0.980612
0.980603
0.980592
0.980579
0.980572
1.06764
1.0677
1.06779
1.06787
1.06799
1.06807
1.07349
1.07368
1.07395
1.07408
1.07454
1.07462
0.965683
0.966067
0.96697
0.966502
0.968158
0.967671
2.41631
2.41749
2.42682
2.40439
2.42544
2.41498
6.48828
6.48712
6.50959
6.44458
6.47675
6.47634
-14.0488
-14.0442
-14.0266
-14.082
-14.067
-14.048
1.40304
1.40302
1.40296
1.40282
1.40267
1.40258
0.663056
0.662975
0.66286
0.662731
0.66264
0.66271
-0.736023
-0.736096
-0.736129
-0.736152
-0.736126
-0.735934
1.93387
1.93388
1.93382
1.93372
1.93364
1.93361
0.98146
0.981416
0.981433
0.981442
0.981448
0.981654
-0.648296
-0.648323
-0.648271
-0.648203
-0.648121
-0.647968
2.67493
2.67502
2.67502
2.67499
2.67496
2.67493
1.67219
1.6722
1.67224
1.67229
1.67232
1.67236
-0.446405
-0.446514
-0.446493
-0.446446
-0.446427
-0.446435
4.04301
4.04311
4.04304
4.04301
4.04306
4.04308
2.6915
2.69136
2.69124
2.69119
2.69119
2.69122
-0.166402
-0.166619
-0.166692
-0.166707
-0.166703
-0.166682
5.61437
5.61451
5.61448
5.6145
5.61462
5.61453
3.81599
3.81583
3.81567
3.81559
3.81556
3.8155
0.350169
0.35017
0.350172
0.350185
0.350195
0.350189
7.52321
7.52326
7.52322
7.52318
7.52306
7.52283
4.86506
4.86515
4.86516
4.86506
4.86487
4.86464
1.25649
1.25658
1.2566
1.25656
1.25647
1.25645
11.1174
11.1172
11.1169
11.1165
11.1162
11.1161
5.71899
5.71911
5.71897
5.71853
5.71828
5.71821
2.20978
2.20978
2.20967
2.20947
2.20945
2.20933
7.91259
7.91251
7.91211
7.91114
7.91047
7.90969
1.60751
1.60676
1.60471
1.60317
1.60426
1.6045
6.21473
6.2143
6.21336
6.21261
6.21302
6.213
20.4032
20.3921
20.3953
20.3949
20.3889
20.3955
15.7678
15.7831
15.7676
15.7629
15.7775
15.7621
1.9736
1.97797
1.97257
1.97022
1.97574
1.97049
36.6251
36.5809
36.6117
36.6067
36.5739
36.5899
21.5592
21.5675
21.565
21.5636
21.5709
21.5517
6.21325
6.21289
6.2135
6.21334
6.21523
6.21485
49.1338
50.0178
50.5653
51.0397
50.8078
50.2328
315.301
314.644
314.594
314.663
314.179
315.103
107.026
106.867
106.892
106.902
106.68
107.154
30390.6
30397.1
30394.5
30393.6
30390.6
30396.8
5140.5
5146.4
5143.88
5143.81
5144.57
5142
-20.0212
-20.029
-20.0279
-20.0285
-20.0316
-20.0181
1698.14
1702.89
1715.78
1663.67
1675.28
1703.04
3250.31
3262.92
3293.99
3195.83
3184.07
3286.95
1426.97
1434.14
1445.74
1402.49
1375.18
1461.45
12047.9
12041.9
12050.1
12051.8
12096.7
12074.8
7507.31
7520.48
7535.46
7491.92
7438.13
7564.56
273.501
270.437
272.854
265.574
234.713
308.991
20681.8
20671.2
20668.3
20742.3
20807.8
20693.1
2223.17
2224.33
2214.53
2231.16
2219.56
2212.06
-61.4971
-61.4938
-61.4516
-61.3511
-61.188
-61.3901
28430.7
28428.7
28425.3
28477.1
28536.7
28397.6
4655.06
4659.62
4657.88
4661.68
4695.15
4613.42
-28.0245
-28.0149
-28.0025
-27.9621
-27.9195
-28.0164
33913.1
33913
33913.7
33914.5
33915.2
33916.3
11876.8
11885.3
11884.8
11887.4
11911.2
11858.5
-17.1801
-17.1769
-17.1752
-17.1571
-17.1548
-17.1888
32955.3
32956.7
32956.8
32957.9
32958.4
32956.8
12719.9
12729
12726.7
12725.2
12729.8
12720.6
-13.9356
-13.9342
-13.9342
-13.9286
-13.9231
-13.9442
0.430319
0.430363
0.430396
0.430423
0.430444
0.430454
0.271694
0.271722
0.271737
0.271744
0.271742
0.271729
0.0974868
0.097494
0.0974958
0.0974937
0.0974859
0.0974696
0.460644
0.460673
0.460679
0.460675
0.460659
0.460632
0.291482
0.291489
0.29148
0.291461
0.291431
0.29139
0.105607
0.105604
0.105595
0.105581
0.105562
0.105538
0.526786
0.526766
0.526723
0.52667
0.526615
0.526567
0.33292
0.332889
0.332852
0.33281
0.332769
0.332741
0.12346
0.123446
0.123429
0.12341
0.123396
0.123394
0.646475
0.646412
0.646349
0.646294
0.646257
0.646246
0.399379
0.399332
0.399305
0.399291
0.399295
0.399323
0.154338
0.154329
0.154325
0.154327
0.15434
0.154364
0.858556
0.858515
0.858495
0.858494
0.858513
0.858544
0.494089
0.494075
0.494097
0.494139
0.494194
0.494246
0.204219
0.204223
0.204236
0.204254
0.204272
0.204281
1.23917
1.23919
1.23923
1.23926
1.23932
1.23939
0.611492
0.611531
0.611592
0.611667
0.611743
0.611811
0.259655
0.259661
0.259656
0.259653
0.259644
0.259642
1.93263
1.93274
1.93278
1.93283
1.93303
1.93331
0.709704
0.709881
0.71011
0.710369
0.710629
0.710939
0.336283
0.336388
0.336369
0.336386
0.336368
0.336286
2.95001
2.95024
2.95031
2.95008
2.9507
2.95251
1.25486
1.25507
1.25577
1.25633
1.25776
1.25636
0.748875
0.749016
0.749911
0.749906
0.751269
0.749987
5.3393
5.34017
5.34095
5.33613
5.33466
5.35464
-2.14222
-2.14027
-2.13812
-2.13724
-2.13613
-2.1296
-0.955997
-0.954191
-0.954707
-0.959708
-0.959217
-0.965165
10.2425
10.242
10.2434
10.2419
10.218
10.2795
2.12749
2.12627
2.13279
2.14671
2.16015
2.13457
2.8962
2.89344
2.90424
2.91417
2.93927
2.89809
-8.83354
-8.82777
-8.85461
-8.85478
-8.94124
-8.81248
-29.1987
-29.1847
-29.1701
-29.1907
-29.203
-29.1699
1.59347
1.64365
1.73104
1.51377
1.51071
1.58919
-28.6565
-28.6381
-28.5911
-28.7287
-28.6999
-28.6022
-70.9923
-71.0927
-71.1182
-70.5361
-70.3006
-70.797
-16.5308
-14.8565
-13.2968
-18.1451
-19.1019
-13.8923
)
;

boundaryField
{
    seabed_topleft_surface
    {
        type            fixedFluxPressure;
        gradient        uniform 0;
        value           nonuniform List<scalar> 
72
(
6812.98
6812.94
6812.95
6812.96
6812.94
6812.96
6658.78
6658.73
6658.74
6658.76
6658.75
6658.76
6935.06
6935.03
6935.04
6935.06
6935.06
6935.03
7490.25
7490.23
7490.24
7490.25
7490.25
7490.24
8137.24
8137.22
8137.22
8137.24
8137.24
8137.23
8874.21
8874.18
8874.19
8874.2
8874.2
8874.21
9863.43
9863.38
9863.39
9863.39
9863.38
9863.42
11716.8
11716.8
11716.8
11716.8
11716.8
11716.9
14437.4
14437.4
14437.4
14437.4
14437.4
14437.4
18529
18528.9
18528.9
18528.9
18528.9
18528.9
21838.1
21838
21838
21838
21837.9
21838
24069.5
24069.4
24069.4
24069.4
24069.4
24069.4
)
;
    }
    seabed_topright_surface
    {
        type            fixedFluxPressure;
        gradient        uniform 0;
        value           nonuniform List<scalar> 
72
(
0.74084
0.740771
0.740773
0.740807
0.740849
0.740881
0.766539
0.766546
0.766586
0.766639
0.766697
0.766758
0.817587
0.817645
0.817692
0.817734
0.817776
0.817818
0.892353
0.892407
0.892436
0.892461
0.892488
0.892509
0.98779
0.98781
0.987827
0.987854
0.987889
0.987915
1.09713
1.09712
1.09714
1.09717
1.09721
1.09722
1.20574
1.2057
1.2057
1.20569
1.20567
1.20564
1.28406
1.28398
1.28391
1.28383
1.28374
1.28366
1.28236
1.28226
1.28209
1.28186
1.28164
1.28148
1.0765
1.07646
1.07647
1.0765
1.07666
1.0768
0.616661
0.616789
0.617029
0.616922
0.617303
0.617604
-0.757503
-0.757303
-0.756859
-0.756643
-0.756345
-0.756377
)
;
    }
    breakwater_top_surface
    {
        type            fixedFluxPressure;
        gradient        uniform 0;
        value           nonuniform List<scalar> 
36
(
1698.14
1702.89
1715.78
1663.67
1675.28
1703.04
12047.9
12041.9
12050.1
12051.8
12096.7
12074.8
20681.8
20671.2
20668.3
20742.3
20807.8
20693.1
28430.7
28428.7
28425.3
28477.1
28536.7
28397.6
33913.1
33913
33913.7
33914.5
33915.2
33916.3
32955.3
32956.7
32956.8
32957.9
32958.4
32956.8
)
;
    }
    breakwater_left_surface
    {
        type            fixedFluxPressure;
        gradient        uniform 0;
        value           nonuniform List<scalar> 
24
(
24069.5
24069.4
24069.4
24069.4
24069.4
24069.4
26610.6
26610.5
26610.5
26610.5
26610.5
26610.5
31653.4
31653.4
31653.4
31653.4
31653.4
31653.4
37167.6
37167
37167.5
37167.6
37167.2
37167.6
)
;
    }
    breakwater_right_surface
    {
        type            fixedFluxPressure;
        gradient        uniform 0;
        value           nonuniform List<scalar> 
24
(
-0.757503
-0.757303
-0.756859
-0.756643
-0.756345
-0.756377
-2.5312
-2.53095
-2.52943
-2.52957
-2.52943
-2.52906
-4.23629
-4.23427
-4.22908
-4.24016
-4.22858
-4.24043
-14.0488
-14.0442
-14.0266
-14.082
-14.067
-14.048
)
;
    }
    water_front_surface
    {
        type            fixedFluxPressure;
        gradient        uniform 0;
        value           nonuniform List<scalar> 
186
(
6812.98
6658.78
6935.06
7490.25
8137.24
8874.21
9863.43
11716.8
14437.4
18529
21838.1
24069.5
329.976
39.6026
52.0884
168.263
415.63
813.501
1359.97
2496.86
7034.32
17959.7
23858.2
26610.6
1.4391
1.95224
3.53577
6.93203
8.75585
9.88929
15.3741
34.5407
140.317
5303.37
25275.3
31653.4
1.93958
2.88193
4.09327
7.08994
9.82132
10.879
12.1388
13.6966
29.9819
631.643
21388.3
37167.6
0.74084
0.766539
0.817587
0.892353
0.98779
1.09713
1.20574
1.28406
1.28236
1.0765
0.616661
-0.757503
0.712154
0.739648
0.792757
0.865596
0.947582
1.02204
1.06506
1.0555
1.0154
1.08469
0.790217
-2.5312
0.651916
0.683343
0.748519
0.853153
1.00878
1.23336
1.54368
1.91771
2.2772
2.25186
2.18972
-4.23629
0.557199
0.58867
0.652519
0.746719
0.862489
0.980626
1.06764
1.07349
0.965683
2.41631
6.48828
-14.0488
1.40304
0.663056
-0.736023
1.93387
0.98146
-0.648296
2.67493
1.67219
-0.446405
4.04301
2.6915
-0.166402
5.61437
3.81599
0.350169
7.52321
4.86506
1.25649
11.1174
5.71899
2.20978
7.91259
1.60751
6.21473
20.4032
15.7678
1.9736
36.6251
21.5592
6.21325
49.1338
315.301
107.026
30390.6
5140.5
-20.0212
1698.14
3250.31
1426.97
12047.9
7507.31
273.501
20681.8
2223.17
-61.4971
28430.7
4655.06
-28.0245
33913.1
11876.8
-17.1801
32955.3
12719.9
-13.9356
0.430319
0.271694
0.0974868
0.460644
0.291482
0.105607
0.526786
0.33292
0.12346
0.646475
0.399379
0.154338
0.858556
0.494089
0.204219
1.23917
0.611492
0.259655
1.93263
0.709704
0.336283
2.95001
1.25486
0.748875
5.3393
-2.14222
-0.955997
10.2425
2.12749
2.8962
-8.83354
-29.1987
1.59347
-28.6565
-70.9923
-16.5308
)
;
    }
    water_back_surface
    {
        type            fixedFluxPressure;
        gradient        uniform 0;
        value           nonuniform List<scalar> 
186
(
6812.96
6658.76
6935.03
7490.24
8137.23
8874.21
9863.42
11716.9
14437.4
18528.9
21838
24069.4
330.014
39.6133
52.0945
168.271
415.644
813.523
1360.01
2496.87
7034.3
17959.6
23857.9
26610.5
1.43935
1.95249
3.53562
6.93173
8.75616
9.89054
15.374
34.5362
140.313
5302.94
25274.3
31653.4
1.93948
2.88176
4.09298
7.08991
9.82162
10.8792
12.1385
13.6935
29.9739
630.822
21385.2
37167.6
0.740881
0.766758
0.817818
0.892509
0.987915
1.09722
1.20564
1.28366
1.28148
1.0768
0.617604
-0.756377
0.71235
0.739934
0.792929
0.865595
0.947497
1.02191
1.06495
1.05596
1.01764
1.08763
0.792737
-2.52906
0.652163
0.683583
0.74855
0.85296
1.00849
1.23306
1.54371
1.91904
2.28015
2.25536
2.19618
-4.24043
0.557422
0.588793
0.652384
0.746407
0.862229
0.980572
1.06807
1.07462
0.967671
2.41498
6.47634
-14.048
1.40258
0.66271
-0.735934
1.93361
0.981654
-0.647968
2.67493
1.67236
-0.446435
4.04308
2.69122
-0.166682
5.61453
3.8155
0.350189
7.52283
4.86464
1.25645
11.1161
5.71821
2.20933
7.90969
1.6045
6.213
20.3955
15.7621
1.97049
36.5899
21.5517
6.21485
50.2328
315.103
107.154
30396.8
5142
-20.0181
1703.04
3286.95
1461.45
12074.8
7564.56
308.991
20693.1
2212.06
-61.3901
28397.6
4613.42
-28.0164
33916.3
11858.5
-17.1888
32956.8
12720.6
-13.9442
0.430454
0.271729
0.0974696
0.460632
0.29139
0.105538
0.526567
0.332741
0.123394
0.646246
0.399323
0.154364
0.858544
0.494246
0.204281
1.23939
0.611811
0.259642
1.93331
0.710939
0.336286
2.95251
1.25636
0.749987
5.35464
-2.1296
-0.965165
10.2795
2.13457
2.89809
-8.81248
-29.1699
1.58919
-28.6022
-70.797
-13.8923
)
;
    }
    water_left_surface
    {
        type            fixedFluxPressure;
        gradient        uniform 0;
        value           nonuniform List<scalar> 
42
(
6812.98
6812.94
6812.95
6812.96
6812.94
6812.96
329.976
329.948
329.957
329.933
329.922
330.014
1.4391
1.43936
1.43939
1.43963
1.4398
1.43935
1.93958
1.93972
1.93978
1.93979
1.93971
1.93948
1.40304
1.40302
1.40296
1.40282
1.40267
1.40258
0.663056
0.662975
0.66286
0.662731
0.66264
0.66271
-0.736023
-0.736096
-0.736129
-0.736152
-0.736126
-0.735934
)
;
    }
    water_right_surface
    {
        type            fixedFluxPressure;
        gradient        uniform 0;
        value           nonuniform List<scalar> 
42
(
0.74084
0.740771
0.740773
0.740807
0.740849
0.740881
0.712154
0.712134
0.712166
0.712221
0.712286
0.71235
0.651916
0.651933
0.651978
0.652038
0.652102
0.652163
0.557199
0.557242
0.557288
0.557337
0.557383
0.557422
0.430319
0.430363
0.430396
0.430423
0.430444
0.430454
0.271694
0.271722
0.271737
0.271744
0.271742
0.271729
0.0974868
0.097494
0.0974958
0.0974937
0.0974859
0.0974696
)
;
    }
    water_top_surface
    {
        type            totalPressure;
        rho             rho;
        psi             none;
        gamma           1;
        p0              uniform 0;
        value           nonuniform List<scalar> 
180
(
-1.2392
-1.2395
-1.23948
-1.23948
-1.23949
-1.23922
-1.27176
-1.27203
-1.27199
-1.27195
-1.27195
-1.27163
-1.04735
-1.04755
-1.04748
-1.04743
-1.04741
-1.04713
-0.977279
-0.977428
-0.977355
-0.977319
-0.97733
-0.977128
-0.777219
-0.777396
-0.777372
-0.777383
-0.777438
-0.777298
-0.621337
-0.621566
-0.621575
-0.621582
-0.621594
-0.621381
-0.449517
-0.449692
-0.449674
-0.449656
-0.449644
-0.44945
-0.383507
-0.383598
-0.383624
-0.383666
-0.38368
-0.383625
0
0
0
0
0
0
0
0
0
0
0
0
0
0
0
0
0
0
-28.7372
-28.7344
-28.74
-28.7303
-28.7379
-28.7376
0
0
0
0
0
0
-1.57318
-1.73518
-1.67138
-1.79708
-2.89521
0
-49.404
-49.4205
-49.2882
-49.4735
-49.3324
-49.6319
-14.2471
-14.2566
-14.2259
-14.2526
-14.2714
-14.1668
-8.95438
-8.95764
-8.94282
-8.9791
-9.02717
-8.8835
-11.6545
-11.6594
-11.6539
-11.6536
-11.6771
-11.6413
0
0
0
0
0
0
0
0
0
0
0
0
0
0
0
0
0
0
0
0
0
0
0
0
0
0
0
0
0
0
0
0
0
0
0
0
0
0
0
0
0
0
0
0
0
0
0
0
0
0
0
0
0
0
0
0
0
0
0
0
-0.7987
-0.795009
-0.790886
-0.802916
-0.830513
-0.771128
0
0
0
0
0
0
)
;
    }
}


// ************************************************************************* //
