/*--------------------------------*- C++ -*----------------------------------*\
| =========                 |                                                 |
| \\      /  F ield         | OpenFOAM: The Open Source CFD Toolbox           |
|  \\    /   O peration     | Version:  v1612+                                |
|   \\  /    A nd           | Web:      www.OpenFOAM.com                      |
|    \\/     M anipulation  |                                                 |
\*---------------------------------------------------------------------------*/
FoamFile
{
    version     2.0;
    format      ascii;
    class       surfaceScalarField;
    location    "3.65";
    object      phi;
}
// * * * * * * * * * * * * * * * * * * * * * * * * * * * * * * * * * * * * * //

dimensions      [0 3 -1 0 0 0 0];

internalField   nonuniform List<scalar> 
2916
(
7.52276e-06
0.355403
-0.35541
8.44589e-06
0.355404
-0.355405
1.17358e-05
0.355406
-0.355409
5.57175e-06
0.355406
-0.3554
-6.05511e-06
0.355405
-0.355394
0.355402
-0.355408
1.49929e-05
0.665017
-0.30963
1.0502e-05
0.665025
-0.309616
1.31998e-05
0.665024
-0.309621
5.49898e-06
0.665023
-0.30961
-1.44438e-05
0.665024
-0.309599
0.665019
-0.309631
1.54141e-05
0.858179
-0.193177
1.04515e-05
0.858195
-0.193166
8.54208e-06
0.858191
-0.193165
4.20531e-06
0.858191
-0.193164
-6.86985e-06
0.858195
-0.19316
0.85818
-0.193168
1.60068e-05
0.994101
-0.135938
9.96316e-06
0.994126
-0.135924
6.9604e-06
0.994119
-0.135925
3.57712e-06
0.994119
-0.135925
-5.78021e-06
0.994124
-0.13592
0.994102
-0.135929
1.56893e-05
1.09027
-0.096182
9.00455e-06
1.0903
-0.0961648
5.47335e-06
1.09029
-0.0961674
2.2741e-06
1.09029
-0.0961677
-6.49613e-06
1.09029
-0.0961623
1.09027
-0.0961736
1.43458e-05
1.13794
-0.0476875
8.27315e-06
1.13797
-0.0476696
4.01921e-06
1.13797
-0.0476722
1.83165e-07
1.13797
-0.0476722
-7.0276e-06
1.13797
-0.0476679
1.13794
-0.0476797
1.21503e-05
1.08917
0.0487597
7.77726e-06
1.0892
0.0487766
2.09929e-06
1.0892
0.0487766
-2.7024e-06
1.08919
0.048777
-7.61842e-06
1.0892
0.0487778
1.08917
0.0487677
7.52079e-06
0.837668
0.251493
6.29962e-06
0.837697
0.251504
9.01404e-08
0.837696
0.251506
-5.22389e-06
0.837693
0.251507
-7.90422e-06
0.837697
0.251503
0.837658
0.2515
7.16058e-06
0.344719
0.492942
5.80417e-06
0.344743
0.492956
-6.96637e-07
0.344747
0.492955
-7.23189e-06
0.344743
0.492956
-1.38507e-05
0.344752
0.492952
0.344694
0.49295
1.65239e-05
-0.1971
0.541802
7.31981e-06
-0.197076
0.541828
2.795e-07
-0.197067
0.541821
-7.12085e-06
-0.197072
0.541822
-2.25076e-05
-0.197055
0.541822
-0.197141
0.541813
3.09625e-05
-0.420312
0.223182
7.18052e-06
-0.420288
0.223236
1.29594e-07
-0.420283
0.223224
-5.16389e-06
-0.420286
0.22322
-2.37077e-05
-0.42027
0.223233
-0.420339
0.223174
-7.82811e-06
-0.420305
-1.51185e-05
-0.42028
-1.12485e-05
-0.420287
-3.80436e-06
-0.420294
1.31104e-05
-0.420287
-0.420326
-1.22511e-05
0.771925
-1.12732
-8.95062e-06
0.771921
-1.12733
4.03963e-05
0.771928
-1.12739
1.47174e-05
0.771911
-1.12728
-6.58261e-05
0.771902
-1.12722
0.771933
-1.12741
-3.73509e-05
1.37354
-0.911208
-2.10215e-05
1.37351
-0.911223
3.42245e-06
1.37352
-0.911243
2.12669e-05
1.37349
-0.911209
2.65359e-05
1.37347
-0.911175
1.37355
-0.911221
-4.41201e-05
1.8169
-0.636496
-1.43133e-05
1.81687
-0.636558
-1.79425e-05
1.81689
-0.636527
1.98303e-05
1.81685
-0.636556
9.64537e-05
1.81682
-0.636586
1.81692
-0.636445
-2.30997e-05
1.98856
-0.307572
-5.01236e-06
1.98856
-0.307631
-4.3757e-06
1.98855
-0.307592
1.77671e-05
1.98853
-0.307628
6.24069e-05
1.98852
-0.307667
1.98858
-0.307519
1.16583e-06
2.04642
-0.15404
2.28476e-06
2.04646
-0.15407
2.21899e-06
2.04643
-0.154043
1.28501e-05
2.04641
-0.154065
2.55886e-05
2.04643
-0.154083
2.04642
-0.153997
2.15616e-05
2.08835
-0.0896466
7.97597e-06
2.08845
-0.0896382
5.47121e-06
2.08838
-0.0896262
9.72285e-06
2.08837
-0.0896366
-1.46045e-06
2.08841
-0.0896314
2.08835
-0.089607
3.28633e-05
2.04625
0.0908251
8.19492e-06
2.0464
0.0908501
2.49667e-06
2.04632
0.0908448
4.05824e-06
2.04632
0.0908329
-1.50503e-05
2.04636
0.09084
2.04626
0.0908414
5.33941e-05
1.64781
0.649885
9.35948e-06
1.64797
0.649973
2.15396e-06
1.6479
0.649938
-1.81299e-06
1.64789
0.649933
-3.89853e-05
1.64795
0.649957
1.64783
0.649896
6.4442e-05
1.09877
1.04192
1.87482e-05
1.09894
1.04204
5.21873e-06
1.09887
1.042
-5.60239e-06
1.09886
1.042
-4.96359e-05
1.09892
1.04203
1.0988
1.04193
6.84375e-05
0.64916
0.99134
2.30257e-05
0.649341
0.991471
1.08773e-05
0.64928
0.99142
-2.36407e-06
0.64928
0.99142
-3.93348e-05
0.649335
0.991442
0.649196
0.991375
9.13375e-05
0.270408
0.601842
2.57022e-05
0.270583
0.602059
1.29213e-05
0.270539
0.601977
4.16785e-07
0.270538
0.601974
-4.65758e-05
0.270587
0.602028
0.270442
0.601881
-2.58642e-05
-0.149871
-1.48032e-05
-0.149708
-3.4027e-06
-0.149759
7.28757e-06
-0.149766
2.77891e-05
-0.14972
-0.149857
-0.000130712
0.032158
-1.15935
-6.37979e-05
0.0321352
-1.15953
-4.3402e-05
0.0321222
-1.15953
4.20066e-05
0.0321324
-1.1595
0.000178522
0.0321516
-1.1595
0.0321441
-1.15937
-0.000111479
0.141113
-1.02005
-3.73365e-05
0.141074
-1.02024
7.66227e-06
0.141057
-1.02022
6.49778e-05
0.141077
-1.02021
0.000153646
0.141112
-1.02022
0.141118
-1.02004
-7.62194e-05
0.415725
-0.911036
-1.26216e-05
0.415688
-0.91124
4.04219e-05
0.415677
-0.911203
7.10849e-05
0.415698
-0.91121
0.000103838
0.415737
-0.911244
0.415759
-0.910984
-8.55466e-05
0.987335
-0.879098
-2.75456e-05
0.987302
-0.879305
2.3602e-05
0.987288
-0.879254
5.99625e-05
0.987305
-0.879272
0.000100244
0.987349
-0.879322
0.987379
-0.879042
-9.97164e-05
1.72943
-0.896036
-5.91377e-05
1.7294
-0.896206
-1.93901e-05
1.72937
-0.896162
2.59595e-05
1.72938
-0.89618
8.20326e-05
1.72942
-0.896216
1.72945
-0.895985
-0.000151036
2.62434
-0.9844
-0.000137823
2.62427
-0.984519
-9.43098e-05
2.6242
-0.984498
-2.88882e-05
2.62418
-0.98451
4.34331e-05
2.62423
-0.984508
2.62424
-0.984353
-0.00014865
3.35953
-0.644221
-0.000120204
3.35944
-0.644343
-9.47893e-05
3.35938
-0.644365
-4.08128e-05
3.35936
-0.644406
4.62617e-05
3.3594
-0.644422
3.35945
-0.644323
-4.08492e-05
2.79625
1.2132
1.63797e-05
2.79639
1.21297
8.82446e-06
2.79631
1.21302
-2.51243e-06
2.79629
1.21301
7.92893e-05
2.79635
1.21292
2.79634
1.21309
0.00018453
1.1382
2.69979
4.31961e-05
1.13863
2.69994
4.90337e-05
1.13838
2.69992
2.34565e-05
1.13841
2.69991
-7.13905e-05
1.1385
2.69998
1.13834
2.69985
0.000240995
0.642721
1.48658
5.69766e-05
0.643109
1.48717
4.2577e-05
0.642961
1.48686
2.32575e-05
0.642967
1.48688
-9.68927e-05
0.643074
1.48698
0.642847
1.48677
0.00041325
0.239022
1.00513
6.13264e-05
0.239299
1.00622
1.24716e-05
0.239204
1.00578
1.05865e-05
0.239215
1.00573
-0.000220455
0.239288
1.00604
0.239079
1.00543
-8.9888e-05
0.089241
-1.91846e-05
0.0895203
-3.93029e-06
0.089429
1.69266e-05
0.0894275
7.58445e-05
0.0895097
0.0892986
3.13622e-06
-0.320377
-0.838978
3.418e-06
-0.320321
-0.839212
-1.34169e-05
-0.320338
-0.839174
-1.54621e-05
-0.320332
-0.839168
4.86924e-07
-0.320312
-0.839207
-0.320405
-0.838966
8.38251e-06
-0.497701
-0.84274
1.38144e-05
-0.497573
-0.842996
8.59632e-08
-0.497595
-0.842955
-1.56621e-06
-0.497588
-0.842955
1.44973e-05
-0.497552
-0.842999
-0.497722
-0.842711
2.39699e-06
-0.639236
-0.769506
2.75261e-06
-0.63906
-0.769756
2.0447e-06
-0.639085
-0.769715
-4.29728e-07
-0.63908
-0.769716
1.17419e-06
-0.639038
-0.769762
-0.639239
-0.76947
-4.53477e-05
-0.699968
-0.818323
-4.61495e-05
-0.699798
-0.818568
-3.01479e-05
-0.699831
-0.818525
-2.053e-05
-0.699835
-0.818529
-1.26784e-06
-0.699802
-0.81858
-0.699977
-0.818305
-9.29979e-05
-0.757309
-0.838602
-8.64368e-05
-0.757183
-0.838827
-5.83565e-05
-0.757227
-0.838793
-3.43313e-05
-0.757241
-0.838799
1.2209e-05
-0.75722
-0.838843
-0.757339
-0.838606
-0.000118208
-0.765861
-0.975726
-8.54362e-05
-0.765806
-0.975925
-5.79297e-05
-0.765845
-0.975905
-2.36526e-05
-0.765875
-0.97591
5.20871e-05
-0.765874
-0.975929
-0.765904
-0.975736
-7.2909e-05
-0.0540119
-1.35599
2.71357e-05
-0.0540276
-1.35621
7.57536e-05
-0.054052
-1.3562
0.000105045
-0.0540627
-1.35624
0.000183398
-0.0540841
-1.35629
-0.053956
-1.35608
0.000144116
1.10633
0.0527074
0.000128399
1.1067
0.0522572
0.000196761
1.10652
0.0523773
0.000177299
1.10654
0.0524271
0.000155059
1.10658
0.0522856
1.10663
0.0526559
0.0018837
0.401114
3.40312
0.000360895
0.404835
3.40333
0.000183907
0.403428
3.40318
0.000288296
0.403174
3.40317
-0.000870024
0.404494
3.40323
0.402274
3.40334
0.00140579
-0.986716
2.873
0.00033708
-0.983093
2.87617
2.84e-05
-0.984109
2.8747
-5.91824e-06
-0.984441
2.87453
-0.000700769
-0.98325
2.87542
-0.985679
2.87403
0.00236221
0.108999
-0.092949
0.000180274
0.109056
-0.0837466
-0.000161743
0.109016
-0.0869998
6.11596e-05
0.109025
-0.0879607
-0.0013463
0.108938
-0.0847353
0.109069
-0.0906656
-1.09882e-05
0.198251
1.17409e-05
0.198554
2.34321e-05
0.198433
4.61847e-05
0.19843
-2.14758e-05
0.198515
0.198346
-2.87663e-06
-0.0248847
0.0248876
-3.61442e-06
-0.0248862
0.0248879
-3.71288e-06
-0.0248871
0.024888
-3.3032e-06
-0.0248879
0.024888
-2.1864e-06
-0.0248887
0.024888
-0.0248894
0.0248875
-3.39377e-06
-0.0506982
0.0258175
-4.54744e-06
-0.0507017
0.0258178
-4.88405e-06
-0.0507036
0.0258177
-4.52324e-06
-0.0507052
0.0258176
-3.14271e-06
-0.050707
0.0258174
-0.0507085
0.0258162
-4.37673e-06
-0.0784331
0.0277397
-6.30339e-06
-0.0784401
0.027741
-6.93958e-06
-0.078444
0.0277415
-6.40571e-06
-0.078447
0.0277416
-4.40787e-06
-0.0784501
0.0277412
-0.0784529
0.02774
-8.91983e-06
-0.108984
0.0305598
-1.16947e-05
-0.108996
0.0305587
-1.18483e-05
-0.109001
0.0305576
-1.02092e-05
-0.109005
0.030556
-6.78246e-06
-0.109008
0.0305539
-0.109011
0.0305505
-1.71806e-05
-0.142845
0.0338786
-1.78139e-05
-0.142862
0.033866
-1.37574e-05
-0.142865
0.033859
-8.79897e-06
-0.142864
0.0338534
-4.66792e-06
-0.142862
0.0338486
-0.14286
0.0338438
-2.40865e-05
-0.17944
0.0366192
-1.32197e-05
-0.179456
0.0365809
3.69456e-06
-0.179448
0.0365638
1.56072e-05
-0.179433
0.0365548
1.60059e-05
-0.179415
0.0365514
-0.179398
0.0365531
-1.16252e-05
-0.216266
0.0368363
2.95581e-05
-0.216264
0.0367646
7.07464e-05
-0.216232
0.0367411
8.97687e-05
-0.216191
0.0367381
7.21662e-05
-0.216148
0.0367495
-0.216101
0.0367749
3.26344e-05
-0.245816
0.0295162
0.000126858
-0.245786
0.0294246
0.000199579
-0.245721
0.0294152
0.000217161
-0.24565
0.0294401
0.000159447
-0.245578
0.0294872
-0.245497
0.0295559
0.000112794
-0.251808
0.00587824
0.000254329
-0.251733
0.005803
0.000340029
-0.251663
0.00585373
0.000339698
-0.251605
0.00595496
0.000232809
-0.251548
0.00607733
-0.251474
0.00621091
0.000155159
-0.216451
-0.0355125
0.000265624
-0.216356
-0.0354901
0.000316382
-0.216296
-0.0354196
0.000285362
-0.216252
-0.0353246
0.000189372
-0.216208
-0.0352457
-0.216131
-0.0351536
7.8602e-05
-0.113515
-0.103016
9.08052e-05
-0.113449
-0.102917
0.000112511
-0.113419
-0.102896
6.12398e-05
-0.113403
-0.102795
4.70714e-05
-0.113365
-0.102828
-0.113308
-0.102777
-0.000138831
-0.113378
-0.00023608
-0.113354
-0.000223049
-0.113434
-0.000251859
-0.113374
-0.000198755
-0.113416
-0.113507
-2.89101e-06
-0.0248134
0.0497045
-3.37494e-06
-0.0248154
0.0497053
-3.30877e-06
-0.0248165
0.0497055
-2.82483e-06
-0.0248174
0.0497058
-1.82948e-06
-0.0248183
0.049706
-0.0248191
0.0497053
-3.27333e-06
-0.0502045
0.0512128
-3.98825e-06
-0.0502092
0.0512136
-4.0004e-06
-0.0502115
0.0512137
-3.44982e-06
-0.0502133
0.0512137
-2.25908e-06
-0.050215
0.0512135
-0.0502165
0.0512117
-4.75421e-06
-0.0762956
0.0538363
-5.6749e-06
-0.0763043
0.053838
-5.38952e-06
-0.0763079
0.0538384
-4.4711e-06
-0.0763104
0.0538382
-2.96932e-06
-0.0763126
0.0538376
-0.0763148
0.0538355
-5.8828e-06
-0.102473
0.0567432
-5.34531e-06
-0.102487
0.0567409
-3.584e-06
-0.102491
0.0567385
-2.24995e-06
-0.102492
0.0567359
-1.52716e-06
-0.102493
0.0567328
-0.102494
0.056728
-1.11634e-06
-0.127272
0.0586788
5.68304e-06
-0.12729
0.0586611
1.1811e-05
-0.12729
0.0586508
1.34944e-05
-0.127285
0.0586433
9.56389e-06
-0.127279
0.0586371
-0.127274
0.0586319
1.32836e-05
-0.148372
0.057704
3.46395e-05
-0.14839
0.0576577
4.88402e-05
-0.148379
0.0576367
4.9937e-05
-0.148359
0.0576267
3.49004e-05
-0.148338
0.0576247
-0.148317
0.0576307
6.23295e-05
-0.163379
0.0517797
0.000103845
-0.16337
0.0517013
0.000121535
-0.163332
0.0516756
0.000113931
-0.163289
0.0516747
7.66287e-05
-0.163244
0.0516926
-0.163195
0.0517297
0.000115318
-0.172887
0.0389064
0.000171827
-0.17283
0.0388259
0.000188242
-0.172756
0.0388209
0.000167469
-0.172681
0.038851
0.00010742
-0.172606
0.0389079
-0.172518
0.0389861
0.000167534
-0.186019
0.0188416
0.000202357
-0.185878
0.0188158
0.000179555
-0.185743
0.0188638
0.000123771
-0.185611
0.0189411
7.54847e-05
-0.185519
0.0190387
-0.185371
0.019139
0.000203684
-0.170746
-0.050991
0.000252883
-0.170532
-0.0508845
0.000261963
-0.170393
-0.0507775
0.000129237
-0.170253
-0.0505489
0.000140234
-0.170167
-0.050607
-0.170023
-0.0503611
-0.000114282
-0.0443632
-0.229286
-0.000240179
-0.0442029
-0.229124
-0.000212968
-0.0441204
-0.229198
-0.000407979
-0.0441492
-0.228704
-0.000179334
-0.0440181
-0.229204
-0.0439918
-0.228987
-0.000435218
-0.157303
-0.000659725
-0.157332
-0.000408195
-0.157807
-0.000586229
-0.157347
-0.000613723
-0.157405
-0.158114
-1.7397e-06
-0.0242534
0.0739602
-1.67336e-06
-0.0242547
0.0739615
-1.43235e-06
-0.0242552
0.0739616
-9.90804e-07
-0.0242554
0.0739618
-4.9889e-07
-0.0242555
0.073962
-0.0242551
0.0739607
-1.95085e-06
-0.0503171
0.0772796
-1.67324e-06
-0.0503205
0.0772808
-1.18595e-06
-0.0503214
0.0772808
-5.65163e-07
-0.0503218
0.0772808
-3.19555e-08
-0.0503218
0.0772805
-0.0503206
0.0772783
-2.69796e-06
-0.0805475
0.0840703
-1.74827e-06
-0.0805541
0.0840719
-2.95669e-07
-0.0805552
0.0840718
8.13082e-07
-0.0805551
0.0840714
1.1718e-06
-0.080554
0.0840704
-0.080551
0.0840676
-1.47135e-06
-0.118118
0.0943154
2.38041e-06
-0.118129
0.094312
6.28459e-06
-0.118129
0.0943083
7.89829e-06
-0.118126
0.0943047
6.27456e-06
-0.118121
0.0943007
-0.118112
0.0942951
7.30505e-06
-0.166883
0.107437
1.9217e-05
-0.166899
0.107418
2.7705e-05
-0.166893
0.107405
2.87644e-05
-0.166881
0.107396
2.05205e-05
-0.166866
0.107389
-0.166845
0.107384
3.11169e-05
-0.230393
0.121182
5.8019e-05
-0.230407
0.121137
7.18057e-05
-0.230385
0.121114
6.83976e-05
-0.230355
0.121104
4.59269e-05
-0.230322
0.121102
-0.23028
0.121111
6.10889e-05
-0.309151
0.130476
0.000101751
-0.309151
0.130405
0.000116121
-0.309105
0.130382
0.000102944
-0.309052
0.130385
6.3877e-05
-0.308998
0.130408
-0.308939
0.130452
8.55669e-05
-0.394453
0.124122
0.000117596
-0.39441
0.124052
0.000111416
-0.394334
0.124057
7.33834e-05
-0.394263
0.1241
2.60688e-05
-0.394211
0.124168
-0.394182
0.124256
6.15744e-05
-0.428043
0.0523695
5.97688e-05
-0.427964
0.0523717
3.67943e-05
-0.427905
0.0524579
-4.16077e-05
-0.427868
0.052625
-9.20606e-05
-0.427851
0.0527309
-0.427886
0.0527508
-0.000140019
-0.324734
-0.15416
-0.000261851
-0.324626
-0.154101
-0.000268512
-0.324649
-0.154027
-0.000475083
-0.324698
-0.153512
-0.000277789
-0.324912
-0.153743
-0.3247
-0.153824
-0.000391123
-0.0461037
-0.507524
-0.000430954
-0.0460725
-0.507636
-3.14846e-05
-0.046164
-0.508084
-0.000802284
-0.0460823
-0.506549
-0.000382971
-0.0470827
-0.507454
-0.0455801
-0.50849
-0.00078264
-0.202624
-0.000869872
-0.203313
0.000375712
-0.205214
-0.00104978
-0.202002
-0.00058488
-0.20495
-0.204277
-1.32005e-06
-0.0218044
0.0957666
-6.33069e-07
-0.0218056
0.0957683
-4.68968e-08
-0.0218057
0.0957684
3.56187e-07
-0.0218055
0.0957685
5.08511e-07
-0.0218051
0.0957685
-0.0218043
0.0957669
-7.43848e-07
-0.0447745
0.100252
3.69739e-07
-0.044777
0.100253
1.14154e-06
-0.044777
0.100253
1.62227e-06
-0.0447763
0.100253
1.60713e-06
-0.0447752
0.100253
-0.0447733
0.10025
5.2468e-07
-0.0694889
0.108785
2.70306e-06
-0.0694924
0.108787
4.30757e-06
-0.0694913
0.108786
4.76327e-06
-0.0694891
0.108785
3.67809e-06
-0.0694863
0.108784
-0.0694823
0.108781
7.05435e-06
-0.0956686
0.120489
1.26678e-05
-0.0956725
0.120487
1.55064e-05
-0.0956689
0.120483
1.48697e-05
-0.0956635
0.120479
1.00849e-05
-0.0956574
0.120476
-0.0956491
0.120471
2.27086e-05
-0.121901
0.133646
3.27607e-05
-0.121901
0.133635
3.46914e-05
-0.121893
0.133626
2.99932e-05
-0.121884
0.133619
1.8439e-05
-0.121873
0.133614
-0.121858
0.13361
4.19865e-05
-0.145333
0.14457
4.91881e-05
-0.145319
0.144546
4.25204e-05
-0.145306
0.144532
3.00948e-05
-0.145295
0.144527
1.50303e-05
-0.145283
0.144527
-0.145265
0.144532
4.18591e-05
-0.160913
0.146014
2.5249e-05
-0.160877
0.14598
-2.71169e-06
-0.160869
0.145973
-2.57894e-05
-0.160869
0.145982
-2.62385e-05
-0.160872
0.145996
-0.160862
0.146022
-1.88746e-05
-0.166198
0.129426
-0.000101335
-0.166136
0.129395
-0.000159405
-0.166166
0.129412
-0.000198357
-0.16618
0.12945
-0.000122396
-0.166287
0.129507
-0.166236
0.129507
-0.00014824
-0.212843
0.0991635
-0.000360871
-0.212736
0.0991859
-0.000397409
-0.212912
0.0992407
-0.000529249
-0.212548
0.0991252
-0.000185766
-0.213338
0.0994395
-0.212659
0.098987
-0.00027961
-0.361877
-0.00484648
-0.000365881
-0.362023
-0.00472535
0.00025634
-0.362967
-0.00459401
-0.00157984
-0.359191
-0.00503081
0.000316012
-0.364162
-0.00481566
-0.360895
-0.00527345
-0.000736113
-0.817791
-0.0508742
0.000676495
-0.819043
-0.052026
0.00417758
-0.821755
-0.0527947
-0.00166672
-0.810992
-0.0489007
0.00112108
-0.822326
-0.0520734
-0.816581
-0.0516806
-0.000597813
-1.01982
0.000102978
-1.02306
0.000372494
-1.02724
0.00266473
-1.01529
0.00252345
-1.02714
-1.01833
2.94858e-05
-0.873797
0.0347906
9.41387e-06
-0.873987
0.0347976
-5.60364e-06
-0.873956
0.0347978
-1.82462e-05
-0.873954
0.0347976
-3.56393e-05
-0.873988
0.0347969
-0.873794
0.0347884
4.02993e-05
-0.847963
-0.0258723
1.55966e-05
-0.848086
-0.0258743
1.69366e-06
-0.848067
-0.0258753
-1.137e-05
-0.848067
-0.0258763
-4.03354e-05
-0.848086
-0.0258773
-0.847961
-0.0258783
2.67939e-05
0.0056476
1.18281e-05
0.00564724
3.62895e-06
0.0056466
-5.97765e-06
0.00564583
-2.55202e-05
0.00564526
0.00564489
3.52599e-05
-0.903765
0.0957816
1.25735e-05
-0.903963
0.0957871
-3.17976e-06
-0.90393
0.0957877
-1.91235e-05
-0.903928
0.0957853
-4.25339e-05
-0.903965
0.0957831
-0.903746
0.0957783
4.31045e-05
-0.863142
-0.0665374
1.428e-05
-0.863265
-0.066544
-3.18598e-06
-0.863245
-0.0665448
-2.05925e-05
-0.863244
-0.0665447
-5.28883e-05
-0.863267
-0.066545
-0.863135
-0.0665407
2.58087e-05
0.00716015
9.44269e-06
0.00715993
8.45893e-07
0.00715897
-8.95155e-06
0.00715828
-2.87888e-05
0.00715769
0.00715822
2.16623e-05
-0.825422
0.151674
4.78352e-06
-0.82562
0.151666
-5.09891e-06
-0.825587
0.151668
-1.86037e-05
-0.825585
0.151667
-3.76698e-05
-0.825624
0.151664
-0.825399
0.151671
4.21213e-05
-0.790448
-0.101555
9.00032e-06
-0.790566
-0.101564
-1.05018e-05
-0.790548
-0.101562
-2.8292e-05
-0.790547
-0.10156
-6.02563e-05
-0.790571
-0.101561
-0.790445
-0.101548
2.27231e-05
0.00302338
4.69385e-06
0.00302522
-4.04541e-06
0.00302441
-1.15306e-05
0.00302418
-2.79253e-05
0.00302386
0.00302293
1.49797e-05
-0.838666
0.172
2.09583e-06
-0.838862
0.171973
-5.63676e-06
-0.838826
0.171978
-2.02526e-05
-0.838824
0.171978
-3.94549e-05
-0.838865
0.171969
-0.838659
0.171989
3.92132e-05
-0.783082
-0.157176
6.50519e-06
-0.7832
-0.15719
-9.62554e-06
-0.783183
-0.157186
-2.25809e-05
-0.783184
-0.157183
-5.20592e-05
-0.783206
-0.157185
-0.78309
-0.157165
2.19706e-05
-0.0193797
3.204e-06
-0.0193769
-5.35753e-06
-0.0193777
-1.11414e-05
-0.0193779
-2.49513e-05
-0.0193776
-0.0193802
1.55954e-05
-0.760355
0.0937363
1.21524e-05
-0.760554
0.0937081
6.54726e-06
-0.760522
0.0937164
-7.12973e-06
-0.760523
0.0937207
-2.37826e-05
-0.760563
0.0937132
-0.760371
0.0937382
4.66627e-05
-0.71708
-0.200493
1.71273e-05
-0.717201
-0.200512
3.36803e-06
-0.717187
-0.200509
-9.40711e-06
-0.717188
-0.200508
-4.09391e-05
-0.717207
-0.20051
-0.71709
-0.200491
2.22568e-05
-0.0576298
5.34202e-06
-0.0576252
-2.42626e-06
-0.057627
-8.12579e-06
-0.0576279
-2.06879e-05
-0.0576274
-0.0576319
2.0814e-05
-0.709848
-0.17216
5.99813e-06
-0.710017
-0.172183
-7.8018e-06
-0.709994
-0.172176
-9.10056e-06
-0.70999
-0.172191
-1.62212e-05
-0.710012
-0.17219
-0.709846
-0.172166
3.32177e-05
-0.664219
-0.246154
1.52191e-05
-0.664329
-0.246181
4.45936e-06
-0.664316
-0.246176
-9.46066e-06
-0.664316
-0.246167
-3.55266e-05
-0.664332
-0.246163
-0.664213
-0.246166
1.82997e-05
-0.118077
4.72597e-06
-0.118072
-3.08128e-06
-0.118077
-8.46687e-06
-0.118079
-1.73004e-05
-0.11808
-0.118078
4.31107e-05
-0.797151
-0.73104
3.99676e-05
-0.79731
-0.731087
3.95483e-05
-0.797294
-0.731087
2.54157e-05
-0.797307
-0.731115
-7.3442e-06
-0.797343
-0.731108
-0.797185
-0.73107
1.43393e-05
-0.538848
-0.504472
6.0248e-06
-0.538953
-0.504526
7.40227e-06
-0.538946
-0.504519
-1.23039e-05
-0.538958
-0.504494
-3.13358e-05
-0.538988
-0.504499
-0.538876
-0.504505
1.20614e-05
-0.147666
-9.69719e-06
-0.147662
-1.4225e-05
-0.147689
-1.33212e-05
-0.147699
-4.65033e-07
-0.14772
-0.147671
0.000228725
-0.948316
0.269762
0.000160065
-0.948645
0.269886
0.000138452
-0.948553
0.269867
6.07544e-05
-0.948483
0.269872
-6.83583e-05
-0.94857
0.26988
-0.948369
0.269883
-8.84891e-05
-0.678383
-0.77432
1.67282e-06
-0.678502
-0.774761
4.85829e-06
-0.678484
-0.774594
-1.88403e-05
-0.678487
-0.774471
0.000106751
-0.678495
-0.774701
-0.678456
-0.774311
-5.63556e-06
-0.397921
-2.86673e-05
-0.397979
-3.18548e-05
-0.397993
-2.60604e-05
-0.397972
4.04688e-05
-0.398051
-0.397917
0.00104577
2.82209
0.849741
0.000330563
2.82173
0.852198
0.000305138
2.82188
0.851195
0.000306556
2.82204
0.850999
-0.000546962
2.82182
0.852132
2.82227
0.850404
-0.00121117
1.5423
0.506684
0.000153087
1.54245
0.503159
0.000150986
1.54251
0.504775
-4.29469e-05
1.5427
0.505063
0.00138957
1.54287
0.502825
1.54239
0.50696
-0.000606458
0.706175
-0.000168448
0.704999
-0.000199207
0.705477
-0.000125487
0.70549
0.00074085
0.704522
0.706419
0.00400215
4.01272
-0.293977
0.000118309
4.01324
-0.281001
0.000160846
4.01299
-0.287138
0.000649993
4.01323
-0.288188
-0.00193628
4.01277
-0.282635
4.01355
-0.291057
3.33666e-05
4.62182
-0.102448
0.000594602
4.62223
-0.106386
0.000287335
4.62213
-0.104062
5.67051e-05
4.62228
-0.103763
0.00126247
4.62213
-0.107737
4.62233
-0.100562
-0.000224521
0.643111
-2.71156e-05
0.641328
-0.00013202
0.642064
6.49081e-05
0.641719
0.00124936
0.639197
0.644639
-0.001182
-0.292288
-0.0934556
-0.00345841
-0.272867
-0.0896042
-0.00285145
-0.283903
-0.0908435
-6.42087e-05
-0.287764
-0.0911732
0.000428774
-0.277947
-0.0899153
-0.288989
-0.0923013
-0.00624141
1.13003
-1.51853
0.00115847
1.13165
-1.51831
0.00127488
1.13066
-1.51874
-0.000961057
1.12999
-1.51928
0.00456665
1.12983
-1.52105
1.13152
-1.51651
-0.000306274
-1.44219
-6.24232e-05
-1.44331
0.000173344
-1.44307
0.000159247
-1.44325
0.00018607
-1.4444
-1.44152
-0.000492969
-0.369813
0.475101
-2.1353e-05
-0.366909
0.475387
-2.80265e-05
-0.367814
0.47541
6.21503e-06
-0.368065
0.475288
0.000441734
-0.367488
0.475652
-0.368553
0.47504
-0.000302571
-2.41636
0.528322
0.00039779
-2.41467
0.528755
0.000693093
-2.41545
0.528602
-5.17532e-05
-2.41484
0.528235
-0.00126608
-2.41478
0.527461
-2.41586
0.529536
4.92029e-05
0.141399
-0.000197157
0.141821
-0.000410666
0.14172
-0.00026466
0.141265
4.62433e-05
0.140499
0.142534
-0.00103628
-1.09435
-3.37952
4.47491
-0.000335624
-1.09676
-3.37795
4.47401
-0.00159112
-1.09828
-3.37756
4.4771
-0.000232734
-1.0918
-3.38348
4.47392
0.0094489
-1.0938
-3.38357
4.46768
-1.09515
-3.38232
4.48691
0.000416633
1.02347
-2.98033
0.862091
-0.00384796
1.0243
-2.98459
0.867791
-0.0138824
1.02257
-2.98514
0.874325
-0.00231972
1.02388
-2.98208
0.854833
0.0249269
1.01729
-2.99544
0.857113
1.02992
-2.96604
0.865907
0.00428631
-3.15071
0.875824
-0.0037519
-3.16286
0.899293
-0.0241988
-3.16475
0.91631
-0.00455079
-3.14329
0.850136
0.0299583
-3.13882
0.836192
-3.14648
0.898175
-0.000834277
-0.936755
-2.44193
-0.000368259
-0.937086
-2.44133
-0.000619557
-0.93659
-2.44072
5.34383e-05
-0.939475
-2.44468
0.00482895
-0.942711
-2.44563
-0.93463
-2.44286
-0.00132109
-0.539569
-3.37619
-0.00315092
-0.545319
-3.37452
-0.00952924
-0.542484
-3.37287
-0.00265593
-0.551308
-3.37712
0.0279499
-0.596301
-3.37246
-0.494145
-3.37858
0.000419534
-3.64924
-0.00304872
-3.65045
-0.0116743
-3.64932
-0.00411341
-3.64405
0.02649
-3.62847
-3.65473
-5.98144e-05
-1.04394
-1.39793
0.000162772
-1.04348
-1.39808
0.000138307
-1.04298
-1.39771
-4.6549e-05
-1.04615
-1.39834
0.000905844
-1.04907
-1.39751
-1.04336
-1.39859
-0.000891468
-2.08116
-2.33808
-0.000608479
-2.08084
-2.33745
-0.0015964
-2.07744
-2.33742
-0.0014819
-2.08571
-2.33767
0.000197765
-2.0876
-2.33562
-2.08458
-2.33717
-0.000361848
-2.26062
-0.00157378
-2.26015
-0.00191536
-2.26027
-0.0025199
-2.25893
0.00281076
-2.25535
-2.26001
0.000375594
-0.673221
-0.725089
0.000509139
-0.673061
-0.725151
0.000930696
-0.67303
-0.725106
0.000495226
-0.672952
-0.724957
-0.000482496
-0.671813
-0.724718
-0.673854
-0.725216
-0.000611128
-1.12842
-1.88227
-0.000374029
-1.12849
-1.88225
-0.00116783
-1.12717
-1.88249
-0.000664812
-1.12894
-1.88219
0.00390572
-1.12971
-1.88229
-1.12459
-1.88252
-0.000917635
-1.56843
-0.000951733
-1.56826
-0.00184307
-1.56788
-0.00200305
-1.56793
0.00183424
-1.56885
-1.56675
0.000223599
-0.263156
-0.462157
0.000194203
-0.262996
-0.462125
0.000373722
-0.263122
-0.462163
8.23989e-05
-0.262343
-0.462322
-0.000846207
-0.260845
-0.462944
-0.264469
-0.461594
-0.000240783
-0.799688
-1.3455
-0.000173627
-0.799595
-1.34572
-0.00111335
-0.798949
-1.34572
2.58047e-05
-0.800495
-1.34518
0.00396163
-0.802286
-1.34479
-0.796381
-1.34665
-0.000662963
-0.954131
-0.000514657
-0.954508
-0.000530353
-0.954406
-0.000523332
-0.953403
-0.000180213
-0.952922
-0.955279
-1.36692e-05
0.0129584
9.56291e-05
0.013152
0.000256495
0.0130858
6.09815e-05
0.0131615
-0.000669881
0.0134381
0.0127758
-7.1971e-05
-0.804148
0.000118933
-0.804005
2.10459e-05
-0.803935
5.76114e-05
-0.803818
0.000434326
-0.804264
-0.803904
-0.000421695
-0.00038592
-0.000603091
-0.000173986
0.00104775
-4.88366e-07
0.112498
-0.0167301
2.4506e-07
0.1125
-0.0167302
5.23571e-07
0.1125
-0.0167299
6.56507e-07
0.1125
-0.0167297
6.58316e-07
0.1125
-0.0167295
0.112498
-0.016729
-3.03043e-07
0.123063
-0.0105634
1.82025e-07
0.123065
-0.0105634
3.878e-07
0.123065
-0.0105633
5.13522e-07
0.123065
-0.0105632
6.076e-07
0.123065
-0.0105631
0.123063
-0.0105628
-1.7063e-08
-0.00453076
1.50486e-07
-0.00453082
2.39371e-07
-0.00453078
3.22031e-07
-0.00453072
4.42936e-07
-0.00453066
-0.00453051
2.18849e-07
0.119178
-0.035655
1.14239e-06
0.11918
-0.0356552
1.59209e-06
0.11918
-0.0356547
1.79019e-06
0.11918
-0.0356543
1.73159e-06
0.11918
-0.0356539
0.119177
-0.035653
2.27869e-07
0.130426
-0.0218101
7.59143e-07
0.130428
-0.0218102
1.06792e-06
0.130428
-0.0218099
1.23239e-06
0.130428
-0.0218097
1.2976e-06
0.130428
-0.0218095
0.130426
-0.0218091
9.76015e-08
-0.0102519
3.11065e-07
-0.0102521
4.66898e-07
-0.010252
5.91332e-07
-0.0102519
7.05977e-07
-0.0102519
-0.0102517
1.65644e-06
0.133253
-0.0601231
3.00354e-06
0.133255
-0.0601234
3.6151e-06
0.133255
-0.0601227
3.57038e-06
0.133254
-0.0601221
2.77881e-06
0.133254
-0.0601218
0.133251
-0.0601206
1.09248e-06
0.14576
-0.0343168
1.72399e-06
0.145762
-0.0343167
2.07163e-06
0.145762
-0.0343164
2.03808e-06
0.145762
-0.0343161
1.53241e-06
0.145761
-0.0343161
0.145759
-0.0343158
3.5508e-07
-0.0188099
6.38855e-07
-0.0188103
8.81416e-07
-0.0188103
8.65896e-07
-0.0188101
6.68046e-07
-0.0188103
-0.0188098
5.02397e-06
0.156287
-0.0959254
6.85142e-06
0.156288
-0.0959265
7.07681e-06
0.156286
-0.0959263
5.90499e-06
0.156284
-0.0959263
3.61417e-06
0.156282
-0.0959269
0.156279
-0.0959258
2.97545e-06
0.170509
-0.0485426
3.54771e-06
0.170512
-0.0485422
3.36067e-06
0.170511
-0.0485422
2.48105e-06
0.170511
-0.0485428
9.39778e-07
0.17051
-0.0485436
0.170507
-0.0485442
5.84151e-07
-0.0325492
7.96332e-07
-0.0325498
1.13024e-06
-0.0325503
7.23838e-07
-0.0325495
4.02473e-07
-0.0325501
-0.0325487
8.86776e-06
0.190624
-0.152913
9.90028e-06
0.190622
-0.152916
8.05818e-06
0.190617
-0.152918
4.37448e-06
0.190614
-0.152919
1.50463e-06
0.190611
-0.152923
0.190607
-0.152922
3.91748e-06
0.207373
-0.0652963
2.92609e-06
0.207375
-0.065297
8.60077e-07
0.207375
-0.0652993
-8.66847e-07
0.207375
-0.0653034
-2.06764e-06
0.207375
-0.0653071
0.207372
-0.0653111
1.15675e-06
-0.0550561
1.39009e-06
-0.0550565
2.10217e-06
-0.0550579
1.03211e-06
-0.0550545
7.79027e-07
-0.0550557
-0.0550528
8.16303e-06
0.24088
-0.249232
4.42924e-06
0.240873
-0.249241
-2.56681e-06
0.240866
-0.249246
-1.11957e-05
0.240863
-0.249247
-1.06671e-05
0.240863
-0.24926
0.240862
-0.249263
1.16849e-06
0.263015
-0.087434
-4.4879e-06
0.263019
-0.0874393
-1.15119e-05
0.26302
-0.0874477
-1.4289e-05
0.263022
-0.0874614
-1.46867e-05
0.263025
-0.0874704
0.263024
-0.0874886
1.40519e-06
-0.0880149
2.10335e-06
-0.0880149
4.01942e-06
-0.0880178
2.87397e-06
-0.088008
2.25961e-06
-0.0880086
-0.0880012
-1.80715e-06
0.311131
-0.414348
-1.55429e-05
0.311119
-0.414366
-3.43373e-05
0.311114
-0.414367
-5.46623e-05
0.311117
-0.414363
-3.96281e-05
0.311125
-0.414405
0.311135
-0.414415
-2.88283e-05
0.343678
-0.119953
-5.66558e-05
0.343686
-0.119978
-8.01755e-05
0.343696
-0.120007
-7.8043e-05
0.343707
-0.120055
-7.85477e-05
0.343721
-0.120068
0.343731
-0.120165
1.31863e-06
-0.140104
8.04548e-06
-0.14011
1.15441e-05
-0.140109
8.31182e-06
-0.140083
1.74462e-06
-0.140074
-0.140064
-5.06215e-05
0.41784
-0.70271
-5.63985e-05
0.417838
-0.702803
-8.28683e-05
0.417843
-0.702772
-0.000206982
0.417878
-0.702667
-0.00025013
0.417919
-0.702774
0.417975
-0.703133
-6.11502e-05
0.475998
-0.17805
-0.000110585
0.476014
-0.178104
-0.00010196
0.476027
-0.1782
-0.000142608
0.476054
-0.178193
9.00874e-06
0.476104
-0.178407
0.476069
-0.178253
-5.48842e-06
-0.195257
1.62275e-06
-0.195286
8.23525e-05
-0.19537
2.19311e-05
-0.195164
0.000117367
-0.195342
-0.195022
-0.00024685
0.687712
-1.29101
0.00016954
0.687747
-1.29178
0.000751213
0.687799
-1.29191
-0.000675405
0.687419
-1.28953
-0.00288476
0.687919
-1.28905
0.687648
-1.29468
-0.000463088
0.623169
-0.113044
-0.000572891
0.623235
-0.113482
-0.000446706
0.623305
-0.113833
-0.000676968
0.623431
-0.113974
-0.00164024
0.623651
-0.113176
0.623671
-0.115916
-3.64796e-05
-0.212633
0.000264166
-0.213098
0.000538387
-0.212993
0.000318361
-0.212206