/*--------------------------------*- C++ -*----------------------------------*\
| =========                 |                                                 |
| \\      /  F ield         | OpenFOAM: The Open Source CFD Toolbox           |
|  \\    /   O peration     | Version:  v1612+                                |
|   \\  /    A nd           | Web:      www.OpenFOAM.com                      |
|    \\/     M anipulation  |                                                 |
\*---------------------------------------------------------------------------*/
FoamFile
{
    version     2.0;
    format      ascii;
    class       surfaceScalarField;
    location    "9.95";
    object      phi;
}
// * * * * * * * * * * * * * * * * * * * * * * * * * * * * * * * * * * * * * //

dimensions      [0 3 -1 0 0 0 0];

internalField   nonuniform List<scalar> 
2916
(
-0.00919489
-0.222027
0.231222
0.00576397
-0.244453
0.229494
0.0316148
-0.251328
0.225477
0.0131157
-0.211098
0.229597
-0.0307292
-0.1916
0.235445
-0.251769
0.22104
0.00187114
-0.365256
0.141358
-0.00312439
-0.377886
0.138429
-0.0110464
-0.379983
0.136577
-0.00596198
-0.362478
0.146296
-0.00117008
-0.350915
0.154523
-0.387577
0.134638
0.00240689
-0.360256
-0.00740663
-0.00283573
-0.367197
-0.00544698
-0.0111492
-0.366707
-0.00496229
-0.00581978
-0.360752
-0.00705571
0.00334882
-0.355642
-0.00444088
-0.378133
-0.00609491
0.0011982
-0.323498
-0.0379568
-0.000503002
-0.329122
-0.0363735
-0.00426011
-0.328887
-0.034063
-0.00262713
-0.325452
-0.0369321
0.00140046
-0.32282
-0.0368498
-0.342082
-0.0346507
0.00116158
-0.291334
-0.033325
0.000589382
-0.296644
-0.0319058
-0.00131344
-0.297022
-0.0299623
-0.000432223
-0.293102
-0.0332321
0.000380963
-0.290072
-0.0335611
-0.309962
-0.0317394
0.00108695
-0.266447
-0.0259744
0.000765302
-0.271216
-0.0251065
0.000219733
-0.272248
-0.0242292
0.000499058
-0.26694
-0.0264409
-0.000916715
-0.261998
-0.0266582
-0.284261
-0.0266179
0.00166586
-0.275163
0.00705018
0.000544692
-0.277254
0.00715969
0.000414526
-0.279405
0.00728796
-0.000205824
-0.272174
0.00585391
-0.00267109
-0.264902
0.00536924
-0.289662
0.00272994
0.00201627
-0.2802
0.00302069
0.000298901
-0.278429
0.00289188
-0.00154168
-0.279954
0.00238909
-0.000960913
-0.276043
0.00328911
0.00126174
-0.272562
0.00543742
-0.286004
-0.00239603
-0.000730484
-0.182543
-0.0969262
0.00062506
-0.187774
-0.0920109
0.00112907
-0.186591
-0.0938671
-0.00221632
-0.180503
-0.0921946
-0.00340612
-0.180991
-0.0903817
-0.190818
-0.098592
-0.00712117
-0.214904
0.0394822
0.00238765
-0.237682
0.0404
0.00799013
-0.233624
0.041431
0.000776494
-0.211593
0.0383037
-0.0105858
-0.205564
0.0359356
-0.241356
0.0399518
-0.000918686
-0.198794
-0.0151912
0.00522975
-0.223148
-0.0206833
0.00627468
-0.217066
-0.017603
0.00363331
-0.195316
-0.0136364
0.00248537
-0.188589
-0.0158269
-0.222354
-0.0165167
0.0360002
-0.234795
0.00653923
-0.193687
0.000130412
-0.210658
0.0227969
-0.217982
0.0141256
-0.179918
-0.208228
-0.0040251
-0.138315
0.373563
-0.0249015
-0.102485
0.352856
-0.0519771
-0.10638
0.358933
-0.026219
-0.1709
0.374739
0.0269355
-0.190147
0.372437
-0.11296
0.360936
0.00383988
-0.0641788
0.0633812
0.00314432
-0.0347632
0.0714026
0.00358951
-0.0388931
0.0686455
0.0047521
-0.0684578
0.042691
0.0152648
-0.0722765
0.0261398
-0.0385599
0.0755026
0.0188562
0.0744897
-0.164931
0.00549826
0.098106
-0.124958
-0.000800231
0.0890594
-0.126616
0.0136931
0.0815618
-0.171569
0.0375683
0.088904
-0.189497
0.102868
-0.109954
0.0174403
0.288631
-0.269538
0.0122051
0.300967
-0.233999
0.00773488
0.292745
-0.233278
0.0194989
0.30099
-0.268124
0.0334465
0.313871
-0.275765
0.316001
-0.214337
0.0110997
0.534302
-0.290096
0.00894443
0.540709
-0.269493
0.00311338
0.53557
-0.266956
0.0143067
0.544516
-0.287951
0.0290263
0.552749
-0.287158
0.564606
-0.251318
0.00418441
0.727668
-0.223525
0.00296617
0.732223
-0.215402
-0.00212208
0.73087
-0.214441
0.00686198
0.733589
-0.224498
0.0197392
0.736337
-0.223124
0.761563
-0.203836
0.000853698
0.818168
-0.0843035
-0.00155733
0.821435
-0.0796416
-0.00793183
0.823423
-0.0788914
-0.00151734
0.81877
-0.0857418
0.0137128
0.813883
-0.087407
0.851694
-0.0736875
0.000442518
0.793259
0.0274874
-0.00236443
0.79423
0.0329033
-0.00878666
0.797779
0.0344558
-0.0048946
0.78892
0.0292467
0.00940294
0.7807
0.0243228
0.818973
0.0397273
0.0034925
0.611489
0.0813509
0.0022842
0.616952
0.0864755
0.00142175
0.616238
0.0885357
-0.000193887
0.612743
0.0855978
-0.00236074
0.612781
0.079704
0.621552
0.0964687
0.00281316
0.206569
0.441589
0.00268261
0.222757
0.434725
0.0119272
0.214089
0.434336
0.0014233
0.228076
0.433475
-0.0258984
0.240605
0.435434
0.203407
0.432199
-0.00417321
-0.112384
0.307935
0.00796711
-0.12279
0.312724
0.0164786
-0.126679
0.314654
-0.00401356
-0.0893106
0.324243
-0.0315974
-0.0792115
0.331573
-0.147283
0.302576
0.0135567
-0.360735
0.00276221
-0.305682
-0.0049273
-0.329647
0.0137268
-0.325947
0.0193806
-0.264784
-0.33613
-0.00979151
0.928277
-0.544922
-0.00132329
0.946246
-0.601856
-0.0149455
0.959536
-0.586979
-0.0283425
0.946671
-0.558533
-0.00308231
0.968222
-0.621043
0.951635
-0.593781
0.00442782
2.29691
-1.30968
0.0151259
2.31493
-1.30798
-0.0212131
2.3238
-1.25928
-0.0329336
2.34
-1.33891
0.0125933
2.38317
-1.43434
2.30385
-1.26412
-0.00619685
3.7044
-1.56622
0.00585276
3.72042
-1.5425
0.000115416
3.73431
-1.53138
-0.00354621
3.74949
-1.5774
0.0321746
3.7675
-1.60955
3.73026
-1.50418
-0.00880856
5.14863
-1.70497
-0.00841818
5.16089
-1.67486
-0.00838366
5.17019
-1.66919
-0.00234895
5.17502
-1.6997
0.0374214
5.17497
-1.72301
5.18089
-1.62755
-0.00872557
6.68327
-1.81601
-0.0160124
6.6961
-1.79741
-0.0171686
6.69865
-1.79426
-0.00700453
6.69163
-1.81473
0.0163571
6.6886
-1.82415
6.70904
-1.76311
0.00800723
8.33991
-1.88816
-0.00813217
8.36264
-1.86581
-0.0265151
8.36967
-1.86708
-0.000685387
8.33058
-1.88927
0.0163258
8.33805
-1.88958
8.36533
-1.8438
-0.076777
9.60311
-1.27073
-0.0369596
9.4787
-1.23552
0.0308032
9.45101
-1.228
0.0112549
9.53105
-1.26667
-0.144589
9.68775
-1.28128
9.3132
-1.16615
-0.103578
8.03315
1.70102
-0.0316868
7.86479
1.57493
0.0250869
7.79546
1.63324
-0.0327925
7.95937
1.65882
-0.116286
8.20894
1.58663
7.59594
1.6407
0.0636877
3.24942
4.8014
0.00688958
3.24107
4.76699
-0.0375557
3.19099
4.73746
-0.0259457
3.24379
4.78957
0.0965478
3.31863
4.84753
3.13828
4.65068
0.0269819
0.833531
2.83049
0.0127796
0.888272
2.80173
0.0206722
0.867481
2.74995
0.00688328
0.864093
2.82696
-0.0201714
0.880467
2.90065
0.842991
2.70732
0.0394355
0.135307
0.966724
0.0137039
0.0697941
1.15693
0.00449862
0.0702008
1.12114
-0.0159727
0.0913175
1.11749
-0.0365088
0.0926318
1.13994
0.0329955
1.07606
-0.00854616
-0.216882
-0.00114023
-0.243294
-0.00880557
-0.251781
-0.00286528
-0.24057
0.0439639
-0.218981
-0.259171
0.109467
-0.360819
-0.29357
0.0660759
-0.416499
-0.141964
-0.0853482
-0.406908
-0.028646
-0.0520864
-0.389036
-0.202758
0.098666
-0.394592
-0.377202
-0.439833
-0.0552801
0.0508506
-0.307334
-1.41402
0.0172581
-0.30124
-1.38964
-0.00280882
-0.322932
-1.32319
-0.0145684
-0.319042
-1.39715
-0.0281107
-0.331299
-1.48409
-0.351293
-1.38077
-0.015264
-0.524775
-1.33351
0.0162595
-0.51551
-1.35976
0.041408
-0.524043
-1.35542
0.0282481
-0.540145
-1.34313
-0.0161365
-0.555358
-1.3411
-0.523428
-1.34819
-0.0158548
-0.725032
-1.48886
-9.41298e-05
-0.706642
-1.49949
0.0176268
-0.713052
-1.49791
-0.00220812
-0.732289
-1.48772
-0.0440648
-0.73897
-1.49754
-0.713287
-1.48176
-0.00434199
-0.855471
-1.68123
0.00138136
-0.821514
-1.68826
0.0059786
-0.826257
-1.68565
-0.0058656
-0.853338
-1.68183
-0.0323826
-0.848417
-1.68819
-0.832839
-1.67594
-0.00402764
-0.671509
-2.0681
0.00336523
-0.636866
-2.05785
0.00959367
-0.639819
-2.05975
-0.00192891
-0.667686
-2.0634
-0.0195536
-0.6558
-2.06458
-0.654035
-2.04215
-0.0804663
0.929608
-2.79138
0.0123135
0.804381
-2.76955
0.0476948
0.867719
-2.77091
-0.000504653
0.899929
-2.78608
0.0121785
0.818946
-2.7687
0.893429
-2.70144
-0.145947
3.8324
-1.05582
0.0102278
3.60949
-1.38637
0.0237726
3.69666
-1.20926
-0.0739435
3.78964
-1.13318
-0.0391126
3.70464
-1.33389
3.7058
-1.21078
0.116043
3.7325
4.78526
0.0987637
3.94266
4.4511
0.0297605
3.96917
4.53395
0.00743601
4.05369
4.54785
-0.0128546
4.06511
4.50735
4.02201
4.32162
0.350778
1.33369
4.87851
0.16455
2.11533
4.81529
0.16914
2.08077
4.63376
0.0720118
2.33313
4.64465
-0.108842
2.38104
4.76557
2.13777
4.48271
0.483906
0.446285
1.37023
0.246633
0.686244
2.82329
0.204013
0.646465
2.59807
0.0308058
0.736911
2.88692
-0.154566
0.766234
2.94012
0.643563
2.41571
0.263438
-0.034035
0.132793
0.573595
0.0429358
0.484541
0.0262949
0.512982
0.0164345
0.557114
0.400826
-0.051145
0.158286
-0.107141
0.111362
0.188706
-0.351213
0.370807
0.200429
-0.459874
0.33715
0.206756
-0.173099
0.211595
0.105707
0.0198475
0.040435
0.17116
-0.0125814
0.333509
-0.162641
0.166282
0.352599
-0.342756
0.372785
0.320439
-0.326514
0.367706
0.255565
-0.0437297
0.221008
0.190306
0.0620993
0.153598
0.107845
0.0573628
0.437026
-0.16088
0.108108
0.538739
-0.236886
0.257639
0.401695
-0.230786
0.395671
0.194214
-0.0766813
0.194406
0.303408
0.0881627
0.265127
0.0828769
0.17137
0.455677
-0.190021
0.14681
0.748749
-0.18545
0.245601
0.424944
-0.12204
0.314144
0.186218
-0.060547
0.0629788
0.550988
0.00358508
0.37381
-0.0457047
0.233904
0.473892
-0.25212
0.273858
0.884537
-0.175742
0.353809
0.29392
0.0510725
0.153423
0.269508
0.117095
-0.0774285
0.80034
-0.0185
0.459225
-0.162843
0.292092
0.547258
-0.365458
0.364585
0.968621
-0.156577
0.153453
0.173138
0.331914
-0.0851306
0.297706
0.210386
-0.153406
0.919281
-0.0506667
0.530477
-0.224658
0.414673
0.711515
-0.578931
0.566518
1.00006
-0.183284
0.453132
0.194711
0.0918123
0.0809635
0.556334
0.113541
-0.112991
1.11189
0.00134761
0.637873
-0.220387
0.589005
1.09601
-0.973503
0.673111
1.14095
-0.224997
0.474478
0.421838
-0.0284936
-0.0281435
1.13671
-0.0777532
-0.18368
1.34153
-0.0741082
0.735417
-0.281223
0.415683
1.45087
-0.77054
0.547393
1.43702
-0.427779
0.163676
0.853752
-0.0481968
-0.529653
1.53191
0.298125
-0.404164
1.7049
-0.488851
0.936643
-0.605391
-0.268705
1.72595
-0.0063733
0.313667
1.8078
-0.953156
-0.225992
1.12606
0.267347
-1.50061
1.30616
1.50036
-0.842819
1.76718
-0.720075
1.11311
-1.01929
-1.26771
1.43395
1.55971
-0.652554
1.88432
-0.691677
-0.463815
0.921451
0.0158757
-1.59359
0.597054
1.83889
-0.898509
1.10892
-0.0368159
0.929532
-0.714929
-1.14272
2.57667
-0.334161
1.07576
-0.130978
0.718266
-0.457952
0.924028
-0.480553
1.13152
0.448979
-0.355329
-0.022751
0.27094
0.0140434
0.0284533
-0.749039
0.644301
0.00817095
-1.0983
1.21585
-0.0663804
-0.678263
0.842262
-0.135819
0.52925
-0.192986
1.20641
-0.582622
0.150578
0.246652
-0.24867
0.248704
-0.896959
0.251756
0.0688437
-0.887612
0.994343
-0.0165617
-0.836134
1.07478
-0.0329791
-0.121179
-0.0593909
1.04903
-0.379006
0.318577
0.0501272
-0.286998
0.338036
-0.418226
-0.129477
0.046665
-0.366128
0.476281
0.0407596
-0.73976
0.915354
0.139576
-0.523466
0.186082
0.752757
-0.391724
0.578331
-0.0580514
-0.445414
0.430574
-0.224297
-0.110658
0.210477
-0.620609
0.51708
0.206984
-0.854509
0.970154
0.399103
-0.709016
0.523736
0.586796
-0.735587
0.862711
0.199087
-0.529276
0.646359
-0.597839
0.369929
0.445187
-1.08284
1.06228
0.522878
-0.891149
1.09074
0.73566
-0.383519
0.819301
0.632331
-0.778422
1.13139
0.144281
-0.171581
0.839524
-0.956584
0.612974
0.599929
-0.607383
1.18735
0.784813
-0.625929
1.02775
0.980067
-0.135468
0.977379
0.645011
-0.439643
1.28781
-0.295704
0.12757
0.926255
-0.837227
0.526382
0.766132
-0.473202
1.13482
1.07976
-0.789849
1.00448
1.19237
-0.080609
1.11836
0.643108
0.0790568
1.45442
-1.21917
0.117595
1.12303
-0.460314
0.248975
1.06193
-0.455667
1.27549
1.59632
-1.62082
1.08183
1.3835
-0.0715808
1.23519
0.683785
-0.221934
1.18661
-0.280792
-0.289326
1.68212
-0.919469
0.280638
1.67202
-1.22825
0.980939
1.93606
-0.741916
0.748875
1.83944
-0.712734
1.41681
-0.0381407
0.111967
1.12028
-0.0520153
0.0229481
2.15948
-1.3415
0.184155
1.76733
0.0108235
0.149279
1.24163
2.22966
0.0665933
1.87968
-0.677626
1.5944
-1.13028
0.039516
0.788892
1.85159
0.550091
1.89284
-0.935612
0.692736
1.41563
0.22493
-0.237428
0.204491
3.80619
-0.475373
1.07856
1.00225
1.39247
-0.988376
-0.63444
4
1.34217
0.991984
1.86065
1.61542
-0.0569862
3.04616
-1.10828
3.26137
0.733176
0.25892
-0.00702909
0.0190492
0.222688
0.13294
-0.845746
-0.481319
0.0126579
-0.406953
-1.0209
-0.0110445
-0.127638
-0.744619
0.0820741
0.170897
0.0490569
0.412733
-0.0352183
0.283684
-0.00884148
-0.0771134
0.580171
-1.30229
-0.392415
0.554605
-1.11426
-0.607334
0.494331
-1.12659
-0.327682
0.471053
-0.789809
0.337416
0.432991
0.16423
0.82952
-0.659939
0.0663378
1.25844
-0.998605
-0.0853928
1.14511
-0.8049
-0.143773
1.06859
-1.25564
0.0859203
1.03712
-1.31923
0.930482
0.24561
0.167892
1.39507
-0.79149
0.212888
1.73297
-0.743818
0.201938
1.56805
-1.0326
0.198761
1.58132
-1.36406
0.319377
1.59473
-1.38724
1.4377
0.398955
-0.198512
1.78639
0.00627631
-0.128968
1.99137
-0.925794
0.240049
1.74564
-1.62945
0.416494
1.90922
-1.3955
0.495392
1.98449
-0.852177
1.67512
0.890297
-0.884593
2.31855
0.496712
-0.76395
2.09793
-1.18379
0.155942
1.63399
-1.41563
0.65888
1.92079
-1.14044
0.706554
2.10761
-0.30627
1.74574
1.28095
-1.34853
2.76909
0.602282
-1.33838
2.30509
-1.05453
-0.198492
1.31223
-1.29133
0.713591
1.46648
-1.24762
0.900614
2.01123
-0.171251
1.86017
1.42929
-0.197255
1.13262
0.614557
-0.540602
2.38324
-0.195118
-0.103685
1.61729
-1.19765
0.376225
1.30154
-1.9358
0.56369
1.60459
0.1476
1.60538
1.50226
0.0985257
0.00699491
0.746302
0.279785
1.98848
-0.70597
0.0146266
2.56048
-1.90629
0.310089
1.77311
-1.50895
0.15501
1.8933
-0.846362
1.12791
0.594345
0.231702
0.357898
-0.634622
-0.403844
1.60824
-0.325705
-0.233245
1.98266
0.418052
0.351061
0.777183
2.64129
0.258342
0.918744
0.389646
0.567126
-0.311154
1.24679
0.0553199
0.90738
0.684249
1.634
-0.398838
0.0553153
1.21383
1.62269
-0.0293467
-0.856688
5.52473
0.353388
-0.580264
2.11853
0.676891
-0.744752
0.204702
3.85062
1.75301
1.07768
2.26873
2.31352
0.0911645
4.36704
-0.296048
3.06832
1.11402
0.406802
0.06622
-0.453972
0.103917
0.0930627
-0.635923
-0.593811
-0.142858
0.433633
-0.895427
-0.0162859
0.190265
-0.49534
0.242328
-0.471519
0.169743
-0.25235
0.476461
0.280022
-0.699104
0.231928
0.109485
-1.07418
-0.31387
0.181371
-0.892687
-0.827587
0.280148
-0.909308
-0.763798
0.364305
-0.975576
0.295604
-0.45667
-0.0913341
0.654439
-0.943021
-0.124728
0.278483
-1.13421
-0.0917375
0.313181
-0.969702
-0.276819
0.250547
-1.04096
-0.544236
0.438686
-1.12619
0.694954
-0.697976
-0.420045
1.21657
-0.933576
-0.27092
0.603164
-1.21763
-0.0410521
0.271544
-1.22083
-0.082909
0.202049
-1.27371
-0.338479
0.620304
-1.3133
1.25303
-0.497597
-0.302063
1.75218
-0.227276
-0.341837
0.926045
-1.20891
-0.274195
0.115737
-1.54129
-0.164135
0.163086
-1.4666
-0.153102
0.830701
-1.07361
1.46054
0.529679
-0.176097
1.71991
0.705083
-0.856315
1.27641
-0.853931
-0.629727
0.181347
-1.70783
-0.28734
0.201099
-1.52084
-0.0851797
1.02682
-0.704548
1.34118
1.31513
0.297978
0.603541
1.42067
-0.795784
1.19973
0.115902
-0.763338
0.164576
-1.307
-0.35219
0.0486023
-1.50628
-0.0309703
1.04917
-0.514824
1.13407
1.60544
0.437611
-1.01425
1.79473
0.230888
0.275253
0.936087
-0.441483
0.591738
-0.952442
-1.18957
0.485175
-1.62429
-0.867179
0.736452
0.13793
0.363921
1.40523
0.267011
-0.818317
0.283363
0.28689
0.364715
-0.815317
-0.544071
1.38435
-1.86794
-0.632256
1.05051
-1.9861
-0.126017
0.402605
-1.01875
0.0028115
0.829441
-0.47001
-0.260302
-0.722627
-1.26912
1.16569
-0.327567
-1.28311
0.833183
0.98321
-0.391733
-0.685161
3.48558
0.504334
-1.34749
1.24368
0.140899
0.055095
0.875352
-0.352893
0.12462
-0.356303
1.20807
0.790435
-1.77575
0.347955
3.52737
-1.06686
-1.92167
6.05236
0.315794
-2.1757
1.56407
0.0599929
-0.348051
1.513
1.98473
2.20878
1.58998
1.86026
3.00999
-0.0105871
4.31622
-0.163331
1.04537
1.01068
0.0589917
-0.246399
-0.106161
0.0809806
-0.0400674
-0.123883
0.0277975
0.168959
-0.14442
0.114897
-0.170721
-0.119135
0.18442
-0.306608
-0.140116
0.337957
-0.208817
-0.537381
0.164503
0.12648
-0.0967043
-0.754378
0.273634
0.40286
-0.608027
0.277422
0.746686
-0.741098
0.22655
0.369466
-0.0237556
0.0943677
0.659952
0.0474702
-0.485321
-0.0790287
-0.0999532
0.0212183
0.297067
0.0414824
0.6788
0.0117377
0.337252
-0.113351
-0.100716
0.0520367
-1.71899
0.146782
0.037161
-1.66854
0.169883
0.0262268
-1.62461
0.167929
0.0323598
-1.67718
0.154765
0.0170211
-1.74053
0.131664
-1.71639
0.143819
-0.0622986
-1.59081
0.0605961
0.00594797
-1.55414
0.0909851
0.119374
-1.5526
0.0919906
0.158583
-1.56589
0.076041
0.0883909
-1.61446
0.0384835
-1.62556
0.0450291
-0.0477691
-0.0175803
-0.00894886
-0.00165127
0.0553543
0.00439615
0.0948549
-0.00968041
0.0398659
-0.0342615
-0.0291429
0.00145848
-1.46552
0.277331
0.00172249
-1.47515
0.285002
0.0102591
-1.47789
0.281858
0.0150731
-1.47131
0.27812
0.000242417
-1.46377
0.269156
-1.47329
0.269162
-0.00505751
-1.4539
0.0540301
0.00449259
-1.45396
0.0602408
0.0159535
-1.45563
0.0582656
0.0213293
-1.45468
0.0540333
0.0110285
-1.4554
0.0404099
-1.458
0.0407604
-0.00399365
0.0179784
0.00027952
0.0237794
0.00997468
0.0240334
0.011717
0.020645
0.0021817
0.0125619
0.00963355
0.00293974
-1.63693
0.422462
0.0039804
-1.63775
0.42222
0.0063203
-1.63977
0.421379
0.0101635
-1.63742
0.423979
-0.00151837
-1.63998
0.423281
-1.63397
0.419845
0.000213279
-1.63219
0.0490727
0.00564052
-1.63217
0.0492357
0.00916508
-1.63317
0.048146
0.0120099
-1.63402
0.0477827
0.00525076
-1.63831
0.0454966
-1.63593
0.0479772
-0.00119197
0.0212367
0.00182154
0.022615
0.00598352
0.0222504
0.00772207
0.0218912
0.0025022
0.0209286
0.0202319
0.00282587
-1.74309
0.481499
0.00276197
-1.74834
0.482368
0.00648154
-1.74628
0.478288
0.00535567
-1.74534
0.488615
0.00040388
-1.74588
0.485924
-1.74298
0.487284
0.00173337
-1.71051
0.0147532
0.000518415
-1.7142
0.016303
0.00140825
-1.7124
0.013376
0.00167788
-1.71331
0.0154818
0.00115401
-1.71422
0.0143602
-1.71309
0.0192457
0.0019238
0.0212406
0.0010305
0.0241353
0.00203728
0.0231418
0.00173068
0.0237136
-3.30513e-05
0.024188
0.0243572
-0.00138547
-1.93584
0.350629
-0.00130086
-1.9367
0.361137
0.00466792
-1.93781
0.350383
0.00440544
-1.9349
0.360371
0.00267668
-1.93557
0.358642
-1.93089
0.378697
-0.00260012
-1.85181
-0.0666791
-0.00203279
-1.85199
-0.0689715
0.00683736
-1.84974
-0.0835692
0.00941742
-1.85155
-0.0704527
0.00242953
-1.85154
-0.0626803
-1.84905
-0.060159
0.00613624
-0.0199221
0.00310864
-0.00337205
0.00547769
-0.00982553
0.00633027
-0.00743681
0.00504312
-0.003279
0.0044625
0.00595039
-2.08258
-0.364123
0.0105399
-2.10587
-0.30713
0.0201147
-2.09907
-0.331035
0.0176563
-2.09615
-0.327104
0.0272431
-2.08723
-0.332408
-2.05505
-0.240448
-0.0194644
-1.83426
-0.29553
-0.00289566
-1.85478
-0.336625
0.0256424
-1.84578
-0.365399
0.0180176
-1.85124
-0.30774
0.00337606
-1.84273
-0.292538
-1.83889
-0.27294
0.0273817
-0.00379982
0.00385468
0.0699595
-0.00296003
0.0450134
0.00173569
0.0390505
0.00211212
0.0540835
0.0676344
-0.229903
-2.35295
1.16291
-0.00979065
-2.83539
0.921787
0.00129945
-2.57655
1.02517
-0.123596
-2.45505
1.11966
-0.220289
-2.64508
1.07548
-2.67104
0.999517
-0.144343
-1.97259
-0.531552
-0.0205866
-2.20262
-1.09316
0.0435415
-2.01221
-0.99387
0.0159747
-1.9494
-0.785827
-0.0481761
-2.01086
-0.862604
-2.07242
-0.919736
0.167046
-0.187228
0.0148167
0.0302433
0.0274139
-0.0211419
0.112585
-0.0344712
0.112291
0.0142987
0.0956613
-0.258423
2.90403
3.30256
0.134761
1.43459
3.54512
0.0460491
1.99681
3.65103
-0.257029
2.11476
3.85583
-0.413453
1.77979
3.95945
1.35529
3.5524
0.227183
0.333025
1.81227
0.246103
-1.22661
1.54912
0.0724531
-0.477394
1.65398
-0.0354393
-0.285437
1.72226
-0.0859101
-0.711824
1.67948
-1.10988
1.45952
0.240552
1.35944
-0.0892336
1.38418
-0.104995
1.19587
0.0459656
1.03946
0.0880725
1.06628
1.06884
0.39078
6.37745
1.41284
0.385027
5.87943
2.48673
0.445764
5.7228
2.50126
0.0711201
5.51405
3.36107
-0.497345
5.5328
3.76069
5.08258
2.45519
0.233321
5.84246
2.11395
0.370107
4.47379
2.81797
0.44127
4.3985
2.90711
3.9382e-05
4.11653
3.561
-0.482805
3.80474
3.89038
3.21996
2.83934
0.372247
2.44924
0.310367
3.42299
0.302641
3.14465
-0.0600513
3.34182
-0.30973
3.44087
2.93177
0.833512
2.92678
-0.977223
0.715001
5.83511
-0.406566
0.492975
5.76277
-0.441415
0.164264
6.27651
0.300183
-0.033964
6.22592
0.673121
5.33163
-0.494698
0.511516
4.66529
-0.136079
0.701034
7.18319
1.28038
0.506041
7.06661
1.79826
0.289881
7.06436
2.98931
-0.0842788
6.94722
3.54325
6.36654
1.72016
0.240439
0.598068
0.326367
3.4386
0.419249
3.52354
0.169301
4.25897
-0.0799967
4.53075
3.65252
-0.00989328
-1.34656
0.345196
0.340046
-1.58965
1.40673
0.238438
-0.910257
1.05499
0.0341317
0.0913286
0.926143
-0.0519764
0.186092
1.13025
-1.18721
1.04136
0.784622
-2.22943
-0.0378309
-0.965057
0.196611
1.2438
-1.46869
0.715273
0.676363
-0.137959
2.05075
-0.300835
-0.28182
2.22581
1.64739
0.565769
-0.314642
0.166372
-0.271636
-0.526695
0.926091
-0.632374
1.60668
0.159504
2.57924
0.590982
3.35972
2.16825
0.252938
0.623263
-1.58914
0.71294
0.41875
0.847008
-1.63982
0.626998
0.326776
0.795082
-1.60043
0.897323
0.107181
0.733413
-1.70783
1.19401
-0.234608
0.948542
-1.92203
1.31528
0.753695
-1.64815
0.659851
0.635969
1.45555
-1.51696
0.0487032
0.779776
1.77087
-1.83753
0.769863
0.504065
1.70519
-1.85225
1.21785
-0.0136213
1.80888
-1.90043
1.34265
-0.502763
1.92835
-2.06894
1.57827
1.66465
-1.59499
0.181268
0.626446
-0.76908
-0.680496
0.690304
-1.23149
0.445422
0.308671
-1.24711
0.991458
-0.129762
-1.21406
0.915144
-0.408287
-1.19715
0.727478
-0.61283
-0.385725
0.117017
0.801645
-2.5078
0.231986
0.543338
-2.29813
0.208941
0.765613
-2.343
0.163692
0.829369
-2.49195
0.00723356
0.709492
-2.47506
0.789677
-2.4306
0.188613
1.55672
-2.46064
0.22997
1.07982
-2.41538
0.203515
1.30551
-2.3657
0.0759855
1.45754
-2.40107
-0.111025
1.20215
-2.37459
1.31683
-2.23317
0.175331
-2.2471
0.194836
-2.286
0.0836536
-2.16698
-0.16323
-2.2171
-0.266283
-2.25804
-1.81704
-0.0474132
0.217883
-2.67827
0.00416076
-0.133918
-2.21578
0.061024
0.15793
-2.55779
0.0116772
0.284475
-2.72707
0.00809286
-0.0301443
-2.44134
0.0716116
-2.49412
-0.172416
0.555577
-2.62592
0.242814
-0.372681
-2.59184
0.280433
0.280287
-2.52568
0.0622947
0.408815
-2.30727
0.081293
-0.0298376
-2.3939
0.122011
-2.20228
-0.32813
-2.78455
0.0811212
-2.5011
0.0304786
-2.63251
-0.302214
-2.56959
-0.164127
-2.69096
-2.35855
-0.0237486
-0.758077
-1.89645
-0.170059
-0.267619
-1.80185
-0.0971848
-0.65744
-1.97323
-0.036095
-0.792657
-1.99551
0.00574923
-0.673349
-1.80983
-0.595155
-1.89321
-0.473465
-1.22605
-1.68448
0.772179
-1.75932
-2.34579
0.919586
-1.47495
-1.85558
0.296186
-1.74688
-0.729646
0.141614
-1.60075
-1.31192
-1.78016
-0.875653
-0.36861
-1.59304
-0.124264
-1.41649
-0.211526
-1.67831
-0.329805
-1.74549
-0.0703927
-2.29759
-1.75616
0.0370315
-1.00471
-0.928772
-0.296061
0.110883
-1.57964
-0.19377
-0.511399
-1.56412
0.0543426
-0.90497
-1.33865
0.0338296
-0.344778
-1.44454
-0.335975
-1.52341
-0.599394
-1.2248
-0.864989
0.844834
-1.51693
-2.1622
0.680464
-1.00215
-1.20045
0.0484024
-1.4767
0.474146
0.420811
-0.71413
-1.31498
-1.07445
0.283634
-0.555899
-0.486716
-0.0889648
-0.7355
-0.0124024
-1.22989
-0.117863
-1.79445
0.0165355
-2.61058
-1.65023
-0.0450609
-0.538515
-0.244107
0.026138
-0.090739
-0.662494
0.0252743
-0.52852
0.00653311
-0.295547
-0.475516
-0.200673
-1.24066
0.297449
-1.39039
-0.190292
-0.698841
-0.0797727
-0.465727
0.123257
-0.166159
-0.383267
-0.390598
0.263494
0.20266
0.264778
0.146236
-0.151769
-0.430967
0.128765
-0.398969
-0.525796
0.137073
-0.119269
0.0947789
0.0591529
0.13584
-0.236557
0.171711
0.0453159
-0.590485
0.209488
-0.350986
0.14395
-0.0490839
-0.520389
0.138505
-0.178753
-0.541371
0.145242
0.00905918
-0.213127
0.120093
0.0528244
-0.433035
0.152711
-0.0782468
-0.590667
0.131252
-0.545656
0.116422
-0.0242703
0.0631879
-0.077726
0.0596132
0.0298032
0.0759751
0.0868493
0.0604253
0.0337704
0.0520449
0.0527465
0.0776957
-0.799547
0.151512
-0.0497029
-0.926515
0.116803
-0.160797
-0.85346
0.131019
-0.191064
-0.871286
0.163955
-0.220407
-0.913838
0.177092
-0.671246
0.138118
0.0605305
-0.800822
0.0792496
0.00690227
-0.84758
0.119934
-0.0438713
-0.806059
0.123465
-0.0663469
-0.814962
0.118862
-0.125441
-0.832337
0.108844
-0.768467
0.0882033
-0.0018147
0.0534341
-0.03401
0.0495328
0.00808344
0.0474571
0.0311525
0.0416976
0.00100952
0.0389236
0.0404828
-0.133672
-0.809824
0.151986
-0.142973
-1.01232
0.00421347
-0.0925923
-0.918723
0.0296597
-0.0797341
-0.936256
0.0463969
-0.11784
-0.975419
0.0644249
-0.806903
0.129206
0.112833
-0.814841
-0.0285669
0.0297572
-0.847896
0.0385874
-0.0255331
-0.824374
0.084407
-0.0693914
-0.853395
0.07986
-0.113012
-0.861485
0.038533
-0.811759
-0.0199511
-0.00756194
0.05319
-0.0343101
0.0602222
0.00189535
0.046139
0.0105756
0.0360358
-0.0152776
0.0335582
0.0193176
-0.296198
-0.857986
0.372593
-0.159315
-1.25439
-0.095902
-0.0896424
-1.13134
-0.129503
-0.0418737
-1.13061
-0.144468
-0.0792517
-1.22085
0.00936089
-0.889924
0.442283
0.176462
-0.866446
-0.196567
0.0602806
-0.931852
-0.167773
-0.0343603
-0.914305
-0.0379897
-0.0769681
-0.956611
-0.0515315
-0.133289
-0.998685
-0.127313
-0.905648
-0.137515
0.0184032
0.00514124
-0.0205586
0.0435118
-0.00690232
0.0286584
-0.011947
0.0130868
-0.0440074
-0.00531206
-0.0510367
-0.222777
-0.464868
0.83296
-0.156131
-1.33698
-0.0344764
-0.201719
-1.31092
-0.314287
-0.215671
-1.27633
-0.320782
-0.243826
-1.17351
0.137418
-0.122403
0.850539
0.283324
-0.689652
-0.255107
0.0962474
-0.935223
-0.382454
-0.125934
-0.922892
-0.203841
-0.307589
-0.951232
-0.19498
-0.42554
-0.974964
-0.20791
-0.644376
-0.041084
0.0967122
-0.0679365
0.00951752
-0.007906
-0.0493204
0.0100046
-0.09096
-0.00903514
-0.140217
-0.0445707
-0.0944388
0.371632
0.397131
0.769279
0.0929487
-0.863316
0.253591
-0.211416
-1.43571
-0.282043
-0.401895
-1.34214
-0.309008
-0.40077
-0.939067
0.37081
0.709225
1.05567
0.495017
-0.175428
-0.177565
0.39394
-0.769693
-0.375002
-0.0350203
-0.921893
-0.288694
-0.447043
-0.896994
-0.2281
-0.652529
-0.815518
-0.125975
-0.192844
0.208453
0.264417
-0.0648229
0.157505
-0.037983
-0.0623964
0.0194468
-0.181846
0.00705353
-0.246487
-0.0266687
-0.0282412
0.966239
1.46314
-0.239431
0.818827
0.645239
-0.128333
0.329851
-0.955195
-0.144875
-0.266308
-1.11494
-0.10419
-0.459768
-0.631533
0.680978
1.13539
1.06595
0.712682
0.819163
-0.246267
1.01286
-0.0302181
0.000270356
0.34651
-0.70539
0.127853
-0.373021
-0.656912
0.0334052
-0.787712
-0.50661
0.163789
0.213864
0.342263
0.341443
0.244811
0.323409
0.249573
-0.0128355
0.171832
-0.183862
0.118151
-0.261921
0.11908
0.129729
0.590003
1.87034
-0.905035
0.870417
1.09622
-0.568874
0.0627413
-0.706847
0.417207
-1.11813
-1.1216
0.573997
-0.990418
-0.0900543
0.781251
0.954755
0.526013
0.448463
1.19256
-0.0169505
0.863163
0.254759
0.427028
0.103145
-0.610819
0.791846
-0.838302
-0.576074
0.429325
-0.819216
-0.187146
0.241795
0.436476
0.0413284
0.335164
0.65414
0.520663
0.550212
0.0851563
0.452471
-0.196825
0.363846
-0.17004
0.327015
0.403186
0.207739
-0.505922
-0.32349
-0.0751579
-1.22842
0.127121
-0.523027
-1.79808
0.795215
-0.631726
-1.70012
0.396708
-0.170422
-0.716051
0.0172495
1.05087
0.134156
-0.270724
-0.922977
0.670829
-0.575783
-1.49591
0.999586
-0.823681
-1.35226
0.593928
-0.553551
-1.17738
-0.363536
-0.599379
-0.685871
0.257447
0.615326
-0.1225
0.121448
0.876365
-0.162002
0.93417
-0.645782
1.03784
-0.259541
0.32926
-0.537339
1.19803
0.783016
-0.506039
-0.451162
-0.0889151
-1.52874
0.0850618
0.737188
-1.52078
1.91308
-0.142605
-0.383294
3.95985
-1.21505
0.710376
1.63557
-1.46831
0.491043
0.408585
-0.887373
-0.601892
1.70893
-1.28259
-0.0524772
1.53235
-1.29166
2.89631
-0.380231
-0.336688
4.50387
-1.86253
0.733516
1.18094
-0.358129
0.36438
0.73768
-0.0336619
2.07019
-0.0893244
2.11022
-0.856948
0.815499
-1.29021
-0.985895
-0.10984
1.27177
1.60357
0.144988
0.248277
-0.357559
-1.15118
2.16724
0.656555
-2.06399
4.93256
-0.634987
-0.943535
5.46693
-1.75008
0.331637
0.8113
-1.9907
0.197753
0.194417
-0.611529
1.16864
1.4001
-0.77346
3.00806
0.853461
-0.822685
5.35084
-0.749286
-0.297581
5.04189
-1.96258
-0.344602
1.99155
-1.49136
-0.324766
0.915597
-0.839432
2.85946
0.30059
2.20307
0.499206
0.0587338
-0.440293
-1.29947
-1.18274
-0.245942
1.9352
1.51985
0.820256
2.10762
2.28576
1.27045
4.1095
0.243725
4.78688
-0.393065
1.00673
1.47188
0.555112
1.71395
1.20382
3.26037
0.953011
4.82888
0.607955
4.512
-0.329859
2.03146
2.23889
0.0592989
0.639875
0.184274
0.120156
-0.100911
)
;

boundaryField
{
    seabed_topleft_surface
    {
        type            calculated;
        value           uniform 0;
    }
    seabed_topright_surface
    {
        type            calculated;
        value           uniform 0;
    }
    breakwater_top_surface
    {
        type            calculated;
        value           uniform 0;
    }
    breakwater_left_surface
    {
        type            calculated;
        value           uniform 0;
    }
    breakwater_right_surface
    {
        type            calculated;
        value           uniform 0;
    }
    water_front_surface
    {
        type            calculated;
        value           uniform 0;
    }
    water_back_surface
    {
        type            calculated;
        value           uniform 0;
    }
    water_left_surface
    {
        type            calculated;
        value           uniform 0;
    }
    water_right_surface
    {
        type            calculated;
        value           uniform 0;
    }
    water_top_surface
    {
        type            calculated;
        value           nonuniform List<scalar> 
180
(
0.728853
-1.16097
-1.04653
-1.13457
0.431144
1.09792
-1.60449
-1.57009
-1.57982
-1.58397
-1.63856
-1.65727
-1.48547
-1.48367
-1.48497
-1.48675
-1.49269
-1.49459
-1.63425
-1.63402
-1.63555
-1.637
-1.64146
-1.64402
-1.71243
-1.71482
-1.71429
-1.71483
-1.71572
-1.71725
-1.81678
-1.82146
-1.81915
-1.82126
-1.8228
-1.82412
-1.87776
-1.9046
-1.89381
-1.90243
-1.90047
-1.89995
-1.9562
-2.01068
-1.95865
-1.96105
-1.97078
-1.98816
-1.4542
-2.25076
-1.67865
-1.51033
-1.80591
-1.99499
4.38041
2.49685