/*--------------------------------*- C++ -*----------------------------------*\
| =========                 |                                                 |
| \\      /  F ield         | OpenFOAM: The Open Source CFD Toolbox           |
|  \\    /   O peration     | Version:  v1612+                                |
|   \\  /    A nd           | Web:      www.OpenFOAM.com                      |
|    \\/     M anipulation  |                                                 |
\*---------------------------------------------------------------------------*/
FoamFile
{
    version     2.0;
    format      ascii;
    class       volScalarField;
    location    "6.25";
    object      alpha.water;
}
// * * * * * * * * * * * * * * * * * * * * * * * * * * * * * * * * * * * * * //

dimensions      [0 0 0 0 0 0 0];

internalField   nonuniform List<scalar> 
1116
(
0.56307
0.56307
0.563071
0.563071
0.563071
0.563072
0.886432
0.886464
0.88644
0.886435
0.886444
0.886436
0.974483
0.974483
0.974483
0.974483
0.974483
0.974483
0.974483
0.974483
0.974483
0.974483
0.974483
0.974483
0.97029
0.970294
0.970292
0.970296
0.970299
0.970288
0.954804
0.954827
0.954818
0.954824
0.95484
0.954799
0.936921
0.936968
0.936955
0.936953
0.93698
0.936923
0.923702
0.923768
0.923756
0.923735
0.923761
0.923715
0.917822
0.917887
0.917877
0.917846
0.917882
0.917813
0.916639
0.9167
0.916692
0.916661
0.916701
0.916624
0.914916
0.91492
0.914934
0.914924
0.915024
0.914815
0.910344
0.910463
0.910413
0.910376
0.910304
0.910587
0.758185
0.758192
0.758191
0.758189
0.758188
0.758188
0.917353
0.917353
0.917353
0.917353
0.917353
0.917353
0.891591
0.891615
0.891602
0.891611
0.891626
0.891584
0.558779
0.558624
0.558671
0.558737
0.558699
0.558726
0.379268
0.379183
0.379214
0.379241
0.379209
0.379268
0.291317
0.291434
0.291416
0.291326
0.291301
0.291447
0.237417
0.237584
0.237567
0.237429
0.237411
0.23757
0.193384
0.193378
0.193413
0.19335
0.193475
0.193341
0.220107
0.220229
0.220077
0.220169
0.219944
0.220238
0.305256
0.306212
0.305779
0.305484
0.304114
0.306964
0.337966
0.332292
0.333881
0.337171
0.342234
0.329177
0.2297
0.22821
0.228531
0.2294
0.231262
0.228045
0.722003
0.722371
0.72223
0.722182
0.722278
0.722118
0.283159
0.283007
0.283077
0.283088
0.283042
0.283115
0.0398365
0.0397743
0.039796
0.0398111
0.0397922
0.03982
1.75974e-08
1.78471e-08
1.86045e-08
1.92106e-08
1.92917e-08
1.93909e-08
3.06417e-08
3.25434e-08
3.26553e-08
3.29314e-08
3.30862e-08
3.24924e-08
3.23391e-07
3.14761e-07
3.12894e-07
3.26913e-07
3.41681e-07
2.98159e-07
1.01897e-06
1.00734e-06
1.00566e-06
1.02054e-06
1.0344e-06
9.89155e-07
1.42613e-06
1.42448e-06
1.4247e-06
1.42435e-06
1.42196e-06
1.42045e-06
0.000988426
0.000972766
0.000969169
0.000989526
0.00103296
0.000937134
0.0120618
0.0124227
0.0122713
0.0121431
0.0118339
0.0126543
0.0348094
0.0342087
0.0341359
0.0348831
0.0346355
0.0340048
0.0260634
0.0260618
0.0260606
0.02606
0.02606
0.02606
0.591038
0.591295
0.591179
0.591154
0.591238
0.591111
1.927e-08
1.96584e-08
2.02083e-08
2.07325e-08
2.06003e-08
2.08508e-08
1.8107e-08
1.84954e-08
1.91832e-08
1.97257e-08
1.96283e-08
1.99168e-08
1.79645e-08
1.81069e-08
1.84953e-08
1.91832e-08
1.95301e-08
1.96282e-08
1.81069e-08
1.84811e-08
1.91765e-08
1.97256e-08
1.96716e-08
1.99132e-08
3.0686e-08
3.25562e-08
3.27118e-08
3.29945e-08
3.31486e-08
3.25637e-08
3.20375e-07
3.11705e-07
3.09993e-07
3.23971e-07
3.38547e-07
2.95309e-07
9.91812e-07
9.82388e-07
9.80887e-07
9.94437e-07
1.00622e-06
9.64166e-07
0.00517947
0.00509395
0.00507128
0.00518897
0.00539138
0.00488918
0.0263959
0.0262051
0.0262686
0.0263487
0.0265277
0.0260935
0.0282558
0.0281237
0.0282285
0.028191
0.0283282
0.0281187
0.0288666
0.0288701
0.0288739
0.0288767
0.0288767
0.0288767
0.0913947
0.0916863
0.0918286
0.0918746
0.0918746
0.0877421
0.0801636
0.0735286
0.0772678
0.0903491
0.0918746
0.0918635
0.0241229
0.0551907
0.0131273
0.0571458
0.0918635
0.048553
0.0668058
0.0846783
0.072121
0.0754378
0.0886736
0.0756775
0.0841413
0.0842471
0.0867616
0.0878233
0.0879724
0.0931181
0.083276
0.0537306
0.0610518
0.0628606
0.0852763
0.0930996
0.0770819
0.0543261
0.0478302
0.0585718
0.0826213
0.0917517
0.0851638
0.08549
0.0877516
0.086813
0.0895288
0.091676
0.0880048
0.0888926
0.0892842
0.0897677
0.0902925
0.0913889
0.0873863
0.088346
0.0889299
0.0893124
0.0897784
0.0701419
0.0865469
0.087371
0.0884825
0.0888917
0.0893124
0.0408259
0.041365
0.0426454
0.0511825
0.0450246
0.0888635
0.0395019
0.0872515
0.0913708
0.0916863
0.0834067
0.0791222
0.0873678
0.010489
0.00543908
0.0129532
0.00560656
0.00587436
0.0462248
0.00422323
0.00370066
0.0025819
0.00615583
0.00600569
0.00285439
0.0031348
0.00142164
0.00238676
0.00164782
0.00184287
0.00356504
8.15331e-12
6.6811e-12
3.10535e-12
1.89925e-12
0.000280378
0.000748002
8.72844e-12
4.28304e-06
1.68777e-11
8.46222e-11
3.66647e-11
2.33095e-09
6.44938e-09
1.50983e-08
0.000115142
2.69819e-08
2.09553e-09
3.52292e-08
1.31858e-06
3.55915e-07
8.38162e-07
1.02074e-06
1.11496e-08
3.15657e-05
0.00359139
1.87971e-05
6.41581e-05
0.00195252
0.00818317
0.00191848
0.0259451
0.0149563
0.00617385
0.0204231
0.0242658
0.0169111
0.046764
0.0412779
0.0480304
0.0556648
0.0444917
0.0784506
0.0460365
0.0599176
0.0904123
0.0904123
0.0565627
0.0786083
0.0863938
0.0804043
0.0803666
0.0824355
0.0734297
0.0866363
6.23669e-05
1.59031e-05
3.13589e-05
4.70873e-05
3.01909e-07
0.0135214
-2.63747e-11
3.45285e-09
-3.56782e-08
5.19068e-09
1.16038e-08
8.21941e-09
8.14941e-12
6.27702e-11
2.73646e-12
1.89915e-12
1.28314e-12
1.12257e-11
5.20654e-12
1.34097e-10
1.89928e-12
1.30869e-12
7.30106e-13
1.30869e-12
8.99308e-11
7.30192e-12
4.18405e-12
1.889e-12
1.30271e-12
9.81568e-11
1.36333e-08
4.06407e-10
1.65639e-11
1.82008e-08
3.41037e-11
2.60663e-08
5.73091e-08
1.49614e-08
2.9483e-08
9.68015e-09
5.59647e-10
9.17428e-09
1.20417e-08
6.93755e-08
8.11685e-08
6.36595e-10
1.59791e-10
1.74454e-10
6.30482e-10
-1.17468e-09
2.88171e-08
9.55571e-08
6.3999e-10
1.57758e-08
0.00426477
0.00368688
7.04327e-06
0.00265029
0.00941829
0.00712713
0.0871664
0.0887522
0.0901607
0.086902
0.0100669
0.0786083
0.0774975
0.0366211
0.0422416
0.0652217
0.046886
0.0761892
1.06096e-06
9.9912e-08
8.82527e-07
1.44725e-07
1.45004e-07
0.00249847
1.40075e-09
8.15854e-08
3.34156e-08
1.31599e-07
1.29334e-07
8.09371e-08
2.80399e-09
9.47621e-08
6.18906e-08
3.79226e-07
7.12532e-07
5.49644e-07
1.0504e-12
2.39111e-12
1.71816e-12
4.85468e-13
2.44671e-13
4.85469e-13
3.26823e-09
2.6065e-12
1.65545e-09
2.0615e-10
7.86756e-12
2.26565e-12
2.29014e-08
1.27447e-11
5.38141e-10
2.01166e-09
2.43738e-09
5.17811e-11
4.48471e-10
1.09897e-10
2.55848e-10
-4.08689e-11
1.36559e-08
4.15841e-10
2.21764e-08
-2.14932e-10
1.24213e-10
1.00595e-09
-3.14604e-13
1.89931e-12
4.59749e-10
4.78341e-10
6.17053e-09
3.45731e-09
-2.33493e-10
4.92975e-10
3.98015e-10
6.17613e-09
4.66668e-08
0.0011978
0.0115828
5.26236e-05
0.0421485
0.0332029
0.0147797
0.0244784
0.0476406
0.0457337
0.309501
0.308853
0.309047
0.309149
0.309033
0.309251
0.00671176
0.00654094
0.00659647
0.00662241
0.00658664
0.00664832
2.51944e-05
2.4057e-05
2.44796e-05
2.46387e-05
2.43202e-05
2.47567e-05
0.00620074
0.00619901
0.00620084
0.00619982
0.00619918
0.00620229
0.00184004
0.00180883
0.00182045
0.00182523
0.00181682
0.00182872
1.11973e-06
9.09294e-07
9.80894e-07
1.01589e-06
9.62757e-07
1.03618e-06
1.89614e-08
2.101e-08
2.15759e-08
2.1239e-08
2.06269e-08
2.18027e-08
9.25166e-09
1.41955e-08
1.19876e-08
1.07323e-08
1.01753e-08
1.19279e-08
-5.57776e-13
-1.1593e-12
-6.23166e-13
-8.055e-13
-5.76779e-13
-1.01921e-12
1.50349e-08
1.5544e-08
1.65945e-08
1.6807e-08
1.63353e-08
1.71236e-08
3.29524e-10
5.00866e-10
4.19338e-10
3.89969e-10
3.82459e-10
4.15968e-10
-7.2091e-12
-1.00707e-11
-8.76719e-12
-8.2978e-12
-8.24682e-12
-8.52962e-12
1.77345e-08
1.96457e-08
1.97089e-08
1.97897e-08
1.92378e-08
2.00174e-08
2.40072e-09
7.03691e-09
5.17939e-09
4.01819e-09
3.09084e-09
5.12071e-09
-1.47475e-10
4.37279e-10
3.5491e-10
3.0042e-10
-1.61257e-10
3.49562e-10
1.36704e-07
1.58528e-07
1.49602e-07
1.46856e-07
1.47257e-07
1.44304e-07
9.23585e-07
7.3774e-06
4.78152e-06
1.95707e-06
8.74703e-07
4.86491e-06
2.50853e-07
8.64582e-07
4.51181e-07
4.27455e-07
4.78902e-07
3.54335e-07
2.88566e-06
2.94911e-06
2.86855e-06
2.95052e-06
3.05061e-06
2.72325e-06
0.000516666
0.000555954
0.000541595
0.00053658
0.000529238
0.000534111
0.000266343
0.000304786
0.000288322
0.000282492
0.000280229
0.000287411
0.0011029
0.00108108
0.00107131
0.00110536
0.00114664
0.00101489
0.00110232
0.00108075
0.00107179
0.00110416
0.0011437
0.00108244
0.000542794
0.000579279
0.000571933
0.00055463
0.000539976
0.000576011
0.002564
0.00248349
0.00250825
0.00253131
0.0025551
0.00248843
0.000479926
0.000473155
0.000483897
0.000466809
0.000444968
0.000499026
0.000129703
0.000122344
0.000124871
0.000129279
0.000128936
0.000125398
2.30346e-06
2.17209e-06
2.19369e-06
2.27216e-06
2.2835e-06
2.17868e-06
4.16949e-12
3.9916e-12
3.87067e-12
4.179e-12
4.29485e-12
3.98003e-12
8.92016e-05
8.22401e-05
8.33298e-05
8.76039e-05
8.73747e-05
8.33752e-05
-2.8767e-10
-2.69491e-10
-2.74012e-10
-2.82028e-10
-2.83975e-10
-2.68554e-10
3.04625e-12
2.96929e-12
2.99107e-12
3.05288e-12
3.14324e-12
2.90333e-12
2.28375e-22
2.48169e-22
2.45672e-22
2.33517e-22
6.24013e-20
2.38786e-22
0.0173526
0.017104
0.0172357
0.0172159
0.0174111
0.0170573
5.47244e-24
5.53122e-24
5.48925e-24
5.54767e-24
1.44924e-20
5.43502e-24
1.82084e-09
1.80094e-09
1.80663e-09
1.83002e-09
1.86628e-09
1.76115e-09
0.0799222
0.0801714
0.081195
0.0822635
0.0834029
0.0811874
2.90806e-28
2.28202e-28
1.41274e-23
3.5341e-28
4.82657e-28
8.73427e-29
-5.95331e-26
2.53904e-28
3.24244e-25
2.13279e-23
1.92151e-17
-2.08202e-26
0.0894618
0.0894385
0.0894005
0.0891661
0.0890721
0.0892942
-1.1312e-15
-8.67503e-16
1.76508e-31
-1.28597e-18
-2.82909e-16
-1.75805e-16
-6.95141e-26
-4.61494e-26
-1.07088e-25
-5.53717e-26
-6.58468e-26
-4.68739e-26
0.0899252
0.0899145
0.0899048
0.0895981
0.0895022
0.0897542
-3.78787e-15
-3.0671e-15
-5.30898e-15
-1.80922e-17
-3.34017e-14
-1.53146e-15
-8.79169e-26
-8.27864e-26
-8.91109e-26
-7.82716e-26
-1.44835e-25
-5.18292e-26
0.090989
0.0910087
0.0910141
0.0909706
0.0910053
0.0910659
-2.32272e-15
-1.88996e-15
-3.41942e-15
-1.56343e-16
-2.10898e-14
-9.33286e-16
-9.55163e-26
-1.1143e-25
-1.21879e-25
-1.15594e-25
-1.27291e-25
-8.76659e-26
0.0907003
0.0907221
0.0907289
0.090668
0.0906958
0.090781
-1.21249e-15
-9.88312e-16
-1.87263e-15
-3.3951e-16
-1.11366e-14
-4.73322e-16
-5.48976e-26
-6.54024e-26
-7.1318e-26
-7.22161e-26
-7.97433e-26
-5.82328e-26
0.0833122
0.0832876
0.0833255
0.0831312
0.0831186
0.0833471
-5.38959e-16
-4.39359e-16
-8.82942e-16
-3.30622e-16
-4.98573e-15
-2.03662e-16
-3.36143e-26
-4.08008e-26
-4.41689e-26
-4.82723e-26
-5.44582e-26
-4.12579e-26
0.0312824
0.00651025
0.0130317
0.0124526
0.00512279
0.0320854
0.00560924
0.0099738
0.0115602
0.000565744
5.58905e-05
0.0226064
0.00699317
0.0114085
0.00992466
0.000814907
4.16416e-05
0.0148271
0.000685932
5.23134e-05
1.05019e-06
3.19851e-07
5.0722e-07
0.00211755
0.000280151
1.30276e-06
9.0023e-07
6.48933e-07
6.76064e-05
0.000899083
7.59487e-06
8.06879e-06
6.63301e-07
4.90348e-07
4.05372e-05
1.72209e-05
1.3402e-09
2.6804e-09
1.74872e-06
4.68037e-07
8.55028e-07
1.58855e-07
-2.76011e-17
5.0691e-06
1.3672e-05
1.36585e-05
6.65046e-06
1.72253e-07
7.35617e-06
1.05467e-05
7.07876e-06
4.56159e-07
4.31482e-20
1.67334e-05
7.26585e-09
7.68794e-08
6.1663e-08
2.97666e-07
7.75384e-07
1.90399e-06
1.11699e-19
2.56109e-09
9.51351e-11
1.04222e-17
3.45646e-17
9.90012e-07
2.43819e-28
2.70181e-07
1.69649e-07
3.85491e-08
3.59892e-08
1.13247e-09
3.09295e-13
1.03245e-17
9.82366e-18
9.84814e-18
3.38788e-17
6.12605e-18
5.56889e-18
9.71231e-18
9.69009e-18
9.70441e-18
1.58771e-18
1.2592e-18
6.32904e-17
9.73193e-25
1.2946e-24
1.04527e-23
2.4699e-23
5.57591e-18
1.68023e-10
2.0884e-10
2.52976e-10
1.82289e-10
4.36638e-11
1.28393e-10
8.11974e-18
1.08069e-17
9.74501e-18
1.07131e-17
7.36184e-15
2.74974e-18
2.27411e-14
2.14765e-14
1.81384e-14
2.40064e-14
2.13775e-14
7.48028e-15
1.02126e-10
8.45932e-11
4.23097e-11
1.55883e-10
5.24932e-11
5.03262e-16
6.96024e-17
9.31672e-15
1.33592e-15
1.84266e-16
5.89425e-14
2.66412e-16
2.63138e-13
2.63719e-13
2.303e-13
2.9502e-13
2.80229e-13
1.00765e-13
-1.33083e-13
1.57521e-13
7.1821e-13
6.19454e-12
5.42615e-12
-1.74315e-12
2.21789e-17
8.34272e-17
2.27617e-15
2.3263e-16
1.92733e-17
8.10278e-17
1.74981e-14
2.87958e-14
2.26528e-14
2.94737e-14
2.65029e-14
1.94554e-14
-4.97391e-14
-6.90604e-11
-2.19074e-10
-1.91717e-13
-8.48866e-15
-9.3039e-13
6.90509e-22
1.66603e-18
6.73527e-18
-6.61174e-18
3.46922e-17
1.92492e-18
3.79229e-252
1.65213e-248
4.24809e-245
5.41517e-239
3.45846e-323
0
2.89489e-12
6.04056e-11
-4.93819e-09
-2.29952e-11
-6.52451e-10
-1.05612e-09
2.43019e-10
1.7141e-10
-3.7676e-13
1.16914e-10
-9.46048e-13
-4.21304e-13
4.39329e-10
4.08409e-10
3.67412e-10
3.82429e-10
3.46505e-10
3.44838e-10
-4.31077e-11
-8.15806e-10
-3.94149e-08
-1.04496e-09
-4.8985e-08
-6.13439e-09
5.7751e-12
4.50218e-12
3.73861e-12
6.67391e-12
2.14721e-12
3.87973e-12
9.3771e-11
1.23569e-10
1.79126e-10
7.87211e-11
3.61071e-10
3.05536e-10
0.00549191
0.0066317
0.0104144
0.0098874
0.0191235
0.0073268
9.26688e-15
7.27764e-15
6.00749e-15
1.13482e-14
1.49474e-14
2.72593e-15
3.37988e-10
2.64445e-10
2.47554e-10
8.76519e-10
1.38518e-09
3.51332e-10
)
;

boundaryField
{
    seabed_topleft_surface
    {
        type            zeroGradient;
    }
    seabed_topright_surface
    {
        type            zeroGradient;
    }
    breakwater_top_surface
    {
        type            zeroGradient;
    }
    breakwater_left_surface
    {
        type            zeroGradient;
    }
    breakwater_right_surface
    {
        type            zeroGradient;
    }
    water_front_surface
    {
        type            zeroGradient;
    }
    water_back_surface
    {
        type            zeroGradient;
    }
    water_left_surface
    {
        type            zeroGradient;
    }
    water_right_surface
    {
        type            zeroGradient;
    }
    water_top_surface
    {
        type            inletOutlet;
        inletValue      uniform 0;
        value           nonuniform List<scalar> 
180
(
2.51944e-05
2.4057e-05
2.44796e-05
2.46387e-05
2.43202e-05
2.47567e-05
1.11973e-06
9.09294e-07
9.80894e-07
1.01589e-06
9.62757e-07
1.03618e-06
0
0
0
0
0
0
0
0
0
0
0
0
0
4.37279e-10
3.5491e-10
3.0042e-10
0
3.49562e-10
2.50853e-07
8.64582e-07
4.51181e-07
4.27455e-07
4.78902e-07
3.54335e-07
0.000266343
0.000304786
0.000288322
0.000282492
0.000280229
0.000287411
0.000542794
0.000579279
0.000571933
0.00055463
0.000539976
0.000576011
0
0
0
0
0
0
0
0
0
0
0
0
0
0
0
0
0
0
0
0
0
0
0
0
0
0
0
0
0
0
0
0
0
0
0
0
0
0
0
0
0
0
0
0
0
0
0
0
0
0
0
0
0
0
0
0
0
0
0
0
0.00699317
0.0114085
0.00992466
0.000814907
4.16416e-05
0.0148271
7.59487e-06
8.06879e-06
6.63301e-07
4.90348e-07
4.05372e-05
1.72209e-05
0
0
0
0
0
0
0
0
0
0
0
0
0
0
0
0
0
0
0
0
0
0
0
0
0
0
0
0
0
0
0
0
0
0
0
0
0
0
0
0
0
0
0
0
0
0
0
0
0
0
0
0
0
0
0
0
0
0
0
0
)
;
    }
}


// ************************************************************************* //
