/*--------------------------------*- C++ -*----------------------------------*\
| =========                 |                                                 |
| \\      /  F ield         | OpenFOAM: The Open Source CFD Toolbox           |
|  \\    /   O peration     | Version:  v1612+                                |
|   \\  /    A nd           | Web:      www.OpenFOAM.com                      |
|    \\/     M anipulation  |                                                 |
\*---------------------------------------------------------------------------*/
FoamFile
{
    version     2.0;
    format      ascii;
    class       volVectorField;
    location    "6.25";
    object      U;
}
// * * * * * * * * * * * * * * * * * * * * * * * * * * * * * * * * * * * * * //

dimensions      [0 1 -1 0 0 0 0];

internalField   nonuniform List<vector> 
1116
(
(-0.774479 -0.000220244 0.291719)
(-0.774788 -0.000109236 0.291646)
(-0.774645 0.000137734 0.291685)
(-0.774571 -3.91933e-05 0.291682)
(-0.77466 4.70337e-05 0.291645)
(-0.774553 0.000113654 0.291698)
(-1.67088 -0.000109413 0.375463)
(-1.67131 -3.16607e-05 0.375389)
(-1.67107 6.01122e-05 0.375424)
(-1.67099 -2.62212e-05 0.375444)
(-1.67112 2.31861e-05 0.375417)
(-1.67099 3.78061e-05 0.375455)
(-1.97731 -3.47785e-05 0.338632)
(-1.97764 9.20434e-06 0.338504)
(-1.97742 8.36987e-06 0.338567)
(-1.97738 -1.26611e-05 0.338602)
(-1.97748 8.00942e-06 0.338532)
(-1.97741 -1.98079e-06 0.338625)
(-2.24423 1.38746e-05 0.228603)
(-2.24456 3.60867e-05 0.228559)
(-2.24432 -1.42395e-05 0.228592)
(-2.24436 8.02668e-06 0.228643)
(-2.24443 -5.57778e-06 0.228578)
(-2.24432 -3.77275e-05 0.228618)
(-2.35513 1.94811e-05 0.102445)
(-2.35538 1.94046e-05 0.102493)
(-2.35518 4.29865e-05 0.102466)
(-2.35532 8.6681e-05 0.102575)
(-2.35534 -8.00186e-05 0.102542)
(-2.35515 -0.000134327 0.10244)
(-2.30855 -0.000142226 0.0186495)
(-2.30919 -0.000152151 0.0186322)
(-2.30888 0.000247868 0.0185808)
(-2.30888 0.000231703 0.0188919)
(-2.30886 -0.000191561 0.0189838)
(-2.3088 -0.000216902 0.0184286)
(-2.19099 -0.000143873 -0.0852514)
(-2.19278 -0.000302262 -0.0855018)
(-2.19209 0.000378919 -0.0854675)
(-2.19165 0.00029078 -0.0849516)
(-2.19167 -0.000297305 -0.0845379)
(-2.19193 -0.000111822 -0.0859247)
(-2.05685 0.000277451 -0.27454)
(-2.05931 -0.000226087 -0.274882)
(-2.0585 0.000244843 -0.274673)
(-2.05766 0.000184111 -0.274299)
(-2.05799 -0.000276303 -0.273405)
(-2.05815 0.000177254 -0.275736)
(-1.79884 0.00111456 -0.55832)
(-1.80096 0.000296146 -0.558696)
(-1.80092 -0.000244369 -0.55815)
(-1.79912 -0.000361027 -0.55849)
(-1.79976 0.000429926 -0.557008)
(-1.80034 0.000838823 -0.559928)
(-1.45598 0.00142906 -0.771228)
(-1.45041 0.000585488 -0.770246)
(-1.45153 -0.000507068 -0.769606)
(-1.45593 -0.00113572 -0.772038)
(-1.46136 0.00120873 -0.771721)
(-1.44564 0.00147515 -0.770353)
(-0.826689 0.000693217 -0.779839)
(-0.814249 0.0010445 -0.774726)
(-0.816624 -0.00109705 -0.775001)
(-0.825647 -0.00209997 -0.780186)
(-0.83531 0.0025986 -0.784448)
(-0.806251 0.0018791 -0.770105)
(-0.198882 -0.000448312 -0.185416)
(-0.191608 0.000582452 -0.181186)
(-0.192997 -0.000439996 -0.182002)
(-0.19813 -0.000750325 -0.184714)
(-0.205454 0.000677498 -0.188844)
(-0.190201 -0.000199693 -0.179225)
(-1.64233 -0.000127405 2.15926)
(-1.64297 -4.82295e-05 2.15829)
(-1.64262 5.97319e-05 2.15873)
(-1.64264 -3.55922e-05 2.15884)
(-1.64279 4.55172e-05 2.15853)
(-1.64248 6.82101e-05 2.15902)
(-2.4724 1.31396e-05 0.857997)
(-2.47276 8.00807e-06 0.857538)
(-2.47254 -2.70563e-05 0.85776)
(-2.4726 2.8698e-05 0.857817)
(-2.47267 1.19129e-05 0.857691)
(-2.47247 -2.58154e-05 0.857897)
(-2.4507 -9.63754e-05 0.268186)
(-2.45112 -7.86987e-05 0.268098)
(-2.45092 6.56875e-05 0.268145)
(-2.45094 1.8297e-05 0.26819)
(-2.45104 3.41504e-05 0.268179)
(-2.45078 7.03025e-05 0.26814)
(-1.87644 -0.000511563 0.103121)
(-1.87693 -0.000345122 0.103299)
(-1.87673 0.000343776 0.103228)
(-1.87674 1.86459e-05 0.103277)
(-1.8769 0.000129289 0.103386)
(-1.87649 0.00028122 0.103059)
(-1.08128 -0.000373566 -0.0849015)
(-1.08248 -0.000236884 -0.0846128)
(-1.08208 0.000199866 -0.0848004)
(-1.08183 -0.000164993 -0.0846058)
(-1.08222 0.000280991 -0.0844098)
(-1.08162 0.000518945 -0.0850578)
(-0.0577525 0.000591666 -0.244048)
(-0.0601868 0.000399961 -0.243903)
(-0.0594223 -0.000641534 -0.244167)
(-0.0587215 -0.000853597 -0.243618)
(-0.0594312 0.000692401 -0.243451)
(-0.0585427 0.00119704 -0.2444)
(1.00571 0.000941264 -0.307644)
(1.00467 0.000484368 -0.307759)
(1.00477 -0.000890689 -0.307968)
(1.00501 -0.000905576 -0.307206)
(1.00317 0.000611081 -0.307081)
(1.00666 0.00129213 -0.308105)
(1.68809 0.00145326 -0.250945)
(1.68935 0.000518097 -0.250653)
(1.68813 -0.00140411 -0.251029)
(1.68878 -0.00212583 -0.250431)
(1.68785 0.00166106 -0.251188)
(1.68956 0.00353748 -0.250409)
(1.88936 -0.00024555 -0.197913)
(1.90192 0.000382066 -0.197874)
(1.90102 -0.000498459 -0.197861)
(1.8888 -0.00170195 -0.197573)
(1.87837 0.00240719 -0.197949)
(1.9076 0.00399872 -0.197598)
(0.608703 -0.0134649 -0.170266)
(0.610761 -0.0056984 -0.179344)
(0.615678 0.00886322 -0.176908)
(0.603673 0.0187272 -0.171029)
(0.60945 -0.0182561 -0.162494)
(0.617244 -0.0331917 -0.185648)
(0.783625 -0.0138814 -0.561123)
(0.695101 -0.00368506 -0.554753)
(0.711632 0.00693356 -0.555071)
(0.778729 0.0190758 -0.561225)
(0.851484 -0.0090152 -0.565338)
(0.626822 -0.0244254 -0.549159)
(-0.97838 0.00671286 -0.607325)
(-1.04216 0.00312463 -0.593166)
(-1.03158 -0.00643476 -0.594967)
(-0.984568 -0.013176 -0.606166)
(-0.942048 0.00735244 -0.618359)
(-1.05022 0.0227544 -0.585073)
(-2.09885 0.000424342 3.26785)
(-2.09994 0.000274533 3.26784)
(-2.09938 -0.00019627 3.26788)
(-2.09942 3.99282e-05 3.2679)
(-2.09966 -5.87898e-05 3.26778)
(-2.09915 -0.000136938 3.26791)
(-1.10632 -0.000198166 1.01671)
(-1.10641 -0.000137467 1.01631)
(-1.10636 0.000105678 1.01649)
(-1.10646 -6.82026e-05 1.01649)
(-1.10649 0.000114193 1.0165)
(-1.10624 0.000222159 1.01659)
(1.63126 -0.00100006 0.145232)
(1.63246 -0.000583129 0.145381)
(1.63228 0.000838069 0.145335)
(1.63137 6.47759e-05 0.145227)
(1.63115 -4.39575e-05 0.145248)
(1.63212 0.000266486 0.145385)
(5.31466 -0.0164674 -1.26274)
(5.28828 -0.00877429 -1.2707)
(5.29705 0.0113224 -1.2679)
(5.30992 0.00650276 -1.2648)
(5.30864 -0.00275562 -1.26674)
(5.29853 -0.00517897 -1.26569)
(9.51826 -0.00386523 -2.45817)
(9.43044 0.0023348 -2.4625)
(9.45797 -0.00127128 -2.46074)
(9.49963 -0.00305101 -2.46028)
(9.49968 0.00356091 -2.4622)
(9.46004 0.00310933 -2.45783)
(12.6133 0.035038 -2.44431)
(12.6119 0.0244002 -2.43048)
(12.6037 -0.0286157 -2.43392)
(12.6224 -0.0202372 -2.4429)
(12.6138 0.0123341 -2.44634)
(12.6095 0.0206188 -2.43254)
(13.7528 0.0403103 -0.989176)
(13.7997 0.0219203 -0.984467)
(13.7682 -0.0265135 -0.983346)
(13.7843 -0.0132264 -0.990032)
(13.772 0.00791273 -0.99113)
(13.7819 0.0188936 -0.983934)
(8.70896 0.0340906 0.260739)
(8.88446 0.0188654 0.254818)
(8.80342 -0.0339376 0.255427)
(8.78457 -0.053247 0.259398)
(8.72159 0.0487162 0.26622)
(8.84925 0.086321 0.250837)
(-2.41868 -0.0219617 1.73824)
(-2.13002 -0.000605276 1.746)
(-2.14997 -0.00380849 1.74941)
(-2.42171 -0.033329 1.73604)
(-2.69828 0.0294891 1.70031)
(-1.94332 0.0697354 1.77921)
(-2.53146 -0.0919912 0.621763)
(-2.53071 -0.0328513 0.617452)
(-2.52451 0.0501695 0.614831)
(-2.53289 0.114232 0.627568)
(-2.62839 -0.10068 0.63012)
(-2.46603 -0.171762 0.607859)
(0.47902 -0.021425 0.489276)
(0.0715889 0.00103519 0.477489)
(0.159871 0.00875989 0.490335)
(0.42196 0.0399198 0.472289)
(0.715923 -0.0155844 0.481115)
(-0.158758 -0.028584 0.463657)
(-0.859665 0.0602293 0.282709)
(-1.04769 0.0272029 0.18999)
(-1.01469 -0.039586 0.213626)
(-0.890825 -0.0681196 0.268165)
(-0.752381 0.0543331 0.342095)
(-1.03436 0.12167 0.172308)
(-3.29624 -0.000323502 5.03574)
(-3.29663 -0.000197655 5.03888)
(-3.2964 7.54615e-05 5.03773)
(-3.29645 -4.86337e-05 5.03731)
(-3.29655 0.000115358 5.03798)
(-3.29643 0.000126874 5.03678)
(0.819837 -0.00453888 -2.36786)
(0.821058 -0.00183619 -2.37372)
(0.821337 0.0029725 -2.37184)
(0.819981 -0.00138125 -2.37068)
(0.81997 0.00218722 -2.37202)
(0.821812 0.00285826 -2.36947)
(-6.91471 -0.0224809 -5.97602)
(-6.91929 -0.0112749 -5.96742)
(-6.91636 0.0168994 -5.96981)
(-6.91561 0.00986176 -5.97512)
(-6.92005 -0.0046055 -5.97782)
(-6.90977 -0.00932097 -5.9686)
(-1.47006 -0.0437821 -5.03757)
(-1.62902 -0.0207424 -5.08463)
(-1.57653 0.0278408 -5.06779)
(-1.50108 0.0201089 -5.04969)
(-1.49899 -0.0115688 -5.06264)
(-1.5723 -0.0237088 -5.05245)
(-3.58801 -0.00210519 -6.93945)
(-3.92981 0.00940108 -6.91068)
(-3.81685 -0.0127535 -6.91919)
(-3.66819 -0.00591929 -6.93722)
(-3.63519 0.00332889 -6.95437)
(-3.83188 -0.000280439 -6.90345)
(-4.10371 0.0930335 -4.37924)
(-4.33666 0.0598699 -4.16883)
(-4.24421 -0.0685497 -4.24041)
(-4.18898 -0.0424618 -4.32637)
(-4.16097 0.0260964 -4.35659)
(-4.26052 0.0499355 -4.23417)
(-2.45201 0.0603712 4.9931)
(-2.25229 0.0380697 5.07075)
(-2.30887 -0.0389229 5.03249)
(-2.39712 -0.0344422 5.02999)
(-2.44486 0.0333105 5.02511)
(-2.28026 0.05964 5.03034)
(-3.52782 -0.00670394 9.15126)
(-3.42982 -0.00278759 9.17585)
(-3.42051 0.000750758 9.19167)
(-3.53506 -0.0163258 9.1409)
(-3.62891 0.0244543 9.06634)
(-3.31663 0.043911 9.26895)
(-8.26448 -0.00861195 3.37763)
(-8.2716 -0.00698804 3.40947)
(-8.24838 0.00596683 3.42766)
(-8.29437 0.00781014 3.36121)
(-8.33328 -0.00769217 3.2402)
(-8.19936 -0.0067947 3.54994)
(-6.49493 0.00432414 -1.19605)
(-6.52028 -0.000476113 -1.20656)
(-6.50306 -0.00165146 -1.19138)
(-6.5154 -0.00753542 -1.21129)
(-6.52107 0.00526526 -1.25407)
(-6.48847 0.0161725 -1.1444)
(-4.25681 0.016494 -3.24177)
(-4.27473 0.00515415 -3.2963)
(-4.25868 -0.00750091 -3.27131)
(-4.27936 -0.0136179 -3.26887)
(-4.28154 0.00965528 -3.23703)
(-4.24921 0.0229689 -3.29395)
(-2.07653 0.016034 -1.88952)
(-2.11558 0.00678038 -1.92966)
(-2.10243 -0.00913356 -1.91731)
(-2.08959 -0.0130533 -1.90083)
(-2.07232 0.00931783 -1.87299)
(-2.12719 0.0204955 -1.94066)
(0.574936 -0.461705 0.53822)
(1.293 -0.139708 0.301592)
(0.664233 -0.46769 0.524884)
(1.78044 -0.825663 0.183809)
(3.22321 0.22828 -0.224419)
(0.373847 1.23736 0.77848)
(2.77273 -0.455035 -0.663428)
(4.75287 0.0353793 -1.45714)
(2.78216 -0.202331 -0.86229)
(4.64935 -0.517392 -1.22358)
(6.23904 -0.100791 -1.63868)
(1.62194 0.336262 -0.148908)
(5.42432 -0.385378 -1.25083)
(8.11552 0.121007 -2.70305)
(5.38069 -0.246203 -1.21338)
(7.20198 -0.227466 -2.20359)
(8.1701 -0.158104 -2.24334)
(4.55946 -0.108911 -1.35338)
(7.50393 0.029475 -2.20113)
(9.02199 0.108717 -3.19373)
(8.28531 0.00252551 -3.04901)
(8.12822 0.398689 -2.69148)
(8.41725 -0.0684011 -2.10643)
(6.63598 -0.231478 -2.29597)
(7.72524 0.106857 -2.54624)
(8.57122 0.155841 -3.25452)
(8.30956 -0.105935 -3.67456)
(8.01961 0.298219 -2.84951)
(8.12419 -0.0263209 -1.83315)
(7.31901 -0.153071 -2.77361)
(7.45235 0.0669558 -2.34367)
(8.13222 0.256766 -3.19441)
(7.76617 -0.212797 -3.71051)
(7.61379 0.113955 -2.68654)
(7.68417 -0.043856 -1.48311)
(7.45164 -0.063738 -2.85379)
(7.33243 -0.145182 -2.07625)
(8.03828 0.332102 -3.18964)
(7.77851 -0.189558 -3.73981)
(7.51155 0.00980778 -2.57518)
(7.19689 -0.0414835 -1.13206)
(7.35971 0.0116712 -2.76445)
(6.94043 -0.314773 -1.79515)
(7.66007 0.314563 -3.16147)
(7.6403 -0.132231 -3.78525)
(7.21509 0.18446 -2.55552)
(6.61088 0.11582 -0.859128)
(6.9561 0.0544507 -2.59831)
(5.95811 -0.276627 -1.70057)
(6.64068 0.480954 -3.03097)
(6.85974 -0.0510653 -3.71788)
(6.33444 0.299464 -2.56738)
(5.57402 0.0967509 -0.644735)
(6.0984 -0.0458523 -2.41589)
(4.12096 -0.278897 -1.89135)
(4.78105 0.362125 -2.90298)
(5.38979 0.0212634 -3.68033)
(4.70724 0.620607 -2.62547)
(3.69451 -0.00637137 -0.560668)
(4.34959 -0.312671 -2.21087)
(1.6994 -0.220456 -1.5014)
(2.2765 -0.12633 -2.20964)
(3.22397 -0.0560648 -3.74837)
(2.36032 0.997393 -2.30296)
(1.11881 0.29495 -0.345888)
(1.82588 -0.446617 -1.50301)
(-1.92104 -0.14852 0.939196)
(-2.07826 -0.428345 0.665577)
(-0.747364 0.0576065 -0.749898)
(-1.68245 0.687901 0.550696)
(-1.88151 0.266787 0.523602)
(-2.41945 -0.122889 2.02288)
(1.99861 -0.2514 3.4036)
(2.78146 0.0289949 3.86205)
(1.92784 -0.43271 3.9755)
(3.16765 -0.62408 3.48374)
(5.06933 0.0292791 3.38001)
(0.779857 1.24815 3.82329)
(3.96695 -0.367647 5.13102)
(5.55283 -0.0508974 5.27443)
(4.21582 -0.455579 5.38312)
(5.59892 -0.413713 4.56955)
(7.38785 -0.60369 3.66604)
(2.92592 0.0388301 4.16073)
(7.18809 0.0292174 5.65726)
(8.27507 -0.0630419 4.83415)
(7.52748 -0.575643 7.56809)
(8.28987 -0.192684 3.91528)
(9.00246 -0.872333 3.29427)
(6.34275 -0.413423 4.27021)
(6.19205 0.0678773 2.70921)
(4.77501 -0.0770818 2.85319)
(7.02041 -0.513847 3.11973)
(5.41645 -0.552646 2.85656)
(6.51521 -0.697435 2.51188)
(5.96163 -0.187738 3.09698)
(-1.04278 -0.223685 1.13514)
(-0.990971 -0.411014 1.93683)
(-0.341448 -1.01515 1.65735)
(-0.295792 -0.880231 1.44488)
(2.58886 0.110993 1.43754)
(2.41789 0.410363 2.40374)
(-2.15076 -0.605451 0.554931)
(-2.22113 0.370541 3.07784)
(-0.200757 -0.866833 2.38854)
(1.827 -0.130895 1.29037)
(1.85411 0.190078 0.460742)
(-1.67853 0.699608 2.44219)
(-1.69888 0.20452 0.85703)
(-0.718621 0.541307 2.80149)
(-1.71225 0.069989 3.7238)
(0.757421 -0.449055 1.72809)
(1.6449 -0.46402 -0.190193)
(2.27589 0.556876 1.92599)
(4.18542 0.119534 0.666544)
(3.78126 0.226889 1.35434)
(3.56819 -1.08086 2.79287)
(3.69387 -1.23217 0.922005)
(4.77734 -0.365479 -0.666645)
(5.96028 1.22937 1.96684)
(5.53572 -0.0779219 -1.40339)
(5.60117 0.253225 -0.328085)
(6.46059 -1.09946 2.51387)
(6.12618 -1.30842 -0.331286)
(6.89738 -0.273282 -1.65482)
(6.78054 0.987311 0.597701)
(5.56208 -0.0345609 -3.88406)
(5.9016 0.538036 -3.87064)
(6.02542 -0.762532 -1.2605)
(6.03664 -1.09709 -3.01904)
(6.10977 -0.50218 -2.86045)
(5.43647 0.53873 -4.46394)
(3.93955 -0.051857 -3.47825)
(4.45935 0.553846 -4.12774)
(4.38694 -0.130518 -5.57499)
(3.80619 -0.112312 -3.56496)
(3.75462 -0.695255 -2.607)
(3.83281 -0.177675 -4.98873)
(0.46623 0.0787738 0.193582)
(1.21032 0.533625 -0.780786)
(2.28575 0.184091 -3.19205)
(1.34605 0.896403 -1.22587)
(-1.59592 -0.371894 1.50476)
(1.14704 -0.630197 -1.32392)
(2.65486 -0.145165 5.92802)
(3.23502 0.0414735 7.18558)
(2.12428 -0.133695 7.14026)
(3.74537 -0.0168978 6.15009)
(5.77895 -0.010217 6.68382)
(0.98614 0.950239 6.40109)
(1.57365 -0.116705 8.4241)
(1.65922 -0.0160933 8.93984)
(2.00059 -0.188877 8.60459)
(1.51307 0.531831 8.15754)
(2.18496 -0.254765 6.28247)
(0.756621 0.143272 6.16817)
(2.03175 0.0170319 3.25626)
(1.3359 -0.0318888 0.481289)
(2.44483 0.00671384 3.95908)
(1.71248 0.622783 -0.653957)
(2.01915 0.334473 -3.34769)
(4.48355 -0.250153 2.51445)
(-1.00634 -0.0420223 -7.13068)
(-1.00921 0.0333837 -7.28386)
(-0.803098 0.0152285 -6.85524)
(-0.739284 -0.0104273 -6.85904)
(-0.800863 0.369467 -6.11112)
(-0.522011 0.255311 -6.1382)
(1.93084 -0.0834386 -6.15822)
(2.06673 -0.025314 -5.97654)
(1.59521 0.085916 -6.33166)
(1.88428 -0.023065 -5.79821)
(1.60292 -0.108847 -5.79986)
(1.68764 -0.083842 -6.01111)
(0.841269 -0.360503 -1.98729)
(0.296686 -0.119859 -1.03746)
(0.833117 -0.0464259 -2.5873)
(0.634579 -0.29217 -2.65085)
(0.484232 -0.655615 -2.90997)
(0.164493 -0.417244 -0.950904)
(-0.658906 -0.0830238 2.18156)
(-0.519761 0.189907 3.54919)
(-1.82744 0.159776 3.11526)
(-0.020132 0.937431 -0.313827)
(0.320125 -0.514699 -0.687191)
(1.42176 -0.135131 3.82117)
(1.3501 -0.205135 3.29512)
(1.38554 -0.38799 4.07632)
(1.27815 -0.444358 4.99044)
(-1.02157 1.18606 1.59045)
(-1.97742 -0.333341 -0.823363)
(3.22585 0.619545 2.89893)
(-1.6545 -0.321359 0.127848)
(0.858775 -0.706137 3.26771)
(2.91634 -0.77726 3.20059)
(-0.657476 0.13662 -0.231354)
(-1.12512 0.257511 -3.64716)
(0.679108 0.523229 -1.34838)
(2.00461 0.0228224 -4.14575)
(2.64825 0.0517609 -3.32922)
(3.01304 -0.618466 -1.59449)
(2.57217 -0.981293 -5.24415)
(2.81753 -0.06073 -6.91194)
(2.11173 0.616564 -4.35583)
(2.93033 0.161487 -5.50997)
(2.89461 0.361203 -5.96961)
(1.94598 -0.336992 -6.11828)
(2.1755 -0.872782 -5.87906)
(3.8909 -0.0823738 -5.74545)
(2.87613 0.759645 -6.70188)
(2.73567 0.0595513 -3.55204)
(3.08835 0.208485 -4.16645)
(3.39495 -0.144387 -4.98247)
(2.36996 -0.678604 -3.11835)
(-0.893259 -0.359957 3.37823)
(2.63145 0.62621 -4.09778)
(2.33481 -0.306929 7.49098)
(2.61113 -0.0153916 8.36893)
(1.40685 -0.050725 8.02933)
(3.69566 0.257844 7.77488)
(5.82932 0.0415793 8.65878)
(1.12792 0.6972 7.54882)
(-1.22714 -0.329868 8.58039)
(0.169711 -0.192464 8.32539)
(0.658637 0.39472 8.0077)
(-1.25486 1.5231 8.07929)
(-2.22987 1.10839 7.3244)
(-1.40717 0.596295 7.70103)
(1.76643 0.420638 0.288575)
(2.70894 0.4853 -0.944834)
(2.2409 0.208805 -0.53157)
(2.90681 0.677305 -0.959449)
(3.37863 -0.266207 -0.60767)
(1.61778 -0.404664 1.27499)
(-1.10737 0.0805501 -1.23032)
(-1.08585 -0.0169855 -0.994683)
(-0.982552 -0.181058 -1.00617)
(-0.629687 -0.0907498 -1.51239)
(-0.668436 -0.146393 -1.68134)
(-0.52293 -0.117065 -0.994157)
(2.50213 -0.0216057 -0.656303)
(2.56053 0.0668992 -0.677651)
(2.46423 0.113564 -0.658845)
(2.46306 -0.0200792 -0.552023)
(2.39492 0.0404083 -0.699651)
(2.34803 0.0232477 -0.565127)
(1.91822 -0.0895062 -0.220248)
(1.91412 0.166357 0.3147)
(1.85285 0.212782 -0.027843)
(1.68789 0.114582 -0.213744)
(1.67095 -0.14333 -0.159543)
(1.73173 -0.276509 0.482725)
(1.07028 -0.182361 1.11612)
(0.867588 0.157705 2.36175)
(0.793392 0.57693 1.89251)
(1.10499 0.793842 0.417692)
(1.11427 -0.529902 0.323992)
(0.846522 -0.61627 2.28783)
(-0.750095 -0.0991716 1.81953)
(-0.439183 0.0127622 2.80805)
(-0.568984 0.358504 3.67243)
(-1.11253 1.28163 0.758073)
(-1.00415 0.103577 -0.286749)
(-0.0399503 -0.272415 2.06314)
(-2.52318 -0.189081 -0.0738146)
(-2.38001 -0.0555995 0.743656)
(-1.83858 0.457844 1.27313)
(-1.92709 1.24224 0.0495474)
(-1.71289 0.909193 -0.231733)
(-1.71527 0.240823 0.0972485)
(-0.975589 0.042271 -1.35943)
(-0.723928 -0.000129059 -1.62039)
(-0.0573772 -0.146891 -1.32386)
(-0.561906 -0.226407 -1.82644)
(-0.0557789 -0.266513 -2.80049)
(-1.89711 -0.0430749 -0.747872)
(-2.19008 0.199718 -3.88277)
(-3.42007 0.24131 -3.59273)
(-5.2514 0.0404542 -2.11868)
(0.134972 -0.274373 -5.54858)
(3.7395 0.0181983 -5.59133)
(0.764723 0.494091 -4.67851)
(3.9549 -0.0439675 -4.28174)
(4.01405 -0.259654 -4.18605)
(4.168 0.084652 -3.70792)
(3.59414 -0.488741 -4.13581)
(2.55803 -0.0435814 -2.75925)
(3.44407 0.686975 -3.99046)
(-4.1717 0.000567569 5.8489)
(-4.17187 0.000460567 5.84785)
(-4.17156 -0.000472314 5.84762)
(-4.17183 -5.28657e-05 5.84848)
(-4.1717 -2.07121e-05 5.84811)
(-4.1719 -0.000281558 5.84827)
(-4.31898 -0.000377074 4.53838)
(-4.31705 -0.000143329 4.53318)
(-4.31737 2.21774e-05 4.53508)
(-4.31808 -0.000192918 4.53558)
(-4.31757 -0.000118449 4.53441)
(-4.31844 -2.21229e-05 4.53647)
(-3.25575 0.00119784 5.78231)
(-3.2571 0.000795641 5.7998)
(-3.25623 -0.000586721 5.79317)
(-3.25634 0.000199637 5.7898)
(-3.257 -0.000468008 5.79411)
(-3.25624 -0.00068715 5.78737)
(3.93205 -0.00411047 7.16218)
(3.93306 -0.00248762 7.15659)
(3.93262 0.00193413 7.15832)
(3.93256 -0.000672194 7.15939)
(3.93259 0.00121001 7.15802)
(3.93279 0.00211595 7.16023)
(3.17935 -0.00567274 4.05818)
(3.15892 -0.00356931 3.99583)
(3.16597 0.00154976 4.01826)
(3.17007 -0.00180526 4.02912)
(3.16481 0.000556716 4.01272)
(3.17188 0.00189151 4.03441)
(1.23872 0.00108415 1.10729)
(1.23981 0.00160472 1.05835)
(1.23844 -0.00215601 1.07976)
(1.24052 -0.00231781 1.0817)
(1.24137 -0.000562506 1.06434)
(1.2394 -0.000788257 1.08724)
(-6.16166 -0.0140176 -2.863)
(-6.14509 -0.00661501 -2.87036)
(-6.14968 0.00924171 -2.86645)
(-6.15336 0.00660014 -2.86626)
(-6.15028 -0.00365358 -2.87117)
(-6.15073 -0.0088904 -2.86318)
(-0.320724 -0.000695849 -2.68513)
(-0.329833 0.000474536 -2.69723)
(-0.326167 -0.000379891 -2.69227)
(-0.323166 0.000355434 -2.69125)
(-0.319598 -0.000236136 -2.69519)
(-0.325283 -0.00209473 -2.69001)
(0.0466706 -0.000723813 -1.12982)
(0.0427174 -0.000238215 -1.13616)
(0.0442617 4.45551e-05 -1.13344)
(0.0446611 -0.000204345 -1.13337)
(0.0454209 3.98223e-05 -1.13667)
(0.0442045 -0.000190441 -1.13191)
(-1.19331 -0.0433625 -3.66793)
(-1.30225 -0.0204637 -3.67177)
(-1.26078 0.0262576 -3.67086)
(-1.21949 0.0189034 -3.67048)
(-1.20504 -0.0118763 -3.68494)
(-1.26813 -0.0259262 -3.65554)
(-0.354852 -0.0264284 -3.6401)
(-0.379096 -0.0133539 -3.62718)
(-0.364653 0.0171254 -3.63452)
(-0.366485 0.010219 -3.63611)
(-0.359974 -0.00628629 -3.64557)
(-0.368007 -0.0133113 -3.62711)
(-0.117533 -0.00515344 -2.21171)
(-0.127488 -0.00267627 -2.19728)
(-0.12288 0.00293103 -2.20469)
(-0.121761 0.0020496 -2.20615)
(-0.120606 -0.000885586 -2.2106)
(-0.122944 -0.00251587 -2.2024)
(-3.33878 -0.0368845 -3.9461)
(-3.72776 -0.0102937 -3.8542)
(-3.58192 0.0123436 -3.89281)
(-3.44557 0.0067915 -3.91656)
(-3.39333 -0.00150897 -3.93612)
(-3.60711 -0.0111937 -3.87863)
(-2.5601 -0.0779059 -2.17793)
(-2.83299 -0.0375499 -2.07891)
(-2.71689 0.0421131 -2.12409)
(-2.64491 0.0206828 -2.14317)
(-2.62526 -0.0103225 -2.16272)
(-2.72435 -0.024212 -2.11005)
(-1.03281 -0.0350355 0.0315814)
(-1.0813 -0.0189589 0.117422)
(-1.06054 0.0200253 0.0767224)
(-1.05688 0.00855015 0.0648771)
(-1.04802 -0.00484814 0.0499941)
(-1.06201 -0.0104223 0.083409)
(-6.36348 0.0544471 -2.01997)
(-6.81042 0.0405508 -1.66555)
(-6.62028 -0.0401182 -1.81264)
(-6.53214 -0.0260277 -1.89083)
(-6.48506 0.0241852 -1.91931)
(-6.62984 0.0389268 -1.81419)
(-5.96118 -0.0131288 0.368152)
(-6.61715 0.00129132 0.741005)
(-6.34787 -0.00576268 0.586007)
(-6.2002 -0.00993269 0.51648)
(-6.16375 0.0154032 0.520564)
(-6.34352 0.0226083 0.560935)
(-1.88271 -0.0690131 3.54948)
(-2.22738 -0.0336161 3.83914)
(-2.08371 0.0287877 3.71496)
(-2.00401 0.00408355 3.66522)
(-1.99298 0.000434294 3.65876)
(-2.08211 -0.00270549 3.70819)
(-8.40541 0.0492685 6.19523)
(-8.44599 0.0341952 6.44332)
(-8.3824 -0.0275472 6.34695)
(-8.46459 -0.0172925 6.2851)
(-8.51071 0.0203803 6.25126)
(-8.32505 0.0307722 6.36079)
(-9.05406 0.0666254 6.80914)
(-9.31093 0.0387583 6.94737)
(-9.17001 -0.0364475 6.89487)
(-9.20801 -0.00812066 6.88635)
(-9.25488 0.0077013 6.92289)
(-9.11195 0.0139595 6.85323)
(-4.56218 0.0574441 7.73058)
(-5.08159 0.0321833 8.02319)
(-4.86328 -0.0416521 7.90173)
(-4.79499 -0.023027 7.87312)
(-4.8183 0.0134594 7.91954)
(-4.82672 0.034711 7.85943)
(-8.78694 -0.0274728 10.4531)
(-8.82333 -0.01665 10.5216)
(-8.77312 0.0164805 10.5489)
(-8.83232 0.0239286 10.4328)
(-8.92534 -0.022644 10.3359)
(-8.64813 -0.0369489 10.6508)
(-8.64839 0.00117506 8.69015)
(-8.65377 -0.00634809 8.54674)
(-8.62729 0.00513627 8.63789)
(-8.68748 0.0380095 8.61555)
(-8.78181 -0.0415229 8.61221)
(-8.53366 -0.0630054 8.66757)
(-5.13341 0.0942176 6.93819)
(-5.24835 0.0447352 6.88409)
(-5.18558 -0.0494908 6.90804)
(-5.22676 -0.00919804 6.91709)
(-5.27988 -0.00666299 6.92994)
(-5.14437 0.0142193 6.91009)
(-9.51041 -0.0207351 4.50124)
(-9.56336 -0.0188545 4.52118)
(-9.54322 0.0130313 4.55447)
(-9.53446 0.03019 4.46996)
(-9.58734 -0.0379396 4.36082)
(-9.47485 -0.0568062 4.66704)
(-5.85898 -0.0320986 1.35481)
(-5.78049 -0.0373084 1.14061)
(-5.81424 0.0111992 1.25226)
(-5.83545 0.034351 1.25197)
(-5.87367 -0.0429409 1.18037)
(-5.78386 -0.0566876 1.33808)
(-2.01514 0.0367202 -1.81708)
(-1.92946 0.00381283 -2.13412)
(-1.9451 -0.00815218 -2.04607)
(-2.00797 0.0183516 -1.97069)
(-2.04092 -0.0283025 -1.99397)
(-1.93481 -0.0120563 -2.00623)
(-5.82232 -0.0102673 -3.47259)
(-5.75445 -0.0121498 -3.45792)
(-5.78556 0.00749981 -3.45515)
(-5.78665 0.0118743 -3.47794)
(-5.80345 -0.017559 -3.55355)
(-5.7768 -0.0190817 -3.38694)
(-2.64706 -0.0245628 -4.78638)
(-2.56735 -0.0233948 -4.87349)
(-2.57789 0.0193209 -4.8603)
(-2.62047 0.0298902 -4.8033)
(-2.6311 -0.0302449 -4.86382)
(-2.56596 -0.0407256 -4.79874)
(-0.663598 -0.00275177 -6.17262)
(-0.638239 -0.00424437 -6.28089)
(-0.639904 0.00612313 -6.26687)
(-0.664147 0.0135945 -6.18881)
(-0.665842 -0.0121048 -6.2149)
(-0.638241 -0.0175062 -6.24201)
(-5.366 0.00134452 -4.19445)
(-5.38068 0.000404216 -4.12103)
(-5.37661 -0.00122923 -4.13424)
(-5.36621 -0.00543937 -4.19027)
(-5.36733 0.00623966 -4.22802)
(-5.37815 0.0129021 -4.10337)
(-2.10665 -0.0168438 -4.51559)
(-2.11253 -0.010528 -4.49264)
(-2.11216 0.010939 -4.49415)
(-2.10289 0.0134994 -4.51554)
(-2.09984 -0.0119879 -4.54011)
(-2.11307 -0.0211499 -4.46835)
(-0.369695 -0.0042684 -5.45666)
(-0.367737 -0.00370118 -5.44943)
(-0.369275 0.00324944 -5.45108)
(-0.369375 0.00515207 -5.45422)
(-0.371972 -0.00583157 -5.468)
(-0.368355 -0.00836534 -5.43777)
(-4.30102 0.00719433 -2.54482)
(-4.31295 0.0032996 -2.51641)
(-4.30506 -0.00542246 -2.52357)
(-4.31059 -0.00784796 -2.54273)
(-4.31036 0.00762549 -2.55985)
(-4.30742 0.0144197 -2.5085)
(-1.70503 -0.00534458 -5.78967)
(-1.70011 -0.00244839 -5.77738)
(-1.70257 0.00349639 -5.7856)
(-1.70011 0.00465734 -5.7869)
(-1.70122 -0.00468235 -5.80257)
(-1.70229 -0.00870209 -5.76501)
(-0.224349 -0.000987779 -3.60951)
(-0.220064 -0.000317793 -3.61143)
(-0.221004 0.000607363 -3.61051)
(-0.223561 0.00104081 -3.60968)
(-0.225826 -0.00221034 -3.61347)
(-0.219555 -0.00336577 -3.6069)
(2.10058 -0.00664243 0.42781)
(2.10433 -0.0183607 0.430859)
(2.10012 -0.0357458 0.423865)
(2.01503 -0.0339685 0.540758)
(1.92013 -0.00259485 0.510995)
(2.05853 0.0122845 0.522369)
(0.204447 -0.0115055 -5.38872)
(0.237413 -0.0275289 -5.38111)
(0.28661 -0.0590755 -5.35759)
(0.397325 -0.0758332 -5.2599)
(0.534826 -0.0161378 -4.83387)
(0.413022 0.0164045 -5.16498)
(0.61551 -0.0034746 -1.40577)
(0.632138 -0.0180798 -1.39347)
(0.651568 -0.0518632 -1.40519)
(0.672072 -0.078147 -1.51701)
(0.724566 -0.0266902 -1.57398)
(0.66039 0.0160987 -1.50446)
(0.588428 -0.00132736 -0.196695)
(0.587124 -0.000612413 -0.201244)
(0.576591 0.00483453 -0.199646)
(0.56497 0.00740082 -0.199428)
(0.549418 -0.000868423 -0.165754)
(0.565953 -0.00517887 -0.194293)
(-0.292606 0.0154263 -1.97539)
(-0.304278 0.036875 -1.99591)
(-0.302681 0.0571173 -1.99612)
(-0.345196 0.0516776 -1.83504)
(-0.360088 0.0240903 -1.73861)
(-0.330945 0.0113481 -1.92539)
(0.829096 -0.00215747 -2.01515)
(0.825841 -0.0082449 -2.02214)
(0.817518 -0.027469 -2.02756)
(0.796012 -0.033768 -2.04702)
(0.769743 -0.00775191 -2.05857)
(0.776194 0.00442075 -2.05279)
(0.223648 -0.00136079 0.205879)
(0.221728 -0.00257516 0.205154)
(0.221788 0.00430076 0.204415)
(0.223656 0.00502452 0.206126)
(0.224416 -0.00208293 0.20509)
(0.222291 -0.00123149 0.199255)
(-0.317997 0.000874905 -1.09205)
(-0.310711 0.00291755 -1.10616)
(-0.293709 -0.000767542 -1.10357)
(-0.27906 -0.00358549 -1.06055)
(-0.265449 0.0074148 -1.04882)
(-0.257909 0.00921972 -1.07414)
(0.275779 -0.00196784 -1.86378)
(0.276046 -0.00858464 -1.86287)
(0.273515 -0.0178296 -1.86016)
(0.259593 -0.0202636 -1.84975)
(0.251339 -0.0085389 -1.8533)
(0.257956 0.000289271 -1.84123)
(-0.251043 -0.000513147 0.246518)
(-0.250562 -0.000323745 0.245986)
(-0.250776 -0.00186123 0.245527)
(-0.248035 -0.00226191 0.247664)
(-0.248041 0.00139208 0.250899)
(-0.247875 0.00189167 0.241974)
(-0.953029 0.00097355 -1.15182)
(-0.953996 0.00371972 -1.14737)
(-0.952624 0.0045763 -1.14522)
(-0.950998 0.00295067 -1.16371)
(-0.949854 0.00752722 -1.17204)
(-0.953624 0.00691925 -1.14059)
(-0.211006 -0.00156054 -2.13148)
(-0.212116 -0.00445703 -2.13308)
(-0.21579 -0.00618496 -2.13276)
(-0.222155 -0.00680228 -2.13211)
(-0.22635 -0.00497754 -2.13574)
(-0.226922 -0.00159492 -2.12486)
(-0.605977 -0.00153711 0.160528)
(-0.604984 -0.00166306 0.158932)
(-0.603633 -0.00117671 0.158758)
(-0.607918 -0.00109941 0.161378)
(-0.608647 0.0003142 0.16497)
(-0.60371 0.000608279 0.155906)
(-1.47024 0.00095133 -2.02386)
(-1.47201 0.00303375 -2.02848)
(-1.47124 0.00526952 -2.02705)
(-1.4677 0.00356985 -2.04305)
(-1.46581 0.00445902 -2.05073)
(-1.47303 0.00448802 -2.02424)
(-0.882662 -0.00024395 -2.56667)
(-0.884857 -0.00131901 -2.56725)
(-0.886473 -0.00174333 -2.56663)
(-0.886536 -0.00178472 -2.56814)
(-0.886755 -0.00290243 -2.57155)
(-0.892213 -0.00190305 -2.56119)
(-1.89807 -0.00175709 0.979381)
(-1.89815 -0.00255213 0.979118)
(-1.89598 0.000544057 0.97807)
(-1.90293 0.00175748 0.980917)
(-1.90459 -0.00164117 0.983946)
(-1.89666 -0.00192452 0.975678)
(-2.11889 0.00153403 -5.59375)
(-2.11468 0.00175283 -5.62376)
(-2.11638 0.00110949 -5.61937)
(-2.11284 -2.02289e-05 -5.60869)
(-2.11303 0.00198527 -5.60211)
(-2.11554 0.00315801 -5.62252)
(-0.8887 0.00201254 -2.73464)
(-0.887558 0.00125906 -2.73203)
(-0.888871 -0.00147038 -2.73169)
(-0.888719 -0.00151495 -2.73341)
(-0.889315 -0.000662532 -2.73678)
(-0.890348 1.83245e-05 -2.7281)
(1.66828 -0.403725 7.36956)
(1.48798 0.12659 8.49299)
(1.05948 0.237426 7.74609)
(3.08324 0.801526 7.73938)
(5.14308 -0.469193 9.07705)
(1.2881 0.449736 7.12822)
(1.79468 -0.610758 5.64676)
(1.32938 -0.129408 6.32496)
(1.65916 -0.105385 6.00619)
(3.48925 0.366294 8.77797)
(4.54931 0.162567 10.8381)
(2.12076 0.62876 5.60712)
(3.67635 -0.457644 14.4237)
(3.05592 -0.383921 13.2697)
(3.8461 -0.745265 12.9618)
(5.57764 -0.882054 13.0537)
(5.50904 0.896167 12.9433)
(3.73151 0.881456 13.0844)
(-1.92304 -0.448142 9.86617)
(-0.682075 0.160476 7.3148)
(0.0218947 0.54348 6.32679)
(-0.548149 1.63491 6.31657)
(-0.897473 0.70942 6.23001)
(-1.98038 0.631065 9.65628)
(-0.203634 -0.0301367 10.3917)
(0.956992 1.0711 9.40749)
(1.33564 0.893438 7.71716)
(0.484183 1.53118 7.74597)
(0.139903 -0.50025 9.55506)
(-1.63291 0.145275 11.2789)
(5.14442 0.110888 5.54203)
(5.72037 0.659446 5.87936)
(4.56879 0.354018 4.93771)
(2.05645 0.540938 6.34165)
(1.65706 -1.1017 8.30936)
(1.50832 -0.118725 7.14798)
(3.10571 0.355511 -1.28281)
(4.17475 0.674687 -2.36118)
(3.81783 0.362169 -1.8823)
(3.82235 0.132274 -2.12328)
(4.0358 -0.86815 -2.28438)
(2.09423 -0.527988 -0.60363)
(3.11118 0.150611 -0.724715)
(3.39548 0.172249 -1.0441)
(2.99912 -0.481517 -0.412383)
(2.98344 -0.135447 1.71308)
(3.36828 -0.615031 0.330708)
(2.65849 -0.069508 -0.537042)
(1.34133 -0.100032 -2.27842)
(1.2828 -0.570335 -2.33388)
(1.1555 -1.00916 -2.70497)
(1.51025 -0.53908 -2.18468)
(1.49107 -0.0842902 -2.53394)
(1.99857 0.442547 -1.13284)
(-0.249664 0.0654288 -3.66358)
(-0.288722 0.0333711 -3.66969)
(-0.097246 -0.0666108 -3.57539)
(0.196532 0.000956737 -4.0089)
(-0.0778678 -0.172817 -4.04899)
(-0.264447 -0.202787 -3.28755)
(0.106611 0.0342941 -3.13548)