/*--------------------------------*- C++ -*----------------------------------*\
| =========                 |                                                 |
| \\      /  F ield         | OpenFOAM: The Open Source CFD Toolbox           |
|  \\    /   O peration     | Version:  v1612+                                |
|   \\  /    A nd           | Web:      www.OpenFOAM.com                      |
|    \\/     M anipulation  |                                                 |
\*---------------------------------------------------------------------------*/
FoamFile
{
    version     2.0;
    format      ascii;
    class       volScalarField;
    location    "5.6";
    object      alpha.water;
}
// * * * * * * * * * * * * * * * * * * * * * * * * * * * * * * * * * * * * * //

dimensions      [0 0 0 0 0 0 0];

internalField   nonuniform List<scalar> 
320
(
1
1
1
1
1.27836e-05
1.34467e-05
1.40408e-05
1.39449e-05
1.41983e-05
1.47835e-05
1.5469e-05
1.37496e-05
1.37213e-05
1.34687e-05
1.21434e-05
1.40099e-05
0.999983
0.999987
0.999989
0.999985
0.999983
0.999983
0.999984
0.999987
0.999984
0.999983
0.999993
0.999981
1
1
1
1
1
1
1
1
1
1
1
1
1
1
1
1
1
1
1
1
1
1
1
1
1
1
1
1
1.39781e-05
1.37943e-05
1.37068e-05
1.43481e-05
1.29475e-05
1.07706e-05
1.20309e-05
1.05046e-05
1.41959e-05
1.29716e-05
1.17176e-05
1.19389e-05
1.5169e-05
1.32533e-05
1.32426e-05
1.15217e-05
1.15554e-05
1.49022e-05
1.46002e-05
1.23966e-05
0.999987
0.999979
0.999988
0.999987
0.999994
0.999996
0.999993
0.999994
0.999982
0.999989
0.999993
0.999994
0.999984
0.999994
0.999992
0.999992
0.999992
0.999985
0.999987
0.999991
1
1
1
1
1
1
1
1
1
1
1
1
1
1
1
1
1
1
1
1
1
1
1
1
1
1
1
1
1
1
1
1
1
1
1
1
1
1
1
1
1
1
1
1
1
1
1
1
1
1
1
1
1
1
1
1
1
1
1
1
1
1
1
1
1
1
1
1
1
1
1
1
1
1
1
1
1.28629e-05
1.43011e-05
1.5352e-05
1.19299e-05
1.37861e-05
1.39912e-05
1.67495e-05
1.33127e-05
1.18765e-05
1.51746e-05
1.29048e-05
1.31099e-05
1.43002e-05
1.43091e-05
1.46407e-05
1.36144e-05
1.36047e-05
1.38952e-05
1.55852e-05
1.75926e-05
1.61272e-05
1.2927e-05
1.15403e-05
1.32486e-05
1.31528e-05
1.46591e-05
1.42139e-05
1.31631e-05
0.999982
0.999984
0.999985
0.999991
0.999987
0.999986
0.999983
0.999985
0.999986
0.999979
0.999981
0.999984
0.999979
0.999986
0.999986
0.999986
0.999982
0.999984
0.999987
0.999982
0.999981
0.999985
0.999989
0.999985
0.99999
0.999988
0.999983
0.99998
1
1
1
1
1
1
1
1
1
1
1
1
1
1
1
1
1
1
1
1
1
1
1
1
1
1
1
1
1
1
1
1
1
1
1
1
1
1
1
1
1
1
1
1
1
1
1
1
1
1
1
1
1
1
1
1
1
1
1
1
1
1
1
1
1
1
1
1
1
1
1
1
1
1
1
1
1
1
1
1
1
1
1
1
1.55615e-05
1.29174e-05
1.39895e-05
1.29174e-05
0.999981
0.999987
0.999986
0.999993
)
;

boundaryField
{
    top_fluid_surface
    {
        type            inletOutlet;
        inletValue      uniform 0;
        value           nonuniform List<scalar> 
64
(
1.27836e-05
1.34467e-05
0
0
0
0
0
0
0
0
1.21434e-05
0
1.39781e-05
0
1.37068e-05
0
1.29475e-05
1.07706e-05
1.20309e-05
1.05046e-05
0
1.29716e-05
1.17176e-05
1.19389e-05
0
1.32533e-05
1.32426e-05
1.15217e-05
1.15554e-05
0
0
1.23966e-05
1.28629e-05
1.43011e-05
0
1.19299e-05
0
0
0
0
1.18765e-05
0
0
1.31099e-05
0
1.43091e-05
1.46407e-05
1.36144e-05
0
0
0
0
0
1.2927e-05
1.15403e-05
1.32486e-05
1.31528e-05
0
0
1.31631e-05
0
1.29174e-05
0
1.29174e-05
)
;
    }
    bottom_fluid_surface
    {
        type            zeroGradient;
    }
    lateral_surface_1
    {
        type            zeroGradient;
    }
    lateral_surface_2
    {
        type            zeroGradient;
    }
    lateral_surface_3
    {
        type            zeroGradient;
    }
    lateral_surface_4
    {
        type            zeroGradient;
    }
}


// ************************************************************************* //
