/*--------------------------------*- C++ -*----------------------------------*\
| =========                 |                                                 |
| \\      /  F ield         | OpenFOAM: The Open Source CFD Toolbox           |
|  \\    /   O peration     | Version:  v1612+                                |
|   \\  /    A nd           | Web:      www.OpenFOAM.com                      |
|    \\/     M anipulation  |                                                 |
\*---------------------------------------------------------------------------*/
FoamFile
{
    version     2.0;
    format      ascii;
    class       volScalarField;
    location    "3.85";
    object      alpha.water;
}
// * * * * * * * * * * * * * * * * * * * * * * * * * * * * * * * * * * * * * //

dimensions      [0 0 0 0 0 0 0];

internalField   nonuniform List<scalar> 
1116
(
0.590985
0.590985
0.590986
0.590988
0.590989
0.590986
0.590672
0.590671
0.590671
0.590674
0.590675
0.59067
0.628222
0.628221
0.628221
0.628224
0.628224
0.628221
0.692879
0.692879
0.69288
0.692881
0.692882
0.692881
0.764176
0.764176
0.764178
0.764178
0.764178
0.764178
0.827548
0.827547
0.827549
0.827549
0.827549
0.82755
0.901163
0.901157
0.901158
0.901158
0.901156
0.901161
0.973008
0.973008
0.973008
0.973008
0.973008
0.973008
0.973014
0.973014
0.973014
0.973014
0.973014
0.973014
0.973014
0.973014
0.973014
0.973014
0.973014
0.973014
0.972962
0.972962
0.972962
0.972962
0.972962
0.972962
0.971148
0.971148
0.971148
0.971148
0.971148
0.971148
0.000409184
0.00040726
0.000405019
0.000407054
0.000407391
0.000405885
2.97338e-08
2.97348e-08
2.97345e-08
2.9734e-08
2.9734e-08
2.9734e-08
1.25791e-08
1.25798e-08
1.25796e-08
1.25796e-08
1.25795e-08
1.25789e-08
1.56543e-08
1.56633e-08
1.56572e-08
1.56599e-08
1.56669e-08
1.56556e-08
5.46136e-06
5.88845e-06
5.84539e-06
5.95149e-06
6.23241e-06
5.85581e-06
0.0121841
0.012186
0.0121858
0.0121865
0.0121878
0.0121861
0.044965
0.0449679
0.0449684
0.0449691
0.0449702
0.0449684
0.134809
0.134807
0.13481
0.134811
0.134809
0.134812
0.447715
0.447681
0.447698
0.447699
0.447686
0.44771
0.902884
0.90287
0.902875
0.902875
0.902868
0.902883
0.972951
0.972951
0.972951
0.972951
0.972951
0.972951
0.972934
0.972934
0.972934
0.972934
0.972934
0.972934
2.02647e-08
2.02654e-08
2.0265e-08
2.02655e-08
2.02665e-08
2.02659e-08
1.25791e-08
1.25798e-08
1.25796e-08
1.25796e-08
1.25795e-08
1.25789e-08
1.19069e-08
1.18963e-08
1.18984e-08
1.18943e-08
1.18908e-08
1.19117e-08
1.10153e-08
1.09985e-08
1.1002e-08
1.09949e-08
1.09899e-08
1.10237e-08
8.88301e-09
8.90301e-09
8.89464e-09
8.904e-09
8.91161e-09
8.87219e-09
4.43136e-09
4.42558e-09
4.42586e-09
4.42732e-09
4.42856e-09
4.43146e-09
-7.1898e-08
-7.20373e-08
-7.19065e-08
-7.19311e-08
-7.19314e-08
-7.2018e-08
3.41581e-05
3.4156e-05
3.4156e-05
3.41552e-05
3.41537e-05
3.41539e-05
0.00247382
0.0024664
0.00247033
0.00247019
0.00246821
0.00247149
0.300678
0.300637
0.300654
0.300652
0.300635
0.30067
0.864899
0.864876
0.864882
0.864878
0.864864
0.864896
0.972933
0.972933
0.972933
0.972933
0.972933
0.972933
2.82618e-07
2.82493e-07
2.82544e-07
2.82582e-07
2.82562e-07
2.82692e-07
1.19e-06
1.18987e-06
1.1899e-06
1.1899e-06
1.18985e-06
1.19005e-06
8.46881e-08
8.47337e-08
8.47238e-08
8.4712e-08
8.4732e-08
8.47058e-08
9.79923e-09
9.77829e-09
9.78196e-09
9.77378e-09
9.76752e-09
9.80782e-09
5.87388e-09
5.86722e-09
5.86681e-09
5.86914e-09
5.86542e-09
5.8738e-09
5.62155e-09
5.62158e-09
5.62171e-09
5.62163e-09
5.6212e-09
5.62096e-09
5.42188e-09
5.42196e-09
5.42207e-09
5.42208e-09
5.4218e-09
5.42128e-09
-5.46824e-09
-5.51313e-09
-5.48769e-09
-5.49133e-09
-5.50502e-09
-5.47861e-09
3.39778e-05
3.39764e-05
3.3976e-05
3.39752e-05
3.39734e-05
3.39737e-05
0.0736721
0.0736622
0.0736723
0.0736661
0.0736659
0.0736601
0.659948
0.660313
0.660155
0.660087
0.660248
0.66001
0.970306
0.97032
0.970314
0.970313
0.970314
0.970312
3.69909e-30
3.70427e-30
3.72891e-30
3.73842e-30
3.6933e-30
3.64746e-30
1.87337e-27
1.87673e-27
1.89086e-27
1.90367e-27
1.86996e-27
1.85032e-27
4.43086e-25
4.44058e-25
4.47868e-25
4.5215e-25
4.4218e-25
4.3849e-25
6.42358e-23
6.44033e-23
6.50404e-23
6.56402e-23
6.40893e-23
6.37203e-23
6.34588e-21
6.36527e-21
6.43952e-21
6.46193e-21
6.32951e-21
6.31447e-21
4.54304e-19
4.55937e-19
4.62425e-19
4.57789e-19
4.52903e-19
4.54026e-19
2.49029e-17
2.50102e-17
2.54632e-17
2.46403e-17
2.47987e-17
2.5045e-17
3.97941e-17
3.989e-17
4.02878e-17
4.23058e-17
3.97013e-17
3.9906e-17
3.42337e-14
3.4386e-14
3.51942e-14
3.36589e-14
3.37499e-14
3.55926e-14
2.21317e-12
2.22562e-12
2.3009e-12
2.14735e-12
2.1702e-12
2.34525e-12
9.41654e-12
9.45052e-12
9.48566e-12
9.22517e-12
9.32225e-12
9.52888e-12
1.38462e-11
1.37551e-11
1.35219e-11
1.35219e-11
1.35219e-11
1.36053e-11
1.70381e-28
1.70546e-28
1.71777e-28
1.64334e-28
1.70181e-28
1.67091e-28
9.06483e-26
9.07635e-26
9.15116e-26
8.7416e-26
9.05961e-26
8.90234e-26
2.27737e-23
2.28111e-23
2.30272e-23
2.19578e-23
2.27792e-23
2.2402e-23
3.58972e-21
3.59729e-21
3.63682e-21
3.46018e-21
3.59434e-21
3.53797e-21
4.00995e-19
4.02092e-19
4.07282e-19
3.86339e-19
4.02032e-19
3.96181e-19
3.4231e-17
3.43537e-17
3.48834e-17
3.29501e-17
3.43692e-17
3.3932e-17
3.82986e-17
3.83945e-17
3.8801e-17
3.81193e-17
3.81922e-17
3.84282e-17
5.51132e-16
5.54078e-16
5.67469e-16
5.33376e-16
5.49264e-16
5.57233e-16
4.20848e-11
4.22653e-11
4.28687e-11
4.06871e-11
4.25005e-11
4.16412e-11
4.31024e-09
4.33942e-09
4.43675e-09
4.1441e-09
4.35419e-09
4.31574e-09
4.79702e-10
4.82892e-10
4.97985e-10
4.58546e-10
4.76452e-10
4.93289e-10
1.10525e-09
1.1149e-09
9.65974e-10
1.06226e-09
1.10713e-09
5.12624e-10
6.4931e-26
6.51844e-26
6.58357e-26
6.30825e-26
6.55607e-26
6.43455e-26
2.89511e-23
2.90852e-23
2.94331e-23
2.80824e-23
2.92373e-23
2.87459e-23
5.92282e-21
5.95533e-21
6.04224e-21
5.7332e-21
5.98244e-21
5.89717e-21
7.24105e-19
7.28774e-19
7.41974e-19
6.98882e-19
7.31267e-19
7.23901e-19
3.67877e-17
3.70414e-17
3.77578e-17
3.5481e-17
3.71766e-17
3.6818e-17
7.60951e-17
7.642e-17
7.75655e-17
7.37028e-17
7.6465e-17
7.60419e-17
1.88707e-15
1.89448e-15
1.92459e-15
1.82061e-15
1.89547e-15
1.87282e-15
1.6331e-13
1.65413e-13
1.69918e-13
1.54544e-13
1.66443e-13
1.62139e-13
3.02208e-11
3.0475e-11
3.13863e-11
2.88472e-11
3.03952e-11
3.0717e-11
3.78822e-07
3.82652e-07
3.94001e-07
3.62037e-07
3.84503e-07
3.82416e-07
1.53384e-05
1.54505e-05
1.58932e-05
1.47294e-05
1.52808e-05
1.57151e-05
5.2299e-10
5.2299e-10
5.2299e-10
5.45256e-10
5.67521e-10
6.6807e-10
6.38086e-26
6.42231e-26
6.56121e-26
6.06474e-26
6.47239e-26
6.36072e-26
3.83436e-23
3.86036e-23
3.95231e-23
3.63615e-23
3.87901e-23
3.8368e-23
1.07787e-20
1.08527e-20
1.11393e-20
1.02111e-20
1.08561e-20
1.08556e-20
1.87149e-18
1.88398e-18
1.94002e-18
1.77306e-18
1.87281e-18
1.90375e-18
2.28665e-17
2.30127e-17
2.34506e-17
2.14949e-17
2.32955e-17
2.2388e-17
1.97631e-16
1.98657e-16
2.03956e-16
1.89015e-16
1.96791e-16
2.01876e-16
2.47663e-14
2.51845e-14
2.61461e-14
2.33672e-14
2.49432e-14
2.56932e-14
5.16343e-12
5.1948e-12
5.38068e-12
4.89605e-12
5.11133e-12
5.3491e-12
8.49648e-10
8.55005e-10
8.85447e-10
8.05954e-10
8.41056e-10
8.80678e-10
1.0874e-07
1.09444e-07
1.13174e-07
1.03327e-07
1.07549e-07
1.12635e-07
0.000576179
0.000578104
0.000590535
0.000558545
0.000570157
0.00059049
0.00292516
0.0029239
0.00298552
0.00284614
0.00287073
0.0030227
2.65473e-08
2.65229e-08
2.65339e-08
2.65413e-08
2.6536e-08
2.65609e-08
3.74374e-09
3.73656e-09
3.73889e-09
3.73758e-09
3.73143e-09
3.74435e-09
-3.96804e-16
-4.34557e-16
-4.46065e-16
-4.36148e-16
-4.33566e-16
-4.44004e-16
1.22206e-06
1.22206e-06
1.22207e-06
1.22208e-06
1.22209e-06
1.22209e-06
2.65501e-07
2.64949e-07
2.65142e-07
2.65105e-07
2.64719e-07
2.65598e-07
-2.09597e-15
-2.29527e-15
-2.3562e-15
-2.3038e-15
-2.29015e-15
-2.3455e-15
4.50932e-07
4.50785e-07
4.50818e-07
4.50814e-07
4.50786e-07
4.51004e-07
1.80358e-21
1.66003e-21
1.6831e-21
1.6273e-21
1.56863e-21
1.7557e-21
-1.49872e-14
-1.64128e-14
-1.68479e-14
-1.64732e-14
-1.63758e-14
-1.67701e-14
3.91092e-11
3.72675e-11
3.73786e-11
3.60904e-11
3.52199e-11
3.75476e-11
4.02528e-11
3.70457e-11
3.7561e-11
3.6312e-11
3.50075e-11
3.91952e-11
-1.07618e-14
-1.1785e-14
-1.20971e-14
-1.18273e-14
-1.17573e-14
-1.204e-14
3.19084e-08
3.19005e-08
3.1884e-08
3.18692e-08
3.18787e-08
3.18887e-08
9.11482e-22
3.8399e-22
3.95249e-22
3.85201e-22
3.85746e-22
8.8343e-22
-1.90822e-16
-2.51954e-16
-2.69823e-16
-2.54067e-16
-2.49976e-16
-2.62194e-16
1.64368e-08
1.64233e-08
1.64198e-08
1.64208e-08
1.64166e-08
1.64212e-08
1.41115e-15
1.18899e-15
1.22305e-15
1.19139e-15
1.19355e-15
1.36734e-15
9.09689e-18
9.10187e-18
9.09558e-18
9.10144e-18
9.10106e-18
9.09634e-18
5.27102e-11
5.26804e-11
5.29026e-11
5.27862e-11
5.28828e-11
5.28067e-11
2.34594e-13
2.28912e-13
2.35474e-13
2.29375e-13
2.29783e-13
2.35056e-13
1.31328e-17
1.30925e-17
1.28911e-17
1.2968e-17
1.29159e-17
1.3103e-17
8.76702e-09
8.69385e-09
8.77704e-09
8.75588e-09
8.76225e-09
8.71315e-09
1.81122e-10
1.79665e-10
1.80169e-10
1.79949e-10
1.78887e-10
1.81592e-10
-2.89368e-15
-2.90435e-15
-2.9109e-15
-2.93999e-15
-2.99028e-15
-2.90748e-15
7.45292e-07
7.44777e-07
7.44973e-07
7.44905e-07
7.4461e-07
7.45188e-07
5.82469e-09
5.81216e-09
5.84279e-09
5.83017e-09
5.82428e-09
5.83473e-09
9.41924e-10
9.41832e-10
9.4302e-10
9.42152e-10
9.42139e-10
9.43478e-10
9.45671e-05
9.44236e-05
9.45151e-05
9.45003e-05
9.44754e-05
9.44807e-05
1.59351e-05
1.62307e-05
1.61531e-05
1.61749e-05
1.63629e-05
1.58648e-05
5.0349e-07
5.0272e-07
5.0328e-07
5.03221e-07
5.03069e-07
5.03096e-07
0.10578
0.105832
0.105799
0.105797
0.105786
0.105804
0.00216218
0.00218359
0.00217387
0.0021714
0.00216582
0.00217833
0.000930808
0.000932287
0.000931602
0.000931666
0.000932645
0.000930352
0.529959
0.530365
0.530196
0.530189
0.530236
0.530105
1.73176e-18
1.8662e-18
1.65554e-18
1.9378e-18
1.87146e-18
1.86821e-18
-9.00679e-22
-1.13602e-21
-1.22736e-21
-1.25809e-21
-1.21886e-21
-8.6669e-22
0.311527
0.311173
0.311854
0.311156
0.310711
0.313837
0.00626406
0.00619443
0.00626513
0.00605505
0.00536475
0.00673315
0.00219233
0.00218542
0.00218886
0.00218974
0.00213688
0.00215323
0.40683
0.406647
0.406685
0.407645
0.408039
0.407239
7.67988e-19
3.79267e-19
7.83472e-19
7.71342e-19
8.13287e-19
7.96008e-19
-2.92759e-23
-3.69865e-23
-3.96661e-23
-3.11828e-23
-3.30801e-23
-2.88311e-23
0.509579
0.509722
0.50958
0.510434
0.511589
0.50825
7.77691e-18
-7.25407e-15
-1.54742e-13
-1.65519e-12
-1.7806e-13
6.38859e-18
-7.96109e-23
-4.05754e-23
-1.07826e-22
-8.61616e-23
2.90582e-36
-7.74393e-23
0.637412
0.637487
0.637458
0.637606
0.638074
0.636942
0.046785
0.0468559
0.0469057
0.0468055
0.0469858
0.0467335
-1.61869e-22
-2.04496e-22
-2.20933e-22
-2.25832e-22
-2.17778e-22
-1.57077e-22
0.654193
0.654216
0.65424
0.654253
0.654253
0.654253
0.122741
0.122861
0.12285
0.122856
0.123135
0.122513
-3.15478e-22
-3.98702e-22
-4.30679e-22
-4.40201e-22
-4.24916e-22
-3.04954e-22
0.654176
0.654193
0.654216
0.65424
0.654253
0.654224
0.0997405
0.0998927
0.0998186
0.099857
0.0999042
0.099729
-5.12251e-22
-6.47571e-22
-6.99203e-22
-7.15767e-22
-6.92041e-22
-4.93937e-22
2.04555e-23
2.04849e-23
2.0576e-23
2.01823e-23
1.99851e-23
2.09459e-23
6.95572e-25
6.96714e-25
6.99811e-25
6.86209e-25
6.80671e-25
7.11071e-25
1.10896e-26
1.11105e-26
1.116e-26
1.09384e-26
1.08694e-26
1.13168e-26
1.07976e-20
1.08102e-20
1.08579e-20
1.06542e-20
1.05263e-20
1.10795e-20
4.37523e-22
4.38121e-22
4.40063e-22
4.31686e-22
4.27369e-22
4.48121e-22
8.24905e-24
8.26263e-24
8.29939e-24
8.1382e-24
8.07482e-24
8.43079e-24
2.35043e-18
2.35239e-18
2.36224e-18
2.32002e-18
2.28499e-18
2.41749e-18
1.24451e-19
1.24581e-19
1.25127e-19
1.22801e-19
1.21282e-19
1.27739e-19
2.8759e-21
2.87983e-21
2.89252e-21
2.83785e-21
2.81111e-21
2.94368e-21
3.16327e-17
3.16804e-17
3.18185e-17
3.12423e-17
3.10034e-17
3.23269e-17
1.73907e-17
1.74014e-17
1.74633e-17
1.72011e-17
1.69931e-17
1.77943e-17
5.76293e-19
5.76882e-19
5.79369e-19
5.68818e-19
5.62395e-19
5.90729e-19
1.86025e-16
1.87089e-16
1.92623e-16
1.77236e-16
1.85205e-16
1.90484e-16
1.0112e-15
1.01173e-15
1.01589e-15
9.97745e-16
9.8069e-16
1.04157e-15
4.73379e-17
4.73716e-17
4.75747e-17
4.67362e-17
4.61898e-17
4.85192e-17
3.55472e-14
3.57676e-14
3.69888e-14
3.37727e-14
3.52539e-14
3.67387e-14
2.71322e-13
2.71509e-13
2.72541e-13
2.67982e-13
2.63849e-13
2.7882e-13
1.59916e-15
1.60093e-15
1.60828e-15
1.57689e-15
1.5665e-15
1.63002e-15
5.14446e-12
5.1768e-12
5.36332e-12
4.87709e-12
5.09385e-12
5.33279e-12
6.17901e-12
6.21214e-12
6.23114e-12
6.10725e-12
6.03102e-12
6.34435e-12
2.8742e-15
2.87521e-15
2.88707e-15
2.83777e-15
2.80014e-15
2.94713e-15
8.51954e-10
8.57327e-10
8.87836e-10
8.08166e-10
8.43366e-10
8.83023e-10
3.86e-10
3.9432e-10
3.9821e-10
3.75936e-10
3.74654e-10
4.02678e-10
3.07023e-13
3.06699e-13
3.07893e-13
3.0375e-13
2.97596e-13
3.16755e-13
8.23964e-08
8.23933e-08
8.2665e-08
8.14748e-08
7.97377e-08
8.49897e-08
3.09978e-07
3.06161e-07
3.07511e-07
3.06609e-07
2.98766e-07
3.14282e-07
1.79182e-08
1.77282e-08
1.77562e-08
1.77725e-08
1.74435e-08
1.81033e-08
3.84059e-06
3.83796e-06
3.85025e-06
3.80479e-06
3.72966e-06
3.94717e-06
2.12951e-05
2.12136e-05
2.12301e-05
2.12048e-05
2.08226e-05
2.18306e-05
7.3968e-07
7.41882e-07
7.41214e-07
7.3865e-07
7.34071e-07
7.58782e-07
0.000104064
0.000103918
0.000104313
0.000103312
0.000101921
0.000106157
0.000402948
0.000414138
0.000417004
0.000397063
0.000395131
0.000430438
7.69114e-07
7.71287e-07
7.70926e-07
7.67515e-07
7.62814e-07
7.88168e-07
0.0379033
0.0378619
0.0382885
0.0373023
0.0371098
0.0389527
0.0225438
0.0227238
0.0229221
0.0220864
0.0216246
0.0232524
0.00462306
0.00473782
0.00481685
0.00446129
0.00429033
0.00493618
)
;

boundaryField
{
    seabed_topleft_surface
    {
        type            zeroGradient;
    }
    seabed_topright_surface
    {
        type            zeroGradient;
    }
    breakwater_top_surface
    {
        type            zeroGradient;
    }
    breakwater_left_surface
    {
        type            zeroGradient;
    }
    breakwater_right_surface
    {
        type            zeroGradient;
    }
    water_front_surface
    {
        type            zeroGradient;
    }
    water_back_surface
    {
        type            zeroGradient;
    }
    water_left_surface
    {
        type            zeroGradient;
    }
    water_right_surface
    {
        type            zeroGradient;
    }
    water_top_surface
    {
        type            inletOutlet;
        inletValue      uniform 0;
        value           nonuniform List<scalar> 
180
(
0
0
0
0
0
0
0
0
0
0
0
0
0
0
0
0
0
0
0
0
0
0
0
0
0
0
0
0
0
0
0
0
0
0
0
0
0
0
0
0
0
0
0
0
0
0
0
0
9.41924e-10
9.41832e-10
9.4302e-10
9.42152e-10
9.42139e-10
9.43478e-10
5.0349e-07
5.0272e-07
5.0328e-07
5.03221e-07
5.03069e-07
5.03096e-07
0.000930808
0.000932287
0.000931602
0.000931666
0.000932645
0.000930352
0
0
0
0
0
0
0.00219233
0.00218542
0.00218886
0.00218974
0.00213688
0.00215323
0
0
0
0
0
0
0
0
0
0
0
0
0
0
0
0
0
0
0
0
0
0
0
0
0
0
0
0
0
0
1.10896e-26
1.11105e-26
1.116e-26
1.09384e-26
1.08694e-26
1.13168e-26
8.24905e-24
8.26263e-24
8.29939e-24
8.1382e-24
8.07482e-24
8.43079e-24
2.8759e-21
2.87983e-21
2.89252e-21
2.83785e-21
2.81111e-21
2.94368e-21
5.76293e-19
5.76882e-19
5.79369e-19
5.68818e-19
5.62395e-19
5.90729e-19
4.73379e-17
4.73716e-17
4.75747e-17
4.67362e-17
4.61898e-17
4.85192e-17
1.59916e-15
1.60093e-15
1.60828e-15
1.57689e-15
1.5665e-15
1.63002e-15
2.8742e-15
2.87521e-15
2.88707e-15
2.83777e-15
2.80014e-15
2.94713e-15
3.07023e-13
3.06699e-13
3.07893e-13
3.0375e-13
2.97596e-13
3.16755e-13
1.79182e-08
1.77282e-08
1.77562e-08
1.77725e-08
1.74435e-08
1.81033e-08
7.3968e-07
7.41882e-07
7.41214e-07
7.3865e-07
7.34071e-07
7.58782e-07
7.69114e-07
7.71287e-07
7.70926e-07
7.67515e-07
7.62814e-07
7.88168e-07
0.00462306
0.00473782
0.00481685
0.00446129
0.00429033
0.00493618
)
;
    }
}


// ************************************************************************* //
