/*--------------------------------*- C++ -*----------------------------------*\
| =========                 |                                                 |
| \\      /  F ield         | OpenFOAM: The Open Source CFD Toolbox           |
|  \\    /   O peration     | Version:  v1612+                                |
|   \\  /    A nd           | Web:      www.OpenFOAM.com                      |
|    \\/     M anipulation  |                                                 |
\*---------------------------------------------------------------------------*/
FoamFile
{
    version     2.0;
    format      ascii;
    class       volVectorField;
    location    "3.85";
    object      U;
}
// * * * * * * * * * * * * * * * * * * * * * * * * * * * * * * * * * * * * * //

dimensions      [0 1 -1 0 0 0 0];

internalField   nonuniform List<vector> 
1116
(
(0.290593 1.09429e-05 -0.276226)
(0.290592 1.04334e-05 -0.276232)
(0.290602 4.98524e-06 -0.276219)
(0.290597 1.83922e-05 -0.276218)
(0.290593 -1.41463e-05 -0.276231)
(0.2906 -2.15235e-05 -0.276217)
(0.913958 1.78496e-05 -0.37848)
(0.913963 1.84737e-05 -0.378494)
(0.913964 6.63441e-06 -0.378477)
(0.913962 1.20454e-05 -0.378471)
(0.91396 -5.49356e-06 -0.378489)
(0.913961 -1.6312e-05 -0.37848)
(1.3535 1.72027e-05 -0.297129)
(1.35352 1.58358e-05 -0.297149)
(1.35352 3.91508e-06 -0.297133)
(1.35352 7.90334e-06 -0.297128)
(1.35352 5.265e-08 -0.297146)
(1.3535 -1.04063e-05 -0.297137)
(1.67475 1.52614e-05 -0.171349)
(1.6748 1.41488e-05 -0.171371)
(1.67478 2.43083e-06 -0.171357)
(1.67478 6.0678e-06 -0.171355)
(1.67479 1.58678e-06 -0.171371)
(1.67476 -6.55582e-06 -0.171359)
(1.91037 1.24557e-05 -0.062705)
(1.91043 1.27719e-05 -0.0627238)
(1.91041 1.61219e-06 -0.0627136)
(1.91042 3.52731e-06 -0.0627123)
(1.91042 1.25229e-06 -0.0627252)
(1.91038 -3.46454e-06 -0.0627129)
(2.01089 1.15322e-05 0.0323366)
(2.01095 1.37171e-05 0.0323221)
(2.01093 5.70112e-07 0.0323306)
(2.01094 2.88477e-06 0.0323313)
(2.01095 -3.34807e-06 0.032321)
(2.01089 -4.71735e-06 0.0323343)
(1.93185 8.31206e-06 0.128293)
(1.93192 1.27743e-05 0.128283)
(1.9319 -9.17048e-08 0.12829)
(1.9319 1.57414e-06 0.12829)
(1.93191 -8.21776e-06 0.128281)
(1.93185 -5.51911e-06 0.128295)
(1.55743 1.01212e-06 0.311905)
(1.5575 8.96783e-06 0.311899)
(1.55749 -1.39552e-06 0.311904)
(1.55749 -1.70588e-06 0.311904)
(1.5575 -1.24211e-05 0.311897)
(1.55743 -4.30272e-06 0.311912)
(0.668178 2.25422e-06 0.697663)
(0.668229 1.3688e-05 0.697672)
(0.668236 -3.7675e-06 0.697663)
(0.668229 -3.65969e-07 0.697665)
(0.668241 -2.19421e-05 0.697664)
(0.66815 -1.31873e-05 0.697677)
(-0.605944 1.91558e-05 0.695125)
(-0.605895 2.67719e-05 0.695192)
(-0.60587 -6.58217e-06 0.695174)
(-0.60588 1.00494e-05 0.695173)
(-0.605849 -2.26019e-05 0.695196)
(-0.606033 -2.33989e-05 0.695131)
(-1.57572 4.51314e-05 -0.342807)
(-1.57567 3.36115e-05 -0.342739)
(-1.57565 -1.4547e-05 -0.342744)
(-1.57566 1.15752e-05 -0.342754)
(-1.57561 -2.69879e-05 -0.342717)
(-1.57582 -2.80734e-05 -0.342871)
(-0.997866 9.03277e-06 -1.17633)
(-0.997795 -5.4514e-06 -1.17636)
(-0.997801 -1.53246e-05 -1.17635)
(-0.997801 -1.08567e-05 -1.17637)
(-0.99777 -3.4495e-06 -1.17637)
(-0.997854 1.1434e-05 -1.17637)
(0.982779 0.00015323 -1.55538)
(0.983089 0.000151625 -1.55553)
(0.983194 2.3567e-05 -1.55599)
(0.983018 2.18457e-05 -1.55559)
(0.983076 -2.4508e-05 -1.55541)
(0.982991 -0.000126699 -1.55596)
(4.79972 2.36146e-05 -1.37684)
(4.80055 -5.88231e-05 -1.37668)
(4.80093 1.10313e-05 -1.37666)
(4.8004 3.52682e-06 -1.3767)
(4.80051 5.66639e-05 -1.37664)
(4.8004 -4.74084e-05 -1.37673)
(8.41908 -0.000130776 -1.00206)
(8.41938 -0.00028251 -1.00194)
(8.4195 -6.49763e-05 -1.00194)
(8.41927 -0.000185048 -1.00198)
(8.41928 0.000131985 -1.00193)
(8.41925 0.000118102 -1.00195)
(11.4244 -0.000200379 -0.419661)
(11.4242 -0.000382278 -0.419569)
(11.4245 -0.000121165 -0.419573)
(11.4241 -0.000360775 -0.419579)
(11.4236 0.000170652 -0.419523)
(11.4243 0.000217141 -0.419529)
(8.49674 -8.75613e-05 0.157166)
(8.49557 -0.000224093 0.157089)
(8.49597 -1.59474e-06 0.157112)
(8.49536 -0.000192968 0.157062)
(8.49439 0.000129084 0.156994)
(8.49605 9.27095e-05 0.157105)
(5.50545 5.16264e-05 -0.0194207)
(5.50528 -4.01247e-05 -0.0193885)
(5.50528 5.92409e-05 -0.0193914)
(5.50513 -1.53405e-05 -0.0194082)
(5.50498 7.38826e-05 -0.019409)
(5.50528 -3.45662e-05 -0.0194091)
(4.31756 3.24655e-05 0.274288)
(4.31768 -3.37454e-05 0.274347)
(4.31756 1.73498e-05 0.274341)
(4.31752 -2.95877e-05 0.274338)
(4.31756 3.72178e-05 0.274345)
(4.31748 -2.41486e-05 0.274312)
(3.31038 4.20123e-05 0.841383)
(3.31065 -3.52735e-06 0.841415)
(3.31051 -4.97129e-06 0.84141)
(3.3105 -1.497e-05 0.841411)
(3.31059 -9.79992e-06 0.841411)
(3.31037 -4.58389e-05 0.841389)
(2.03625 5.77371e-05 1.29819)
(2.03654 2.81149e-05 1.29826)
(2.03643 -9.76521e-06 1.29824)
(2.03643 8.16359e-06 1.29824)
(2.03652 -2.97027e-05 1.29825)
(2.03628 -5.81083e-05 1.29821)
(1.13588 7.78533e-05 1.27103)
(1.13621 5.85371e-05 1.27117)
(1.13609 -1.00162e-05 1.27112)
(1.13609 2.40881e-05 1.27112)
(1.13619 -2.61969e-05 1.27114)
(1.13592 -5.01141e-05 1.27106)
(0.231152 9.00525e-05 0.393155)
(0.23148 6.77058e-05 0.393401)
(0.231391 -1.13248e-05 0.393303)
(0.231392 3.67256e-05 0.3933)
(0.231495 -1.92777e-05 0.393353)
(0.231212 -4.02557e-05 0.393183)
(-0.277748 -2.49579e-05 -1.1624)
(-0.277263 -2.56163e-05 -1.16221)
(-0.277373 9.02899e-07 -1.16227)
(-0.277377 -1.18573e-05 -1.16229)
(-0.277243 1.9805e-05 -1.16223)
(-0.277665 3.55973e-05 -1.16241)
(-0.164264 -7.90853e-05 -4.43641)
(-0.164284 -1.45423e-05 -4.43618)
(-0.16434 3.52483e-05 -4.43611)
(-0.164317 -2.95396e-05 -4.43622)
(-0.164283 0.000124588 -4.43607)
(-0.164364 0.000153686 -4.43624)
(-1.12852 -0.000101383 -4.60383)
(-1.12861 -7.72233e-05 -4.60411)
(-1.1287 9.95521e-06 -4.60408)
(-1.12864 2.62993e-06 -4.60403)
(-1.12857 0.000121722 -4.60403)
(-1.12863 0.000138348 -4.6038)
(-2.11773 -0.000103599 -3.7692)
(-2.11778 -0.000101971 -3.7695)
(-2.11778 2.30741e-06 -3.76936)
(-2.11776 -1.29758e-05 -3.76942)
(-2.1177 0.00012901 -3.7695)
(-2.1176 0.000138471 -3.76899)
(-1.36485 -0.000114232 -0.231858)
(-1.36512 -0.00014082 -0.23231)
(-1.36493 -1.66965e-05 -0.232063)
(-1.36503 -6.17402e-05 -0.232231)
(-1.36514 0.000141062 -0.232463)
(-1.36452 0.000154834 -0.231585)
(1.30707 5.31492e-05 3.088)
(1.30667 1.40693e-05 3.08738)
(1.30688 5.66843e-05 3.08771)
(1.3067 3.37947e-05 3.08743)
(1.30648 -5.27472e-05 3.08701)
(1.30724 -9.70352e-05 3.08813)
(3.12372 -1.11833e-05 2.80492)
(3.1234 -7.59516e-05 2.80417)
(3.12348 -2.19945e-05 2.80446)
(3.12332 -2.20358e-05 2.80411)
(3.12321 -3.62136e-05 2.80362)
(3.12373 -6.12032e-05 2.80476)
(5.27276 -0.000121282 1.86049)
(5.27276 -0.000177312 1.86007)
(5.27256 -5.28662e-05 1.86018)
(5.27244 -0.000128073 1.86002)
(5.27245 -1.104e-05 1.85978)
(5.27249 2.5445e-05 1.86035)
(6.67145 7.0831e-05 2.52425)
(6.67085 2.48291e-05 2.52428)
(6.67102 -1.54699e-05 2.52418)
(6.67096 -8.53922e-05 2.52414)
(6.67077 -3.57867e-05 2.52414)
(6.67118 -2.40392e-05 2.52409)
(2.23956 4.04363e-05 2.81722)
(2.24212 3.35124e-05 2.81742)
(2.24085 3.95025e-05 2.81728)
(2.24088 -3.42869e-05 2.81727)
(2.24147 -3.25297e-05 2.81738)
(2.24025 -2.94091e-05 2.81714)
(1.34107 0.000319557 1.90961)
(1.34224 0.000197356 1.91019)
(1.34168 -6.80803e-05 1.90996)
(1.34169 9.45568e-05 1.90996)
(1.34197 -6.542e-05 1.9101)
(1.34142 -0.000156191 1.90977)
(0.713534 0.000359567 0.671889)
(0.714395 0.000219195 0.672438)
(0.714056 -0.000100981 0.672195)
(0.714075 0.000103547 0.672212)
(0.714306 -9.64773e-05 0.672325)
(0.713747 -0.000177786 0.67202)
(-0.534203 -0.000122037 -0.925538)
(-0.533386 -9.5306e-05 -0.925052)
(-0.533619 2.17733e-05 -0.925223)
(-0.533606 -3.34964e-05 -0.925219)
(-0.533399 7.52664e-05 -0.925073)
(-0.53403 9.83836e-05 -0.925434)
(-0.397613 -1.83615e-05 -2.23656)
(-0.397525 1.04176e-05 -2.23708)
(-0.39755 -2.93477e-06 -2.23702)
(-0.397541 -7.16453e-06 -2.23703)
(-0.397513 -2.67137e-06 -2.23714)
(-0.397647 2.84755e-05 -2.23656)
(-1.29844 1.48915e-05 -2.5162)
(-1.29818 3.23048e-05 -2.51673)
(-1.29823 -2.28967e-06 -2.51665)
(-1.29822 1.17732e-05 -2.51666)
(-1.29814 -1.24815e-05 -2.51675)
(-1.29848 7.05626e-07 -2.51614)
(-2.35808 4.90831e-06 -2.44123)
(-2.35769 3.31055e-06 -2.44172)
(-2.35775 -1.34236e-05 -2.44165)
(-2.35772 1.79985e-05 -2.44163)
(-2.35762 -1.44722e-05 -2.4417)
(-2.35806 -1.15536e-05 -2.44117)
(-3.03651 -4.30348e-06 -2.20922)
(-3.03616 -2.88457e-05 -2.20967)
(-3.03622 -4.0638e-05 -2.20959)
(-3.0362 1.97856e-05 -2.20957)
(-3.03611 -4.46283e-05 -2.20964)
(-3.03644 -4.47164e-05 -2.20911)
(-2.55282 -3.2356e-05 -1.8778)
(-2.55257 -6.78729e-05 -1.87827)
(-2.55262 -5.54692e-05 -1.87819)
(-2.55266 2.23265e-05 -1.87822)
(-2.55263 -1.08172e-05 -1.87832)
(-2.5528 -2.00213e-05 -1.87766)
(-1.91199 -2.06762e-05 -2.31748)
(-1.91187 -3.20517e-05 -2.31786)
(-1.91197 -6.35866e-06 -2.31785)
(-1.91204 3.73425e-05 -2.31788)
(-1.91207 -2.61099e-05 -2.31791)
(-1.91214 -3.40248e-05 -2.31752)
(-1.57636 -9.31091e-05 -1.89869)
(-1.57631 -3.43595e-05 -1.89917)
(-1.57646 0.000153626 -1.89913)
(-1.57654 0.000124795 -1.89924)
(-1.57658 0.000185754 -1.89936)
(-1.5765 0.000174005 -1.8991)
(2.17986 0.000405162 4.13363)
(2.17862 0.000270526 4.13314)
(2.17888 0.000124916 4.13334)
(2.17887 0.000323157 4.13326)
(2.17841 0.000220865 4.13304)
(2.17963 0.000109964 4.13304)
(0.145528 0.000446482 8.63254)
(0.150719 0.000387691 8.63318)
(0.147843 0.000101301 8.63274)
(0.148522 0.000147908 8.63285)
(0.149424 1.71383e-05 8.63258)
(0.147993 -4.47053e-05 8.633)
(-2.27019 0.00174937 2.22514)
(-2.26767 0.00107404 2.22927)
(-2.26897 -0.000674834 2.22733)
(-2.26939 0.000520701 2.22723)
(-2.26837 -0.000420165 2.22826)
(-2.26968 -0.000977084 2.22629)
(0.853118 0.00112052 1.47038)
(0.85581 0.000627701 1.4738)
(0.854594 -0.000539326 1.47224)
(0.854433 0.000283322 1.47206)
(0.855166 -0.000174974 1.47295)
(0.853928 -0.000529431 1.47135)
(-0.764278 -8.63046e-05 -0.868224)
(-0.763817 -3.17639e-05 -0.867768)
(-0.763916 2.73529e-05 -0.867886)
(-0.763968 1.60517e-05 -0.867869)
(-0.764124 9.03254e-05 -0.867707)
(-0.764014 3.97207e-05 -0.868163)
(0.042224 -7.39337e-07 0.0427818)
(0.0422265 -2.50648e-06 0.0427826)
(0.0422273 -3.88722e-06 0.0427825)
(0.042228 -4.02128e-06 0.0427825)
(0.0422287 -3.30331e-06 0.0427824)
(0.0422284 -1.37469e-06 0.0427811)
(0.128075 -1.93965e-06 0.0443293)
(0.128083 -4.21082e-06 0.0443308)
(0.128085 -5.33988e-06 0.0443309)
(0.128087 -5.3219e-06 0.0443308)
(0.128089 -4.73564e-06 0.0443305)
(0.128088 -1.87134e-06 0.0443283)
(0.218254 -3.03519e-06 0.047889)
(0.218268 -6.41605e-06 0.0478917)
(0.218273 -7.63145e-06 0.047892)
(0.218277 -7.50115e-06 0.0478914)
(0.218281 -6.79579e-06 0.0478903)
(0.21828 -2.85305e-06 0.0478869)
(0.31534 -5.94761e-06 0.0550638)
(0.315363 -1.14772e-05 0.055062)
(0.31537 -1.14955e-05 0.0550596)
(0.315375 -9.84007e-06 0.0550562)
(0.315379 -8.32902e-06 0.0550524)
(0.315376 -3.58049e-06 0.0550458)
(0.420502 -1.09944e-05 0.069027)
(0.420536 -1.52898e-05 0.0690084)
(0.420539 -6.68712e-06 0.0689982)
(0.420535 4.66592e-07 0.0689901)
(0.420529 4.1202e-06 0.0689837)
(0.420516 2.50084e-06 0.0689766)
(0.531501 -1.44238e-05 0.0941741)
(0.531536 -3.72465e-06 0.0941241)
(0.531518 2.77668e-05 0.094103)
(0.531489 4.41322e-05 0.0940934)
(0.531454 4.93205e-05 0.0940915)
(0.531411 2.41749e-05 0.0940948)
(0.639746 -7.21281e-06 0.134015)
(0.639757 4.15673e-05 0.133939)
(0.639698 0.00011145 0.133919)
(0.639624 0.000138285 0.133926)
(0.639541 0.000137442 0.13395)
(0.63944 6.48838e-05 0.133986)
(0.724946 1.51147e-05 0.18485)
(0.724901 0.000120012 0.18478)
(0.724779 0.00022751 0.18479)
(0.724659 0.000252886 0.184847)
(0.724538 0.000229949 0.184927)
(0.724377 0.000104419 0.185019)
(0.759194 5.76594e-05 0.219422)
(0.759067 0.000202598 0.219428)
(0.758897 0.000305626 0.219498)
(0.758736 0.000293184 0.219677)
(0.758652 0.000223577 0.219789)
(0.758498 9.75483e-05 0.219929)
(0.719819 8.18517e-05 0.177892)
(0.719597 0.000190064 0.178072)
(0.719492 0.000315306 0.178151)
(0.71927 0.000240929 0.178532)
(0.719329 7.89803e-05 0.17848)
(0.719255 5.21993e-05 0.178653)
(0.400869 6.48325e-05 0.0220414)
(0.400629 -7.0649e-05 0.0222639)
(0.400569 0.000139664 0.0220998)
(0.400382 5.62623e-05 0.0225905)
(0.400336 -0.00029985 0.0222891)
(0.400446 -7.42282e-05 0.0221055)
(-0.0264005 5.37357e-06 0.318658)
(-0.0265284 -0.000271683 0.318866)
(-0.0265591 0.000138189 0.318669)
(-0.0266045 8.91219e-05 0.318608)
(-0.0267515 -0.000710651 0.318741)
(-0.0264949 -0.000375233 0.317858)
(0.0418914 -1.0662e-06 0.12531)
(0.0418942 -3.13948e-06 0.125314)
(0.0418951 -3.88455e-06 0.125314)
(0.0418957 -3.91636e-06 0.125314)
(0.0418963 -3.01754e-06 0.125315)
(0.041896 -1.42213e-06 0.125311)
(0.126664 -2.2505e-06 0.129226)
(0.126672 -4.6203e-06 0.12923)
(0.126675 -4.74844e-06 0.129231)
(0.126677 -4.44044e-06 0.129231)
(0.126678 -3.57141e-06 0.12923)
(0.126677 -1.52078e-06 0.129225)
(0.213817 -3.08463e-06 0.135814)
(0.213833 -5.55544e-06 0.135819)
(0.213837 -4.76912e-06 0.135819)
(0.21384 -4.11341e-06 0.135818)
(0.213842 -3.37383e-06 0.135816)
(0.21384 -1.64589e-06 0.135808)
(0.303233 -2.48106e-06 0.141648)
(0.303259 -1.98464e-06 0.141642)
(0.303263 1.58755e-06 0.141634)
(0.303263 3.07841e-06 0.141626)
(0.303262 2.89097e-06 0.141618)
(0.303257 6.82851e-07 0.141604)
(0.393147 3.22401e-06 0.139845)
(0.39318 1.55438e-05 0.139802)
(0.393178 2.66492e-05 0.139778)
(0.393168 2.96543e-05 0.139761)
(0.393156 2.63207e-05 0.139748)
(0.393139 1.05703e-05 0.139738)
(0.480424 1.56853e-05 0.118133)
(0.480447 5.04763e-05 0.118029)
(0.48042 7.35574e-05 0.117988)
(0.480383 7.6562e-05 0.117974)
(0.480345 6.52049e-05 0.117979)
(0.480299 2.67176e-05 0.118003)
(0.562208 4.40208e-05 0.0594408)
(0.562196 0.0001092 0.0592729)
(0.562121 0.000133066 0.0592404)
(0.562041 0.000127024 0.0592677)
(0.561966 0.000101086 0.0593359)
(0.561871 4.10092e-05 0.0594447)
(0.640932 6.44707e-05 -0.0608615)
(0.640834 0.000145748 -0.0610385)
(0.640691 0.000164613 -0.0609908)
(0.640519 0.000130589 -0.0608481)
(0.640454 8.1553e-05 -0.0606575)
(0.640312 3.32462e-05 -0.0604436)
(0.726567 9.33775e-05 -0.255591)
(0.726289 0.000156994 -0.255644)
(0.726067 0.00023984 -0.25548)
(0.725626 9.53685e-05 -0.255114)
(0.725659 -6.28693e-05 -0.254874)
(0.725437 1.69964e-05 -0.254672)
(0.781079 0.000128517 -0.482881)
(0.78066 2.24713e-05 -0.482781)
(0.780477 0.000475743 -0.483055)
(0.779897 0.000132771 -0.481572)
(0.780004 -0.000338343 -0.482304)
(0.779894 0.000106603 -0.482383)
(0.086243 -1.63741e-05 -0.976056)
(0.0856332 -0.000743712 -0.976001)
(0.0852431 0.000575326 -0.977729)
(0.0864344 0.000324036 -0.973188)
(0.0858208 -0.00165687 -0.975558)
(0.085397 -0.000710645 -0.977279)
(-0.247974 0.000147493 -0.987892)
(-0.248414 -0.000359841 -0.987414)
(-0.248455 -0.000738647 -0.989849)
(-0.248183 6.80256e-05 -0.984091)
(-0.248938 -0.001867 -0.985573)
(-0.247851 -0.00218726 -0.990317)
(0.0399798 -3.11907e-07 0.204328)
(0.039982 -1.62049e-06 0.204333)
(0.0399824 -2.27198e-06 0.204334)
(0.0399825 -2.19694e-06 0.204334)
(0.0399824 -1.49155e-06 0.204335)
(0.0399812 -7.09881e-07 0.204329)
(0.122575 -1.38708e-06 0.212215)
(0.122582 -2.3718e-06 0.212221)
(0.122583 -1.83712e-06 0.212222)
(0.122583 -1.26032e-06 0.212222)
(0.122583 -5.28908e-07 0.212222)
(0.122579 -5.38644e-08 0.212214)
(0.213996 -1.82502e-06 0.227243)
(0.214009 -1.46959e-06 0.227248)
(0.214011 1.06957e-06 0.227247)
(0.21401 2.26874e-06 0.227245)
(0.214008 2.86909e-06 0.227242)
(0.213999 1.46841e-06 0.227231)
(0.322347 -8.48447e-08 0.248177)
(0.32237 5.49692e-06 0.248169)
(0.322369 1.22597e-05 0.248159)
(0.322363 1.46337e-05 0.248149)
(0.322355 1.38927e-05 0.248139)
(0.322336 6.28761e-06 0.248123)
(0.458004 7.54751e-06 0.273818)
(0.458039 2.70345e-05 0.273779)
(0.458028 4.11956e-05 0.273753)
(0.458007 4.39399e-05 0.273736)
(0.457982 3.78535e-05 0.273725)
(0.457941 1.63131e-05 0.273716)
(0.630076 2.18978e-05 0.30271)
(0.63012 6.25173e-05 0.30263)
(0.630084 8.18607e-05 0.30259)
(0.630038 7.80204e-05 0.302581)
(0.629988 5.94353e-05 0.302591)
(0.629917 2.3852e-05 0.302622)
(0.841142 3.06365e-05 0.332955)
(0.84117 7.75909e-05 0.33285)
(0.841093 8.64674e-05 0.332812)
(0.841 6.52745e-05 0.332848)
(0.840924 1.90954e-05 0.332909)
(0.840853 -4.885e-06 0.333013)
(1.05877 3.6148e-05 0.362438)
(1.05872 5.35382e-05 0.362403)
(1.05862 3.80662e-05 0.362401)
(1.05837 -3.32852e-06 0.362562)
(1.05834 -0.000148936 0.362687)
(1.05833 -0.000122246 0.362803)
(1.18276 6.11748e-05 0.299203)
(1.18259 -0.000167236 0.299397)
(1.18288 0.000172187 0.299133)
(1.18179 2.21649e-06 0.300577)
(1.18248 -0.000582984 0.300062)
(1.18258 -0.000183833 0.299864)
(1.14502 -1.57191e-05 -0.422991)
(1.1451 -0.00174085 -0.422792)
(1.14726 0.00224913 -0.42547)
(1.14178 0.000969629 -0.417008)
(1.14614 -0.00331197 -0.422213)
(1.14574 -0.000338357 -0.42358)
(0.767899 -6.88276e-05 -1.51811)
(0.769769 -0.00430014 -1.51801)
(0.778703 0.00695369 -1.52185)
(0.754178 0.00573215 -1.51325)
(0.772322 -0.00967627 -1.51759)
(0.77181 -0.00417458 -1.52217)
(-0.535551 0.00132999 2.14903)
(-0.535431 -0.003775 2.15108)
(-0.53182 0.00760679 2.1535)
(-0.539673 0.0100889 2.14368)
(-0.536525 -0.0142985 2.15965)
(-0.531801 -0.0116848 2.13897)
(0.0354451 -7.84838e-08 0.275744)
(0.0354468 -7.16263e-07 0.275751)
(0.0354468 -9.11618e-07 0.275752)
(0.0354465 -7.61391e-07 0.275752)
(0.0354461 -2.752e-07 0.275752)
(0.0354447 -1.92155e-07 0.275745)
(0.108333 -4.07135e-07 0.288382)
(0.108338 -1.39974e-07 0.28839)
(0.108338 7.33552e-07 0.28839)
(0.108337 1.16633e-06 0.28839)
(0.108335 1.43745e-06 0.288389)
(0.108331 7.11776e-07 0.288379)
(0.186314 7.46376e-07 0.313035)
(0.186323 3.37879e-06 0.313042)
(0.186321 5.84052e-06 0.313039)
(0.186318 6.45051e-06 0.313035)
(0.186313 5.88556e-06 0.313031)
(0.186304 2.50021e-06 0.313018)
(0.270751 5.2383e-06 0.346697)
(0.270763 1.40646e-05 0.346693)
(0.270757 1.88705e-05 0.346681)
(0.270749 1.91812e-05 0.346671)
(0.270739 1.61587e-05 0.346661)
(0.270719 6.62422e-06 0.346644)
(0.362002 1.48629e-05 0.382097)
(0.362013 3.28843e-05 0.382075)
(0.361999 3.66153e-05 0.382052)
(0.361981 3.28684e-05 0.382039)
(0.361963 2.4269e-05 0.382032)
(0.361931 9.13814e-06 0.382024)
(0.462153 2.45235e-05 0.401178)
(0.462146 4.01307e-05 0.401136)
(0.462132 3.15916e-05 0.401115)
(0.462087 1.37471e-05 0.401117)
(0.462083 -6.25949e-06 0.401133)
(0.462046 -5.5943e-06 0.401157)
(0.577829 2.50095e-05 0.371792)
(0.577775 -1.59873e-05 0.371728)
(0.577833 -2.80932e-05 0.371744)
(0.577678 -6.90582e-05 0.37179)
(0.5778 -0.000133894 0.371861)
(0.577786 -5.42951e-05 0.371883)
(0.739348 2.99685e-05 0.194338)
(0.739196 -0.000214488 0.194254)
(0.739759 -3.8526e-05 0.194432)
(0.738612 -0.000132566 0.194659)
(0.73947 -0.000513319 0.195158)
(0.739692 -0.000179402 0.194248)
(1.25568 8.83801e-05 -0.395244)
(1.25539 -0.0013939 -0.395272)
(1.25807 0.00160447 -0.394038)
(1.25182 0.000864946 -0.394965)
(1.25586 -0.00296871 -0.392198)
(1.25753 -0.000776059 -0.395797)
(2.03812 0.000317846 -0.63795)
(2.04019 -0.0060668 -0.63913)
(2.04818 0.00960806 -0.638486)
(2.02459 0.00631645 -0.638241)
(2.03888 -0.0131116 -0.636122)
(2.04567 -0.00324459 -0.640937)
(3.87933 0.00162744 -0.934466)
(3.89201 -0.000877122 -0.946183)
(3.95091 0.00344615 -0.986959)
(3.78938 0.00400816 -0.88048)
(3.86253 -0.000991319 -0.910144)
(3.93793 0.00282872 -0.983938)
(7.01157 -0.000225865 -2.89403)
(7.0063 0.0014836 -2.90379)
(7.03024 -0.000670963 -2.95265)
(6.98232 0.000380073 -2.82506)
(6.99922 0.00830438 -2.83337)
(7.03105 0.00744997 -2.97421)
(-0.0265159 3.91708e-05 -2.1946)
(-0.0265128 2.64749e-05 -2.19501)
(-0.0265124 -5.45279e-06 -2.19494)
(-0.0265129 2.59361e-06 -2.19494)
(-0.026514 -3.25309e-05 -2.19501)
(-0.0265194 -4.38107e-05 -2.1946)
(-0.0825917 3.63357e-05 -2.1057)
(-0.0825948 3.20032e-05 -2.10598)
(-0.0825943 -8.05823e-06 -2.10593)
(-0.082595 2.64465e-06 -2.10594)
(-0.0825958 -3.70133e-05 -2.10598)
(-0.0825934 -4.07884e-05 -2.10569)
(-0.0187741 2.08103e-05 -1.94945)
(-0.0187733 2.05985e-05 -1.9496)
(-0.0187733 1.60765e-07 -1.94958)
(-0.0187735 1.12658e-06 -1.94957)
(-0.0187732 -1.9797e-05 -1.94959)
(-0.0187738 -2.15251e-05 -1.94944)
(-0.260415 4.31158e-05 -2.18473)
(-0.260415 2.57715e-05 -2.18518)
(-0.260412 -9.19456e-06 -2.1851)
(-0.260417 -1.21135e-06 -2.1851)
(-0.260425 -3.96822e-05 -2.18518)
(-0.260422 -5.48942e-05 -2.1847)
(-0.320699 3.71121e-05 -2.04424)
(-0.320704 3.52582e-05 -2.04452)
(-0.320706 -9.32121e-06 -2.04447)
(-0.320705 1.78962e-06 -2.04447)
(-0.320705 -4.56017e-05 -2.04453)
(-0.320705 -4.63912e-05 -2.04422)
(-0.0563605 2.11206e-05 -1.86242)
(-0.0563593 2.02772e-05 -1.86257)
(-0.0563602 -1.91271e-08 -1.86255)
(-0.0563606 1.43866e-06 -1.86255)
(-0.0563601 -1.90958e-05 -1.86257)
(-0.0563613 -2.19509e-05 -1.86242)
(-0.423462 2.6442e-05 -1.69251)
(-0.423492 1.15292e-05 -1.69295)
(-0.42349 -1.15152e-05 -1.69287)
(-0.423497 -3.68219e-06 -1.69287)
(-0.423508 -2.8918e-05 -1.69296)
(-0.423478 -4.3487e-05 -1.69245)
(-0.554973 3.85289e-05 -1.75603)
(-0.554991 3.5202e-05 -1.7563)
(-0.55499 -1.21457e-05 -1.75625)
(-0.554987 2.25541e-07 -1.75625)
(-0.554988 -4.98384e-05 -1.75631)
(-0.554968 -4.96604e-05 -1.75601)
(-0.100953 2.01634e-05 -1.5225)
(-0.10095 1.66524e-05 -1.52265)
(-0.100953 -2.85266e-06 -1.52263)
(-0.100954 -2.62106e-07 -1.52264)
(-0.100954 -2.02156e-05 -1.52266)
(-0.100958 -2.29569e-05 -1.52252)
(-0.516725 5.41618e-06 -0.864619)
(-0.516792 -6.37804e-06 -0.865077)
(-0.516783 -1.24243e-05 -0.864985)
(-0.516784 -5.38323e-06 -0.864993)
(-0.516796 -1.80803e-05 -0.865101)
(-0.516738 -3.16929e-05 -0.864604)
(-0.716913 4.07987e-05 -1.41038)
(-0.716933 3.42292e-05 -1.41064)
(-0.716927 -1.36375e-05 -1.4106)
(-0.716923 3.35059e-06 -1.41059)
(-0.716924 -4.46928e-05 -1.41064)
(-0.716892 -4.60823e-05 -1.41037)
(-0.142391 1.7516e-05 -1.13938)
(-0.142384 1.01907e-05 -1.13953)
(-0.142387 -7.37344e-06 -1.13952)
(-0.142387 -2.27693e-06 -1.13953)
(-0.142386 -1.92098e-05 -1.13956)
(-0.142394 -2.12622e-05 -1.13941)
(-0.414149 1.4263e-06 0.183294)
(-0.414242 -5.62873e-06 0.182819)
(-0.414227 1.49552e-06 0.182905)
(-0.414226 8.30651e-06 0.182888)
(-0.414243 2.11391e-06 0.182766)
(-0.41417 -1.64595e-05 0.183233)
(-0.708846 5.05794e-05 -0.993907)
(-0.708883 4.50119e-05 -0.994179)
(-0.708876 -8.84048e-06 -0.994135)
(-0.708872 1.2725e-05 -0.994135)
(-0.708881 -4.54324e-05 -0.994186)
(-0.708835 -5.17202e-05 -0.99392)
(-0.204532 1.84155e-05 -0.672513)
(-0.204519 1.05129e-05 -0.672673)
(-0.204521 -6.36177e-06 -0.67266)
(-0.20452 -4.17016e-07 -0.672664)
(-0.204519 -1.62953e-05 -0.672684)
(-0.204532 -1.91422e-05 -0.67252)
(-0.494447 -1.31932e-05 0.158434)
(-0.494499 -2.03173e-05 0.158031)
(-0.494476 -4.70047e-06 0.158084)
(-0.49445 1.21414e-05 0.15807)
(-0.494445 2.29165e-05 0.157992)
(-0.494399 -3.92681e-06 0.158394)
(-0.53895 3.68307e-05 -0.610457)
(-0.538984 2.15635e-05 -0.610689)
(-0.538987 -1.41801e-05 -0.610666)
(-0.538987 7.80381e-06 -0.610666)
(-0.538995 -4.62454e-05 -0.610714)
(-0.538952 -4.72682e-05 -0.610453)
(-0.251707 1.66498e-05 -0.34208)
(-0.251697 9.9679e-06 -0.342218)
(-0.251708 -4.96296e-06 -0.342191)
(-0.251708 -3.51735e-06 -0.342193)
(-0.251716 -1.88591e-05 -0.342214)
(-0.251724 -1.64645e-05 -0.342052)
(-1.25217 -2.40767e-06 -1.34582)
(-1.25242 1.16306e-05 -1.34631)
(-1.25239 3.67195e-05 -1.3462)
(-1.25243 6.36418e-05 -1.34624)
(-1.2524 5.62944e-05 -1.34636)
(-1.2523 3.12068e-05 -1.34599)
(-0.223715 3.24092e-05 -0.179816)
(-0.223714 -1.84069e-06 -0.180033)
(-0.223795 -3.26185e-05 -0.180025)
(-0.223745 -3.58935e-06 -0.180032)
(-0.223729 -1.7351e-05 -0.180052)
(-0.223844 -1.02977e-05 -0.179943)
(-0.52775 8.42777e-06 -0.17336)
(-0.527737 -1.74154e-05 -0.1735)
(-0.527763 -2.50868e-05 -0.173471)
(-0.527748 -2.09637e-05 -0.173497)
(-0.527764 -1.90015e-05 -0.173548)
(-0.52779 2.21981e-06 -0.173376)
(-2.70929 0.000446073 1.05504)
(-2.71037 0.000361188 1.0534)
(-2.71014 8.39887e-05 1.05414)
(-2.71013 0.000285881 1.0542)
(-2.71039 5.45035e-05 1.05366)
(-2.70964 -6.87231e-05 1.05456)
(-2.26495 0.000227553 0.390968)
(-2.26533 0.000122193 0.390755)
(-2.26542 -1.97784e-05 0.391012)
(-2.26542 4.35195e-05 0.390899)
(-2.2656 -0.000128633 0.391125)
(-2.2652 -9.92757e-05 0.390778)
(-0.126055 -2.59323e-05 -0.424248)
(-0.126143 -6.2795e-05 -0.424375)
(-0.126282 -1.62046e-05 -0.424283)
(-0.126217 -3.4692e-05 -0.424385)
(-0.126341 -6.65068e-05 -0.424294)
(-0.126272 -2.16029e-06 -0.424193)
(2.68181 0.000485773 9.9539)
(2.6857 0.000286552 9.95246)
(2.68359 1.13812e-05 9.9533)
(2.68399 0.000254413 9.95323)
(2.68432 2.54046e-05 9.95197)
(2.68425 -9.63057e-05 9.95437)
(2.57379 -0.00015409 9.04527)
(2.57435 -0.000241453 9.04484)
(2.57388 0.00015656 9.04552)
(2.57425 7.10633e-05 9.04565)
(2.57424 0.000457393 9.04515)
(2.57365 0.000570835 9.04601)
(-0.159611 -0.000243149 4.51733)
(-0.159967 -0.00024046 4.51854)
(-0.159836 0.000130335 4.51875)
(-0.15954 -0.000176305 4.51915)
(-0.159414 0.000438071 4.52033)
(-0.160388 0.000713947 4.51769)
(-4.52511 0.000519845 0.63956)
(-4.52291 0.000102848 0.660663)
(-4.52446 -0.000475896 0.651548)
(-4.52412 -0.000363069 0.651309)
(-4.52434 0.000762602 0.657362)
(-4.52348 0.00109067 0.646429)
(3.23416 -0.00171305 5.03912)
(3.226 -0.00130377 5.04391)
(3.22781 0.000548184 5.04162)
(3.22752 -0.00083316 5.04094)
(3.22107 0.00113031 5.03912)
(3.23567 0.00204922 5.04485)
(6.24509 -0.0011442 7.00147)
(6.24174 -0.000805019 7.00582)
(6.24255 0.000511076 7.00441)
(6.2421 -0.000701999 7.00424)
(6.23806 0.000861816 7.00463)
(6.2472 0.00167901 7.00488)
(-3.085 -0.000516225 -2.13422)
(-3.08079 -0.000267717 -2.12669)
(-3.08287 0.000328832 -2.12993)
(-3.08361 -0.000498786 -2.1313)
(-3.08285 0.000463194 -2.12871)
(-3.08327 0.00102343 -2.13207)
(-5.19314 -0.00191203 -2.39184)
(-5.19574 -0.00105281 -2.397)
(-5.19558 0.00126161 -2.39477)
(-5.19638 -0.00084455 -2.39482)
(-5.20207 0.000866178 -2.40105)
(-5.18887 0.00201191 -2.38806)
(-2.23818 0.000640054 4.1177)
(-2.24424 0.000547463 4.11506)
(-2.242 0.000162007 4.11579)
(-2.24279 0.000211613 4.11545)
(-2.24943 -8.81825e-05 4.10922)
(-2.23396 -0.000145621 4.12322)
(0.0798185 -0.000600501 -0.81634)
(0.0808624 -0.000272516 -0.814649)
(0.0804745 0.000347042 -0.815266)
(0.0802217 1.49266e-05 -0.815426)
(0.0803767 1.68009e-05 -0.815224)
(0.0803238 -7.08493e-06 -0.815388)
(-3.46784 -0.00191642 -4.75786)
(-3.46784 -0.00114881 -4.76394)
(-3.46801 0.000890473 -4.76169)
(-3.46758 0.000604929 -4.76069)
(-3.46719 9.80798e-06 -4.7612)
(-3.46859 -0.000496755 -4.76058)
(-1.24265 0.0013218 -6.59375)
(-1.24208 0.000900484 -6.60679)
(-1.24226 -0.000247362 -6.6008)
(-1.24247 0.000728786 -6.599)
(-1.242 -0.000358354 -6.60368)
(-1.24288 -0.00092046 -6.59609)
(7.31093 -0.00154767 -4.02824)
(7.31229 -0.0041906 -4.03038)
(7.30754 0.00244822 -4.02812)
(7.31954 -0.005042 -4.02766)
(7.32554 0.00358806 -4.0227)
(7.28828 0.0149825 -4.03053)
(8.29049 -0.00170662 -1.04182)
(8.30962 -0.00114907 -1.06145)
(8.3005 -0.0074069 -1.05717)
(8.29386 -0.0279939 -1.05559)
(8.3208 0.0118164 -1.07549)
(8.30963 0.036681 -1.02407)
(6.81013 0.00228725 2.82918)
(6.84562 0.00223787 2.72621)
(6.84345 -0.0222076 2.70204)
(6.79067 -0.0551536 2.87062)
(6.7821 0.0200696 2.76495)
(6.90088 0.053956 2.66235)
(5.22295 -0.000217789 -2.68313)
(5.22316 -0.00118969 -2.68308)
(5.22121 -0.0006785 -2.68161)
(5.22352 -0.00434617 -2.68373)
(5.22098 0.00348148 -2.67626)
(5.21556 0.00770739 -2.68988)
(8.96009 -7.05492e-05 -5.17898)
(8.94623 -0.00183125 -5.17925)
(8.93703 0.00685311 -5.16669)
(8.97157 0.0106731 -5.21223)
(8.96673 -0.000741736 -5.23647)
(8.93386 -0.00221525 -5.10957)
(4.37155 0.00258612 -10.6596)
(4.36656 0.000690136 -10.6669)
(4.36747 -0.00312061 -10.6536)
(4.34583 -0.00141953 -10.6895)
(4.32098 0.00936676 -10.685)
(4.40795 0.00930519 -10.5942)
(3.26809 -0.000112157 -1.77813)
(3.26879 5.66445e-05 -1.77861)
(3.26788 -0.000658242 -1.77829)
(3.26603 -0.00219231 -1.77736)
(3.26296 0.00143172 -1.77358)
(3.26956 0.00207452 -1.7788)
(5.48035 -0.00160041 -3.18801)
(5.48157 -0.00188681 -3.18831)
(5.48383 0.00114013 -3.18259)
(5.47907 -0.00372715 -3.19498)
(5.47883 0.00765992 -3.20388)
(5.48873 0.0126306 -3.17283)
(3.62436 0.000128891 -5.80849)
(3.62662 0.000298307 -5.8097)
(3.62885 -0.00220335 -5.80057)
(3.61924 -0.00165777 -5.82656)
(3.61555 0.0111267 -5.82945)
(3.62698 0.0101621 -5.79112)
(1.88256 7.75223e-06 -1.0155)
(1.88289 9.72848e-05 -1.01633)
(1.88295 1.86492e-05 -1.01626)
(1.88092 -0.000298092 -1.014)
(1.87921 0.000910221 -1.0112)
(1.88216 0.00105208 -1.01802)
(4.20239 -0.00119777 -2.25343)
(4.20242 -0.00114097 -2.25308)
(4.20257 0.000112312 -2.25306)
(4.20249 -0.00464923 -2.25075)
(4.20168 0.0062447 -2.25208)
(4.209 0.0108426 -2.24796)
(2.25 -0.000223138 -5.96361)
(2.24913 -0.000102786 -5.97028)
(2.24959 -0.000882142 -5.96801)
(2.24746 -0.00185502 -5.96973)
(2.2436 0.0021601 -5.99093)
(2.26471 0.00273989 -5.94016)
(1.06401 0.000154424 -0.0378321)
(1.06364 0.000215566 -0.0390237)
(1.06363 -8.55679e-05 -0.0387676)
(1.06378 0.000553744 -0.0371022)
(1.06397 -0.000979731 -0.0335903)
(1.06363 -0.00158498 -0.0410648)
(2.69807 -0.000989787 -1.29857)
(2.69827 -0.000672288 -1.29603)
(2.69804 1.62694e-05 -1.29742)
(2.69753 -0.00227336 -1.29493)
(2.69531 0.00305114 -1.29004)
(2.70103 0.00507751 -1.30272)
(1.04216 -0.000227382 -5.46886)
(1.04182 -9.14765e-05 -5.47257)
(1.04242 4.26743e-05 -5.46969)
(1.03976 -0.000197527 -5.47286)
(1.03781 0.0031654 -5.48004)
(1.04331 0.00339568 -5.46614)
(0.895393 -5.6505e-05 0.571235)
(0.895492 0.000137998 0.570137)
(0.895592 4.05467e-05 0.570758)
(0.895227 0.000651313 0.570842)
(0.895796 -0.000616715 0.570137)
(0.894553 -0.00145001 0.571451)
(0.960668 -0.00109456 -1.68525)
(0.961285 -0.000569748 -1.68205)
(0.960706 0.000497487 -1.68378)
(0.960753 -0.000106773 -1.68278)
(0.958327 0.000524268 -1.6793)
(0.963111 0.000585722 -1.68757)
(-0.455635 -2.18208e-05 -7.48912)
(-0.456119 -9.42822e-05 -7.49368)
(-0.455743 -0.000210483 -7.49121)
(-0.456313 -0.00065872 -7.4899)
(-0.457371 0.00093561 -7.48895)
(-0.453238 0.00146458 -7.49251)
(0.029161 3.36006e-07 0.336146)
(0.0291618 7.54433e-08 0.336155)
(0.0291615 -2.10949e-07 0.336155)
(0.0291612 -1.19042e-07 0.336156)
(0.0291609 3.65535e-08 0.336156)
(0.0291599 -9.02691e-08 0.336147)