/*--------------------------------*- C++ -*----------------------------------*\
| =========                 |                                                 |
| \\      /  F ield         | OpenFOAM: The Open Source CFD Toolbox           |
|  \\    /   O peration     | Version:  v1612+                                |
|   \\  /    A nd           | Web:      www.OpenFOAM.com                      |
|    \\/     M anipulation  |                                                 |
\*---------------------------------------------------------------------------*/
FoamFile
{
    version     2.0;
    format      ascii;
    class       volScalarField;
    location    "7.45";
    object      alpha.water;
}
// * * * * * * * * * * * * * * * * * * * * * * * * * * * * * * * * * * * * * //

dimensions      [0 0 0 0 0 0 0];

internalField   nonuniform List<scalar> 
320
(
1
1
1
1
1.88643e-05
1.7325e-05
1.85733e-05
1.72908e-05
1.93431e-05
1.73876e-05
1.82715e-05
1.88079e-05
1.78427e-05
1.7008e-05
1.56075e-05
1.90832e-05
0.99998
0.999978
0.999978
0.999982
0.99998
0.999981
0.999978
0.999979
0.99998
0.999983
0.99999
0.999981
1
1
1
1
1
1
1
1
1
1
1
1
1
1
1
1
1
1
1
1
1
1
1
1
1
1
1
1
1.86801e-05
1.98543e-05
1.70153e-05
1.89921e-05
1.63061e-05
1.51813e-05
1.46008e-05
1.42642e-05
1.82966e-05
1.67173e-05
1.44841e-05
1.45111e-05
1.70754e-05
1.52081e-05
1.45677e-05
1.46836e-05
1.45726e-05
1.72306e-05
1.92042e-05
1.57134e-05
0.999981
0.999978
0.999988
0.999982
0.999992
0.999993
0.999992
0.999993
0.999983
0.999986
0.999992
0.999993
0.999981
0.999989
0.999991
0.999991
0.999989
0.999986
0.999978
0.999989
1
1
1
1
1
1
1
1
1
1
1
1
1
1
1
1
1
1
1
1
1
1
1
1
1
1
1
1
1
1
1
1
1
1
1
1
1
1
1
1
1
1
1
1
1
1
1
1
1
1
1
1
1
1
1
1
1
1
1
1
1
1
1
1
1
1
1
1
1
1
1
1
1
1
1
1
1.67811e-05
1.7542e-05
1.87747e-05
1.73367e-05
1.88212e-05
1.86243e-05
2.12839e-05
1.81131e-05
1.83476e-05
1.92984e-05
1.81433e-05
1.96752e-05
1.86421e-05
1.80343e-05
1.78425e-05
1.91214e-05
1.9328e-05
1.73703e-05
1.69334e-05
1.78782e-05
1.82856e-05
1.77392e-05
1.91361e-05
1.86512e-05
1.71883e-05
1.8754e-05
1.72936e-05
1.89885e-05
0.999981
0.99998
0.99998
0.999989
0.999986
0.999986
0.999978
0.999982
0.999986
0.999979
0.999978
0.999981
0.999975
0.999984
0.999982
0.999976
0.999978
0.999981
0.999981
0.999978
0.999979
0.999978
0.999973
0.99998
0.99998
0.999979
0.99998
0.999972
1
1
1
1
1
1
1
1
1
1
1
1
1
1
1
1
1
1
1
1
1
1
1
1
1
1
1
1
1
1
1
1
1
1
1
1
1
1
1
1
1
1
1
1
1
1
1
1
1
1
1
1
1
1
1
1
1
1
1
1
1
1
1
1
1
1
1
1
1
1
1
1
1
1
1
1
1
1
1
1
1
1
1
1
1.79366e-05
1.81507e-05
1.78897e-05
1.74632e-05
0.999979
0.999977
0.999979
0.999978
)
;

boundaryField
{
    top_fluid_surface
    {
        type            inletOutlet;
        inletValue      uniform 0;
        value           nonuniform List<scalar> 
64
(
0
0
0
1.72908e-05
0
1.73876e-05
0
0
0
1.7008e-05
1.56075e-05
0
0
0
1.70153e-05
0
1.63061e-05
1.51813e-05
1.46008e-05
1.42642e-05
0
1.67173e-05
1.44841e-05
1.45111e-05
0
1.52081e-05
1.45677e-05
1.46836e-05
1.45726e-05
1.72306e-05
0
1.57134e-05
1.67811e-05
0
0
1.73367e-05
0
0
0
0
0
0
0
0
0
1.80343e-05
0
0
0
0
1.69334e-05
0
0
0
0
0
0
0
0
0
0
0
0
0
)
;
    }
    bottom_fluid_surface
    {
        type            zeroGradient;
    }
    lateral_surface_1
    {
        type            zeroGradient;
    }
    lateral_surface_2
    {
        type            zeroGradient;
    }
    lateral_surface_3
    {
        type            zeroGradient;
    }
    lateral_surface_4
    {
        type            zeroGradient;
    }
}


// ************************************************************************* //
