/*--------------------------------*- C++ -*----------------------------------*\
| =========                 |                                                 |
| \\      /  F ield         | OpenFOAM: The Open Source CFD Toolbox           |
|  \\    /   O peration     | Version:  v1612+                                |
|   \\  /    A nd           | Web:      www.OpenFOAM.com                      |
|    \\/     M anipulation  |                                                 |
\*---------------------------------------------------------------------------*/
FoamFile
{
    version     2.0;
    format      ascii;
    class       volScalarField;
    location    "7.45";
    object      p_rgh;
}
// * * * * * * * * * * * * * * * * * * * * * * * * * * * * * * * * * * * * * //

dimensions      [1 -1 -2 0 0 0 0];

internalField   nonuniform List<scalar> 
320
(
-9800.21
-9800.21
-9800.21
-9800.22
-0.00627423
0.00129307
-0.00390946
0.0016008
-0.00856296
0.00114128
-0.00401378
-0.00698773
-0.00277885
0.00273729
0.00877632
-0.00681387
-9799.8
-9799.8
-9799.79
-9799.88
-9799.79
-9799.87
-9799.79
-9799.79
-9799.81
-9799.9
-9799.98
-9799.81
-9800.2
-9800.21
-9800.2
-9800.22
-9800.21
-9800.21
-9800.22
-9800.22
-9800.21
-9800.22
-9800.2
-9800.2
-9800.21
-9800.21
-9800.21
-9800.21
-9800.2
-9800.2
-9800.2
-9800.21
-9800.2
-9800.21
-9800.21
-9800.21
-9800.21
-9800.21
-9800.2
-9800.2
-0.000505295
-0.0113608
0.0037124
-0.0049029
0.0083057
0.0135515
0.0152336
0.0170287
-0.00146317
0.00559268
0.0156552
0.0144967
0.000413594
0.00967135
0.0128042
0.0133744
0.015043
0.000384439
-0.008017
0.00891149
-9799.8
-9799.78
-9799.95
-9799.82
-9800
-9800.02
-9800.02
-9800.03
-9799.84
-9799.92
-9800.02
-9800.03
-9799.84
-9799.97
-9800.01
-9800
-9799.99
-9799.92
-9799.79
-9799.97
-9800.2
-9800.2
-9800.19
-9800.19
-9800.17
-9800.17
-9800.19
-9800.19
-9800.2
-9800.2
-9800.19
-9800.19
-9800.21
-9800.2
-9800.2
-9800.2
-9800.2
-9800.21
-9800.21
-9800.21
-9800.2
-9800.2
-9800.19
-9800.19
-9800.18
-9800.18
-9800.19
-9800.19
-9800.2
-9800.2
-9800.2
-9800.2
-9800.21
-9800.2
-9800.2
-9800.2
-9800.21
-9800.21
-9800.21
-9800.2
-9800.21
-9800.2
-9800.21
-9800.2
-9800.2
-9800.2
-9800.2
-9800.2
-9800.2
-9800.21
-9800.21
-9800.21
-9800.21
-9800.21
-9800.2
-9800.2
-9800.2
-9800.2
-9800.19
-9800.2
-9800.18
-9800.19
-9800.19
-9800.19
-9800.2
-9800.2
-9800.2
-9800.2
-9800.21
-9800.21
-9800.21
-9800.21
-9800.21
-9800.21
-9800.21
-9800.21
0.00266297
-0.000542553
-0.00484822
0.0028953
-0.00394687
-0.00254
-0.0146713
-0.000471488
-0.00182425
-0.00687895
-0.0011417
-0.00798298
-0.0030658
-0.000425277
-0.000173919
-0.00683104
-0.00882739
-0.000659108
0.00159848
-0.00345907
-0.00527046
-0.00221671
-0.0102601
0.00186384
0.00172064
-0.00722655
0.000459312
-0.00921103
-9799.88
-9799.82
-9799.8
-9799.95
-9799.86
-9799.87
-9799.75
-9799.84
-9799.87
-9799.79
-9799.79
-9799.8
-9799.76
-9799.89
-9799.84
-9799.77
-9799.78
-9799.84
-9799.88
-9799.8
-9799.8
-9799.8
-9799.76
-9799.78
-9799.82
-9799.79
-9799.82
-9799.73
-9800.22
-9800.21
-9800.2
-9800.18
-9800.18
-9800.17
-9800.18
-9800.18
-9800.18
-9800.2
-9800.2
-9800.2
-9800.21
-9800.2
-9800.2
-9800.21
-9800.2
-9800.21
-9800.22
-9800.21
-9800.21
-9800.21
-9800.22
-9800.2
-9800.21
-9800.22
-9800.22
-9800.23
-9800.21
-9800.21
-9800.2
-9800.19
-9800.19
-9800.18
-9800.19
-9800.19
-9800.19
-9800.2
-9800.2
-9800.2
-9800.21
-9800.2
-9800.2
-9800.21
-9800.21
-9800.21
-9800.21
-9800.21
-9800.21
-9800.21
-9800.22
-9800.21
-9800.21
-9800.21
-9800.21
-9800.22
-9800.21
-9800.2
-9800.2
-9800.19
-9800.19
-9800.18
-9800.19
-9800.19
-9800.19
-9800.2
-9800.2
-9800.2
-9800.2
-9800.2
-9800.2
-9800.2
-9800.2
-9800.21
-9800.21
-9800.21
-9800.21
-9800.21
-9800.21
-9800.21
-9800.21
-9800.21
-9800.21
-9800.21
-0.00215627
-0.00363819
0.00239835
-0.00122802
-9799.81
-9799.78
-9799.78
-9799.81
)
;

boundaryField
{
    top_fluid_surface
    {
        type            totalPressure;
        rho             rho;
        psi             none;
        gamma           1;
        p0              uniform 0;
        value           nonuniform List<scalar> 
64
(
-1.44267e-08
-3.28361e-10
-3.75045e-09
0
-2.1485e-08
0
-9.39583e-09
-1.42348e-08
-9.07977e-09
0
0
-1.16992e-08
-8.56147e-09
-3.04381e-08
0
-3.72919e-09
0
0
0
0
-6.01509e-10
0
0
0
-1.03179e-09
0
0
0
0
0
-5.58784e-09
0
0
-8.94646e-14
-4.02912e-09
0
-1.21769e-09
-2.36895e-09
-5.55351e-08
-4.26104e-10
-4.1403e-10
-1.66945e-08
-4.13194e-09
-1.51453e-08
-1.36981e-09
0
-5.58253e-10
-6.39231e-09
-2.15764e-08
-1.10853e-09
0
-7.18783e-09
-1.50254e-08
-4.0474e-10
-1.20554e-09
-1.375e-08
-9.41379e-11
-1.32445e-08
-1.23969e-09
-2.28427e-08
-4.78862e-09
-2.97579e-09
-9.02422e-10
-2.41186e-11
)
;
    }
    bottom_fluid_surface
    {
        type            fixedFluxPressure;
        gradient        uniform 0;
        value           nonuniform List<scalar> 
64
(
-9800.21
-9800.2
-9800.21
-9800.2
-9800.2
-9800.2
-9800.2
-9800.2
-9800.2
-9800.21
-9800.21
-9800.21
-9800.21
-9800.21
-9800.2
-9800.2
-9800.2
-9800.2
-9800.19
-9800.2
-9800.18
-9800.19
-9800.19
-9800.19
-9800.2
-9800.2
-9800.2
-9800.2
-9800.21
-9800.21
-9800.21
-9800.21
-9800.21
-9800.21
-9800.21
-9800.21
-9800.21
-9800.2
-9800.2
-9800.19
-9800.19
-9800.18
-9800.19
-9800.19
-9800.19
-9800.2
-9800.2
-9800.2
-9800.2
-9800.2
-9800.2
-9800.2
-9800.2
-9800.21
-9800.21
-9800.21
-9800.21
-9800.21
-9800.21
-9800.21
-9800.21
-9800.21
-9800.21
-9800.21
)
;
    }
    lateral_surface_1
    {
        type            fixedFluxPressure;
        gradient        uniform 0;
        value           nonuniform List<scalar> 
40
(
0.00266297
-0.000542553
-0.00484822
0.0028953
-0.00394687
-0.00254
-0.0146713
-0.00921103
-9799.88
-9799.82
-9799.8
-9799.95
-9799.86
-9799.87
-9799.75
-9799.73
-9800.22
-9800.21
-9800.2
-9800.18
-9800.18
-9800.17
-9800.18
-9800.23
-9800.21
-9800.21
-9800.2
-9800.19
-9800.19
-9800.18
-9800.19
-9800.22
-9800.21
-9800.2
-9800.2
-9800.19
-9800.19
-9800.18
-9800.19
-9800.21
)
;
    }
    lateral_surface_2
    {
        type            fixedFluxPressure;
        gradient        uniform 0;
        value           nonuniform List<scalar> 
40
(
-0.000425277
-0.000173919
-0.00683104
-0.00882739
-0.000659108
0.00159848
-0.00345907
-0.00527046
-9799.89
-9799.84
-9799.77
-9799.78
-9799.84
-9799.88
-9799.8
-9799.8
-9800.2
-9800.2
-9800.21
-9800.2
-9800.21
-9800.22
-9800.21
-9800.21
-9800.2
-9800.2
-9800.21
-9800.21
-9800.21
-9800.21
-9800.21
-9800.21
-9800.2
-9800.2
-9800.2
-9800.2
-9800.21
-9800.21
-9800.21
-9800.21
)
;
    }
    lateral_surface_3
    {
        type            fixedFluxPressure;
        gradient        uniform 0;
        value           nonuniform List<scalar> 
40
(
-0.0146713
-0.000471488
-0.00182425
-0.00687895
-0.0011417
-0.00798298
-0.0030658
-0.000425277
-9799.75
-9799.84
-9799.87
-9799.79
-9799.79
-9799.8
-9799.76
-9799.89
-9800.18
-9800.18
-9800.18
-9800.2
-9800.2
-9800.2
-9800.21
-9800.2
-9800.19
-9800.19
-9800.19
-9800.2
-9800.2
-9800.2
-9800.21
-9800.2
-9800.19
-9800.19
-9800.19
-9800.2
-9800.2
-9800.2
-9800.2
-9800.2
)
;
    }
    lateral_surface_4
    {
        type            fixedFluxPressure;
        gradient        uniform 0;
        value           nonuniform List<scalar> 
40
(
-0.00527046
-0.00221671
-0.0102601
0.00186384
0.00172064
-0.00722655
0.000459312
-0.00921103
-9799.8
-9799.8
-9799.76
-9799.78
-9799.82
-9799.79
-9799.82
-9799.73
-9800.21
-9800.21
-9800.22
-9800.2
-9800.21
-9800.22
-9800.22
-9800.23
-9800.21
-9800.21
-9800.22
-9800.21
-9800.21
-9800.21
-9800.21
-9800.22
-9800.21
-9800.21
-9800.21
-9800.21
-9800.21
-9800.21
-9800.21
-9800.21
)
;
    }
}


// ************************************************************************* //
