/*--------------------------------*- C++ -*----------------------------------*\
| =========                 |                                                 |
| \\      /  F ield         | OpenFOAM: The Open Source CFD Toolbox           |
|  \\    /   O peration     | Version:  v1612+                                |
|   \\  /    A nd           | Web:      www.OpenFOAM.com                      |
|    \\/     M anipulation  |                                                 |
\*---------------------------------------------------------------------------*/
FoamFile
{
    version     2.0;
    format      ascii;
    class       surfaceScalarField;
    location    "7.95";
    object      alphaPhi;
}
// * * * * * * * * * * * * * * * * * * * * * * * * * * * * * * * * * * * * * //

dimensions      [0 3 -1 0 0 0 0];

internalField   nonuniform List<scalar> 
816
(
-1.05549e-06
-1.02292e-05
4.70373e-06
-1.32902e-05
-1.62103e-05
3.60315e-05
6.76951e-06
2.77892e-06
-8.48051e-06
3.91157e-06
-6.1559e-06
-7.40863e-06
1.96918e-06
1.45375e-06
5.96841e-06
-1.23177e-05
-6.28508e-06
7.67508e-06
4.67043e-06
-6.85749e-06
8.98939e-10
-6.08491e-11
1.0401e-08
-4.6439e-09
4.15275e-09
2.62493e-09
-4.46678e-06
-5.43408e-10
1.88767e-09
2.73446e-09
-1.53234e-06
-2.99935e-09
5.66097e-09
5.13212e-09
5.81174e-07
2.79461e-09
7.7729e-10
3.85289e-09
-6.95881e-06
1.9926e-09
-1.63611e-09
4.07605e-09
-0.000132578
-3.10953e-09
3.10327e-09
2.63471e-09
-7.00214e-06
4.40037e-09
-3.14443e-09
5.13575e-09
-9.33513e-05
4.40314e-09
-3.34236e-09
-1.69062e-09
1.92275e-06
8.16015e-09
4.87117e-09
3.69999e-10
3.77141e-06
3.61077e-09
-2.15734e-09
-4.22001e-09
1.1537e-10
2.43086e-09
-7.72616e-09
1.58882e-06
-4.01678e-09
5.45681e-10
2.32459e-05
-4.89846e-06
-2.98928e-05
-2.40363e-06
1.46708e-05
3.04617e-05
-3.33735e-05
1.02568e-05
8.42287e-06
1.85905e-06
-3.05047e-06
-4.48196e-06
3.23211e-05
-3.72861e-06
2.04415e-05
-9.10272e-07
-1.08007e-05
6.32859e-06
-1.45414e-05
6.31558e-06
-1.26733e-05
2.32807e-06
-2.58976e-05
6.2211e-06
2.39368e-05
5.32455e-06
-3.39947e-05
5.73516e-06
1.26523e-05
1.56527e-05
-4.23589e-06
-1.24022e-05
2.50824e-06
4.71294e-06
-4.47589e-05
2.1691e-05
3.52863e-05
2.39724e-05
-2.50579e-05
1.28014e-05
6.38706e-06
-1.06713e-05
5.37565e-05
8.17093e-06
-2.15566e-05
-1.58103e-05
2.96519e-06
7.50545e-06
-1.11991e-05
1.52538e-06
-1.47063e-05
-9.4292e-07
-1.79419e-05
-1.35725e-05
-1.03104e-05
1.4692e-06
-1.08652e-06
-2.17423e-06
-1.92139e-05
5.5478e-06
7.85976e-06
-5.45384e-09
-4.5801e-06
-5.37847e-06
-5.31305e-06
1.86668e-06
-1.35877e-05
-5.97784e-06
-1.28118e-05
-3.47031e-06
-1.52338e-05
-5.71304e-06
-1.0133e-05
-1.62014e-06
6.03101e-06
-6.8543e-06
-2.05657e-05
-9.3713e-06
-1.81285e-05
-1.34052e-05
-1.23933e-05
-4.72563e-06
5.10371e-06
2.30494e-05
-1.2234e-06
-8.16526e-06
-1.41337e-07
-8.95136e-07
-1.13594e-06
-6.09623e-06
2.93511e-06
-6.76897e-06
-5.29148e-06
3.53692e-06
1.98923e-06
-5.10339e-06
2.3198e-06
-4.07377e-06
1.4461e-06
1.27534e-06
1.12474e-06
-3.26423e-06
4.32639e-06
3.09874e-06
-6.35143e-06
4.2096e-07
-9.34321e-07
-4.96191e-06
-1.00371e-05
-5.78081e-06
-2.14302e-06
7.72844e-07
-1.67422e-06
-1.02875e-05
5.41877e-08
3.8404e-06
-2.21209e-07
-1.32119e-07
-1.39543e-06
-1.81458e-06
-1.61334e-06
-6.8329e-09
-3.67654e-06
-6.99968e-06
-4.39285e-06
-2.37019e-06
-2.90815e-06
-5.74017e-06
-5.01939e-06
3.88414e-06
-1.49096e-06
-2.95949e-06
-6.28888e-06
-1.04167e-05
-5.92199e-06
-7.7107e-06
-2.91739e-06
-3.49447e-06
2.23274e-06
-6.34368e-07
6.94224e-06
-9.16462e-07
-1.46704e-06
-3.11985e-06
-4.87799e-09
4.7338e-09
1.86477e-06
-3.67014e-09
-5.08682e-11
2.56328e-07
-4.01224e-09
-3.96645e-10
1.80991e-10
-1.39065e-09
1.77298e-09
1.76103e-06
-9.10861e-10
5.0893e-09
2.87504e-06
-5.60095e-09
-4.91914e-09
1.66884e-09
5.16604e-11
-3.86989e-09
-1.91017e-09
-1.96249e-06
-5.75521e-09
-9.00852e-09
-7.65154e-06
-7.84168e-09
-6.34917e-09
2.4293e-06
-2.77606e-09
1.11975e-08
-8.57376e-05
-9.7944e-09
-4.36644e-09
5.24874e-09
-8.5039e-06
-6.14514e-09
-3.08921e-11
9.03243e-11
-6.14587e-09
2.72938e-09
2.6646e-06
-1.0105e-09
1.43503e-09
9.52681e-07
-1.67234e-09
-1.54845e-09
-7.26501e-07
-4.23419e-09
-5.39021e-09
-3.9516e-09
-5.03856e-07
-4.90738e-09
-6.79778e-09
-1.02072e-06
-2.65154e-09
-6.37095e-09
7.72794e-08
-1.87127e-09
-1.85656e-09
1.81536e-06
-1.04821e-09
-2.98035e-06
-4.91809e-09
-1.83091e-09
-1.69985e-05
9.58456e-06
9.2347e-06
6.9337e-06
1.02769e-05
-2.55799e-05
-1.35782e-06
9.58973e-06
-1.65461e-06
1.3783e-05
6.16061e-06
-1.74547e-06
8.06325e-06
2.38949e-05
5.85724e-05
-3.42984e-05
-3.14678e-05
1.74538e-06
6.85793e-05
-1.12955e-05
-1.81936e-05
5.83183e-05
-4.47238e-05
-4.69038e-05
8.29013e-05
-4.82358e-05
-2.54614e-05
-5.614e-06
-5.31228e-06
2.86103e-05
-1.28567e-05
-1.9213e-05
-1.86586e-05
-5.86175e-06
6.46587e-05
-1.10728e-05
-2.93546e-05
6.92007e-05
-3.44142e-05
1.07009e-05
-4.59577e-05
-2.78217e-06
3.69197e-06
4.23598e-05
-2.36623e-05
2.5848e-05
4.38444e-05
-4.26756e-05
-2.57933e-05
-2.43558e-06
5.67546e-05
3.52552e-06
-2.74495e-05
5.96971e-05
-2.64116e-05
-1.93223e-05
1.19734e-05
-8.6688e-06
-7.76904e-08
-3.38006e-06
1.36198e-06
5.12287e-05
-1.91893e-05
-2.8258e-05
6.6193e-06
-7.02311e-08
5.46343e-06
-2.92645e-06
-7.01849e-06
-1.20507e-05
-8.63139e-07
-7.38065e-06
6.66684e-07
-1.22683e-05
-4.98699e-06
-8.33883e-07
-5.48459e-06
-8.32193e-06
2.65859e-05
1.80771e-05
1.72389e-05
2.65108e-06
3.07324e-05
7.65372e-06
1.11935e-05
2.62268e-05
2.35206e-05
2.54734e-05
3.69485e-05
2.63267e-05
1.4179e-05
-2.95682e-06
2.55e-06
-1.55056e-05
-5.55441e-06
1.20855e-05
1.02491e-05
2.27892e-06
2.84164e-05
5.56273e-06
1.76856e-05
3.04399e-05
1.75725e-05
-4.34633e-06
-2.01027e-05
2.19035e-06
-1.94576e-06
2.02245e-05
1.03639e-05
-1.43517e-05
1.97862e-05
2.31251e-05
1.33734e-05
9.20093e-07
2.46984e-05
-1.35086e-06
1.44674e-05
2.68858e-05
1.45179e-05
9.4718e-06
5.62587e-06
1.01118e-05
1.54356e-06
-1.35562e-06
5.00702e-06
2.337e-05
1.10836e-05
1.82339e-05
4.29508e-06
-8.72038e-08
2.34368e-06
-2.01257e-06
-3.78322e-06
-3.87403e-06
-1.04041e-06
-4.52043e-06
2.51566e-06
-6.88389e-06
-2.46925e-06
-7.55676e-07
-3.79754e-06
-4.48223e-06
8.76881e-06
9.97805e-06
9.84862e-06
1.2185e-06
1.13422e-05
3.38868e-06
6.40201e-06
8.52385e-06
1.22867e-05
1.42702e-05
1.21585e-05
1.51195e-05
8.12603e-06
-1.04963e-06
5.55283e-07
-9.1129e-06
1.66065e-07
6.35043e-06
5.11454e-06
1.21868e-06
8.07159e-06
2.97696e-06
9.37999e-06
9.88904e-06
9.47577e-06
-3.29755e-06
-4.54518e-06
1.02615e-06
-1.28605e-06
6.32053e-06
5.64731e-06
-7.68626e-06
5.8551e-06
1.25356e-05
7.81921e-06
5.51692e-07
7.94273e-06
-1.88918e-06
7.88584e-06
8.56998e-06
8.05901e-06
4.57901e-06
2.59218e-06
5.702e-06
4.58446e-07
-5.17658e-07
1.81419e-06
6.04719e-06
6.61753e-06
1.10648e-05
-6.64261e-07
-2.98133e-06
1.53653e-06
-3.22176e-06
3.25554e-06
-6.26388e-07
-9.9424e-07
-3.98735e-06
3.48464e-07
1.76299e-06
-2.07333e-06
4.44658e-06
-5.71728e-06
2.15695e-06
1.452e-07
-5.28905e-06
-3.17938e-06
9.98054e-07
-5.07345e-07
-5.72905e-06
8.021e-07
-9.28038e-07
-6.92256e-07
-2.18884e-06
1.06507e-07
-1.8799e-06
-3.32669e-06
-8.75143e-07
-2.78341e-07
-3.11744e-06
1.1158e-06
-2.58398e-06
-1.64224e-06
-4.8021e-06
-3.85061e-06
-4.5457e-07
6.86078e-07
-8.04572e-07
-1.21689e-06
9.40807e-07
7.03998e-07
1.09724e-06
-6.86519e-07
-3.18255e-06
1.49031e-07
-1.41553e-06
-2.43058e-06
-1.57302e-06
-1.08535e-06
-1.31592e-06
3.47137e-06
5.04218e-06
2.03851e-06
2.26482e-06
4.07458e-06
5.5819e-06
7.91809e-06
6.13798e-06
3.9291e-06
1.08961e-06
-2.7901e-06
3.08661e-06
3.79181e-06
7.63418e-07
1.19879e-06
4.90197e-06
5.49724e-06
4.51039e-08
1.44586e-06
4.78379e-07
4.25527e-06
-3.51352e-06
5.89506e-06
3.9549e-06
-1.33956e-07
-2.2426e-07
3.77528e-06
4.21089e-06
3.31029e-06
2.25041e-06
1.26634e-06
2.46791e-06
3.36461e-06
5.02442e-06
-7.93968e-10
-3.33862e-09
7.04761e-08
-9.66285e-10
-2.19757e-06
2.66044e-09
1.70914e-06
-1.86151e-10
2.71287e-10
-2.33143e-09
2.08235e-07
-1.07511e-08
4.59129e-07
9.82675e-09
2.45469e-06
5.85302e-09
-1.36024e-06
6.4971e-10
-2.61817e-06
2.89873e-12
1.01452e-06
-1.61893e-09
3.03902e-07
-1.36239e-09
-6.18177e-06
2.42987e-10
-5.41097e-06
6.19249e-10
1.38574e-06
3.90169e-09
-3.41217e-06
8.38025e-09
1.02798e-06
5.67797e-09
8.57932e-07
4.14854e-09
1.4493e-06
2.26462e-09
2.35393e-06
-7.3407e-10
-2.68591e-06
-5.88537e-10
-2.62319e-06
-6.00295e-09
-3.11042e-07
-5.0939e-10
2.31386e-07
-1.98496e-09
1.00478e-06
-3.91115e-09
-4.65861e-06
-4.16114e-09
3.9506e-05
-6.76457e-09
-2.41085e-07
-6.31465e-06
1.14684e-05
-2.07847e-05
-1.02688e-05
4.51171e-06
1.03673e-05
2.32976e-05
-1.5622e-05
1.13157e-06
5.13205e-05
-2.50585e-05
3.44582e-05
-4.04937e-05
-1.63859e-05
3.25805e-05
-5.95524e-05
2.21318e-05
-2.12276e-05
-2.30536e-05
2.5467e-05
-1.15718e-05
-5.38319e-05
1.37222e-05
-7.18267e-05
1.87202e-05
-1.11149e-05
1.17891e-05
-1.71837e-05
-1.31109e-05
2.57176e-05
-6.89168e-06
-2.38232e-05
-5.67964e-06
-1.12855e-05
-1.5642e-06
-3.45735e-05
1.32601e-07
-1.00184e-05
-6.89706e-06
-1.06763e-05
-1.34056e-05
-3.59447e-05
3.42082e-05
-5.02035e-05
1.16022e-05
-2.45226e-06
-5.77124e-06
2.23022e-05
3.02235e-06
-2.97694e-05
-8.22218e-06
-9.22171e-06
-2.08626e-05
-4.01306e-06
-1.25202e-05
-3.44809e-05
-4.77302e-05
-1.0233e-05
1.73206e-05
-6.26451e-06
-8.04379e-06
5.25725e-06
-1.70683e-05
-7.48034e-06
-1.09353e-06
2.30909e-05
1.2058e-05
1.58228e-05
1.9547e-05
-5.80807e-06
-1.29784e-05
-2.70334e-05
-6.05559e-06
-1.08945e-05
1.452e-05
1.25512e-05
6.90802e-06
-2.27049e-05
-6.44192e-06
-3.21422e-05
-9.6718e-06
-5.35528e-06
-7.27921e-06
-7.53544e-06
7.03232e-06
1.13956e-05
4.44835e-06
-1.09819e-05
3.78264e-06
-5.06234e-06
2.40784e-06
-1.56425e-05
-3.22451e-07
-5.13316e-06
5.36468e-06
-5.97514e-06
7.97687e-06
-1.54247e-05
-1.92743e-05
-2.29455e-05
-6.87353e-06
-1.4798e-06
3.29848e-06
1.07659e-05
1.63148e-06
-1.35883e-05
6.49963e-06
-3.9783e-06
9.48112e-06
-1.98473e-06
9.88477e-06
-1.66527e-05
-2.0537e-05
-5.65458e-06
8.47241e-06
-2.46703e-06
-4.16608e-06
1.78472e-06
-9.49039e-06
-3.2067e-06
-7.31699e-07
7.43657e-06
7.73523e-06
3.56217e-06
1.14589e-05
4.64432e-07
-7.53658e-06
-8.05684e-06
-4.54063e-06
-4.06099e-06
8.15317e-06
3.26289e-06
5.01686e-06
-7.27651e-06
-3.61392e-06
-8.39953e-06
-5.393e-06
-3.00634e-06
-4.57041e-06
-1.99337e-06
4.65731e-06
2.12065e-06
2.59765e-06
-3.81436e-06
1.63867e-06
-1.09748e-06
7.74748e-07
-5.27602e-06
-3.80988e-07
-2.90578e-06
2.84184e-06
-3.5256e-06
4.41585e-06
-4.4679e-06
-1.07791e-05
-7.73384e-06
-3.92613e-06
-4.926e-07
2.57762e-06
2.36999e-06
9.95837e-07
-3.95582e-06
2.80259e-06
-9.05166e-08
5.14534e-06
-2.50858e-06
4.41389e-06
-4.85416e-06
-7.67274e-06
-4.14467e-06
5.02986e-06
-3.02641e-06
-6.08527e-06
-1.09295e-06
1.3745e-06
5.33106e-06
-2.71527e-06
-1.72905e-06
3.81886e-06
2.13654e-06
-1.36143e-07
-2.06254e-06
-9.20085e-07
1.20944e-06
1.19177e-06
1.3035e-06
1.53361e-06
8.68272e-08
8.3204e-07
2.24086e-06
-5.50708e-06
-2.03677e-06
1.12919e-07
3.72438e-07
2.51974e-06
2.47867e-06
2.66445e-06
-3.17905e-09
6.77192e-09
-9.14341e-05
1.16701e-09
-9.30659e-06
1.09422e-10
-6.58797e-07
1.56626e-06
4.00564e-06
1.91353e-05
-9.96657e-06
1.67321e-05
)
;

boundaryField
{
    top_fluid_surface
    {
        type            calculated;
        value           nonuniform List<scalar> 
64
(
0
0
0
0
8.87267e-10
2.94246e-10
0
8.7339e-10
0
0
7.86948e-09
0
0
0
1.01334e-09
0
5.74774e-09
1.05053e-08
1.04445e-08
1.29257e-08
0
0
1.05479e-08
1.2009e-08
4.46555e-10
8.91452e-09
1.07397e-08
9.79772e-09
7.98191e-09
3.01186e-09
0
8.33788e-09
0
0
0
1.18596e-09
9.82031e-10
5.94708e-10
0
0
1.46524e-09
0
0
0
0
0
0
0
0
4.87577e-11
2.11978e-10
0
0
0
0
0
2.99863e-10
0
0
0
0
0
0
0
)
;
    }
    bottom_fluid_surface
    {
        type            calculated;
        value           uniform 0;
    }
    lateral_surface_1
    {
        type            calculated;
        value           uniform 0;
    }
    lateral_surface_2
    {
        type            calculated;
        value           uniform 0;
    }
    lateral_surface_3
    {
        type            calculated;
        value           uniform 0;
    }
    lateral_surface_4
    {
        type            calculated;
        value           uniform 0;
    }
}


// ************************************************************************* //
