/*--------------------------------*- C++ -*----------------------------------*\
| =========                 |                                                 |
| \\      /  F ield         | OpenFOAM: The Open Source CFD Toolbox           |
|  \\    /   O peration     | Version:  v1612+                                |
|   \\  /    A nd           | Web:      www.OpenFOAM.com                      |
|    \\/     M anipulation  |                                                 |
\*---------------------------------------------------------------------------*/
FoamFile
{
    version     2.0;
    format      ascii;
    class       surfaceScalarField;
    location    "5.05";
    object      alphaPhi;
}
// * * * * * * * * * * * * * * * * * * * * * * * * * * * * * * * * * * * * * //

dimensions      [0 3 -1 0 0 0 0];

internalField   nonuniform List<scalar> 
816
(
-4.63873e-06
-6.58374e-06
2.74124e-06
-3.3933e-06
-8.70459e-06
2.05799e-05
3.5798e-06
3.94907e-06
-1.168e-06
8.34479e-06
-1.93311e-05
-6.06229e-06
3.87531e-06
4.68999e-06
6.77214e-06
-1.58471e-05
-2.82887e-06
7.4671e-06
6.3537e-06
-1.35101e-05
1.36529e-09
1.9354e-09
3.49168e-07
1.59143e-09
1.38016e-10
1.00219e-09
2.97887e-06
1.25617e-09
1.93611e-11
-1.40132e-09
3.10881e-06
6.65159e-10
1.75481e-09
1.01665e-09
8.2143e-07
-2.99304e-09
2.5441e-09
2.46401e-09
-3.31968e-06
-2.09708e-10
1.40164e-09
2.81626e-09
-2.54119e-06
-6.09617e-10
3.97342e-09
2.46252e-09
-3.50723e-06
1.80133e-09
1.47511e-09
3.85108e-09
-1.55315e-06
6.23135e-11
-1.75786e-09
-6.1793e-11
7.93022e-07
3.76614e-09
2.74538e-09
2.73769e-09
1.15771e-06
1.84141e-09
-3.98028e-11
5.85503e-11
-1.97235e-06
2.70105e-09
-6.20224e-09
-3.31226e-06
1.85221e-10
2.23002e-09
6.11285e-06
4.80247e-06
-2.01075e-05
-3.29815e-06
1.37828e-05
1.53055e-05
-1.74262e-05
3.40324e-06
1.69513e-05
1.59611e-06
-2.88418e-06
8.13183e-06
1.99755e-05
-1.05863e-07
1.08236e-05
-7.02937e-06
2.50037e-06
-2.54883e-06
3.09011e-06
-5.53812e-06
-2.09665e-07
6.84955e-06
-1.96497e-05
4.21452e-07
6.94669e-06
4.32686e-06
-1.41595e-05
-1.81412e-06
1.44574e-05
-6.12274e-07
7.85755e-06
-9.12841e-06
3.14745e-07
2.90465e-06
-2.76294e-05
1.22809e-05
1.56696e-05
1.5774e-05
-2.00732e-05
1.22583e-06
1.07208e-05
1.90831e-06
1.15318e-05
1.52716e-06
-2.84619e-06
-6.4148e-06
5.96186e-06
3.21449e-06
-4.05201e-06
-1.47951e-06
-1.06896e-05
-1.12726e-06
-7.4818e-06
-8.36694e-06
-1.66774e-06
-1.4199e-06
-1.10067e-06
7.24759e-07
-8.55859e-06
2.12816e-06
4.04205e-06
2.09319e-06
2.00072e-06
1.82701e-06
-1.41212e-06
-1.16179e-07
-9.1503e-06
-3.85306e-06
-4.52692e-06
-7.80025e-07
-6.62403e-06
6.09094e-07
-1.98075e-07
2.86434e-06
8.24323e-06
-3.83382e-06
-1.33306e-05
-2.17478e-06
-8.50375e-06
-9.01876e-06
-1.00368e-05
-2.03305e-07
-4.18206e-06
5.17104e-06
-1.85001e-06
-2.88819e-06
-7.07113e-06
-2.10053e-06
-2.12692e-06
-3.4668e-06
1.57468e-06
-2.33239e-06
-2.34868e-06
1.61235e-06
2.43649e-06
-5.88686e-07
2.80047e-06
-3.61981e-06
2.65598e-06
2.63982e-06
1.56925e-06
-1.83491e-06
3.84914e-06
2.3597e-06
-1.88771e-06
-2.28115e-06
-1.56869e-06
-3.34226e-06
-4.77277e-06
-1.64128e-06
-1.38115e-06
-7.39166e-07
-1.70247e-07
-4.80568e-06
-1.45959e-07
1.21129e-06
1.23162e-06
3.0368e-07
1.16389e-06
-3.5715e-07
4.19889e-07
1.96863e-07
-2.51601e-06
-2.83729e-06
-2.80111e-06
-2.65405e-07
1.59373e-08
-2.31022e-06
-3.96655e-08
5.08653e-06
2.53811e-07
-2.08571e-06
-2.03526e-06
-5.1452e-06
-4.10315e-06
-5.8828e-06
-6.53288e-07
-2.92266e-06
-3.08823e-06
-1.34946e-06
1.41314e-06
-5.02147e-06
-2.37573e-06
-8.56848e-07
-3.04074e-09
1.12261e-09
-2.24656e-06
-1.74571e-10
-9.373e-10
2.88907e-06
3.81353e-10
-1.81086e-09
2.40232e-06
9.41767e-10
-9.40097e-10
4.02772e-05
5.45621e-10
-3.84418e-10
-5.24298e-06
-9.25129e-10
-4.72125e-09
-1.92732e-09
2.45889e-11
-2.59942e-09
-4.16855e-10
-1.02522e-06
-6.63106e-09
-1.40354e-09
1.92005e-11
-4.76505e-09
8.82262e-10
-3.48932e-06
-1.61998e-09
1.60053e-09
1.21981e-06
-2.55915e-09
2.22939e-10
1.1582e-09
2.36691e-06
2.28091e-11
-1.41598e-09
-1.44268e-06
-2.96482e-09
2.42959e-09
-6.31052e-06
-5.93564e-10
8.47798e-12
-4.27208e-06
-4.53204e-10
-8.72633e-11
-4.05308e-07
-9.18606e-10
-2.63026e-09
-6.18852e-10
-3.05224e-06
8.43177e-10
-1.25298e-09
-2.54824e-06
-5.39524e-10
-6.64212e-10
1.02272e-06
8.61664e-10
-9.09759e-10
1.0087e-06
4.39208e-10
2.31245e-10
-4.12321e-09
-4.2893e-10
-1.11686e-05
-4.04832e-06
1.50532e-05
2.2455e-06
3.75802e-06
-4.39139e-06
-3.70764e-06
9.98399e-06
-1.15085e-05
1.40854e-05
9.10694e-08
-4.15079e-06
9.51593e-06
6.67704e-06
1.9205e-05
-1.18483e-05
-2.02843e-05
-1.65731e-06
2.8849e-05
-2.97031e-06
-6.4193e-06
1.89891e-05
-2.16527e-05
-2.26683e-05
4.52341e-05
-3.17113e-05
-1.77116e-05
3.91797e-06
-6.36258e-06
8.53311e-06
-1.78898e-05
2.16414e-06
-1.35157e-05
5.32998e-06
1.60041e-05
-5.26616e-07
-9.98375e-06
2.4351e-05
-1.47615e-05
2.61242e-06
-3.21722e-05
-4.03277e-06
-8.72276e-07
1.38002e-05
-5.95331e-06
1.05061e-05
5.2231e-06
-9.10499e-06
-8.91291e-06
5.7646e-07
1.24952e-05
7.87193e-06
-1.01351e-05
2.35072e-05
-1.3679e-05
-9.36319e-06
1.46219e-05
-7.60724e-06
-4.40048e-06
9.272e-07
-3.3507e-06
1.86673e-05
-6.22443e-06
-1.24811e-05
4.51969e-06
2.08654e-06
8.64095e-06
-7.25419e-06
1.35179e-06
-2.41461e-06
5.77483e-08
-9.2244e-07
-4.53117e-06
-6.33987e-06
2.66352e-07
-2.17477e-06
-2.44829e-06
-7.0068e-06
9.36793e-06
8.96993e-06
8.13861e-06
-1.14228e-06
1.32211e-05
1.21666e-06
1.99225e-06
8.46227e-06
9.48095e-06
1.20606e-05
2.03609e-05
1.34113e-05
9.28631e-06
1.91026e-06
9.85834e-07
-2.03517e-06
-7.6824e-06
-4.48501e-06
5.60301e-06
2.75719e-06
7.51872e-06
-8.70693e-07
9.23981e-06
1.15545e-05
6.95691e-06
-7.27119e-07
-1.50138e-05
1.07309e-06
-2.07159e-06
6.27048e-06
6.71848e-06
-7.97054e-06
2.43815e-06
7.72929e-06
9.56579e-07
-3.67422e-06
5.27453e-06
-5.56958e-06
2.52747e-06
1.01567e-05
6.95196e-06
3.40573e-06
7.80964e-06
4.09634e-06
1.25193e-06
9.72277e-07
-4.24268e-08
8.59877e-06
3.86936e-06
9.61067e-06
3.51524e-06
1.16198e-06
3.20134e-06
-4.2011e-06
1.46274e-06
-8.96954e-07
-9.83118e-07
-4.64303e-07
1.50782e-07
-4.38093e-06
3.26043e-07
-9.36008e-07
-2.19009e-06
-3.57969e-06
2.59366e-06
5.28191e-06
5.39555e-06
-5.82686e-07
4.61222e-06
8.14716e-07
8.57812e-07
3.07626e-06
5.19078e-06
6.40153e-06
6.33348e-06
8.12911e-06
4.96727e-06
3.71518e-07
5.01251e-07
-9.69088e-07
-1.0183e-06
-3.32964e-06
2.63138e-06
1.81693e-06
2.36074e-06
-4.67141e-07
5.87216e-06
3.60533e-06
3.92515e-06
-7.20257e-07
-4.15427e-06
8.30086e-07
-1.25952e-06
1.4997e-06
3.26951e-06
-4.17023e-06
5.34279e-07
4.1024e-06
7.0238e-07
-2.58919e-06
2.15951e-06
-3.57824e-06
3.1992e-07
3.0006e-06
3.58983e-06
1.52253e-06
2.59523e-06
2.67881e-06
6.41278e-07
1.29294e-07
-6.46374e-07
2.19661e-06
2.57476e-06
5.60479e-06
-9.83315e-07
-1.04474e-06
5.97544e-07
-8.98035e-07
1.76895e-06
-1.24992e-07
1.86187e-07
-2.61387e-06
1.54725e-06
1.61307e-06
-1.39211e-06
2.92486e-06
-1.85049e-06
-4.38695e-07
-4.37174e-07
-2.04825e-06
-1.29213e-06
-1.94791e-07
2.57166e-07
-2.24625e-06
1.51904e-07
1.6653e-07
4.1093e-07
-1.21953e-06
4.37447e-07
-1.52786e-06
-1.29382e-06
4.22666e-07
6.37378e-07
5.31954e-08
2.19041e-06
-2.14961e-06
3.02963e-07
-2.20374e-06
-3.575e-06
1.29023e-07
-2.29808e-06
-7.47944e-07
-3.25714e-06
-3.40073e-07
1.51126e-06
7.2633e-07
-2.25593e-06
2.89668e-07
-7.38806e-08
7.48745e-07
-1.57045e-06
4.60001e-07
-3.66693e-07
-1.66471e-06
2.02473e-06
2.71389e-06
-6.30462e-08
7.76363e-07
8.25454e-07
2.35876e-06
3.32123e-06
2.62595e-06
2.0381e-06
1.66632e-07
5.77846e-07
-1.26784e-06
1.71882e-06
1.68574e-06
-2.88907e-08
3.51161e-06
2.43196e-06
6.55881e-07
9.05349e-07
3.23335e-08
2.43257e-06
-2.66583e-06
2.46987e-06
7.36346e-07
-1.69864e-06
-1.03584e-06
-3.38698e-07
1.76675e-06
5.43227e-07
9.70845e-07
8.48694e-08
2.51899e-07
8.32655e-07
2.20788e-06
2.64354e-09
-9.17766e-10
-5.19885e-05
1.50667e-11
5.69375e-06
4.20137e-10
4.87225e-06
-1.20165e-09
-4.14033e-06
-1.1248e-09
-5.70916e-06
-3.2102e-09
-5.38709e-06
1.85806e-10
1.23149e-06
-8.5756e-10
1.20616e-06
-3.10645e-09
-7.45572e-06
1.62112e-09
3.84168e-06
3.40306e-09
2.14452e-06
3.71071e-09
4.75591e-06
2.31664e-09
-7.37773e-06
-2.15711e-10
7.74263e-06
-1.00864e-09
9.77528e-11
-1.56958e-11
9.95242e-07
1.27608e-09
-2.26518e-06
4.37933e-09
1.17644e-07
1.46778e-09
-9.42928e-06
-8.24151e-10
-4.33921e-06
5.97878e-10
-5.89346e-07
-1.78451e-10
4.09444e-06
6.61199e-10
1.04936e-06
1.23771e-09
-8.78724e-06
-4.85496e-10
1.03784e-07
-2.33746e-09
1.11428e-10
-4.27367e-09
1.66623e-06
2.81779e-06
3.15727e-06
-5.43039e-06
-7.24188e-06
-1.79324e-07
2.859e-05
1.81745e-05
-6.8273e-06
6.351e-06
2.07856e-05
-1.46341e-05
1.48111e-05
-2.34549e-05
-1.44775e-05
1.13086e-05
-2.91795e-05
9.07391e-06
-1.72158e-05
-1.40527e-05
2.01008e-05
-1.00297e-05
-2.07378e-05
1.09362e-05
-4.02836e-05
1.75904e-05
-1.01007e-05
4.64458e-06
2.21159e-05
-8.3369e-06
1.97904e-05
1.80403e-06
-1.84495e-05
5.1216e-06
4.13223e-06
-7.32582e-07
-1.22539e-05
1.5169e-06
-7.41657e-06
-3.3047e-06
-1.64827e-05
-1.04191e-05
-9.42932e-06
1.55501e-05
-2.94261e-05
7.17893e-06
1.19053e-05
-8.98037e-06
2.6279e-05
-1.48222e-06
-2.3595e-05
-1.88014e-06
-7.45228e-06
-3.63407e-06
8.15474e-06
6.8469e-07
-2.06889e-05
-1.08979e-05
-5.21619e-06
5.49707e-06
-3.70838e-06
1.88335e-06
1.409e-05
-2.32247e-06
-2.48733e-06
2.08206e-06
1.00718e-05
7.67446e-06
6.77728e-06
8.59838e-06
-6.4221e-06
-7.29515e-06
-1.32909e-05
-7.24886e-06
-9.08401e-06
5.70583e-06
8.43421e-06
3.39017e-06
-8.93108e-06
-5.48178e-06
-1.80077e-05
-9.27947e-06
-5.33131e-06
-2.78366e-06
1.13169e-05
7.18127e-06
9.78843e-06
2.03442e-06
-7.80725e-06
3.63513e-06
1.66787e-06
4.38852e-06
-6.03609e-06
2.76565e-06
-4.7047e-06
8.19136e-07
-7.81583e-06
3.37603e-06
-4.28257e-06
-1.34377e-05
-1.25989e-05
-4.79866e-06
4.29742e-06
4.67556e-06
1.12337e-05
-1.54222e-06
-1.04336e-05
-1.47904e-06
-3.44052e-06
2.20718e-06
4.40014e-06
-2.01192e-07
-8.67636e-06
-5.51075e-06
-3.66891e-06
3.50853e-06
-9.63364e-07
1.23518e-06
4.93844e-06
-8.48585e-07
-1.3964e-06
1.66971e-06
3.1845e-06
5.12091e-06
1.15343e-06
5.39709e-06
-1.37129e-06
-3.76076e-06
-4.15347e-06
-4.27154e-06
-3.22772e-06
2.99368e-06
2.02493e-06
2.04245e-06
-2.74134e-06
-3.80683e-06
-4.02079e-06
-6.9547e-06
-1.8184e-06
-2.21724e-06
3.32293e-06
4.94098e-06
2.7401e-06
1.93987e-06
-2.21281e-06
2.67591e-06
4.59218e-07
2.73319e-06
-2.16171e-06
8.88837e-07
-2.02529e-06
-8.60984e-08
-3.559e-06
1.48883e-06
-1.78254e-06
-6.93179e-06
-4.24093e-06
-2.60728e-06
7.33126e-07
2.35533e-06
2.71111e-06
-1.43733e-06
-3.03868e-06
-1.74525e-06
-4.35783e-07
1.44189e-06
5.10564e-07
4.50268e-07
-2.13973e-06
-1.49552e-06
-1.77005e-06
1.6693e-06
9.31537e-07
-5.51179e-07
1.05636e-06
1.84408e-06
2.54725e-06
-1.55803e-06
-2.08998e-06
7.05864e-07
3.44412e-07
-1.01228e-06
-2.68399e-06
-6.72724e-07
2.09112e-06
1.61315e-06
2.05134e-06
2.31477e-06
1.18194e-06
8.37519e-08
8.12904e-07
-3.44941e-06
-2.0083e-06
-3.47027e-07
-1.61815e-06
-1.02295e-06
-2.24455e-07
-1.75537e-07
-2.24231e-09
3.86411e-09
-3.30614e-06
-4.21615e-10
-3.5097e-06
1.12519e-09
-4.74773e-07
3.60017e-11
6.33535e-06
1.47633e-05
-1.3506e-06
1.09503e-05
)
;

boundaryField
{
    top_fluid_surface
    {
        type            calculated;
        value           nonuniform List<scalar> 
64
(
0
0
0
0
0
0
0
3.30719e-10
0
0
3.82442e-09
0
2.05555e-09
0
5.66705e-10
0
4.15137e-09
4.54546e-09
6.87617e-10
4.17499e-09
0
8.89031e-10
3.06247e-09
5.47789e-09
0
5.23221e-09
3.08011e-09
2.35544e-09
2.65268e-09
1.3413e-09
1.64393e-09
3.15861e-09
0
9.33825e-10
0
2.66725e-09
7.71787e-10
1.09614e-09
0
0
0
0
0
0
2.04091e-10
1.10262e-09
1.04546e-09
0
0
0
2.27212e-09
1.43231e-09
0
0
0
0
2.27853e-09
2.11253e-09
2.65061e-11
0
0
9.95138e-10
2.52604e-10
2.87344e-09
)
;
    }
    bottom_fluid_surface
    {
        type            calculated;
        value           uniform 0;
    }
    lateral_surface_1
    {
        type            calculated;
        value           uniform 0;
    }
    lateral_surface_2
    {
        type            calculated;
        value           uniform 0;
    }
    lateral_surface_3
    {
        type            calculated;
        value           uniform 0;
    }
    lateral_surface_4
    {
        type            calculated;
        value           uniform 0;
    }
}


// ************************************************************************* //
