/*--------------------------------*- C++ -*----------------------------------*\
| =========                 |                                                 |
| \\      /  F ield         | OpenFOAM: The Open Source CFD Toolbox           |
|  \\    /   O peration     | Version:  v1612+                                |
|   \\  /    A nd           | Web:      www.OpenFOAM.com                      |
|    \\/     M anipulation  |                                                 |
\*---------------------------------------------------------------------------*/
FoamFile
{
    version     2.0;
    format      ascii;
    class       volScalarField;
    location    "5.05";
    object      p_rgh;
}
// * * * * * * * * * * * * * * * * * * * * * * * * * * * * * * * * * * * * * //

dimensions      [1 -1 -2 0 0 0 0];

internalField   nonuniform List<scalar> 
320
(
-9800.21
-9800.19
-9800.2
-9800.19
-0.00838289
-0.00098926
0.000970085
-0.00348985
-0.00518734
-0.00622163
-0.00537682
-0.000209666
-0.00361547
-0.00746047
0.0083646
-0.00136821
-9799.92
-9799.95
-9799.94
-9799.95
-9799.89
-9799.88
-9799.88
-9800.02
-9799.91
-9799.91
-9800.06
-9799.91
-9800.2
-9800.2
-9800.2
-9800.2
-9800.21
-9800.21
-9800.21
-9800.2
-9800.2
-9800.2
-9800.2
-9800.21
-9800.21
-9800.2
-9800.21
-9800.2
-9800.21
-9800.2
-9800.2
-9800.2
-9800.21
-9800.21
-9800.21
-9800.21
-9800.21
-9800.21
-9800.21
-9800.21
0.00401692
-0.000877904
0.00309069
0.00277627
0.007999
0.0104421
0.000947944
0.00836519
-0.00251113
0.00301056
0.00798037
0.0129495
-0.00568017
0.0114768
0.00695591
0.00396499
0.00476525
0.00351174
0.00473019
0.00812611
-9799.97
-9799.92
-9799.99
-9799.92
-9800.06
-9800.1
-9800.05
-9800.1
-9799.91
-9800
-9800.06
-9800.07
-9799.89
-9800.06
-9800.03
-9800.06
-9800.06
-9799.95
-9799.96
-9800.05
-9800.22
-9800.22
-9800.21
-9800.2
-9800.19
-9800.18
-9800.19
-9800.19
-9800.21
-9800.22
-9800.21
-9800.2
-9800.2
-9800.2
-9800.21
-9800.2
-9800.2
-9800.23
-9800.22
-9800.22
-9800.22
-9800.21
-9800.21
-9800.21
-9800.2
-9800.19
-9800.2
-9800.2
-9800.21
-9800.21
-9800.21
-9800.21
-9800.21
-9800.21
-9800.21
-9800.2
-9800.21
-9800.22
-9800.22
-9800.21
-9800.21
-9800.2
-9800.21
-9800.2
-9800.21
-9800.2
-9800.2
-9800.21
-9800.21
-9800.21
-9800.21
-9800.21
-9800.21
-9800.21
-9800.21
-9800.21
-9800.22
-9800.22
-9800.21
-9800.21
-9800.2
-9800.2
-9800.2
-9800.2
-9800.21
-9800.21
-9800.21
-9800.21
-9800.21
-9800.21
-9800.21
-9800.21
-9800.21
-9800.21
-9800.22
-9800.22
-0.0104681
0.00325285
0.00159229
0.00448117
-0.000860919
0.00133889
-0.00503753
-0.00623462
-0.00260039
-0.0169204
-0.00988348
-0.00382538
-0.00251589
0.00660813
0.00380754
-0.00145539
-0.00747213
-0.00667301
0.00333396
0.00267836
-0.00185677
-0.00308277
-0.000700666
-0.00186743
0.0056502
0.00572846
0.00297963
-0.00962294
-9799.93
-9799.97
-9799.91
-9800.04
-9799.99
-9800
-9799.86
-9799.91
-9800.02
-9799.83
-9799.89
-9799.93
-9799.94
-9799.97
-9799.96
-9799.93
-9799.88
-9799.9
-9799.96
-9799.92
-9799.85
-9799.94
-9799.99
-9799.92
-9800.02
-9799.98
-9799.95
-9799.9
-9800.21
-9800.22
-9800.22
-9800.2
-9800.2
-9800.2
-9800.21
-9800.2
-9800.18
-9800.2
-9800.2
-9800.21
-9800.23
-9800.23
-9800.23
-9800.21
-9800.21
-9800.2
-9800.22
-9800.23
-9800.22
-9800.2
-9800.19
-9800.21
-9800.22
-9800.23
-9800.23
-9800.21
-9800.22
-9800.21
-9800.21
-9800.21
-9800.21
-9800.21
-9800.21
-9800.2
-9800.19
-9800.2
-9800.2
-9800.2
-9800.22
-9800.22
-9800.22
-9800.21
-9800.21
-9800.21
-9800.22
-9800.22
-9800.22
-9800.21
-9800.2
-9800.21
-9800.22
-9800.22
-9800.22
-9800.21
-9800.22
-9800.22
-9800.21
-9800.21
-9800.21
-9800.2
-9800.21
-9800.2
-9800.2
-9800.2
-9800.2
-9800.21
-9800.21
-9800.22
-9800.22
-9800.21
-9800.21
-9800.21
-9800.22
-9800.22
-9800.21
-9800.21
-9800.21
-9800.21
-9800.22
-9800.22
-9800.22
-9800.21
-0.0121652
0.000358792
0.000297896
0.00556541
-9799.85
-9800.05
-9799.99
-9800.05
)
;

boundaryField
{
    top_fluid_surface
    {
        type            totalPressure;
        rho             rho;
        psi             none;
        gamma           1;
        p0              uniform 0;
        value           nonuniform List<scalar> 
64
(
-1.96731e-08
-2.5881e-09
-1.63143e-10
-2.31129e-09
-3.39932e-09
-9.30334e-09
-5.88301e-09
0
-6.5127e-09
-1.69672e-08
0
-2.7072e-10
0
-1.69559e-09
0
-1.02537e-10
0
0
0
0
-1.03089e-09
0
0
0
-6.25489e-09
0
0
0
0
0
0
0
-5.87495e-09
0
-4.59067e-10
0
0
0
-1.14888e-08
-1.15367e-08
-6.11473e-11
-7.95733e-08
-3.783e-08
-7.03883e-09
-1.14719e-12
0
0
-7.0858e-10
-1.18237e-08
-9.71362e-09
0
0
-2.27827e-09
-3.56762e-09
-4.33651e-11
-9.91239e-10
0
0
0
-2.62884e-08
-2.93658e-08
0
0
0
)
;
    }
    bottom_fluid_surface
    {
        type            fixedFluxPressure;
        gradient        uniform 0;
        value           nonuniform List<scalar> 
64
(
-9800.21
-9800.2
-9800.21
-9800.2
-9800.21
-9800.2
-9800.2
-9800.21
-9800.21
-9800.21
-9800.21
-9800.21
-9800.21
-9800.21
-9800.21
-9800.21
-9800.22
-9800.22
-9800.21
-9800.21
-9800.2
-9800.2
-9800.2
-9800.2
-9800.21
-9800.21
-9800.21
-9800.21
-9800.21
-9800.21
-9800.21
-9800.21
-9800.21
-9800.21
-9800.22
-9800.22
-9800.22
-9800.22
-9800.21
-9800.21
-9800.21
-9800.2
-9800.21
-9800.2
-9800.2
-9800.2
-9800.2
-9800.21
-9800.21
-9800.22
-9800.22
-9800.21
-9800.21
-9800.21
-9800.22
-9800.22
-9800.21
-9800.21
-9800.21
-9800.21
-9800.22
-9800.22
-9800.22
-9800.21
)
;
    }
    lateral_surface_1
    {
        type            fixedFluxPressure;
        gradient        uniform 0;
        value           nonuniform List<scalar> 
40
(
-0.0104681
0.00325285
0.00159229
0.00448117
-0.000860919
0.00133889
-0.00503753
-0.00962294
-9799.93
-9799.97
-9799.91
-9800.04
-9799.99
-9800
-9799.86
-9799.9
-9800.21
-9800.22
-9800.22
-9800.2
-9800.2
-9800.2
-9800.21
-9800.21
-9800.22
-9800.21
-9800.21
-9800.21
-9800.21
-9800.21
-9800.21
-9800.21
-9800.22
-9800.22
-9800.21
-9800.21
-9800.21
-9800.2
-9800.21
-9800.21
)
;
    }
    lateral_surface_2
    {
        type            fixedFluxPressure;
        gradient        uniform 0;
        value           nonuniform List<scalar> 
40
(
0.00660813
0.00380754
-0.00145539
-0.00747213
-0.00667301
0.00333396
0.00267836
-0.00185677
-9799.97
-9799.96
-9799.93
-9799.88
-9799.9
-9799.96
-9799.92
-9799.85
-9800.23
-9800.23
-9800.21
-9800.21
-9800.2
-9800.22
-9800.23
-9800.22
-9800.22
-9800.22
-9800.21
-9800.21
-9800.21
-9800.22
-9800.22
-9800.22
-9800.22
-9800.22
-9800.21
-9800.21
-9800.21
-9800.22
-9800.22
-9800.21
)
;
    }
    lateral_surface_3
    {
        type            fixedFluxPressure;
        gradient        uniform 0;
        value           nonuniform List<scalar> 
40
(
-0.00503753
-0.00623462
-0.00260039
-0.0169204
-0.00988348
-0.00382538
-0.00251589
0.00660813
-9799.86
-9799.91
-9800.02
-9799.83
-9799.89
-9799.93
-9799.94
-9799.97
-9800.21
-9800.2
-9800.18
-9800.2
-9800.2
-9800.21
-9800.23
-9800.23
-9800.21
-9800.2
-9800.19
-9800.2
-9800.2
-9800.2
-9800.22
-9800.22
-9800.21
-9800.2
-9800.2
-9800.2
-9800.2
-9800.21
-9800.21
-9800.22
)
;
    }
    lateral_surface_4
    {
        type            fixedFluxPressure;
        gradient        uniform 0;
        value           nonuniform List<scalar> 
40
(
-0.00185677
-0.00308277
-0.000700666
-0.00186743
0.0056502
0.00572846
0.00297963
-0.00962294
-9799.85
-9799.94
-9799.99
-9799.92
-9800.02
-9799.98
-9799.95
-9799.9
-9800.22
-9800.2
-9800.19
-9800.21
-9800.22
-9800.23
-9800.23
-9800.21
-9800.22
-9800.21
-9800.2
-9800.21
-9800.22
-9800.22
-9800.22
-9800.21
-9800.21
-9800.21
-9800.21
-9800.21
-9800.22
-9800.22
-9800.22
-9800.21
)
;
    }
}


// ************************************************************************* //
