/*--------------------------------*- C++ -*----------------------------------*\
| =========                 |                                                 |
| \\      /  F ield         | OpenFOAM: The Open Source CFD Toolbox           |
|  \\    /   O peration     | Version:  v1612+                                |
|   \\  /    A nd           | Web:      www.OpenFOAM.com                      |
|    \\/     M anipulation  |                                                 |
\*---------------------------------------------------------------------------*/
FoamFile
{
    version     2.0;
    format      ascii;
    class       surfaceScalarField;
    location    "8.8";
    object      alphaPhi;
}
// * * * * * * * * * * * * * * * * * * * * * * * * * * * * * * * * * * * * * //

dimensions      [0 3 -1 0 0 0 0];

internalField   nonuniform List<scalar> 
816
(
-2.03961e-06
-1.08642e-05
5.59731e-06
-1.55108e-05
-1.81172e-05
4.09261e-05
6.40434e-06
2.36748e-06
-1.29554e-05
-3.05435e-07
2.45997e-06
-8.86245e-06
1.78066e-07
8.04404e-07
2.37816e-06
-5.35424e-06
-1.18262e-05
3.62387e-06
-1.84686e-06
7.55856e-06
1.02131e-08
-5.81833e-09
1.64415e-06
-1.20492e-09
3.58875e-09
1.15451e-08
-3.19101e-07
4.61201e-09
-2.84125e-09
-2.75134e-10
-1.72127e-07
4.09185e-10
1.42056e-08
1.11339e-09
9.29144e-07
1.04154e-08
-8.77465e-09
5.14412e-09
2.27156e-06
1.03236e-08
-1.00654e-08
-4.92807e-09
1.26889e-06
5.85454e-09
5.73767e-09
-3.16968e-09
1.27544e-06
6.18562e-09
-3.81728e-09
3.12194e-09
5.96249e-07
3.4314e-09
-2.76065e-09
-2.7298e-09
-2.46319e-06
8.17121e-09
4.39066e-09
-1.15331e-09
5.04955e-08
2.63835e-09
-5.24585e-10
-4.92125e-09
1.18179e-11
6.67307e-10
-1.39058e-09
6.28179e-07
-4.26523e-09
-2.68179e-09
2.20154e-05
-1.2326e-06
-3.0615e-05
-3.6356e-07
1.59228e-05
3.51656e-05
-4.09321e-05
2.25946e-05
2.98491e-06
-1.02342e-06
-4.38596e-06
1.28554e-07
3.99079e-05
-7.33886e-06
2.14775e-05
4.5897e-06
-1.53454e-05
1.37751e-05
-1.47883e-05
1.43398e-05
-1.30922e-05
2.37019e-07
-2.36294e-05
1.16482e-05
2.99041e-05
9.97855e-06
-3.02033e-05
1.70663e-05
8.49521e-06
2.87317e-05
-9.35366e-06
-1.04161e-05
3.04902e-06
8.98591e-06
-5.44915e-05
2.2373e-05
4.06653e-05
2.6788e-05
-3.42654e-05
1.55308e-05
-3.59641e-06
-1.84308e-05
6.09375e-05
5.7834e-06
-3.38025e-05
-1.85762e-05
-3.75567e-06
4.7421e-06
-1.19327e-05
2.0447e-06
-1.58693e-05
7.75551e-07
-2.24423e-05
-1.74462e-05
-1.05264e-05
-2.28513e-07
-2.25879e-06
-5.00268e-07
-2.38669e-05
3.33387e-06
9.92054e-06
-4.97258e-06
-6.23507e-06
-6.61116e-06
-1.03916e-05
2.72663e-06
-1.20136e-05
-5.87768e-06
-1.46954e-05
-4.65052e-07
-1.48513e-05
-8.51001e-06
-9.89718e-06
-3.87107e-06
4.13094e-06
-5.44285e-06
-2.48511e-05
-1.46117e-05
-1.94845e-05
-1.56031e-05
-1.62945e-05
-6.98076e-06
6.30635e-06
2.61255e-05
-2.63933e-06
-1.02071e-05
1.55443e-06
-1.52596e-06
-2.00738e-06
-5.72992e-06
3.53881e-06
-7.93155e-06
-5.98103e-06
3.52376e-06
1.10556e-06
-8.5619e-06
1.62044e-06
-4.79586e-06
6.13941e-07
5.2577e-07
2.85876e-07
-6.56557e-06
1.53302e-06
1.89151e-06
-6.73384e-06
7.98091e-07
-6.16489e-07
-5.74036e-06
-1.27123e-05
-7.06413e-06
-3.24631e-06
-2.34995e-07
-8.51736e-07
-1.34184e-05
-5.0328e-07
3.30894e-06
-2.75439e-06
5.21233e-07
-2.76753e-06
-5.29958e-06
-1.78624e-06
1.96007e-06
-4.25224e-06
-8.56469e-06
-3.93274e-06
-3.27022e-07
-5.10229e-06
-5.88689e-06
-4.83731e-06
3.2242e-06
-1.98163e-06
-2.29544e-06
-8.87144e-06
-1.1015e-05
-7.50437e-06
-8.89437e-06
-4.13568e-06
-5.0268e-06
3.20067e-06
-1.37637e-06
7.45904e-06
-8.59458e-08
-1.79776e-06
-4.27963e-06
6.08092e-09
-8.71955e-10
2.17453e-06
-3.7919e-09
1.07593e-08
1.10875e-07
-2.61159e-09
8.12498e-09
4.70984e-11
1.22581e-09
1.03078e-08
2.42898e-06
-8.4608e-10
1.18371e-09
-8.17142e-08
-5.25829e-09
-9.81405e-10
-1.6586e-09
1.37231e-10
7.61935e-11
-4.46182e-09
9.43626e-07
-2.47322e-09
-7.38145e-09
2.35256e-06
-4.05671e-09
-3.58709e-09
6.24555e-05
8.09201e-10
3.55785e-09
-3.57146e-06
-5.00507e-09
-1.92334e-09
-3.04851e-09
6.98185e-11
-3.61529e-09
-6.76999e-09
4.84495e-07
-4.21623e-09
9.23668e-10
1.34904e-06
-2.2663e-10
-1.55035e-10
-1.21906e-06
-1.49264e-09
-1.73521e-11
-2.09465e-07
-7.57591e-09
-7.81027e-09
-4.3102e-09
-2.04434e-06
-6.32321e-09
-8.92919e-09
-3.41363e-06
-3.94443e-09
-9.18408e-09
-5.59019e-07
-2.94261e-09
-2.34428e-09
-9.99873e-08
-2.4944e-09
7.83003e-11
-4.67721e-09
-5.01391e-09
-1.46044e-05
8.68696e-06
6.88123e-07
4.84997e-06
1.4029e-05
-3.16349e-05
-1.90437e-07
1.11609e-05
2.31234e-06
2.04186e-05
1.11807e-05
-5.38007e-06
6.9594e-06
2.02592e-05
6.38248e-05
-4.10223e-05
-3.36802e-05
-2.75516e-06
8.33707e-05
-1.58848e-05
-2.42797e-05
8.01179e-05
-5.00164e-05
-5.21505e-05
0.000103877
-5.41888e-05
-2.99685e-05
-1.09907e-05
-8.32967e-06
3.7621e-05
-1.84196e-05
-3.48573e-05
-2.22283e-05
-2.9218e-06
8.80425e-05
-1.52862e-05
-3.33975e-05
8.53259e-05
-3.57484e-05
1.57272e-05
-5.05061e-05
-4.13064e-06
5.51611e-06
5.45844e-05
-2.47876e-05
3.01406e-05
5.74257e-05
-5.23306e-05
-3.41335e-05
-4.07265e-06
7.14398e-05
-4.2454e-06
-3.51763e-05
6.91626e-05
-3.44759e-05
-2.65667e-05
1.61829e-05
-2.15128e-05
-3.13177e-06
-9.33158e-06
-7.1225e-06
6.72335e-05
-2.22185e-05
-3.50329e-05
8.35846e-06
-5.15767e-06
1.16319e-06
-2.10509e-06
-8.91838e-06
-1.49722e-05
1.17757e-06
-9.53674e-06
2.73512e-06
-1.01731e-05
-6.44848e-06
-2.26632e-06
-6.65947e-06
-1.38995e-05
2.98001e-05
2.16571e-05
1.96856e-05
-5.04611e-07
3.68461e-05
9.35291e-06
1.28551e-05
3.54601e-05
2.63676e-05
3.18807e-05
4.55729e-05
2.89065e-05
1.74011e-05
-4.42357e-06
1.87258e-06
-2.12964e-05
-6.02303e-06
1.4327e-05
1.1942e-05
3.20648e-06
3.85616e-05
1.03282e-05
2.12197e-05
3.71312e-05
2.16234e-05
-4.32638e-06
-2.26386e-05
1.81355e-06
-3.47012e-07
2.50662e-05
1.09264e-05
-1.58198e-05
2.56118e-05
2.80648e-05
1.92253e-05
2.26353e-06
3.08758e-05
2.95353e-06
1.63493e-05
3.11169e-05
1.69906e-05
1.04249e-05
7.65923e-06
1.18323e-05
-3.42964e-08
-4.82389e-06
4.32459e-06
3.01039e-05
1.29777e-05
1.88746e-05
4.51926e-06
-2.69539e-06
1.29832e-06
-2.07795e-06
-5.62003e-06
-4.97228e-06
-7.16503e-07
-6.07069e-06
2.9706e-06
-6.78805e-06
-3.26127e-06
-1.17895e-06
-4.63601e-06
-6.6874e-06
1.02397e-05
1.19742e-05
1.11341e-05
-2.02225e-07
1.35734e-05
3.30112e-06
6.9444e-06
1.16285e-05
1.39093e-05
1.62721e-05
1.51227e-05
1.58417e-05
8.72297e-06
-1.20189e-06
1.02295e-07
-1.08424e-05
5.68044e-07
7.14805e-06
5.74568e-06
3.12384e-06
1.09978e-05
5.00502e-06
1.20223e-05
1.20773e-05
1.10949e-05
-3.25567e-06
-4.88834e-06
7.23178e-07
-5.56756e-07
7.87173e-06
5.5721e-06
-8.66099e-06
7.56436e-06
1.53464e-05
1.0928e-05
1.16804e-06
9.64475e-06
4.31663e-07
8.81739e-06
9.75398e-06
9.52346e-06
5.35219e-06
3.4786e-06
6.32224e-06
-1.03358e-06
-1.31197e-06
1.10965e-06
8.29338e-06
6.71349e-06
1.11538e-05
-1.69924e-06
-3.34776e-06
2.31226e-06
-3.24762e-06
3.03333e-06
-3.55236e-07
-2.74756e-06
-5.129e-06
-2.92666e-07
2.36207e-06
-3.83954e-06
3.54418e-06
-6.68593e-06
2.7751e-06
5.73875e-07
-6.86697e-06
-3.25146e-06
-8.11264e-08
4.14136e-07
-7.65604e-06
1.13549e-07
-2.47022e-06
-1.47989e-06
-4.07009e-06
1.34326e-06
-2.69899e-06
-4.08301e-06
3.54238e-07
-1.32745e-06
-2.43562e-06
5.42189e-07
-2.12222e-06
-2.94961e-06
-4.87331e-06
-4.09332e-06
-6.71516e-07
1.30505e-06
-1.25526e-06
-9.71664e-07
6.78496e-07
9.39311e-07
-9.47085e-08
-8.12366e-07
-4.12529e-06
4.84521e-07
-2.39242e-06
-2.07949e-06
-2.43438e-06
-7.44238e-07
-2.64652e-06
4.89871e-06
5.64129e-06
1.06232e-06
2.29097e-06
4.1246e-06
6.09522e-06
8.79009e-06
6.39965e-06
4.17719e-06
8.10224e-07
-2.92603e-06
3.43389e-06
4.28271e-06
1.81653e-06
2.00765e-06
6.3944e-06
6.18874e-06
6.01547e-07
1.47468e-06
1.13143e-06
4.25417e-06
-3.8002e-06
7.0469e-06
5.38186e-06
1.89492e-07
9.96448e-07
4.15365e-06
5.10082e-06
3.80792e-06
2.62149e-06
8.46215e-07
2.35944e-06
3.65339e-06
4.93528e-06
4.85242e-09
-8.40726e-09
-6.56685e-06
1.03223e-08
-2.22247e-06
1.33837e-08
-1.56451e-06
7.13716e-09
1.70036e-06
6.89261e-09
5.13757e-05
-2.68811e-09
2.68066e-06
4.73396e-09
-1.18227e-05
6.94361e-10
-2.93735e-06
-4.21658e-09
-2.83096e-06
-2.76501e-09
3.99014e-06
-1.01674e-09
5.67925e-07
8.3864e-10
1.04657e-06
5.17485e-10
3.41489e-06
-1.30654e-09
2.65234e-10
-4.61378e-09
-1.75149e-06
-3.622e-09
2.04347e-08
-1.84671e-09
-1.15341e-06
2.79433e-10
3.94112e-07
-2.25168e-09
2.14861e-06
-3.94109e-09
9.64817e-07
1.69193e-09
1.16458e-06
-3.39118e-09
-1.80046e-06
-7.2133e-10
-1.35845e-06
-3.07742e-09
9.38651e-07
-7.28873e-09
-2.87254e-06
-6.83619e-09
8.74352e-07
-7.45511e-09
6.10487e-07
4.05245e-07
1.60738e-05
-3.61445e-05
-9.95818e-06
1.3284e-05
6.9546e-06
3.07621e-05
-2.3638e-05
-1.47935e-06
4.67531e-05
-2.47773e-05
4.43324e-05
-4.11552e-05
-1.57745e-05
3.2766e-05
-8.17491e-05
1.73453e-05
-2.17872e-05
-2.99021e-05
2.70668e-05
-1.24608e-05
-5.4329e-05
1.06874e-05
-7.44646e-05
1.68711e-05
-1.03066e-05
1.52826e-05
-2.23489e-05
-1.1086e-05
3.36929e-05
-6.5808e-06
-2.9231e-05
-2.42676e-06
-2.04828e-05
-4.89209e-07
-4.33752e-05
4.18456e-06
-6.79578e-06
-8.01615e-06
-8.45965e-06
-1.79488e-05
-4.62551e-05
3.78559e-05
-5.17886e-05
1.13924e-05
-1.28813e-05
-6.82317e-06
9.72896e-06
-1.62229e-06
-3.60913e-05
-1.63241e-05
-9.17031e-06
-2.0919e-05
-6.58328e-07
-2.25378e-05
-3.36264e-05
-4.82729e-05
-8.65209e-06
1.62973e-05
-4.54101e-06
-6.21754e-06
2.77216e-06
-1.8827e-05
-1.02301e-05
-4.43746e-06
2.22364e-05
1.38829e-05
1.9565e-05
2.64045e-05
-6.54491e-06
-2.01096e-05
-3.52838e-05
-1.0645e-05
-1.16761e-05
1.15248e-05
1.42625e-05
6.9063e-06
-2.32407e-05
-5.53364e-06
-3.30886e-05
-8.99872e-06
-4.95965e-06
-8.30163e-06
-8.70579e-06
1.04194e-05
1.49349e-05
5.36778e-06
-1.21445e-05
3.42243e-06
-8.09407e-06
1.01431e-06
-1.9376e-05
4.69412e-07
-4.45502e-06
7.56808e-06
-4.63183e-06
9.37664e-06
-1.99538e-05
-1.81002e-05
-2.42146e-05
-5.86492e-06
-6.0941e-06
1.65736e-06
4.98968e-06
-7.48797e-07
-1.6656e-05
5.0245e-06
-3.11303e-06
9.50181e-06
-7.71755e-07
1.08345e-05
-1.61076e-05
-2.14267e-05
-4.75377e-06
8.80684e-06
-1.86681e-06
-3.89585e-06
6.06916e-07
-1.06287e-05
-4.57307e-06
-2.36531e-06
6.9051e-06
8.70085e-06
3.9399e-06
1.39196e-05
3.49458e-07
-1.05834e-05
-1.06053e-05
-6.6849e-06
-4.54054e-06
7.18754e-06
3.57584e-06
4.87458e-06
-7.08555e-06
-4.04076e-06
-8.35549e-06
-6.09355e-06
-2.77719e-06
-5.29805e-06
-2.23255e-06
6.6634e-06
2.80679e-06
4.07894e-06
-4.03314e-06
2.98633e-06
-1.90345e-06
9.96357e-07
-6.22228e-06
2.55682e-07
-2.99678e-06
4.407e-06
-3.23945e-06
5.13881e-06
-5.51474e-06
-1.0195e-05
-8.60844e-06
-3.40808e-06
-1.61097e-06
1.48788e-06
4.14589e-07
-7.04124e-07
-5.06677e-06
2.34995e-06
1.39832e-07
5.25954e-06
-2.45983e-06
5.10785e-06
-4.50948e-06
-7.94293e-06
-3.64631e-06
5.21686e-06
-2.9323e-06
-6.81285e-06
-1.95586e-06
1.16483e-06
6.20184e-06
-4.36827e-06
-3.19051e-06
2.69872e-06
1.69874e-06
-3.41056e-07
-2.38635e-06
-9.81127e-07
1.97356e-06
2.13784e-06
2.20318e-06
2.15277e-06
7.44006e-07
1.88378e-06
3.10419e-06
-5.70966e-06
-1.77858e-06
-3.16317e-07
-2.75963e-07
2.39785e-06
2.31369e-06
3.25027e-06
3.39658e-09
4.11707e-09
-1.9116e-06
-2.03322e-09
8.61742e-07
4.295e-09
-2.22197e-06
4.51945e-07
-6.07711e-06
2.20062e-05
-1.27295e-05
7.61507e-06
)
;

boundaryField
{
    top_fluid_surface
    {
        type            calculated;
        value           nonuniform List<scalar> 
64
(
0
0
0
0
0
0
0
0
0
0
5.09232e-09
0
0
0
4.98018e-09
0
1.24426e-08
1.37878e-08
1.28445e-08
1.32616e-08
0
7.5796e-10
1.30226e-08
1.11497e-08
0
9.15942e-09
1.24639e-08
1.28714e-08
1.0595e-08
2.44552e-09
0
5.44428e-09
0
0
0
5.28158e-09
0
1.18505e-09
0
2.79906e-09
4.61791e-09
0
0
0
0
1.54699e-09
8.48927e-10
0
0
0
3.98377e-10
0
0
0
0
0
1.091e-09
0
0
0
0
0
0
0
)
;
    }
    bottom_fluid_surface
    {
        type            calculated;
        value           uniform 0;
    }
    lateral_surface_1
    {
        type            calculated;
        value           uniform 0;
    }
    lateral_surface_2
    {
        type            calculated;
        value           uniform 0;
    }
    lateral_surface_3
    {
        type            calculated;
        value           uniform 0;
    }
    lateral_surface_4
    {
        type            calculated;
        value           uniform 0;
    }
}


// ************************************************************************* //
