/*--------------------------------*- C++ -*----------------------------------*\
| =========                 |                                                 |
| \\      /  F ield         | OpenFOAM: The Open Source CFD Toolbox           |
|  \\    /   O peration     | Version:  v1612+                                |
|   \\  /    A nd           | Web:      www.OpenFOAM.com                      |
|    \\/     M anipulation  |                                                 |
\*---------------------------------------------------------------------------*/
FoamFile
{
    version     2.0;
    format      ascii;
    class       volScalarField;
    location    "8.8";
    object      p_rgh;
}
// * * * * * * * * * * * * * * * * * * * * * * * * * * * * * * * * * * * * * //

dimensions      [1 -1 -2 0 0 0 0];

internalField   nonuniform List<scalar> 
320
(
-9800.2
-9800.2
-9800.2
-9800.2
-0.0071129
-0.00329906
-0.00325904
-0.00481978
-0.00628675
-0.00146475
-0.00501876
-0.00808651
-0.00582728
-0.00380413
0.00402624
-0.0042819
-9799.75
-9799.75
-9799.77
-9799.75
-9799.75
-9799.78
-9799.76
-9799.74
-9799.74
-9799.78
-9799.92
-9799.78
-9800.2
-9800.21
-9800.21
-9800.21
-9800.21
-9800.21
-9800.2
-9800.2
-9800.2
-9800.19
-9800.19
-9800.2
-9800.2
-9800.2
-9800.2
-9800.21
-9800.2
-9800.21
-9800.21
-9800.21
-9800.21
-9800.21
-9800.2
-9800.2
-9800.2
-9800.2
-9800.2
-9800.2
-0.00759522
-0.0035859
0.00648768
-0.0013135
0.0169498
0.0194783
0.0181081
0.0179717
-0.000244441
0.00106824
0.0180331
0.0137733
-0.00366086
0.0109773
0.0165687
0.0164125
0.0119934
0.00249328
-0.00722461
0.00551574
-9799.73
-9799.76
-9799.88
-9799.76
-9799.97
-9800
-9800
-9800.01
-9799.82
-9799.82
-9800
-9799.99
-9799.77
-9799.95
-9799.98
-9799.98
-9799.95
-9799.89
-9799.76
-9799.92
-9800.2
-9800.21
-9800.2
-9800.21
-9800.2
-9800.2
-9800.19
-9800.19
-9800.21
-9800.22
-9800.2
-9800.18
-9800.19
-9800.19
-9800.19
-9800.19
-9800.19
-9800.19
-9800.2
-9800.19
-9800.2
-9800.21
-9800.21
-9800.21
-9800.2
-9800.2
-9800.2
-9800.2
-9800.21
-9800.21
-9800.2
-9800.2
-9800.2
-9800.2
-9800.19
-9800.19
-9800.2
-9800.2
-9800.2
-9800.2
-9800.2
-9800.2
-9800.2
-9800.2
-9800.2
-9800.2
-9800.21
-9800.21
-9800.21
-9800.21
-9800.2
-9800.2
-9800.2
-9800.2
-9800.2
-9800.2
-9800.2
-9800.21
-9800.21
-9800.21
-9800.21
-9800.2
-9800.2
-9800.2
-9800.21
-9800.21
-9800.21
-9800.2
-9800.2
-9800.2
-9800.2
-9800.2
-9800.2
-9800.2
-9800.2
-9800.21
-0.00244205
-0.00764895
-0.00709537
0.00542231
-0.00068803
0.00212063
-0.00242861
0.00428388
0.0052519
-0.00342251
-0.0046569
-0.000411322
-0.00526173
0.0016369
0.00200381
-0.00517124
-0.0055721
-0.00265894
0.00114969
-0.00633981
-0.00497504
-0.00324043
-0.0104222
-0.00113066
0.00155566
-0.00387646
-0.0045959
-0.0143827
-9799.77
-9799.73
-9799.71
-9799.87
-9799.84
-9799.87
-9799.7
-9799.86
-9799.83
-9799.76
-9799.77
-9799.79
-9799.72
-9799.86
-9799.81
-9799.74
-9799.76
-9799.79
-9799.86
-9799.74
-9799.74
-9799.74
-9799.7
-9799.76
-9799.8
-9799.77
-9799.76
-9799.68
-9800.2
-9800.2
-9800.21
-9800.21
-9800.22
-9800.21
-9800.23
-9800.22
-9800.22
-9800.21
-9800.2
-9800.21
-9800.22
-9800.22
-9800.23
-9800.21
-9800.2
-9800.2
-9800.2
-9800.2
-9800.2
-9800.2
-9800.21
-9800.2
-9800.21
-9800.2
-9800.2
-9800.22
-9800.2
-9800.2
-9800.21
-9800.21
-9800.21
-9800.21
-9800.22
-9800.21
-9800.21
-9800.21
-9800.21
-9800.21
-9800.21
-9800.21
-9800.22
-9800.21
-9800.2
-9800.2
-9800.2
-9800.2
-9800.2
-9800.2
-9800.2
-9800.2
-9800.2
-9800.2
-9800.2
-9800.21
-9800.21
-9800.19
-9800.2
-9800.21
-9800.21
-9800.21
-9800.21
-9800.21
-9800.21
-9800.21
-9800.21
-9800.21
-9800.21
-9800.21
-9800.21
-9800.21
-9800.2
-9800.2
-9800.2
-9800.2
-9800.2
-9800.2
-9800.2
-9800.2
-9800.2
-9800.2
-9800.2
-9800.22
-0.00490442
-0.00783315
-0.0038711
-0.0128621
-9799.75
-9799.73
-9799.76
-9799.7
)
;

boundaryField
{
    top_fluid_surface
    {
        type            totalPressure;
        rho             rho;
        psi             none;
        gamma           1;
        p0              uniform 0;
        value           nonuniform List<scalar> 
64
(
-1.90192e-08
-5.66817e-09
-2.41206e-09
-3.54635e-09
-1.33735e-08
-2.69909e-09
-1.16073e-08
-1.61303e-08
-1.41745e-08
-6.29764e-09
0
-6.5843e-09
-1.34386e-08
-6.22789e-09
0
-1.36837e-09
0
0
0
0
-6.83853e-08
0
0
0
-1.02852e-08
0
0
0
0
0
-1.22746e-08
0
-1.08478e-09
-9.45509e-09
-1.37209e-08
0
-5.77279e-08
0
-7.67382e-09
0
0
-1.58759e-08
-1.75448e-08
-6.54511e-10
-1.32663e-08
0
0
-8.08724e-09
-1.24448e-08
-2.29961e-09
0
-1.69531e-08
-1.57271e-08
-2.4753e-09
-1.77671e-08
-2.73646e-09
0
-3.95165e-09
-9.5312e-09
-6.5535e-08
-1.02368e-08
-1.29915e-08
-1.79915e-09
-3.40588e-08
)
;
    }
    bottom_fluid_surface
    {
        type            fixedFluxPressure;
        gradient        uniform 0;
        value           nonuniform List<scalar> 
64
(
-9800.2
-9800.2
-9800.2
-9800.2
-9800.2
-9800.2
-9800.21
-9800.21
-9800.21
-9800.21
-9800.2
-9800.2
-9800.2
-9800.2
-9800.2
-9800.2
-9800.2
-9800.21
-9800.21
-9800.21
-9800.21
-9800.2
-9800.2
-9800.2
-9800.21
-9800.21
-9800.21
-9800.2
-9800.2
-9800.2
-9800.2
-9800.2
-9800.2
-9800.2
-9800.2
-9800.21
-9800.21
-9800.19
-9800.2
-9800.21
-9800.21
-9800.21
-9800.21
-9800.21
-9800.21
-9800.21
-9800.21
-9800.21
-9800.21
-9800.21
-9800.21
-9800.21
-9800.2
-9800.2
-9800.2
-9800.2
-9800.2
-9800.2
-9800.2
-9800.2
-9800.2
-9800.2
-9800.2
-9800.22
)
;
    }
    lateral_surface_1
    {
        type            fixedFluxPressure;
        gradient        uniform 0;
        value           nonuniform List<scalar> 
40
(
-0.00244205
-0.00764895
-0.00709537
0.00542231
-0.00068803
0.00212063
-0.00242861
-0.0143827
-9799.77
-9799.73
-9799.71
-9799.87
-9799.84
-9799.87
-9799.7
-9799.68
-9800.2
-9800.2
-9800.21
-9800.21
-9800.22
-9800.21
-9800.23
-9800.22
-9800.2
-9800.2
-9800.21
-9800.21
-9800.21
-9800.21
-9800.22
-9800.21
-9800.21
-9800.19
-9800.2
-9800.21
-9800.21
-9800.21
-9800.21
-9800.22
)
;
    }
    lateral_surface_2
    {
        type            fixedFluxPressure;
        gradient        uniform 0;
        value           nonuniform List<scalar> 
40
(
0.0016369
0.00200381
-0.00517124
-0.0055721
-0.00265894
0.00114969
-0.00633981
-0.00497504
-9799.86
-9799.81
-9799.74
-9799.76
-9799.79
-9799.86
-9799.74
-9799.74
-9800.22
-9800.23
-9800.21
-9800.2
-9800.2
-9800.2
-9800.2
-9800.2
-9800.21
-9800.22
-9800.21
-9800.2
-9800.2
-9800.2
-9800.2
-9800.2
-9800.21
-9800.21
-9800.21
-9800.2
-9800.2
-9800.2
-9800.2
-9800.2
)
;
    }
    lateral_surface_3
    {
        type            fixedFluxPressure;
        gradient        uniform 0;
        value           nonuniform List<scalar> 
40
(
-0.00242861
0.00428388
0.0052519
-0.00342251
-0.0046569
-0.000411322
-0.00526173
0.0016369
-9799.7
-9799.86
-9799.83
-9799.76
-9799.77
-9799.79
-9799.72
-9799.86
-9800.23
-9800.22
-9800.22
-9800.21
-9800.2
-9800.21
-9800.22
-9800.22
-9800.22
-9800.21
-9800.21
-9800.21
-9800.21
-9800.21
-9800.21
-9800.21
-9800.21
-9800.21
-9800.21
-9800.21
-9800.21
-9800.21
-9800.21
-9800.21
)
;
    }
    lateral_surface_4
    {
        type            fixedFluxPressure;
        gradient        uniform 0;
        value           nonuniform List<scalar> 
40
(
-0.00497504
-0.00324043
-0.0104222
-0.00113066
0.00155566
-0.00387646
-0.0045959
-0.0143827
-9799.74
-9799.74
-9799.7
-9799.76
-9799.8
-9799.77
-9799.76
-9799.68
-9800.2
-9800.2
-9800.21
-9800.2
-9800.21
-9800.2
-9800.2
-9800.22
-9800.2
-9800.2
-9800.2
-9800.2
-9800.2
-9800.2
-9800.2
-9800.21
-9800.2
-9800.2
-9800.2
-9800.2
-9800.2
-9800.2
-9800.2
-9800.22
)
;
    }
}


// ************************************************************************* //
