/*--------------------------------*- C++ -*----------------------------------*\
| =========                 |                                                 |
| \\      /  F ield         | OpenFOAM: The Open Source CFD Toolbox           |
|  \\    /   O peration     | Version:  v1612+                                |
|   \\  /    A nd           | Web:      www.OpenFOAM.com                      |
|    \\/     M anipulation  |                                                 |
\*---------------------------------------------------------------------------*/
FoamFile
{
    version     2.0;
    format      ascii;
    class       surfaceScalarField;
    location    "8.8";
    object      phi;
}
// * * * * * * * * * * * * * * * * * * * * * * * * * * * * * * * * * * * * * //

dimensions      [0 3 -1 0 0 0 0];

internalField   nonuniform List<scalar> 
816
(
-1.97536e-06
-1.08919e-05
5.6253e-06
-1.55997e-05
-1.81328e-05
4.09528e-05
6.3934e-06
2.36905e-06
-1.29577e-05
-3.29794e-07
2.56934e-06
-8.80943e-06
1.58441e-07
7.39428e-07
2.37618e-06
-5.35063e-06
-1.18388e-05
3.57268e-06
-1.87437e-06
7.68199e-06
0.000475868
-0.000282297
8.08148e-06
-6.19089e-05
0.0001592
0.000567452
-5.84145e-07
0.000218498
-0.000130502
-1.0567e-05
7.83532e-08
2.13178e-05
0.000695268
5.66576e-05
4.4269e-06
0.000523734
-0.000414898
0.000244619
1.06974e-05
0.000525398
-0.000456239
-0.000247674
5.91844e-06
0.000346677
0.00028457
-0.000155625
6.24098e-06
0.000312671
-0.00017115
0.000129447
2.93497e-06
0.000161831
-0.000139872
-0.000125286
-2.90727e-06
0.00038784
0.000199716
-5.98466e-05
5.48116e-07
0.000118174
-1.98367e-05
-0.000223733
-7.54722e-08
3.70698e-05
-5.81771e-05
3.05386e-06
-0.000197021
-0.000125487
2.20676e-05
-1.31536e-06
-3.06298e-05
-3.43236e-07
1.58989e-05
3.52677e-05
-4.10157e-05
2.27771e-05
2.85352e-06
-1.04767e-06
-4.34333e-06
2.7374e-07
4.01842e-05
-7.33155e-06
2.14309e-05
4.69826e-06
-1.53933e-05
1.38421e-05
-1.48406e-05
1.44444e-05
-1.31956e-05
5.40276e-08
-2.36316e-05
1.16084e-05
3.00152e-05
9.94953e-06
-3.02256e-05
1.7114e-05
8.42141e-06
2.87518e-05
-9.39313e-06
-1.04297e-05
3.0572e-06
8.93209e-06
-5.44796e-05
2.25255e-05
4.07916e-05
2.6761e-05
-3.411e-05
1.56288e-05
-3.63558e-06
-1.83831e-05
6.12997e-05
5.94814e-06
-3.37724e-05
-1.8512e-05
-3.76368e-06
4.72153e-06
-1.19043e-05
2.00479e-06
-1.58546e-05
8.20428e-07
-2.24462e-05
-1.74857e-05
-1.05115e-05
-2.42532e-07
-2.24831e-06
-4.70858e-07
-2.38524e-05
3.325e-06
9.90416e-06
-5.00008e-06
-6.25802e-06
-6.5985e-06
-1.0429e-05
2.68249e-06
-1.20097e-05
-5.83231e-06
-1.47162e-05
-4.92554e-07
-1.48476e-05
-8.57884e-06
-9.95199e-06
-3.87483e-06
4.11465e-06
-5.46988e-06
-2.48698e-05
-1.46159e-05
-1.94973e-05
-1.56155e-05
-1.62233e-05
-6.97909e-06
6.38148e-06
2.62322e-05
-2.60825e-06
-1.0155e-05
1.60917e-06
-1.51033e-06
-1.97867e-06
-5.73957e-06
3.55068e-06
-7.97279e-06
-5.98149e-06
3.51423e-06
1.11039e-06
-8.54416e-06
1.61422e-06
-4.77526e-06
6.04367e-07
4.88003e-07
2.91167e-07
-6.56889e-06
1.50911e-06
1.88946e-06
-6.70913e-06
7.69061e-07
-5.72121e-07
-5.74e-06
-1.27081e-05
-7.0422e-06
-3.26393e-06
-2.45294e-07
-8.44465e-07
-1.3412e-05
-5.08273e-07
3.29161e-06
-2.75598e-06
5.16461e-07
-2.77508e-06
-5.3047e-06
-1.77843e-06
1.9273e-06
-4.22221e-06
-8.56872e-06
-3.93289e-06
-3.41927e-07
-5.12937e-06
-5.88252e-06
-4.859e-06
3.2139e-06
-1.98057e-06
-2.30472e-06
-8.88482e-06
-1.10287e-05
-7.50878e-06
-8.89656e-06
-4.1395e-06
-5.00014e-06
3.22068e-06
-1.37687e-06
7.49546e-06
-7.01878e-08
-1.79923e-06
-4.24751e-06
0.000279253
-4.92511e-05
9.33045e-06
-0.000187193
0.000517346
9.42577e-07
-0.00012441
0.000445284
3.20613e-06
6.75848e-05
0.000512735
1.0205e-05
-2.34266e-05
7.35884e-05
6.10281e-07
-0.000264197
-5.73207e-05
-9.8594e-05
1.2022e-05
5.90869e-06
-0.000276805
4.49688e-06
-0.000115185
-0.00035521
1.13992e-05
-0.000196835
-0.00023176
0.000270505
2.42751e-06
0.000181175
-4.13927e-06
-0.000229071
-9.66389e-05
-0.000182823
5.89099e-06
-0.000174947
-0.000331559
2.72223e-06
-0.000204996
3.56546e-05
6.6564e-06
-1.11875e-05
-1.42012e-05
-1.10305e-06
-6.52474e-05
-7.33026e-06
-3.03167e-07
-0.000344489
-0.000372234
-0.000249511
-2.46975e-06
-0.000277266
-0.000463494
-3.95459e-06
-0.00018156
-0.000417589
-4.62969e-07
-0.000144419
-0.000122106
4.03168e-07
-0.000116197
6.22911e-06
-0.000230265
-0.000237633
-1.45896e-05
8.69643e-06
5.87808e-07
4.7672e-06
1.41848e-05
-3.15828e-05
-1.39807e-07
1.12252e-05
2.29964e-06
2.04841e-05
1.12535e-05
-5.46015e-06
7.08492e-06
2.03017e-05
6.39633e-05
-4.10183e-05
-3.36262e-05
-2.82419e-06
8.35126e-05
-1.56961e-05
-2.43003e-05
8.03343e-05
-5.00436e-05
-5.22051e-05
0.000104112
-5.43098e-05
-2.97967e-05
-1.08917e-05
-8.24628e-06
3.76256e-05
-1.85754e-05
-3.48964e-05
-2.20589e-05
-3.10314e-06
8.82655e-05
-1.53473e-05
-3.34558e-05
8.5672e-05
-3.58392e-05
1.58088e-05
-5.05074e-05
-4.18116e-06
5.57624e-06
5.47727e-05
-2.45899e-05
3.01935e-05
5.76394e-05
-5.24955e-05
-3.4223e-05
-4.15409e-06
7.16531e-05
-4.34358e-06
-3.52702e-05
6.93979e-05
-3.43967e-05
-2.66744e-05
1.63484e-05
-2.11182e-05
-3.09209e-06
-9.27471e-06
-7.04572e-06
6.74155e-05
-2.23501e-05
-3.51181e-05
8.4068e-06
-5.19874e-06
1.1517e-06
-2.14133e-06
-8.91217e-06
-1.49714e-05
1.227e-06
-9.51282e-06
2.71731e-06
-1.01321e-05
-6.44216e-06
-2.32518e-06
-6.62008e-06
-1.39487e-05
2.98186e-05
2.17218e-05
1.97368e-05
-5.36237e-07
3.69193e-05
9.46462e-06
1.28885e-05
3.55639e-05
2.64128e-05
3.19994e-05
4.56817e-05
2.89344e-05
1.74817e-05
-4.50671e-06
1.87195e-06
-2.14454e-05
-6.12944e-06
1.44049e-05
1.20201e-05
3.12548e-06
3.86746e-05
1.03741e-05
2.12372e-05
3.72658e-05
2.16504e-05
-4.33884e-06
-2.2615e-05
1.81923e-06
-3.29932e-07
2.5147e-05
1.09888e-05
-1.58426e-05
2.56915e-05
2.81344e-05
1.93098e-05
2.2551e-06
3.09554e-05
3.02363e-06
1.63884e-05
3.12007e-05
1.70742e-05
1.04646e-05
7.72942e-06
1.19611e-05
-2.09186e-08
-4.78909e-06
4.36155e-06
3.02247e-05
1.29911e-05
1.88921e-05
4.57616e-06
-2.71213e-06
1.31953e-06
-2.14388e-06
-5.61434e-06
-4.9832e-06
-7.01693e-07
-6.06931e-06
2.96594e-06
-6.75628e-06
-3.25718e-06
-1.18995e-06
-4.63941e-06
-6.69985e-06
1.0251e-05
1.19965e-05
1.11772e-05
-2.1982e-07
1.35847e-05
3.3496e-06
6.95479e-06
1.16568e-05
1.39447e-05
1.63295e-05
1.5158e-05
1.58685e-05
8.76645e-06
-1.23027e-06
1.03941e-07
-1.09293e-05
5.26229e-07
7.15356e-06
5.78063e-06
3.07067e-06
1.10385e-05
5.02977e-06
1.20239e-05
1.21255e-05
1.11123e-05
-3.26548e-06
-4.87618e-06
7.23605e-07
-5.65745e-07
7.90579e-06
5.58022e-06
-8.67333e-06
7.60873e-06
1.54096e-05
1.0943e-05
1.18064e-06
9.65839e-06
4.71022e-07
8.83217e-06
9.77572e-06
9.55852e-06
5.36892e-06
3.50696e-06
6.37693e-06
-1.01234e-06
-1.29059e-06
1.11227e-06
8.35538e-06
6.72672e-06
1.11418e-05
-1.67918e-06
-3.36164e-06
2.32112e-06
-3.26375e-06
3.03455e-06
-3.55442e-07
-2.73161e-06
-5.10437e-06
-3.03296e-07
2.33975e-06
-3.83214e-06
3.52833e-06
-6.67955e-06
2.77553e-06
6.05819e-07
-6.85353e-06
-3.22027e-06
-8.74837e-08
4.33485e-07
-7.65004e-06
1.10168e-07
-2.46724e-06
-1.48352e-06
-4.06916e-06
1.31377e-06
-2.68838e-06
-4.07702e-06
3.33309e-07
-1.34001e-06
-2.45209e-06
5.33872e-07
-2.12207e-06
-2.94954e-06
-4.89644e-06
-4.07882e-06
-6.76812e-07
1.32552e-06
-1.26488e-06
-9.59416e-07
6.71106e-07
9.53886e-07
-9.95417e-08
-8.9992e-07
-4.11628e-06
4.4662e-07
-2.38534e-06
-2.07284e-06
-2.43374e-06
-7.30514e-07
-2.66461e-06
4.93974e-06
5.66116e-06
1.05936e-06
2.32193e-06
4.12992e-06
6.11688e-06
8.81135e-06
6.42356e-06
4.20112e-06
8.25753e-07
-2.95416e-06
3.43192e-06
4.31129e-06
1.77074e-06
2.01833e-06
6.37782e-06
6.19811e-06
6.02817e-07
1.47051e-06
1.12533e-06
4.24795e-06
-3.82897e-06
7.09681e-06
5.37272e-06
2.06792e-07
1.01017e-06
4.16919e-06
5.1154e-06
3.82961e-06
2.64918e-06
8.79453e-07
2.35613e-06
3.65679e-06
4.8831e-06
0.000218906
-0.000355252
-8.10419e-06
0.000477591
-2.12098e-06
0.000638971
-1.56525e-06
0.0004051
6.16646e-06
0.000337686
0.000308291
-0.000156306
1.64761e-05
0.000248483
-1.3196e-05
4.7912e-05
-3.64861e-06
-0.00019801
-3.80366e-06
-0.000136843
1.90952e-05
-4.99779e-05
3.23357e-06
4.68322e-05
4.82479e-06
2.18689e-05
1.59019e-05
-7.33156e-05
1.96592e-05
-0.000230058
-2.72117e-06
-0.000180134
3.12966e-08
-8.90717e-05
-1.11718e-06
1.16966e-05
2.33838e-06
-0.000109484
1.01928e-05
-0.00018766
5.08107e-06
7.22615e-05
5.54105e-06
-0.000151968
-2.04991e-06
-3.017e-05
-1.59224e-06
-0.000155809
4.10958e-06
-0.000345545
-3.79523e-06
-0.000329672
3.45944e-06
-0.000321986
1.74258e-06
5.98448e-07
1.61623e-05
-3.6027e-05
-9.88256e-06
1.34118e-05
6.93739e-06
3.09055e-05
-2.37096e-05
-1.46516e-06
4.67595e-05
-2.48114e-05
4.4265e-05
-4.11542e-05
-1.58345e-05
3.28423e-05
-8.20131e-05
1.73453e-05
-2.18151e-05
-3.01178e-05
2.68242e-05
-1.26653e-05
-5.443e-05
1.07997e-05
-7.43738e-05
1.70205e-05
-1.02944e-05
1.53975e-05
-2.26025e-05
-1.10906e-05
3.36586e-05
-6.83796e-06
-2.95589e-05
-2.64021e-06
-2.05865e-05
-4.40536e-07
-4.33022e-05
4.43706e-06
-6.71222e-06
-8.3044e-06
-8.57318e-06
-1.78954e-05
-4.62781e-05
3.78213e-05
-5.18919e-05
1.13752e-05
-1.29782e-05
-6.67941e-06
9.66063e-06
-1.53517e-06
-3.61954e-05
-1.65443e-05
-9.46874e-06
-2.10841e-05
-6.45234e-07
-2.25073e-05
-3.35579e-05
-4.84017e-05
-8.67151e-06
1.64297e-05
-4.52964e-06
-6.12129e-06
2.74047e-06
-1.88276e-05
-1.02959e-05
-4.40014e-06
2.22287e-05
1.38837e-05
1.95656e-05
2.64834e-05
-6.56214e-06
-2.01493e-05
-3.54397e-05
-1.06714e-05
-1.17192e-05
1.14485e-05
1.41653e-05
6.84377e-06
-2.32427e-05
-5.48386e-06
-3.30627e-05
-8.92714e-06
-4.95671e-06
-8.27719e-06
-8.80251e-06
1.0417e-05
1.4923e-05
5.24955e-06
-1.22527e-05
3.32396e-06
-8.13879e-06
9.8827e-07
-1.93673e-05
4.98133e-07
-4.41452e-06
7.53469e-06
-4.63198e-06
9.40423e-06
-1.99688e-05
-1.80942e-05
-2.42463e-05
-5.85493e-06
-6.18128e-06
1.66602e-06
4.93284e-06
-7.32369e-07
-1.66622e-05
4.97478e-06
-3.24278e-06
9.50307e-06
-7.6344e-07
1.09168e-05
-1.61155e-05
-2.14237e-05
-4.83637e-06
8.88587e-06
-1.84502e-06
-3.77171e-06
5.80864e-07
-1.06077e-05
-4.64496e-06
-2.38815e-06
6.86082e-06
8.70787e-06
3.94387e-06
1.3963e-05
3.70082e-07
-1.0588e-05
-1.06433e-05
-6.68632e-06
-4.57629e-06
7.14816e-06
3.52663e-06
4.85102e-06
-7.09339e-06
-4.03308e-06
-8.34461e-06
-6.07106e-06
-2.77774e-06
-5.27109e-06
-2.28121e-06
6.67457e-06
2.75498e-06
4.00413e-06
-4.08844e-06
2.92702e-06
-1.90734e-06
9.73274e-07
-6.20975e-06
2.58526e-07
-2.99683e-06
4.41679e-06
-3.23898e-06
5.10807e-06
-5.4939e-06
-1.01981e-05
-8.56425e-06
-3.37284e-06
-1.61088e-06
1.49788e-06
3.89499e-07
-7.02827e-07
-5.0806e-06
2.31676e-06
1.12903e-07
5.27219e-06
-2.45578e-06
5.20271e-06
-4.51458e-06
-7.93178e-06
-3.7804e-06
5.28781e-06
-2.8629e-06
-6.75767e-06
-1.93192e-06
1.17893e-06
6.20795e-06
-4.387e-06
-3.1958e-06
2.68457e-06
1.69423e-06
-3.41329e-07
-2.39611e-06
-9.64762e-07
1.99312e-06
2.10039e-06
2.15556e-06
2.11966e-06
7.4786e-07
1.92123e-06
3.09502e-06
-5.75301e-06
-1.77251e-06
-2.97448e-07
-2.56591e-07
2.38562e-06
2.31686e-06
3.35903e-06
0.000173795
0.000194396
-2.3436e-06
-8.8678e-05
4.14735e-06
0.000220156
-2.6591e-06
2.25228e-06
-6.05297e-06
2.19847e-05
-1.28067e-05
7.65595e-06
)
;

boundaryField
{
    top_fluid_surface
    {
        type            calculated;
        value           nonuniform List<scalar> 
64
(
-0.000332398
-0.000170573
-0.000132626
-0.000178399
-0.000284862
-0.000101383
-0.000249602
-0.000337127
-0.000278592
-0.000183849
0.000247144
-0.000197965
-0.000310751
-0.000179379
0.000260776
-7.53739e-05
0.000757531
0.000869374
0.000806102
0.000829187
-0.000308261
3.64171e-05
0.000808774
0.000651262
-0.000213654
0.000507489
0.000731155
0.000747457
0.000578975
0.000121312
-0.000298201
0.000284441
-9.56638e-05
-0.000287213
-0.000301993
0.000270752
-0.000208547
5.35857e-05
-0.000173682
0.000148022
0.00024807
-0.000241432
-0.000277487
-4.4009e-05
-0.000263304
7.58559e-05
4.55995e-05
-0.000227952
-0.000264392
-0.000119054
1.67325e-05
-0.000302931
-0.000273738
-0.000132229
-0.00039103
-9.61844e-05
5.75672e-05
-0.000164973
-0.000228784
-0.000649633
-0.000237067
-0.000313748
-0.000133192
-0.000512064
)
;
    }
    bottom_fluid_surface
    {
        type            calculated;
        value           uniform 0;
    }
    lateral_surface_1
    {
        type            calculated;
        value           uniform 0;
    }
    lateral_surface_2
    {
        type            calculated;
        value           uniform 0;
    }
    lateral_surface_3
    {
        type            calculated;
        value           uniform 0;
    }
    lateral_surface_4
    {
        type            calculated;
        value           uniform 0;
    }
}


// ************************************************************************* //
