/*--------------------------------*- C++ -*----------------------------------*\
| =========                 |                                                 |
| \\      /  F ield         | OpenFOAM: The Open Source CFD Toolbox           |
|  \\    /   O peration     | Version:  v1612+                                |
|   \\  /    A nd           | Web:      www.OpenFOAM.com                      |
|    \\/     M anipulation  |                                                 |
\*---------------------------------------------------------------------------*/
FoamFile
{
    version     2.0;
    format      ascii;
    class       volScalarField;
    location    "6.4";
    object      p_rgh;
}
// * * * * * * * * * * * * * * * * * * * * * * * * * * * * * * * * * * * * * //

dimensions      [1 -1 -2 0 0 0 0];

internalField   nonuniform List<scalar> 
1116
(
21249.9
21250
21249.9
21250
21250
21249.9
21036.9
21037.1
21037
21036.9
21037
21037
18615.9
18615.7
18615.8
18615.9
18615.9
18615.9
15668.5
15668.2
15668.4
15668.5
15668.5
15668.5
13526.2
13526.2
13526.2
13526.4
13526.4
13526.3
12160.7
12161
12160.8
12161.2
12161.1
12160.8
11291.7
11292.8
11292.4
11292.4
11291.8
11292.8
10853.2
10854.1
10854.1
10854
10854.6
10853.4
11038
11037.8
11037.7
11038.6
11040.4
11036.3
11623.7
11629.8
11627.3
11626
11619.9
11633.6
12324
12316
12320.1
12320.7
12328.9
12308.6
11744.9
11730.7
11737.6
11743.5
11753.2
11720.5
23039.1
23038.3
23038.6
23038.8
23038.6
23038.8
21177.6
21178
21177.7
21177.6
21177.8
21177.6
17061.5
17059
17059.8
17060.9
17060.7
17060.4
9590.15
9586.72
9587.77
9589.31
9588.33
9589.23
6286.16
6285.01
6285.55
6285.9
6285.36
6286.62
4770.93
4773.86
4773.4
4771.46
4770.98
4773.87
3863.25
3865.49
3865.63
3863.43
3863.21
3865.5
3282.94
3284.6
3284.19
3283.4
3285.39
3283.51
4063.03
4064.81
4062.5
4064.2
4058.74
4069.54
5770.3
5792.16
5781.25
5779.24
5752.04
5805.94
6560.79
6484.36
6508.13
6549.09
6614.99
6439.89
4668.83
4602.17
4622.22
4662.94
4712.83
4590.67
22654.7
22654.1
22654.2
22654.2
22654.1
22654.3
8898.33
8895.79
8897.47
8897.39
8896.89
8898.14
1397.37
1395.21
1396.03
1396.52
1395.73
1396.97
11.7184
12.1678
12.0251
11.9029
11.9254
11.9434
-22.961
-23.4401
-23.236
-23.1007
-23.0089
-23.1852
-45.1015
-45.3311
-45.1508
-45.2089
-45.1198
-45.1513
40.7236
40.2534
40.3873
40.753
41.2912
40.0283
193.125
192.893
192.933
193.258
193.803
192.878
370.934
373.311
371.583
372.394
374.121
371.259
822.978
835.202
828.215
828.566
821.928
837.402
1416.89
1408.01
1407.31
1414.62
1406.1
1407.04
1110.34
1108.03
1109.44
1108.19
1110.39
1107.69
23735.1
23750
23744.7
23742
23745.8
23740.5
-37.4289
-37.554
-37.5107
-37.4679
-37.4529
-37.5105
-6.67297
-6.63737
-6.68022
-6.65806
-6.6647
-6.67848
-10.5762
-10.392
-10.454
-10.4804
-10.4945
-10.4371
-21.5137
-21.8796
-21.6551
-21.6361
-21.5579
-21.5967
-75.9149
-76.6887
-76.1946
-76.1844
-76.0096
-76.0757
-31.6826
-31.9034
-31.8034
-31.8064
-31.6176
-32.0253
75.2109
74.3453
74.24
75.0068
76.0983
73.7929
519.401
508.714
508.991
516.944
527.833
501.281
787.715
789.761
791.374
789.032
786.564
790.071
761.666
760.169
767.757
754.12
761.959
762.065
812.349
807.503
808.541
811.202
814.945
809.079
3299.74
3558.95
3348.27
3498.8
3541.73
3364.42
2438.62
2536.5
2498.51
2604.78
2571.99
2511.74
1459.56
1708.95
1588.49
1717.62
1850.48
1701.59
1114.6
1147.36
1185.17
1192
1270.34
1392.62
859.443
674.966
780.069
709.974
836.486
984.856
685.378
436.513
519.706
501.093
718.744
873.96
688.715
714.589
775.735
731.392
771.782
869.168
815.611
844.001
855.674
856.627
862.873
862.377
869.132
852.872
873.244
926.007
951.655
886.625
1195.85
1045.68
1135.86
1283.05
1322.44
1105.94
1515.45
1541.52
1750.42
1633.81
1658.8
1453.04
1439.1
1448.59
1548.17
1529.7
1730.68
1517.87
2701.56
2827.03
2828.31
2527.92
2458.5
2806.65
591.756
387.217
631.915
465.113
482.14
1063.81
120.58
102.059
88.0478
140.04
173.291
150.909
13.7221
10.5176
2.73388
4.13436
20.1189
46.1546
-9.9032
-0.442173
-4.59416
-7.59346
-11.5511
-11.2323
-17.5647
-11.0139
-5.20943
-8.82852
-11.8684
-11.9277
-13.5844
-19.6362
-12.6066
-15.1345
-8.88657
-4.63932
4.95446
5.57639
2.66746
0.489256
1.89845
2.62389
15.684
15.1157
14.9448
15.6881
46.6711
26.2075
216.607
68.8012
107.795
235.539
267.063
217.654
695.289
641.116
776.534
1112.37
957.122
1081.71
1516.56
1888.51
1790.19
1868.31
1671.35
1872.66
2309.4
2509.13
2493.58
2194.77
1862.92
2623.39
42.7119
36.3926
46.2288
32.9402
24.2363
343.618
14.778
16.1722
14.5767
14.1943
15.0919
14.1327
10.5782
12.6931
9.6368
10.8253
10.1108
8.11243
17.3847
18.7248
20.1501
18.9548
16.611
15.7514
-1.59903
-0.819521
0.156333
0.611291
-0.728721
-0.385966
2.09791
3.18319
3.16833
1.83261
0.0931547
2.19274
3.02973
5.2528
3.02599
-1.05529
-2.14434
-0.736704
-0.707211
0.454045
-0.854935
-3.26086
0.193602
0.153247
2.19193
2.01622
2.14348
2.02031
4.61393
4.89429
145.445
66.6633
25.1902
32.7335
112.897
37.5917
1779.57
1767.24
1677.94
1740.92
297.39
1879.85
2874.29
2411.24
2817.91
2780.2
2088.64
3190.08
10.2683
11.8236
9.88329
3.39049
2.11728
84.2454
21.4613
20.8153
23.3889
20.1316
18.8521
18.9676
1.87837
1.63069
0.87083
0.157948
-0.250812
-1.76776
4.8392
5.06926
5.02522
4.33934
3.70588
3.05299
-4.02343
-4.49844
-4.57128
-2.72352
-2.06327
-2.22457
2.67707
2.54326
2.70609
1.5114
1.579
2.12444
3.02914
3.17615
1.98799
1.26621
1.82916
1.67096
0.836783
0.693047
0.0205193
0.901009
2.79192
3.38182
-5.21094
-5.07069
-5.24314
-1.6363
1.80387
-0.740975
-3.93985
-3.97624
-6.71415
30.3885
322.945
16.1985
775.989
142.159
-90.4836
139.73
1145.65
623.647
22680.9
22674.1
22675
22676.2
22676.1
22677.8
3768.2
3744.48
3751.1
3754.99
3750.77
3758.66
11.4629
9.82109
10.4493
10.7171
10.2717
10.8713
242.662
243.759
243.527
243.204
243.459
243.254
320.994
319.912
320.447
320.55
320.272
320.756
8.49395
6.77542
7.40778
7.70233
7.24733
7.86515
-27.9339
-27.853
-27.9153
-27.9058
-27.9292
-27.9114
-12.9063
-12.7768
-12.8479
-12.8596
-12.8735
-12.8487
1.12179
0.987136
1.01932
1.04805
1.04577
1.05272
-19.7997
-19.7288
-19.7853
-19.7171
-19.7426
-19.7497
-3.17699
-2.79336
-2.99458
-2.9621
-2.98871
-3.00408
-1.63247
-1.25812
-1.42206
-1.45499
-1.48063
-1.46894
-20.3222
-20.7235
-20.4999
-20.4788
-20.4278
-20.4637
-0.0318817
0.160058
0.140604
0.187374
0.23706
0.123575
7.73396
8.00056
7.81785
7.85641
7.88315
7.76148
-41.2089
-41.2658
-41.2117
-41.4014
-41.3373
-41.4626
-9.35469
-9.94616
-9.64961
-9.51269
-9.28131
-9.82592
10.5924
12.6084
11.5272
11.2439
11.5041
11.3106
-24.3391
-25.4875
-25.4185
-24.6427
-23.5727
-26.6793
29.8384
27.1945
27.0709
29.0934
31.286
25.1343
25.9074
27.7522
27.4383
28.0327
28.6242
26.0772
77.8381
75.911
76.1779
77.2073
77.2669
74.7803
61.8113
58.4896
59.0339
61.2551
62.2063
57.6946
-14.1144
-14.5467
-14.3373
-14.8227
-15.128
-13.264
95.0999
93.7408
94.7771
93.9319
91.4933
96.852
-23.2355
-23.1776
-23.2118
-23.089
-23.2359
-23.0789
-34.7469
-34.8559
-34.8856
-34.6131
-34.7345
-34.7056
0.840398
0.801688
0.808183
0.852556
0.847533
0.8143
-10.1745
-10.1838
-10.2112
-10.0995
-10.1188
-10.1948
-15.1364
-15.1555
-15.1734
-15.1089
-15.151
-15.1346
10.4994
10.5517
10.5581
10.4849
10.5306
10.5453
-1.87335
-1.8727
-1.87527
-1.86999
-1.87071
-1.87039
-9.40744
-9.39637
-9.39976
-9.39745
-9.40911
-9.38238
839.568
831.125
834.974
831.539
837.054
828.167
0.835662
0.835541
0.833453
0.850507
0.854363
0.841626
-12.7187
-12.7078
-12.7157
-12.6999
-12.7085
-12.6997
3561.6
3598.68
3656.02
3656.87
3672.51
3595.56
5.14888
5.29762
5.44957
5.45926
5.55174
5.31655
-8.10977
-8.18292
-8.34648
-8.41068
-8.35729
-8.33384
4046.71
4039.45
4034.99
4040.61
4040.19
4040.78
2.8698
2.87513
2.87445
2.85722
2.8193
2.87478
-6.21987
-6.26078
-6.30866
-6.30747
-6.29526
-6.30935
4074.23
4068.42
4066.27
4067.41
4066.07
4068.79
3.31171
3.34615
3.38912
3.4278
3.46461
3.44911
-5.54809
-5.55712
-5.56644
-5.56832
-5.55692
-5.58182
4082.94
4083.39
4083.49
4081.77
4083.35
4085.89
2.90212
2.89959
2.89497
2.88747
2.88293
2.88056
-5.69041
-5.69711
-5.70483
-5.71073
-5.71436
-5.71927
4062.67
4063.09
4063.26
4060.81
4062.02
4065.65
2.99894
2.99794
2.9964
2.996
2.99446
2.99237
-7.11055
-7.117
-7.12093
-7.1288
-7.13335
-7.1325
3761.96
3757.62
3758.01
3751.93
3751.85
3758.42
3.8538
3.86354
3.86687
3.87477
3.87807
3.87419
-10.9041
-10.9113
-10.9129
-10.912
-10.913
-10.9183
3387.53
786.928
1363.24
2317.85
1203.95
3459.74
1475.74
266.828
279.585
41.0831
-3.10442
1887.64
3.1913
258.21
80.66
-7.87783
-6.7247
225.005
28.0664
17.2448
15.2549
13.9602
8.92237
154.893
20.5429
15.0755
12.5425
11.107
7.99952
139.913
2.99702
0.965466
-1.0341
-1.21379
-3.10779
17.4093
20.7634
20.6067
21.3222
20.9172
21.2915
19.187
17.2013
16.0457
14.7379
14.4812
13.9961
13.4545
3.83038
2.02307
1.09797
1.83028
1.83463
3.13949
7.33185
7.00625
6.48995
6.05486
5.72948
5.77729
3.8061
3.40571
2.95834
2.48932
2.14631
2.38048
0.835074
0.693493
0.221633
-0.435165
-0.871083
-1.23861
9.52576
9.59907
9.56497
9.48401
9.28767
9.23335
3.75773
3.68067
3.54323
3.50428
3.38793
3.4122
2.05866
2.00292
1.94799
1.95604
1.90385
1.93612
4.26554
4.44905
4.3992
4.45957
4.49058
4.79256
1.16964
1.16971
1.08825
1.03731
0.993236
1.07277
1.58938
1.58488
1.54458
1.47687
1.43517
1.43415
5.68137
5.81838
6.04617
6.11421
6.13914
6.042
2.32902
2.48628
2.32638
1.9425
1.87541
2.18652
2.3122
2.31673
2.3239
2.31459
2.29854
2.30071
7.03287
7.05775
6.97942
6.59351
5.72191
5.78409
1.9396
2.07573
2.2226
1.47186
1.20037
1.17451
2.38566
2.36923
2.35447
2.26892
2.16976
2.15272
8.06686
8.17727
7.99926
6.95939
6.21561
5.87975
0.564154
0.549422
0.513856
0.538591
0.564467
0.58867
2.23961
2.21811
2.21812
2.07429
1.9815
1.92943
10.8147
11.0514
10.828
10.646
10.0673
10.0153
-0.819433
-0.820655
-0.889316
-0.628252
-0.710046
-0.460839
2.19483
2.17178
2.20396
2.08706
2.02625
2.01157
8.86129
8.41211
7.0159
5.92083
5.22095
6.09584
-0.47398
-0.506448
-0.708533
-0.662239
-1.5829
-0.605911
-0.39409
-0.443317
-0.38305
-0.4942
-0.33095
-0.53576
382.383
510.047
703.571
590.606
847.126
422.582
0.513394
0.480321
0.261098
0.790186
0.766615
0.961392
-6.2093
-6.57589
-7.27002
-7.09004
-7.41079
-6.55561
)
;

boundaryField
{
    seabed_topleft_surface
    {
        type            fixedFluxPressure;
        gradient        uniform 0;
        value           nonuniform List<scalar> 
72
(
21249.9
21250
21249.9
21250
21250
21249.9
21036.9
21037.1
21037
21036.9
21037
21037
18615.9
18615.7
18615.8
18615.9
18615.9
18615.9
15668.5
15668.2
15668.4
15668.5
15668.5
15668.5
13526.2
13526.2
13526.2
13526.4
13526.4
13526.3
12160.7
12161
12160.8
12161.2
12161.1
12160.8
11291.7
11292.8
11292.4
11292.4
11291.8
11292.8
10853.2
10854.1
10854.1
10854
10854.6
10853.4
11038
11037.8
11037.7
11038.6
11040.4
11036.3
11623.7
11629.8
11627.3
11626
11619.9
11633.6
12324
12316
12320.1
12320.7
12328.9
12308.6
11744.9
11730.7
11737.6
11743.5
11753.2
11720.5
)
;
    }
    seabed_topright_surface
    {
        type            fixedFluxPressure;
        gradient        uniform 0;
        value           nonuniform List<scalar> 
72
(
3299.74
3558.95
3348.27
3498.8
3541.73
3364.42
2438.62
2536.5
2498.51
2604.78
2571.99
2511.74
1459.56
1708.95
1588.49
1717.62
1850.48
1701.59
1114.6
1147.36
1185.17
1192
1270.34
1392.62
859.443
674.966
780.069
709.974
836.486
984.856
685.378
436.513
519.706
501.093
718.744
873.96
688.715
714.589
775.735
731.392
771.782
869.168
815.611
844.001
855.674
856.627
862.873
862.377
869.132
852.872
873.244
926.007
951.655
886.625
1195.85
1045.68
1135.86
1283.05
1322.44
1105.94
1515.45
1541.52
1750.42
1633.81
1658.8
1453.04
1439.1
1448.59
1548.17
1529.7
1730.68
1517.87
)
;
    }
    breakwater_top_surface
    {
        type            fixedFluxPressure;
        gradient        uniform 0;
        value           nonuniform List<scalar> 
36
(
3561.6
3598.68
3656.02
3656.87
3672.51
3595.56
4046.71
4039.45
4034.99
4040.61
4040.19
4040.78
4074.23
4068.42
4066.27
4067.41
4066.07
4068.79
4082.94
4083.39
4083.49
4081.77
4083.35
4085.89
4062.67
4063.09
4063.26
4060.81
4062.02
4065.65
3761.96
3757.62
3758.01
3751.93
3751.85
3758.42
)
;
    }
    breakwater_left_surface
    {
        type            fixedFluxPressure;
        gradient        uniform 0;
        value           nonuniform List<scalar> 
24
(
11744.9
11730.7
11737.6
11743.5
11753.2
11720.5
4668.83
4602.17
4622.22
4662.94
4712.83
4590.67
1110.34
1108.03
1109.44
1108.19
1110.39
1107.69
812.349
807.503
808.541
811.202
814.945
809.079
)
;
    }
    breakwater_right_surface
    {
        type            fixedFluxPressure;
        gradient        uniform 0;
        value           nonuniform List<scalar> 
24
(
1439.1
1448.59
1548.17
1529.7
1730.68
1517.87
1516.56
1888.51
1790.19
1868.31
1671.35
1872.66
1779.57
1767.24
1677.94
1740.92
297.39
1879.85
775.989
142.159
-90.4836
139.73
1145.65
623.647
)
;
    }
    water_front_surface
    {
        type            fixedFluxPressure;
        gradient        uniform 0;
        value           nonuniform List<scalar> 
186
(
21249.9
21036.9
18615.9
15668.5
13526.2
12160.7
11291.7
10853.2
11038
11623.7
12324
11744.9
23039.1
21177.6
17061.5
9590.15
6286.16
4770.93
3863.25
3282.94
4063.03
5770.3
6560.79
4668.83
22654.7
8898.33
1397.37
11.7184
-22.961
-45.1015
40.7236
193.125
370.934
822.978
1416.89
1110.34
23735.1
-37.4289
-6.67297
-10.5762
-21.5137
-75.9149
-31.6826
75.2109
519.401
787.715
761.666
812.349
3299.74
2438.62
1459.56
1114.6
859.443
685.378
688.715
815.611
869.132
1195.85
1515.45
1439.1
2701.56
591.756
120.58
13.7221
-9.9032
-17.5647
-13.5844
4.95446
15.684
216.607
695.289
1516.56
2309.4
42.7119
14.778
10.5782
17.3847
-1.59903
2.09791
3.02973
-0.707211
2.19193
145.445
1779.57
2874.29
10.2683
21.4613
1.87837
4.8392
-4.02343
2.67707
3.02914
0.836783
-5.21094
-3.93985
775.989
22680.9
3768.2
11.4629
242.662
320.994
8.49395
-27.9339
-12.9063
1.12179
-19.7997
-3.17699
-1.63247
-20.3222
-0.0318817
7.73396
-41.2089
-9.35469
10.5924
-24.3391
29.8384
25.9074
77.8381
61.8113
-14.1144
95.0999
-23.2355
-34.7469
0.840398
-10.1745
-15.1364
10.4994
-1.87335
-9.40744
839.568
0.835662
-12.7187
3561.6
5.14888
-8.10977
4046.71
2.8698
-6.21987
4074.23
3.31171
-5.54809
4082.94
2.90212
-5.69041
4062.67
2.99894
-7.11055
3761.96
3.8538
-10.9041
3387.53
1475.74
3.1913
28.0664
20.5429
2.99702
20.7634
17.2013
3.83038
7.33185
3.8061
0.835074
9.52576
3.75773
2.05866
4.26554
1.16964
1.58938
5.68137
2.32902
2.3122
7.03287
1.9396
2.38566
8.06686
0.564154
2.23961
10.8147
-0.819433
2.19483
8.86129
-0.47398
-0.39409
382.383
0.513394
-6.2093
)
;
    }
    water_back_surface
    {
        type            fixedFluxPressure;
        gradient        uniform 0;
        value           nonuniform List<scalar> 
186
(
21249.9
21037
18615.9
15668.5
13526.3
12160.8
11292.8
10853.4
11036.3
11633.6
12308.6
11720.5
23038.8
21177.6
17060.4
9589.23
6286.62
4773.87
3865.5
3283.51
4069.54
5805.94
6439.89
4590.67
22654.3
8898.14
1396.97
11.9434
-23.1852
-45.1513
40.0283
192.878
371.259
837.402
1407.04
1107.69
23740.5
-37.5105
-6.67848
-10.4371
-21.5967
-76.0757
-32.0253
73.7929
501.281
790.071
762.065
809.079
3364.42
2511.74
1701.59
1392.62
984.856
873.96
869.168
862.377
886.625
1105.94
1453.04
1517.87
2806.65
1063.81
150.909
46.1546
-11.2323
-11.9277
-4.63932
2.62389
26.2075
217.654
1081.71
1872.66
2623.39
343.618
14.1327
8.11243
15.7514
-0.385966
2.19274
-0.736704
0.153247
4.89429
37.5917
1879.85
3190.08
84.2454
18.9676
-1.76776
3.05299
-2.22457
2.12444
1.67096
3.38182
-0.740975
16.1985
623.647
22677.8
3758.66
10.8713
243.254
320.756
7.86515
-27.9114
-12.8487
1.05272
-19.7497
-3.00408
-1.46894
-20.4637
0.123575
7.76148
-41.4626
-9.82592
11.3106
-26.6793
25.1343
26.0772
74.7803
57.6946
-13.264
96.852
-23.0789
-34.7056
0.8143
-10.1948
-15.1346
10.5453
-1.87039
-9.38238
828.167
0.841626
-12.6997
3595.56
5.31655
-8.33384
4040.78
2.87478
-6.30935
4068.79
3.44911
-5.58182
4085.89
2.88056
-5.71927
4065.65
2.99237
-7.1325
3758.42
3.87419
-10.9183
3459.74
1887.64
225.005
154.893
139.913
17.4093
19.187
13.4545
3.13949
5.77729
2.38048
-1.23861
9.23335
3.4122
1.93612
4.79256
1.07277
1.43415
6.042
2.18652
2.30071
5.78409
1.17451
2.15272
5.87975
0.58867
1.92943
10.0153
-0.460839
2.01157
6.09584
-0.605911
-0.53576
422.582
0.961392
-6.55561
)
;
    }
    water_left_surface
    {
        type            fixedFluxPressure;
        gradient        uniform 0;
        value           nonuniform List<scalar> 
42
(
21249.9
21250
21249.9
21250
21250
21249.9
23039.1
23038.3
23038.6
23038.8
23038.6
23038.8
22654.7
22654.1
22654.2
22654.2
22654.1
22654.3
23735.1
23750
23744.7
23742
23745.8
23740.5
22680.9
22674.1
22675
22676.2
22676.1
22677.8
3768.2
3744.48
3751.1
3754.99
3750.77
3758.66
11.4629
9.82109
10.4493
10.7171
10.2717
10.8713
)
;
    }
    water_right_surface
    {
        type            fixedFluxPressure;
        gradient        uniform 0;
        value           nonuniform List<scalar> 
42
(
3299.74
3558.95
3348.27
3498.8
3541.73
3364.42
2701.56
2827.03
2828.31
2527.92
2458.5
2806.65
2309.4
2509.13
2493.58
2194.77
1862.92
2623.39
2874.29
2411.24
2817.91
2780.2
2088.64
3190.08
3387.53
786.928
1363.24
2317.85
1203.95
3459.74
1475.74
266.828
279.585
41.0831
-3.10442
1887.64
3.1913
258.21
80.66
-7.87783
-6.7247
225.005
)
;
    }
    water_top_surface
    {
        type            totalPressure;
        rho             rho;
        psi             none;
        gamma           1;
        p0              uniform 0;
        value           nonuniform List<scalar> 
180
(
0
0
0
0
0
0
0
0
0
0
0
0
-0.245995
-0.256663
-0.253003
-0.251424
-0.256892
-0.24957
-1.01633
-0.932997
-0.974658
-0.980139
-0.992349
-0.973171
0
0
0
0
0
0
0
0
0
0
0
0
0
0
0
0
0
0
0
0
0
0
0
0
-19.4763
-20.4542
-20.2338
-19.9235
-20.1843
-19.9819
-17.7317
-17.9332
-17.9367
-17.7176
-17.8304
-17.8313
-10.2138
-10.1992
-10.2069
-10.2077
-10.2538
-10.1633
-5.03089
-5.03703
-5.03503
-5.0288
-5.0376
-5.02799
-0.720458
-0.710692
-0.726675
-0.850318
-0.960969
-0.848073
-1.89082
-1.90561
-1.9215
-1.95649
-1.98271
-1.95459
-1.61239
-1.60677
-1.59773
-1.57622
-1.57528
-1.55873
-2.02938
-2.0327
-2.03283
-2.03046
-2.03705
-2.01947
-2.78163
-2.78369
-2.78343
-2.78484
-2.7924
-2.77282
-2.77412
-2.76486
-2.7641
-2.76865
-2.77591
-2.75608
0
0
0
0
0
0
0
0
0
0
0
0
-2.17375
-2.89719
-2.91901
-1.93794
-2.47951
-0.443557
-4.24569
-4.37266
-4.27783
-4.56695
-4.68393
-4.52577
-0.94382
-0.955887
-0.972147
-0.911014
-0.933765
-0.909762
-0.713646
-0.709286
-0.7298
-0.737929
-0.753926
-0.729381
-0.0537042
-0.0468477
-0.0573359
-0.0743482
-0.083303
-0.06746
-0.105648
-0.100663
-0.106514
-0.160063
-0.196875
-0.186943
-0.219421
-0.231235
-0.249894
-0.280203
-0.314319
-0.311757
-0.923112
-0.982483
-1.03647
-1.04205
-1.10916
-1.04643
-1.85791
-1.9248
-1.9665
-2.11323
-2.33983
-2.08578
-0.672818
-0.730788
-0.775934
-0.824324
-0.898907
-0.886581
)
;
    }
}


// ************************************************************************* //
