/*--------------------------------*- C++ -*----------------------------------*\
| =========                 |                                                 |
| \\      /  F ield         | OpenFOAM: The Open Source CFD Toolbox           |
|  \\    /   O peration     | Version:  v1612+                                |
|   \\  /    A nd           | Web:      www.OpenFOAM.com                      |
|    \\/     M anipulation  |                                                 |
\*---------------------------------------------------------------------------*/
FoamFile
{
    version     2.0;
    format      ascii;
    class       surfaceScalarField;
    location    "7.65";
    object      alphaPhi;
}
// * * * * * * * * * * * * * * * * * * * * * * * * * * * * * * * * * * * * * //

dimensions      [0 3 -1 0 0 0 0];

internalField   nonuniform List<scalar> 
2916
(
0.00036413
0.236842
-0.265085
-9.23249e-05
0.236675
-0.264098
-0.00044879
0.236781
-0.264294
-0.00032794
0.236844
-0.264823
0.000178957
0.236835
-0.265193
0.236981
-0.264645
0.000419315
0.611754
-0.282577
3.34112e-05
0.611411
-0.281743
-0.000567996
0.611585
-0.281482
-6.77542e-05
0.611648
-0.282666
0.00115311
0.611677
-0.283593
0.61164
-0.280611
1.5203e-05
0.588853
0.0229688
4.54552e-05
0.588387
0.023032
-0.000140368
0.588671
0.0231776
7.32396e-05
0.588644
0.0228702
0.000500197
0.588666
0.0226725
0.588626
0.0235709
-0.00060461
0.339925
0.249537
5.80713e-05
0.338197
0.249444
0.000364073
0.338915
0.249378
0.000183633
0.339244
0.249565
-0.000276113
0.339468
0.249663
0.338929
0.249361
-0.000845293
0.0101445
0.33063
9.93354e-05
0.00498667
0.33227
0.000734465
0.00645597
0.331802
0.00015147
0.00855832
0.331266
-0.00102383
0.00978771
0.33086
0.00602416
0.331885
-0.0016438
-0.24648
0.215746
4.47397e-05
-0.253353
0.214667
0.00149506
-0.251867
0.214742
0.000224014
-0.248156
0.215646
-0.00225304
-0.24589
0.215858
-0.253201
0.214698
-0.000769056
-0.393645
0.128403
-0.000123967
-0.396662
0.124602
0.00049382
-0.396136
0.12521
6.88386e-05
-0.393886
0.127246
0.00101293
-0.393192
0.127432
-0.396504
0.125541
0.00182285
-0.419219
0.0378298
0.000137714
-0.417911
0.0375354
-0.00151819
-0.418147
0.037909
0.000917738
-0.418872
0.037168
0.00648017
-0.421172
0.0367292
-0.4169
0.0406882
0.0004304
-0.360035
-0.0305016
0.000109933
-0.358183
-0.0301374
-0.000383955
-0.358297
-0.0301301
0.000577117
-0.359911
-0.030616
0.00218909
-0.363143
-0.0308247
-0.356584
-0.028934
-0.00117572
-0.279229
-0.0492279
0.00015249
-0.281785
-0.0473124
0.00191055
-0.281373
-0.0479968
0.000106654
-0.279088
-0.048815
-0.00446195
-0.27946
-0.0491153
-0.282872
-0.0473786
-0.00444448
-0.198651
-0.041109
0.000835309
-0.204243
-0.0443794
0.00631769
-0.204173
-0.0442959
0.00144145
-0.198705
-0.040718
-0.0107465
-0.196203
-0.0384639
-0.207209
-0.046699
0.00135668
-0.137276
-0.000375746
-0.140244
-0.000973485
-0.141181
-1.32995e-06
-0.136929
0.00388009
-0.136786
-0.141792
0.00252761
0.476762
-0.852505
-0.000396
0.477072
-0.84595
-0.000604381
0.47578
-0.847562
-0.000578268
0.477448
-0.85032
-0.00207872
0.480053
-0.852
0.474866
-0.849284
-0.000995019
0.884538
-0.614683
-2.09322e-05
0.882986
-0.612198
0.00218114
0.882842
-0.613741
0.0014231
0.884396
-0.613973
-0.00136083
0.886144
-0.613504
0.882195
-0.612067
-0.000163982
0.987228
-0.0841719
4.90049e-05
0.986333
-0.0846654
-0.000189552
0.986321
-0.0840928
0.000466222
0.987119
-0.0850099
0.00266571
0.987871
-0.0860183
0.986009
-0.0817223
-0.00114341
0.871363
0.212641
-5.28078e-06
0.871438
0.210046
0.000152594
0.871574
0.210608
7.59692e-05
0.87135
0.211762
0.00107552
0.870825
0.212047
0.87201
0.210871
0.00200315
0.591246
0.145994
0.00015081
0.590972
0.150246
-0.000774615
0.589538
0.150502
0.000489596
0.592159
0.146123
0.00273595
0.592294
0.144582
0.590847
0.151508
0.0043218
0.287252
0.0147278
-2.03534e-05
0.292812
0.0151396
-0.00293688
0.29028
0.0153713
-0.000742247
0.289791
0.0145886
0.00429662
0.28786
0.014366
0.291812
0.0153914
0.0011557
0.165743
-0.000737621
-6.61337e-05
0.172198
-0.000251685
-0.00124759
0.170495
-0.000369701
-0.00053631
0.167708
-0.000579529
0.00289829
0.165623
-0.000530339
0.172435
-0.000399392
-0.000408033
0.153745
-0.00341594
-4.13813e-05
0.159875
-0.00326523
-0.000259896
0.158878
-0.00330938
-0.000139075
0.154553
-0.00337715
0.00122188
0.150727
-0.00338118
0.16225
-0.0033332
-0.000962
0.115955
-0.0118582
-0.000130545
0.119317
-0.0119304
-0.000511036
0.119509
-0.0120799
-0.0003159
0.115707
-0.0115597
-0.000799391
0.111714
-0.0118065
0.123111
-0.0113885
-0.00301989
0.0488311
-0.0140037
0.000153598
0.0456082
-0.0136808
0.00200121
0.0468896
-0.0137923
0.000174784
0.0487608
-0.0137323
-0.00565207
0.0490321
-0.0139041
0.0470138
-0.013738
-0.00394624
0.0182747
-0.00319767
0.0011119
0.00918421
-0.00192841
0.00534982
0.010656
-0.00205148
0.00245349
0.0181208
-0.00299354
-0.00701004
0.0240607
-0.00373792
0.00750902
-0.00195904
0.000976122
-0.020235
0.00142479
-0.0284397
0.00243123
-0.0277187
0.00266732
-0.0196179
0.00142188
-0.0123979
-0.0285365
0.00293818
0.411355
-1.06418
0.000445713
0.411812
-1.04045
0.00329914
0.408023
-1.04897
0.00263585
0.413517
-1.05558
-0.00686498
0.421305
-1.05553
0.404221
-1.05633
-0.00434426
0.54732
-0.113513
-0.000718785
0.543578
-0.0936042
0.00541226
0.541561
-0.106085
0.00196222
0.547128
-0.105218
-0.00973173
0.55143
-0.0871211
0.538669
-0.113538
-0.00383453
0.732154
-0.00178412
-0.000566554
0.731407
-0.00162206
0.00421796
0.729787
-0.00206966
0.0011781
0.732705
-0.00190326
-0.0057634
0.734293
-0.00162366
0.72849
-0.00232889
-0.00139097
0.725415
-0.000204226
-0.000250541
0.730624
-3.62263e-05
0.00114326
0.730281
-4.34334e-05
6.44294e-05
0.726709
-0.000178072
-0.00219159
0.724866
-8.95104e-05
0.729873
2.84544e-05
-0.000371395
0.417517
-0.000169392
-0.000187049
0.406832
-0.00049102
0.000810494
0.406497
-0.000499222
0.000296666
0.416602
-0.000254807
-0.00134967
0.426225
-0.000160063
0.3973
-0.000731318
-0.000858296
0.158452
-0.000495905
-0.00038949
0.155232
-0.000396892
0.00114896
0.153041
-0.000419144
-0.00106097
0.159047
-0.000668629
-0.00264865
0.166957
-0.000749641
0.14572
-0.00020064
0.00206402
0.0380495
-0.000350377
-0.000269722
0.044941
-0.000448802
-0.00176678
0.0433362
-0.000375932
0.00094228
0.0394936
-0.000410803
0.00718101
0.037122
-0.000646964
0.0456739
-0.00062482
-0.000243075
-0.00842288
0.000260171
-0.00032397
-0.00294421
0.000208204
-0.000795977
-0.00348496
0.0002363
0.000419706
-0.00908163
0.000274656
0.00509903
-0.0138596
0.000386753
0.00568963
-1.35487e-05
-0.00163581
-0.0211502
0.000850519
-8.25834e-05
-0.021635
0.000932839
0.000830403
-0.0214073
0.00092308
-0.000939734
-0.0214906
0.000884974
-0.0049198
-0.0218836
0.000871993
-0.0199133
0.000921291
-0.000163668
-0.0271758
-0.000104606
-0.000129295
-0.0299253
-7.99189e-05
-0.000175464
-0.0297258
-0.000102885
-0.00013576
-0.0274849
-0.000138508
-0.000841738
-0.0259492
-0.000214447
-0.0291787
-0.000148888
0.000619847
-0.0174546
-0.0116971
-0.000379746
-0.0182054
-0.0104348
-0.00116335
-0.0177997
-0.0108754
-0.000280205
-0.0178854
-0.0123083
0.00100619
-0.0171685
-0.0134409
-0.0175664
-0.0107539
0.00170782
-0.0300276
-0.000429692
-0.0276335
-0.00208077
-0.0280982
-0.000850911
-0.0305647
0.00233666
-0.0318316
-0.0275306
0.00138883
0.114628
-0.00050411
0.000779141
0.0947608
-0.00047358
-0.00558794
0.107504
-0.000504878
-0.00203767
0.106013
-0.00046251
0.00902603
0.0866524
-0.000445263
0.114842
-0.000525068
0.000122845
0.00150608
-0.000585139
-4.73317e-05
0.00151201
-0.000233141
-0.000150091
0.00173201
-0.000257229
-3.08705e-05
0.00139754
-0.000523089
1.60169e-05
0.000853441
-0.000846332
0.00189912
-0.000314043
1.74828e-05
9.00788e-05
-0.000286119
-2.89442e-06
0.000156237
-0.000187235
-1.74539e-05
0.000158567
-0.00021928
-1.53082e-05
9.42756e-05
-0.000261624
8.51001e-06
3.56593e-05
-0.000489001
0.000145576
-0.000218136
0.000109511
-1.53404e-06
-0.000121989
1.16452e-05
0.000350186
-4.55724e-05
-7.49303e-05
0.000360948
-6.94308e-05
-6.0524e-06
8.04693e-05
-0.000126919
0.000185497
-2.17571e-05
-9.70561e-05
0.000524285
-4.85841e-05
-1.0332e-05
-1.41621e-05
-5.23922e-05
9.33534e-06
1.87364e-05
-8.94288e-05
3.20918e-05
1.75913e-05
-7.23974e-05
3.3301e-05
-1.20084e-05
-4.26943e-05
9.55037e-06
-2.6136e-05
-4.14985e-06
5.78e-05
-0.000131639
-1.86077e-05
-0.000504437
-2.56107e-05
-2.61743e-06
-0.000401785
-7.195e-07
1.77404e-05
-0.000432931
-8.7346e-06
1.57226e-06
-0.000540019
-1.67784e-05
-2.78675e-05
-0.000607044
-1.56494e-05
-8.74621e-05
-3.62792e-07
2.22084e-05
-0.00118667
0.000215344
-2.59571e-05
-0.00100918
0.000143671
-2.26407e-05
-0.00103055
0.000152274
-2.25745e-05
-0.00121973
0.000176543
1.11996e-05
-0.00139688
0.000112279
-0.000778701
3.56184e-05
-8.40513e-05
-0.00101422
6.82257e-05
-1.06098e-05
-0.00105769
7.06978e-05
7.21316e-05
-0.00105824
7.01372e-05
1.30472e-05
-0.00105187
6.57521e-05
-3.50174e-05
-0.00110419
5.06397e-05
-0.000985685
4.84447e-05
-2.63619e-05
-0.00016418
9.62552e-06
-1.0115e-05
-0.000173805
1.24743e-05
2.87967e-07
-0.000177789
1.24837e-05
-2.51842e-05
-0.000169138
9.78668e-06
-0.000110556
-0.000172934
8.20904e-06
-0.000215265
1.47536e-05
2.73874e-06
-0.000272407
-1.18256e-07
-6.04462e-06
-0.000246236
-1.31971e-07
-1.2087e-05
-0.000275782
-1.35067e-07
-7.27516e-06
-0.000313192
-1.28406e-07
-6.86828e-08
-0.000394994
-1.35663e-07
-0.000365679
-1.74747e-07
1.3194e-05
-0.00602603
-0.000440434
-1.65992e-06
-0.00532835
-0.000353827
-1.41008e-05
-0.00555608
-0.000411703
-1.93867e-05
-0.00640243
-0.000510428
1.41557e-05
-0.00747472
-0.000706797
-0.00562022
-0.00052179
0.000232859
-0.0192108
4.97104e-05
-0.0188706
-7.28305e-05
-0.0189279
4.28173e-06
-0.0192767
0.000249268
-0.0197373
-0.0188597
-0.0280637
0.0292501
-0.00118621
-0.0264143
-0.023566
0.0222101
-0.00464928
-0.0297856
0.00712161
-0.00169202
-0.0132382
0.0099232
0.026643
-0.0495737
0.0212374
0.0225312
0.0041118
-0.00874258
0.00672559
0.0310053
-0.0129525
-0.0814484
0.0616214
0.0285058
-0.102489
0.0311244
0.0109639
-0.0570625
0.0611201
-0.0193421
-0.078214
0.0586109
-0.0110321
0.0142219
-0.00421797
-0.0493932
0.0593764
0.00463293
-0.183529
0.0400003
0.014686
-0.148877
0.0357143
-0.0106654
-0.0808496
0.0487173
-0.0421279
-0.111869
0.0643167
-0.0843777
0.0308586
0.00988132
-0.100262
0.0229982
0.023781
-0.169498
0.0131406
0.0273519
-0.0935856
0.0140532
-0.00926433
-0.0161977
0.0220563
-0.0106466
-0.128309
0.0270841
-0.0840578
0.025598
0.0113276
-0.131732
0.00303311
0.00818487
-0.133346
0.00216014
0.0064622
-0.0655294
0.00865151
-0.00961351
-0.00850888
0.00719041
-0.00349581
-0.0926551
0.0100792
-0.0780706
0.00870969
0.0245163
-0.138184
-0.000900443
0.00631481
-0.123884
-0.00135639
0.00627428
-0.154949
0.00427636
0.000471149
-0.0848177
0.0111106
-0.0029779
-0.0579578
0.00636323
-0.096519
-0.000151702
0.00912625
-0.129357
-5.81669e-05
0.0130826
-0.143458
-7.41309e-05
0.0138291
-0.132658
-0.00353043
0.00504747
-0.122376
-0.00603817
-0.00763022
-0.0855432
0.00207023
-0.0952757
-2.65326e-05
-0.00897974
-0.102462
-4.56847e-08
-0.00815247
-0.126284
-5.33274e-06
-0.00163358
-0.119408
-0.000407325
0.00855266
-0.111201
-1.58862e-05
0.000994612
-0.094639
-3.64716e-05
-0.085798
-1.69941e-06
-0.0180485
-0.0752963
-8.02373e-07
-0.0240804
-0.102068
-4.32613e-07
-0.0166162
-0.103594
-2.20338e-05
-0.00193491
-0.0652981
-3.34224e-06
0.000969827
-0.0580908
-9.48535e-05
-0.0777394
-4.58981e-05
-0.00925138
-0.0504339
0.00659546
-0.0401336
-0.0902682
0.00193602
-0.0304341
-0.0872086
-0.0029846
-0.00843595
-0.0455963
-0.000837906
0.00893321
-0.0409447
-0.00212105
-0.0776903
-0.000948755
-0.00680633
-0.0338559
0.00120547
-0.047615
-0.0498455
0.000938037
-0.0459906
-0.05691
-0.0091186
-0.00198735
-0.0386972
-0.0251028
0.0354299
-0.0278481
-0.0288607
-0.0397175
0.0054215
-0.00777197
-0.0119391
-0.0232935
-0.0200712
-0.0144492
-0.0420548
0.00201516
-0.0304234
0.0233885
-0.0401634
-0.0083646
-0.0222283
0.0604264
-0.0398216
-0.0146158
-0.0164392
0.026362
-0.012347
0.0149888
-0.010265
-0.00319077
-0.0417689
0.042265
0.0195063
-0.0483113
0.0465944
0.0632941
-0.039676
0.0588941
0.0395661
-0.00768561
0.0107302
-0.0244785
0.0946166
-0.00864426
-0.021891
0.088508
-0.0518451
-0.0611006
0.0964631
-0.0618893
-0.0645689
0.0455416
0.0629057
-0.0475858
0.0174278
-0.00420555
0.022819
-0.00370437
-0.00918968
0.0119859
-0.0171012
-0.0114643
0.010558
-0.0289343
-0.0253101
0.00293909
-0.0480801
-0.0333256
0.0165106
-0.0185526
-0.00261183
-0.00198451
0.00018886
0.000210605
-0.00543148
-0.000662105
-0.000451766
-0.00486435
-0.00800655
0.000301085
-0.0100941
-0.0115998
0.000475228
-0.0128757
-0.0154866
-0.00302321
-0.0206512
0.00033719
-0.000447403
0.000945326
-0.00011897
-0.00415568
0.000431944
-0.000103095
-0.00316003
-0.00534942
-1.66936e-05
-0.00111793
-0.00915825
0.00163638
-0.00062806
-0.00704576
1.44092e-05
-0.00603763
0.000709515
-7.55108e-06
6.28861e-05
-1.38827e-05
-0.00099223
6.97507e-05
-1.29387e-05
-0.00196751
-0.000394204
-4.8721e-05
-0.00091588
-0.00316602
-0.000162756
0.000550458
-0.00168846
-0.000187736
2.60758e-05
-0.000249027
2.72778e-07
4.82506e-06
-5.29973e-07
-9.3267e-06
5.50908e-06
-4.62107e-07
-0.000995044
0.000430315
-2.72739e-06
-0.00138637
1.55768e-05
-3.80779e-05
-2.93768e-08
3.38803e-05
-6.71869e-06
3.58183e-10
-5.49053e-07
1.16626e-07
1.42928e-06
-3.38071e-08
-1.6544e-07
5.71701e-07
-1.30355e-07
-5.10967e-08
2.36641e-05
-7.83223e-07
-1.52076e-07
5.26377e-08
-2.38363e-07
-4.7302e-08
-1.85207e-06
-8.84575e-07
-3.96388e-07
-1.42425e-06
4.06803e-08
5.31093e-07
3.26127e-08
4.41618e-08
9.36691e-08
1.7748e-08
4.30563e-07
1.18965e-06
3.72115e-08
1.37715e-08
6.12196e-09
-2.87392e-06
1.00539e-06
-8.86275e-05
-9.04688e-06
-2.28455e-05
-2.2545e-05
0.000578723
-0.000637186
0.000121303
0.00308802
-0.00252632
0.000165567
9.85944e-05
-6.97486e-05
7.70551e-05
2.52511e-05
-0.000544964
-0.000219573
7.85381e-05
-0.000945873
-0.00131949
-0.000753128
-0.000141333
-0.00429791
-0.00684682
0.000489929
-0.000382221
-0.00460666
-3.32686e-05
9.39032e-05
-0.00420302
-0.00144475
0.000376912
-0.0083603
-0.0175681
0.000527662
-0.0116487
-0.0183453
-0.000911127
-0.000595314
0.000485506
-0.0199943
0.00105981
-0.0297798
0.00188116
-0.0492457
0.000756448
-0.0245223
-0.00134465
-0.0200859
-0.00636497
-0.0019447
0.0907839
-0.129299
0.0189222
0.0486113
-0.0433132
0.0109609
0.07834
-0.0806449
0.0110597
0.0116561
0.0302671
0.000387853
0.0244489
0.0323906
0.0832008
-0.122868
0.0657375
0.10823
-0.0917557
0.0297469
0.0330267
0.049233
0.0304393
0.0571752
0.0288681
-0.0304215
0.0316542
0.0492144
-0.0667502
0.0355185
0.00871821
0.0889763
-0.12025
0.0198542
0.0125125
-0.0189629
0.00195195
0.000761088
0.0173778
0.0033774
0.000319804
0.0209375
-0.00140295
0.00040156
0.0117793
-0.0395121
0.0063262
0.0129821
0.0290158
-0.0190103
0.000507506
0.000123216
0.000458653
-0.000144692
0.000115624
0.00076965
-0.000301887
-5.69215e-05
0.000743143
-0.000677481
5.68926e-05
0.000298035
-0.00504489
0.00020578
0.000415173
-0.000457408
-4.47324e-05
-7.22138e-06
1.34971e-05
-1.05119e-05
-7.43188e-06
1.28261e-05
-3.54702e-06
-0.000107545
3.02326e-05
-2.17338e-07
-8.56474e-06
9.70369e-05
-2.69671e-07
4.97799e-07
0.000195694
2.36876e-07
0.000247856
-1.51481e-06
-2.55084e-07
4.58315e-07
-7.5289e-07
-4.83402e-07
4.40943e-07
-5.9722e-07
-2.00777e-05
1.71992e-06
-6.5493e-07
-2.57221e-07
3.90217e-05
-2.47401e-06
1.39652e-06
6.70314e-06
-6.69439e-07
7.53197e-07
-8.20183e-07
-4.42991e-08
3.68848e-08
-1.31793e-08
-7.34962e-08
3.68331e-08
-9.07788e-08
-1.10838e-06
5.91544e-08
-5.96445e-08
-1.67162e-07
9.75129e-08
-9.42438e-08
-5.95883e-08
1.11577e-08
-8.66714e-08
1.24735e-07
-6.21133e-09
-3.90929e-08
2.68766e-08
-6.09242e-09
-9.11037e-08
1.28546e-07
-2.31247e-07
-1.68378e-07
6.65973e-08
-7.92608e-07
-5.73718e-07
3.36998e-07
-5.17186e-08
-1.10325e-06
-4.44277e-07
-8.78228e-08
-2.08859e-06
-3.95866e-07
-1.35508e-10
2.7975e-08
1.01848e-08
-2.99556e-08
1.95796e-07
-4.25747e-08
-2.1088e-06
1.63041e-06
5.26847e-07
-1.17221e-05
1.56159e-06
5.514e-06
2.35113e-06
-3.42998e-05
9.28164e-06
-0.000334107
3.35468e-05
1.37837e-05
9.73644e-05
1.01791e-05
5.32411e-05
0.00010544
2.0844e-05
1.60007e-05
0.000111393
4.25691e-06
0.000848452
-0.00188834
0.000262139
0.00139829
-0.00446939
-0.000497941
6.58069e-05
0.000222292
2.36317e-05
0.000353124
0.000154714
0.000297466
-0.0032534
0.000713292
0.000427042
-0.00286358
0.00106229
0.000810112
-0.00349015
-0.0161899
0.000652845
-0.00517421
-0.0216262
0.000375344
0.000206863
0.00897131
-0.0333079
0.0107427
-0.0353895
0.00151659
-0.0343049
-0.0022259
-0.0275476
-0.00695561
-0.0272989
-0.0200644
0.00552843
0.0468859
-0.182336
0.0135958
0.0477721
-0.0997174
0.0207825
0.0604679
-0.1485
0.0193079
0.0314985
-0.0455648
-0.000706884
0.0236551
-0.002183
0.041764
-0.165732
0.0509619
0.0438372
-0.000137484
0.0228915
0.0431149
-0.0192814
0.0260007
0.0554533
-0.0485028
0.00531883
0.0248029
0.00662447
-0.0191765
0.0113433
-0.0047582
0.0162397
-0.00092758
0.0136165
0.00489895
-0.00804195
0.00402259
0.000233582
0.0156054
0.00493927
0.000132784
0.019545
0.00228824
6.01512e-05
0.0133685
0.00254775
-0.000324004
-0.000164993
-2.98436e-05
-0.00018072
0.000127553
2.13629e-05
0.000519488
-4.54747e-05
1.98488e-05
0.00108836
-8.08039e-05
1.0456e-05
0.000860352
1.05588e-05
5.54045e-06
0.000229181
7.91533e-05
1.04205e-06
8.72205e-06
2.57866e-06
-1.56934e-07
3.5365e-08
7.41446e-07
8.04247e-06
-8.02972e-07
6.87747e-07
1.41559e-05
-2.2234e-06
7.4884e-07
9.83754e-06
-2.66929e-07
2.51523e-06
2.86998e-07
1.17711e-07
6.73855e-07
5.49956e-08
1.10323e-06
7.94466e-09
8.20981e-08
-9.05795e-08
-2.68358e-09
-1.82427e-08
-5.52496e-08
1.48171e-07
-2.75001e-08
3.68333e-09
6.36827e-08
-3.92215e-09
1.51082e-08
-5.8081e-10
1.71197e-09
-1.15217e-09
-8.48166e-11
1.01171e-08
3.95654e-10
-2.1091e-08
-4.1261e-09
1.42885e-09
-1.59848e-08
-2.5953e-07
3.23574e-08
-1.93672e-09
-7.82571e-08
1.19521e-09
-5.03327e-09
-7.5898e-08
-7.18023e-11
-2.06488e-09
1.6039e-08
-1.44626e-10
2.69575e-11
8.49814e-11
-1.19048e-08
-3.53444e-09
1.13855e-08
-7.32619e-07
-3.75434e-07
2.56236e-07
-3.23062e-07
-3.62653e-06
1.7559e-07
-1.24427e-07
-3.27136e-07
1.76035e-09
-3.55797e-07
1.61005e-07
-1.43712e-09
-7.71361e-07
-7.40459e-09
7.25164e-08
-1.12286e-07
2.30967e-08
-1.55659e-06
-1.00546e-07
7.92429e-07
-4.93653e-06
-1.61332e-06
4.5451e-06
-1.45851e-06
1.71948e-06
1.24907e-07
-3.35576e-06
1.09268e-05
2.18942e-08
-7.15707e-05
1.67563e-07
5.50526e-07
8.06365e-06
1.40633e-06
-1.06176e-07
1.53137e-05
5.90585e-06
-1.8283e-05
2.32081e-05
1.1268e-05
4.01942e-05
0.000200346
-4.71093e-06
6.55532e-05
-0.000509417
-1.54904e-05
4.96632e-05
-1.09149e-05
4.18098e-05
1.45161e-05
7.62616e-06
2.73391e-05
0.000739497
1.34029e-06
0.000231114
0.000869608
9.38894e-06
0.001321
-0.0116986
-0.0023389
-5.37558e-05
-0.0172395
-0.00341718
0.000203614
-4.40019e-07
0.003715
-0.0289697
0.00590324
-0.0287732
0.0114491
-0.0256919
0.000956153
-0.0225406
-0.0143237
-0.0230458
-0.0280212
2.55834e-06
-0.000507598
-4.0794e-05
-3.9891e-06
-0.000502621
-1.31582e-05
-2.29779e-05
-0.000530677
-3.4974e-06
-1.79217e-05
-0.000467752
-4.12105e-05
2.95688e-05
-0.000422539
-0.000104116
-0.000530453
1.35343e-06
8.06181e-07
0.000445531
-0.000410255
1.98667e-07
0.000287362
-0.000306366
-4.48991e-05
0.000272567
-0.000284812
-1.8928e-05
0.000395799
-0.000422939
7.76808e-05
0.000463718
-0.000767259
0.000258214
-0.000263835
-2.62635e-05
-0.00148758
1.58414e-05
-0.000639671
-8.60943e-07
-0.000450161
2.5864e-05
-0.00130636
7.03013e-05
-0.00136316
-0.000427835
2.83149e-05
-0.000206478
-0.000496516
-6.71216e-06
-6.66961e-05
-0.000192903
-3.3756e-05
-9.36312e-05
-0.000188798
-2.6175e-05
-0.000153181
-0.000466985
3.32339e-05
-8.99599e-05
-0.00081169
-0.000139794
-0.000170147
3.21052e-05
0.000725788
-0.00170824
-6.85571e-06
0.000742688
-0.000735155
-1.69835e-05
0.000668755
-0.000657831
-2.76796e-05
0.000943431
-0.00263566
6.30116e-05
0.00115111
-0.00351073
0.000794499
-0.00105168
-6.14662e-05
-0.00211391
-7.04953e-06
-0.00206276
0.000153148
-0.00204471
5.32839e-05
-0.003048
-0.000308256
-0.0025685
-0.00207112
3.34648e-05
0.000530198
-0.00276362
-3.06117e-07
0.000237181
-0.000632222
-9.77729e-06
0.000244615
-0.000691507
1.68391e-05
0.000382513
-0.0021161
0.000132132
0.000329645
-0.0036949
0.000287155
-0.00047488
4.11725e-05
0.000749865
-0.00429952
-6.87121e-06
0.000997448
-0.00292282
-4.27238e-05
0.000727574
-0.00255988
2.47991e-05
0.000688349
-0.00404652
0.000231514
4.99276e-05
-0.00281609
0.000930866
-0.00292079
-4.71057e-05
-0.00129575
-1.00502e-05
-0.00155449
5.33992e-05
-0.00098849
-6.91856e-06
-0.000888435
-0.00010481
-3.8559e-07
-0.00164775
-1.1601e-05
0.000180298
-0.0027734
-4.43739e-07
0.000304927
-0.0022149
8.61694e-05
0.00033272
-0.00236466
7.25676e-05
0.000109395
-0.00305864
7.10825e-05
-0.000127936
-0.00308982
0.000340478
-0.0019478
3.35698e-05
-0.000712219
-0.00214337
-2.83707e-05
-0.000233444
-0.00133774
-3.98749e-05
-0.000232928
-0.00144047
2.88267e-05
-0.000520908
-0.00107917
0.000108718
-6.3599e-07
-0.00060413
8.71578e-05
-0.000460281
1.16446e-05
-5.17203e-11
-1.21622e-05
-5.20096e-11
-2.43323e-05
-3.8368e-11
1.06925e-06
-6.78246e-11
4.76735e-08
-5.77547e-12
-7.05936e-11
-7.05773e-05
-0.00023129
-0.00216023
-2.1981e-05
-0.00011303
-0.00152641
2.56327e-05
-0.00015243
-0.0015762
-5.87229e-06
-0.000152163
-0.00194584
-8.21676e-05
-0.000179813
-0.00189819
5.37628e-06
-0.00124567
2.56271e-06
-1.40627e-10
-1.75083e-06
-1.49272e-05
-4.47408e-11
-1.10964e-06
-2.38679e-05
-4.67647e-11
-1.01723e-06
-1.89888e-06
-1.18793e-10
-1.43543e-06
-3.78554e-06
-1.29014e-10
-9.12175e-07
-9.21889e-12
-9.83077e-07
3.69659e-13
-1.92717e-10
-6.54839e-14
-9.63412e-11
-6.71895e-13
-8.45263e-11
-2.17456e-13
-1.87072e-10
1.22254e-12
-1.3623e-10
-7.86686e-11
-1.67908e-06
-3.08015e-07
-0.000284233
-5.18711e-06
-1.52006e-07
-0.00021137
-8.33054e-06
-1.40331e-07
-0.000218104
-8.24648e-06
-5.73423e-07
-0.000243482
-1.5346e-06
-1.01204e-06
-0.000165553
-3.25499e-08
-8.17265e-05
1.80537e-09
-7.18041e-09
-2.05466e-06
-1.31541e-09
-3.5972e-09
-1.25562e-06
-9.00647e-09
-3.15064e-09
-1.14728e-06
-9.09945e-09
-7.28675e-09
-2.00263e-06
3.68567e-09
-8.00041e-09
-1.93061e-06
-2.48264e-09
-1.01006e-06
1.29488e-11
-7.38607e-09
-1.36332e-12
-3.68014e-09
-1.85753e-11
-3.21795e-09
-7.69377e-12
-7.4847e-09
3.37974e-11
-8.17812e-09
-2.52969e-09
-4.86454e-07
6.36356e-07
-7.3102e-05
-1.99472e-07
-3.10288e-07
-7.01699e-05
1.20015e-06
-3.48492e-07
-6.93341e-05
6.48752e-07
5.58107e-07
-7.08824e-05
-5.81961e-07
1.04957e-06
-5.80012e-05
-4.38538e-07
-4.79267e-05
6.93994e-08
-1.461e-08
-1.58969e-06
-1.00808e-08
-1.6717e-08
-1.53941e-06
-1.17494e-07
-1.51642e-08
-1.43745e-06
-1.00582e-07
-1.33914e-08
-1.55931e-06
1.04774e-07
-5.90237e-09
-1.23081e-06
-1.54987e-08
-1.38673e-06
4.26436e-10
-2.62901e-08
3.2803e-11
-2.1836e-08
-3.79258e-10
-1.96823e-08
-1.74952e-10
-2.47847e-08
8.65965e-10
-2.06478e-08
-1.85699e-08
-3.72746e-06
2.2735e-06
-9.78247e-06
-1.03707e-07
2.05795e-06
-1.18434e-05
4.19062e-06
1.91985e-06
-1.18952e-05
8.41721e-07
2.1771e-06
-1.00379e-05
-4.70406e-06
1.81953e-06
-9.52213e-06
1.90593e-06
-1.26548e-05
4.2914e-09
1.9316e-07
1.2523e-07
2.33817e-08
1.11647e-07
1.02165e-07
3.78206e-08
1.02066e-07
9.86326e-08
8.89331e-09
1.84833e-07
1.20624e-07
-9.71212e-08
2.40976e-07
1.17198e-07
8.6733e-08
7.32282e-08
9.6445e-10
-4.53693e-09
2.05599e-10
-4.15057e-09
-6.4301e-10
-3.94757e-09
5.36248e-11
-4.60463e-09
5.6919e-10
-4.7243e-09
-3.66903e-09
-4.32338e-07
1.09482e-07
-4.53691e-07
-3.70402e-08
4.45317e-08
-5.84832e-07
4.05269e-07
-2.19338e-08
-5.84439e-07
-9.60289e-08
7.80913e-08
-4.62796e-07
-1.55105e-06
-7.63674e-08
-3.89342e-07
1.8447e-07
-6.80275e-07
-1.0206e-08
1.76954e-07
3.99983e-08
-2.15381e-09
4.84717e-08
5.75468e-08
7.10776e-09
-1.91862e-08
5.77171e-08
-3.49856e-09
1.42373e-07
4.15502e-08
-2.893e-08
7.78236e-09
3.84353e-08
1.0913e-07
8.73534e-08
-3.74132e-10
7.0682e-09
-4.23414e-10
8.59714e-09
-4.40843e-10
8.72216e-09
-6.97362e-10
7.66322e-09
-4.0614e-10
8.3348e-09
7.84026e-09
7.67745e-09
-3.70193e-08
-5.70962e-07
3.06978e-08
-5.13901e-08
-7.20118e-07
3.80796e-08
-5.17037e-08
-7.04911e-07
2.18369e-08
-3.85316e-08
-5.65803e-07
-4.64373e-08
-3.61242e-08
-4.77071e-07
-7.77734e-08
-8.72866e-07
-8.84824e-11
-1.41492e-08
1.67888e-08
2.0728e-10
-1.50293e-08
2.07932e-08
3.18827e-10
-1.43948e-08
2.00715e-08
1.11269e-10
-1.4135e-08
1.67536e-08
-3.58078e-10
-1.31235e-08
1.49283e-08
-1.47813e-08
2.43511e-08
-8.35896e-10
7.61665e-08
-5.66715e-10
7.50108e-08
-2.92504e-10
7.57301e-08
-7.93077e-10
7.62126e-08
-1.25727e-09
7.74162e-08
7.38093e-08
-2.23146e-06
-5.98013e-08
-0.000438714
5.83037e-06
-6.40542e-08
-0.000362545
1.11073e-05
-6.33879e-08
-0.000417622
6.10885e-06
-6.04669e-08
-0.000505935
-5.85439e-06
-5.84346e-08
-0.000695252
-6.85855e-08
-0.000528449
-3.01633e-13
-4.37108e-08
6.86878e-10
1.74509e-11
-4.4037e-08
7.46591e-10
2.44186e-11
-4.40674e-08
7.32889e-10
1.80715e-11
-4.44048e-08
6.87983e-10
-4.18612e-12
-4.41527e-08
6.53494e-10
-4.50398e-08
7.88856e-10
4.91203e-11
6.67148e-10
-6.44643e-11
6.81611e-10
-1.24245e-10
6.74847e-10
-9.66417e-11
6.69547e-10
-3.27676e-11
6.46534e-10
6.86686e-10
-6.22112e-05
-1.34434e-09
-0.0215546
1.39511e-05
-1.42219e-09
-0.0215378
8.79531e-05
-1.40131e-09
-0.0215157
4.05827e-05
-1.34917e-09
-0.0214893
-8.20133e-05
-1.28997e-09
-0.0215315
-1.46955e-09
-0.0214538
1.92479e-13
-6.62184e-10
4.28861e-12
6.9539e-14
-6.80213e-10
4.48674e-12
-8.65732e-14
-6.72915e-10
4.40374e-12
1.74241e-14
-6.65889e-10
4.35817e-12
3.77542e-13
-6.41345e-10
4.25913e-12
-6.85182e-10
4.60336e-12
1.86795e-12
3.09598e-12
1.55596e-13
3.11117e-12
-1.00055e-12
3.08873e-12
-4.57259e-13
3.11571e-12
1.7002e-12
3.03137e-12
3.20374e-12
7.70795e-05
-6.62954e-13
-0.0143821
0.0204466
0.000599194
-3.61815e-13
-0.0142384
0.0203302
0.000971112
-1.04613e-13
-0.0140423
0.0205232
0.000107095
-3.91966e-13
-0.0140979
0.0216341
-0.000684494
-1.12721e-12
-0.0138776
0.0213327
-4.9692e-13
-0.0143942
0.0205401
-1.81667e-16
-6.65764e-13
1.08993e-16
2.88223e-15
-9.33887e-17
-3.63449e-13
8.06002e-17
1.46563e-15
-3.83842e-16
-1.04658e-13
7.84356e-17
2.57126e-16
-8.86096e-16
-3.91906e-13
2.43516e-17
4.17829e-16
-1.41962e-16
-1.11323e-12
3.65632e-16
-1.50878e-14
-4.97471e-13
3.12757e-17
3.77397e-16
2.5544e-14
1.07518e-27
1.97915e-14
2.13368e-14
9.10253e-28
-3.94681e-14
1.45116e-14
1.20045e-27
-1.09439e-15
3.64744e-14
1.08849e-27
-5.3966e-17
3.09026e-14
1.89114e-27
-1.868e-18
9.18187e-28
-3.46069e-17
-0.000559591
1.29854e-16
-0.00814597
-0.000881088
1.09458e-16
-0.00786357
-0.000789455
1.33358e-16
-0.00762
-0.000369065
4.73363e-17
-0.00771785
7.44124e-05
8.2633e-16
-0.00777423
5.83587e-17
-0.00774145
3.54557e-18
2.85699e-27
2.13363e-16
9.47336e-18
2.55788e-27
1.70057e-16
4.17238e-18
3.55659e-27
2.47452e-16
6.45102e-17
2.77138e-27
5.66669e-17
1.04815e-18
4.45241e-27
1.52666e-15
1.87259e-27
9.38079e-17
-1.26837e-28
8.93927e-28
-1.77392e-28
8.96848e-28
-2.61217e-28
1.07483e-27
-1.25912e-28
1.11397e-27
-8.49256e-29
2.17709e-27
8.00177e-28
-0.00023706
1.45373e-16
-0.000499818
-0.000219981
1.26313e-16
-0.000431666
-1.28701e-05
1.99842e-16
-0.000329788
2.57624e-05
4.64161e-17
-0.000221559
-5.3985e-05
1.31502e-15
-0.000163772
8.25972e-17
-0.000286265
1.35936e-17
2.42196e-27
7.32846e-17
2.70239e-17
2.32999e-27
5.94787e-17
5.49775e-18
2.51422e-27
9.76286e-17
1.1911e-16
2.23734e-27
1.32992e-17
4.54196e-18
4.01971e-27
5.41107e-16
1.47613e-27
2.92039e-17
-9.9086e-29
-5.09161e-28
-1.73249e-28
-4.43791e-28
-2.15534e-28
-4.19753e-28
-1.56204e-28
-3.23337e-28
-1.16657e-28
-5.38256e-28
-1.9165e-28
-5.0509e-05
1.17134e-16
0.00725922
-0.000160233
9.49906e-17
0.0073008
-0.000271782
1.60517e-16
0.00734275
-0.000228104
2.34109e-17
0.00735453
-3.75753e-05
1.03825e-15
0.00736145
5.5847e-17
0.00734516
2.31742e-18
2.37745e-27
-2.44272e-18
8.11915e-18
2.73691e-27
-3.59294e-18
1.58146e-18
2.97451e-27
-7.54715e-18
5.91795e-17
2.83725e-27
-1.18506e-18
8.00232e-19
3.15094e-27
-5.64875e-17
2.14601e-27
-4.47155e-18
-3.9016e-29
-1.75932e-27
-8.62587e-29
-2.01437e-27
-1.10303e-28
-2.17866e-27
-7.62829e-29
-2.0485e-27
-3.34799e-29
-2.24823e-27
-1.53972e-27
-3.4844e-05
1.44919e-16
0.0150085
-0.000145545
1.17794e-16
0.0150415
-0.00026481
2.08364e-16
0.0150295
-0.000226868
1.74867e-17
0.0149393
-4.57875e-05
1.30734e-15
0.0148968
6.8416e-17
0.0149779
5.83466e-19
2.65427e-27
-2.96295e-18
9.27057e-19
3.09182e-27
-2.83188e-18
6.18946e-20
3.37167e-27
-5.32577e-18
3.78233e-18
3.28627e-27
-3.67608e-19
1.21852e-19
3.63676e-27
-2.48395e-17
2.53198e-27
-1.98741e-18
-1.44495e-29
-1.47353e-27
-4.14764e-29
-1.70915e-27
-6.59315e-29
-1.8577e-27
-4.87732e-29
-1.77414e-27
-8.94411e-30
-1.93572e-27
-1.3535e-27
-1.20368e-06
-7.37587e-12
-2.06149e-05
-7.59603e-12
-3.94351e-05
-7.49083e-12
-5.35215e-05
-7.47401e-12
-7.20813e-05
-7.29242e-12
-7.81715e-12
1.34277e-16
-3.08741e-12
-2.94334e-16
-3.10888e-12
-7.62463e-16
-3.08669e-12
-2.63357e-16
-3.11635e-12
1.15415e-15
-3.03474e-12
-3.21265e-12
8.56871e-15
1.08611e-14
1.29089e-14
1.22737e-14
8.90812e-15
-0.031833
-0.0756768
-2.05381e-05
0.027157
-0.000793139
0.0175171
0.000553067
-0.094736
0.00365493
0.00233803
-0.0839187
0.0144869
0.0439886
-0.00234035
0.00995841
-0.0479511
-0.000135721
-3.55051e-05
-0.00680506
-0.00163616
9.35046e-05
-6.89015e-05
-0.000875915
0.00306066
-0.000502766
-0.000162901
-0.0028213
0.0113734
-0.00184786
-0.00518476
-8.8219e-06
3.67553e-05
0.00015204
-0.000176353
9.78388e-05
-4.31821e-05
0.000557031
-0.000528094
-0.00466731
-1.17222e-05
-0.000194469
-0.000118683
-8.04672e-05
-0.000122824
-3.58545e-06
2.90656e-06
-7.71087e-05
-7.71799e-05
-0.00607771
-0.0442889
0.0447466
0.00211163
-0.000301939
-0.00156294
0.00526053
-0.000925739
-0.00599677
0.00102955
-0.00362332
0.00038108
-8.16573e-06
-3.65366e-05
-0.00105571
-1.90154e-06
-0.000657256
-6.41262e-05
-0.00172268
0.00600046
-6.11738e-05
-5.01744e-07
-0.000467262
-0.00269954
-4.44391e-06
-0.000130378
-8.17375e-05
-4.21741e-05
0.00105006
-4.859e-06
-0.000277263
-9.49535e-06
-3.55882e-05
-1.22002e-07
-2.42518e-05
-1.46586e-06
-1.08801e-05
-0.000119606
-4.98664e-06
-2.6583e-06
-0.000123086
-2.71608e-05
-0.0079251
-9.57367e-05
-8.18058e-05
-0.00125293
0.00390926
-0.000985602
-0.000729915
0.000442931
-0.000802453
0.000213281