/*--------------------------------*- C++ -*----------------------------------*\
| =========                 |                                                 |
| \\      /  F ield         | OpenFOAM: The Open Source CFD Toolbox           |
|  \\    /   O peration     | Version:  v1612+                                |
|   \\  /    A nd           | Web:      www.OpenFOAM.com                      |
|    \\/     M anipulation  |                                                 |
\*---------------------------------------------------------------------------*/
FoamFile
{
    version     2.0;
    format      ascii;
    class       volScalarField;
    location    "7.65";
    object      alpha.water;
}
// * * * * * * * * * * * * * * * * * * * * * * * * * * * * * * * * * * * * * //

dimensions      [0 0 0 0 0 0 0];

internalField   nonuniform List<scalar> 
1116
(
0.701568
0.701568
0.701569
0.70157
0.701571
0.701571
0.883147
0.88342
0.883257
0.883245
0.883345
0.883185
0.974109
0.974108
0.974108
0.974109
0.974109
0.974108
0.974116
0.974116
0.974115
0.974115
0.974115
0.974115
0.974116
0.974116
0.974116
0.974116
0.974115
0.974115
0.934362
0.934005
0.934084
0.934299
0.934142
0.93423
0.84865
0.849469
0.849596
0.848339
0.847105
0.850584
0.790102
0.791148
0.791435
0.789648
0.788917
0.792117
0.765302
0.76484
0.765279
0.76482
0.76558
0.764404
0.763879
0.762384
0.762757
0.763658
0.765071
0.761623
0.762529
0.760001
0.76014
0.762976
0.76415
0.7601
0.753818
0.753242
0.753312
0.753904
0.754519
0.754311
0.786739
0.787548
0.787125
0.787107
0.78737
0.786768
0.885248
0.885188
0.885141
0.885205
0.885261
0.885143
0.88923
0.889155
0.889166
0.889163
0.889123
0.889245
0.900549
0.899996
0.900115
0.90037
0.900458
0.900104
0.785828
0.785954
0.785992
0.785697
0.785659
0.786257
0.484253
0.486437
0.485959
0.484696
0.483744
0.486189
0.228766
0.23093
0.230597
0.229392
0.228857
0.231343
0.110843
0.112358
0.112239
0.110805
0.110275
0.112518
0.11798
0.119325
0.119393
0.11735
0.117055
0.118444
0.129448
0.128219
0.128961
0.128444
0.128869
0.127241
0.102383
0.0999891
0.100325
0.101746
0.102927
0.100563
0.148129
0.148772
0.149359
0.148007
0.148157
0.150595
0.758377
0.757035
0.757583
0.757919
0.757952
0.758113
0.424577
0.42142
0.420838
0.424047
0.426101
0.420581
0.366931
0.363928
0.3629
0.366586
0.368811
0.362186
0.339834
0.340012
0.339438
0.340073
0.339701
0.340258
0.22425
0.221088
0.220925
0.223963
0.225482
0.220307
0.103398
0.0978788
0.0976137
0.102699
0.106548
0.0938551
0.0289091
0.0305816
0.0299187
0.0286911
0.0297149
0.0291382
0.0226432
0.0205047
0.0204182
0.0231473
0.0248457
0.0170385
0.0174354
0.0174427
0.0172101
0.0179358
0.017816
0.0179193
0.0155046
0.0159741
0.0158153
0.0156539
0.015055
0.0162343
0.0276534
0.0272768
0.027317
0.0277461
0.027323
0.026741
0.0341005
0.030922
0.0310645
0.0343725
0.0356928
0.0302968
0.282204
0.274111
0.277503
0.278922
0.27841
0.280951
0.0001065
0.000103091
0.000103091
0.000101274
9.79322e-05
0.000103375
8.27764e-05
8.36183e-05
7.75658e-05
7.12169e-05
7.05374e-05
7.18766e-05
5.37752e-05
5.22312e-05
4.75142e-05
4.29897e-05
4.13323e-05
4.0991e-05
5.20132e-05
4.75142e-05
4.29898e-05
4.12006e-05
3.86849e-05
3.58875e-05
4.92736e-05
4.45626e-05
4.37178e-05
4.0337e-05
3.58875e-05
3.25383e-05
2.40969e-05
1.938e-05
1.89667e-05
2.37501e-05
2.52049e-05
1.60606e-05
2.7796e-05
2.71826e-05
2.66155e-05
2.77196e-05
2.71157e-05
2.50039e-05
7.56741e-06
8.93736e-06
8.86211e-06
7.69904e-06
7.36646e-06
1.08972e-05
1.1372e-06
1.33544e-06
1.30735e-06
1.11826e-06
9.75731e-07
1.48158e-06
0.000433412
0.000312345
0.000409352
0.000545684
0.000849578
0.000622127
0.00901962
0.0080071
0.00833325
0.00926067
0.0104994
0.00832942
0.0923281
0.0923227
0.0923463
0.0923372
0.0923373
0.0923372
0.0923324
0.0923382
0.0923324
0.0923365
0.0923389
0.0923373
0.0923415
0.0858652
0.0923249
0.0923306
0.0923407
0.0923395
0.0438791
0.0594859
0.045765
0.0439697
0.0789615
0.0793491
0.0541361
0.0491355
0.0244642
0.00307312
0.030283
0.0133453
0.0612606
0.0495504
0.036732
0.0112378
0.0246091
0.0364569
0.0613087
0.0605901
0.0612054
0.0567306
0.0404568
0.0508312
0.0613158
0.0612922
0.0611356
0.0606978
0.0472504
0.0510798
0.0564978
0.0612392
0.0606395
0.0398628
0.0371255
0.0512523
0.0359651
0.0558552
0.0604552
0.0349323
0.0325565
0.0585931
0.0344773
0.0487187
0.0602296
0.0503869
0.0490437
0.0592396
0.0404673
0.0404803
0.0599621
0.0592717
0.0591004
0.0592396
0.0923281
0.0923283
0.0923308
0.0923336
0.0923372
0.0923372
0.0923275
0.0705342
0.0815627
0.0906419
0.0874639
0.092337
0.0370258
0.020755
0.0173859
0.019557
0.0276133
0.0479872
0.00776565
0.00370493
0.00391339
0.0061527
0.00987202
0.0115928
0.000384666
0.000565606
0.00265471
0.00306607
0.00411184
0.0048309
5.98505e-07
4.29182e-07
0.0021371
0.002614
0.00211812
0.00148506
3.02158e-08
3.89072e-08
0.000307448
0.00110616
0.000688236
1.56164e-08
3.34093e-07
1.69812e-08
3.23373e-08
4.00859e-08
3.21364e-08
2.07069e-08
1.14415e-08
1.21462e-08
1.69787e-08
3.23268e-08
4.00688e-08
3.31326e-08
0.00102502
0.00160188
2.27197e-07
4.18063e-08
8.69712e-07
2.61861e-07
0.00294007
0.00341875
0.000194325
6.62998e-06
2.0263e-05
0.0010787
0.00761295
0.00381774
0.00362756
0.00850909
0.00996762
0.00229072
0.0923235
0.0923274
0.0923282
0.0923283
0.0923303
0.092337
0.0923208
0.0707019
0.0897107
0.0750151
0.0692629
0.0923365
0.0524422
0.00926857
0.00970101
0.00381385
0.0259472
0.061329
0.000628241
1.07099e-05
8.81417e-06
7.99163e-05
0.000483702
0.00415229
9.74904e-07
4.24069e-07
5.01214e-07
0.00011413
1.73568e-06
1.3535e-06
2.45635e-08
3.47282e-08
3.28104e-08
1.25469e-05
2.60239e-08
4.07528e-08
8.34174e-09
3.40641e-08
1.18705e-08
1.64017e-09
6.3319e-09
5.31628e-09
1.14134e-08
3.8859e-08
3.79093e-08
3.46798e-08
4.68834e-08
2.80415e-08
1.13283e-08
1.14405e-08
1.28377e-08
2.63587e-08
4.33653e-07
6.12606e-05
1.00101e-08
1.13266e-08
6.45499e-08
0.000337538
0.00135465
0.000235694
1.27032e-05
0.000892232
0.00189637
0.00424191
0.00429267
0.000103487
0.00453497
0.00801183
0.010601
0.00529595
0.00385829
0.00349445
0.0923105
0.0923198
0.0923274
0.0641927
0.077984
0.092329
0.0762593
0.0769498
0.0786664
0.0414412
0.0422462
0.027197
0.0362659
0.0127018
0.0102816
0.00395001
0.00408694
3.09985e-06
0.000197147
1.12812e-05
6.24376e-06
2.86063e-06
1.3116e-06
6.57662e-08
3.57196e-07
2.77422e-07
1.39936e-07
4.14039e-08
1.36637e-08
1.08287e-08
-4.22001e-10
6.30755e-09
2.49302e-09
1.77345e-10
1.26812e-12
1.15382e-08
5.52904e-09
7.80767e-08
1.33692e-09
1.28725e-10
6.2867e-09
8.32391e-11
3.17802e-08
5.31148e-07
8.35716e-07
1.63806e-09
1.05954e-10
5.31622e-09
1.14434e-08
4.78098e-07
5.23505e-06
6.91802e-08
4.05397e-08
2.15289e-05
2.1798e-08
2.67877e-07
4.44068e-06
3.76807e-06
3.74581e-06
5.74658e-05
2.37832e-05
2.61546e-06
4.26999e-06
0.00458141
0.00584065
4.33889e-06
0.0130587
0.0130323
0.0113973
0.0125447
0.0125447
0.0125109
0.000103815
0.000103013
0.000103092
0.000104035
0.000105411
0.00010664
0.000192642
0.000176739
0.000183126
0.000172512
0.000160428
0.000185343
0.000358111
0.000226863
0.000216317
0.000331456
0.000387202
0.000225485
0.000103013
0.000103092
0.000103013
0.000103092
0.000102507
0.000108013
0.000444331
0.000145139
0.000146652
0.000450394
0.000607333
0.000220362
0.000538197
0.000485733
0.000459216
0.000577812
0.000599261
0.000466114
0.00023389
0.000103036
0.000103092
0.000211544
0.000527927
0.000107055
0.000665908
0.000423087
0.000397599
0.000703092
0.000703092
0.000490895
0.000538624
0.000530867
0.000517469
0.000509856
0.000411017
0.000536996
0.000714065
0.000324915
0.000422675
0.000753864
0.000775381
0.00033819
0.000690615
0.000684203
0.000668103
0.000593358
0.000607436
0.000605277
0.000101411
0.000232387
0.000219446
4.87719e-05
1.34975e-20
0.000427046
0.000714065
0.000718908
0.00073224
0.000749534
0.000767745
0.000688584
0.000189827
0.000180153
0.000218192
5.65272e-05
6.95008e-08
6.44119e-05
8.10973e-24
3.24772e-24
2.75387e-24
2.03587e-23
8.90894e-18
2.19332e-24
0.000271991
0.000175315
0.000188681
0.000191717
9.36462e-05
2.85533e-05
1.00184e-10
4.74064e-11
4.21163e-11
9.80725e-11
1.42978e-10
3.52815e-11
3.97582e-18
3.20435e-18
3.28113e-18
-6.88909e-17
-2.2688e-16
3.6185e-18
6.34637e-07
3.99797e-07
3.72865e-07
6.21489e-07
8.089e-07
3.23435e-07
7.16364e-09
3.50056e-09
3.14625e-09
6.95973e-09
1.00735e-08
2.66382e-09
9.4559e-11
4.71486e-11
4.12644e-11
9.1401e-11
1.35904e-10
3.52324e-11
1.14263e-06
1.06943e-06
1.02602e-06
1.11613e-06
1.0749e-06
9.91982e-07
3.89525e-08
3.00655e-08
2.80359e-08
3.73047e-08
4.03454e-08
2.65826e-08
1.05067e-08
4.71477e-09
4.19457e-09
1.02686e-08
1.55501e-08
3.53951e-09
2.15274e-07
2.65219e-07
2.625e-07
2.1918e-07
2.05832e-07
3.34531e-07
1.66351e-08
2.03199e-08
1.92666e-08
1.62685e-08
1.35869e-08
2.18542e-08
5.75973e-08
5.2499e-08
5.06407e-08
5.75711e-08
5.6122e-08
4.62099e-08
1.42096e-08
1.67791e-08
1.60796e-08
1.40727e-08
1.25175e-08
1.90148e-08
8.22359e-10
9.16799e-10
9.00437e-10
8.25838e-10
7.72978e-10
9.73601e-10
2.39734e-07
2.39747e-07
2.39741e-07
2.39719e-07
2.3972e-07
2.39709e-07
3.20761e-10
3.28575e-10
3.24225e-10
3.24182e-10
3.13788e-10
3.5001e-10
1.04596e-11
1.11002e-11
1.09317e-11
1.04937e-11
1.00323e-11
1.15163e-11
4.3089e-08
4.31626e-08
4.29418e-08
4.31762e-08
4.22724e-08
4.33955e-08
0.00534437
0.00563903
0.0055644
0.00525511
0.00499783
0.00556594
9.53329e-14
9.84413e-14
9.69989e-14
9.66517e-14
9.43218e-14
1.01245e-13
-8.01767e-17
-9.33212e-17
-1.1169e-16
-1.09521e-16
-8.90492e-17
7.04629e-18
0.0402521
0.0400284
0.0396724
0.0394571
0.0391951
0.0398991
7.76492e-28
4.3217e-28
1.2079e-28
4.19043e-28
1.21169e-27
5.38192e-28
7.46554e-13
4.08102e-13
1.14307e-13
4.09217e-13
1.1794e-12
5.48957e-13
0.0421646
0.0424919
0.0426808
0.0423246
0.0419656
0.0424432
-3.21626e-16
-2.50959e-16
-2.83822e-16
-9.88737e-17
-1.74886e-15
-1.31768e-16
-5.95437e-27
-5.06765e-27
-6.83829e-27
-5.32764e-27
-8.72126e-27
-3.79282e-27
0.043783
0.0437879
0.0438087
0.0438311
0.0438329
0.0438347
-8.57972e-16
-7.2882e-16
-1.13875e-15
-2.69628e-16
-7.63439e-15
-4.82353e-16
-8.74625e-27
-8.31982e-27
-9.01626e-27
-8.08973e-27
-1.45644e-26
-5.40138e-27
0.0433047
0.0432681
0.0432827
0.0433126
0.0433935
0.0434049
-5.97977e-16
-4.89493e-16
-8.32453e-16
-1.20315e-16
-5.2837e-15
-2.86745e-16
-7.48126e-27
-8.6096e-27
-9.41964e-27
-8.95286e-27
-9.90826e-27
-6.81287e-27
0.0430304
0.0429902
0.0430041
0.0430253
0.0431016
0.0431143
-3.08387e-16
-2.51116e-16
-4.44485e-16
-3.67487e-17
-2.71671e-15
-1.43546e-16
-5.61008e-27
-6.53307e-27
-7.14196e-27
-6.89971e-27
-7.57313e-27
-5.3225e-27
0.0391758
0.0392159
0.0391821
0.0390683
0.0390282
0.0391817
-1.40161e-20
-1.1461e-20
-2.01268e-20
-1.67341e-21
-1.23285e-19
-6.59988e-21
1.02684e-17
1.00368e-17
9.95982e-18
1.0176e-17
1.07304e-17
1.071e-17
0.0831499
0.0433858
0.0904917
0.0795999
0.045632
0.0740344
0.0183035
4.43712e-06
0.0241147
0.0499851
1.57817e-06
0.00842851
0.000953736
3.71189e-18
0.00413073
0.00775005
3.90679e-19
8.28051e-07
3.04755e-06
0.049911
0.0229128
0.0224038
0.0170506
2.55274e-06
2.88934e-07
0.0145881
7.84658e-08
1.04121e-06
0.00660611
1.62353e-06
1.37823e-18
0.000356685
-2.35887e-16
-4.93928e-14
0.000185018
1.56674e-06
5.51723e-06
0.00845059
0.00258973
0.00048064
2.33643e-06
3.99114e-08
0.000260443
0.00169533
7.35282e-05
1.08207e-05
0.000332487
8.4615e-05
1.27652e-05
-1.70229e-14
-2.11575e-12
-2.81799e-13
4.60405e-05
1.90899e-05
7.69341e-05
1.14211e-06
6.87171e-07
1.51235e-07
2.89701e-09
5.00548e-10
2.5692e-07
4.37553e-07
2.09246e-06
2.62257e-07
1.72779e-10
1.94993e-12
1.84672e-10
5.77062e-10
6.78764e-08
2.6143e-09
1.11139e-20
1.10635e-21
7.50626e-07
6.59707e-09
2.41047e-09
1.20352e-10
-8.55978e-12
4.94536e-11
1.09054e-08
1.07745e-10
5.49037e-11
2.01499e-12
5.99293e-15
4.44609e-12
1.89004e-12
5.03043e-12
1.65558e-12
2.23352e-13
6.0079e-14
3.48986e-12
3.99759e-12
9.6189e-09
7.7141e-10
8.03744e-13
1.27606e-13
6.95693e-12
2.60905e-12
1.12432e-10
1.56812e-12
1.06056e-13
1.1833e-13
1.58428e-13
1.89003e-12
1.36134e-12
2.74903e-13
1.20153e-13
1.20141e-13
1.20156e-13
2.57735e-09
6.4311e-09
1.34949e-10
4.01545e-12
1.74335e-12
1.79084e-12
5.94172e-10
3.71873e-11
5.08672e-11
1.83485e-12
2.59732e-12
1.19193e-12
3.03754e-11
5.03043e-12
1.6556e-12
1.89698e-11
1.86855e-12
2.35852e-13
2.28837e-09
1.22512e-08
2.8808e-08
3.48992e-10
4.57912e-12
4.82305e-11
5.89303e-10
3.16745e-10
2.5724e-10
3.18813e-09
4.47761e-10
1.8295e-12
5.7342e-10
8.03847e-09
6.67439e-09
1.87983e-09
7.01464e-11
3.34938e-10
9.24797e-09
3.64807e-08
4.37322e-07
1.87143e-08
6.11852e-10
3.40734e-08
2.6048e-07
7.9643e-07
6.29587e-07
7.57997e-08
2.14854e-10
3.90015e-08
2.50665e-08
1.5296e-07
7.04178e-08
1.14511e-08
2.09185e-10
7.2252e-09
3.30266e-07
2.40523e-07
5.72898e-07
1.91911e-07
4.2287e-09
4.49867e-07
8.37538e-06
7.09541e-06
2.33868e-06
4.25841e-07
4.29229e-12
6.68531e-07
4.58678e-08
1.14528e-08
-1.64439e-19
-2.08028e-14
-3.73844e-15
4.02153e-15
7.75208e-06
3.3382e-06
1.50167e-06
7.2487e-09
-7.64288e-11
3.80641e-09
1.45189e-05
1.27765e-05
2.58241e-06
9.83012e-15
-3.57266e-15
2.1636e-11
-3.14501e-17
-1.49954e-15
-2.2054e-15
-8.34666e-16
-2.55416e-19
-3.60651e-15
0.012634
0.00956402
0.00709329
0.00872916
0.00954542
0.0113164
6.44247e-15
3.5149e-15
1.01684e-15
3.07977e-16
6.37764e-18
2.83351e-16
2.15456e-20
-2.97247e-16
6.50127e-21
2.95576e-20
6.09883e-21
2.14622e-20
)
;

boundaryField
{
    seabed_topleft_surface
    {
        type            zeroGradient;
    }
    seabed_topright_surface
    {
        type            zeroGradient;
    }
    breakwater_top_surface
    {
        type            zeroGradient;
    }
    breakwater_left_surface
    {
        type            zeroGradient;
    }
    breakwater_right_surface
    {
        type            zeroGradient;
    }
    water_front_surface
    {
        type            zeroGradient;
    }
    water_back_surface
    {
        type            zeroGradient;
    }
    water_left_surface
    {
        type            zeroGradient;
    }
    water_right_surface
    {
        type            zeroGradient;
    }
    water_top_surface
    {
        type            inletOutlet;
        inletValue      uniform 0;
        value           nonuniform List<scalar> 
180
(
0.000358111
0.000226863
0.000216317
0.000331456
0.000387202
0.000225485
0.000538197
0.000485733
0.000459216
0.000577812
0.000599261
0.000466114
0.000538624
0.000530867
0.000517469
0.000509856
0
0.000536996
0
0
0
0
0
0
0
0
0
0
0
0
0
0
0
0
0
0
9.4559e-11
4.71486e-11
4.12644e-11
9.1401e-11
1.35904e-10
3.52324e-11
1.05067e-08
4.71477e-09
4.19457e-09
1.02686e-08
1.55501e-08
3.53951e-09
5.75973e-08
5.2499e-08
5.06407e-08
5.75711e-08
5.6122e-08
4.62099e-08
0
0
0
0
0
0
0
0
0
0
0
0
0
0
0
0
0
0
0
0
0
0
0
0
0
0
0
0
0
0
0
0
0
0
0
0
0
0
0
0
0
0
0
0
0
0
0
0
0
0
0
0
0
0
0.000953736
0
0.00413073
0.00775005
0
8.28051e-07
0
0.000356685
0
0
0.000185018
0
1.27652e-05
0
0
0
4.60405e-05
1.90899e-05
1.84672e-10
5.77062e-10
6.78764e-08
2.6143e-09
0
0
1.89004e-12
5.03043e-12
1.65558e-12
2.23352e-13
6.0079e-14
3.48986e-12
1.89003e-12
1.36134e-12
2.74903e-13
1.20153e-13
1.20141e-13
1.20156e-13
3.03754e-11
5.03043e-12
1.6556e-12
1.89698e-11
1.86855e-12
2.35852e-13
5.7342e-10
8.03847e-09
6.67439e-09
1.87983e-09
7.01464e-11
3.34938e-10
2.50665e-08
1.5296e-07
7.04178e-08
1.14511e-08
2.09185e-10
7.2252e-09
0
0
0
0
0
0
0
0
0
0
0
0
0
0
0
0
0
0
)
;
    }
}


// ************************************************************************* //
