/*--------------------------------*- C++ -*----------------------------------*\
| =========                 |                                                 |
| \\      /  F ield         | OpenFOAM: The Open Source CFD Toolbox           |
|  \\    /   O peration     | Version:  v1612+                                |
|   \\  /    A nd           | Web:      www.OpenFOAM.com                      |
|    \\/     M anipulation  |                                                 |
\*---------------------------------------------------------------------------*/
FoamFile
{
    version     2.0;
    format      ascii;
    class       volVectorField;
    location    "7.65";
    object      U;
}
// * * * * * * * * * * * * * * * * * * * * * * * * * * * * * * * * * * * * * //

dimensions      [0 1 -1 0 0 0 0];

internalField   nonuniform List<vector> 
1116
(
(0.420887 0.000467944 -0.346676)
(0.420307 0.000346378 -0.346539)
(0.42072 -0.000527356 -0.346353)
(0.420708 -0.0008045 -0.346796)
(0.420404 -6.29186e-05 -0.347171)
(0.421316 0.000365141 -0.34645)
(0.975175 0.00033119 -0.461497)
(0.9742 0.000475141 -0.461286)
(0.974736 -0.00035096 -0.460902)
(0.974922 -0.000924702 -0.461669)
(0.974826 0.000871353 -0.462332)
(0.975197 0.00120416 -0.460621)
(1.4299 -6.53652e-05 -0.127846)
(1.42923 0.000119218 -0.127397)
(1.4296 -5.6164e-05 -0.127341)
(1.42971 -0.000219049 -0.127807)
(1.4298 0.000431303 -0.128567)
(1.42952 0.000415723 -0.126851)
(1.09523 -0.000702527 0.275315)
(1.09411 -0.000370587 0.275446)
(1.09493 0.000437369 0.275395)
(1.09462 0.000425383 0.27538)
(1.09462 -0.000102575 0.274982)
(1.09492 -0.000404932 0.275691)
(0.389253 -0.00140111 0.301287)
(0.383149 -0.000666537 0.302398)
(0.385277 0.000881586 0.301805)
(0.387097 0.00105596 0.302243)
(0.388246 -0.000743201 0.301557)
(0.385229 -0.0017575 0.302081)
(-0.258246 -0.00155413 0.107013)
(-0.274047 -0.00145968 0.102041)
(-0.270208 0.0015105 0.102455)
(-0.262794 0.00185941 0.106146)
(-0.258735 -0.00154998 0.107568)
(-0.272166 -0.00267326 0.100735)
(-0.848842 0.000580052 -0.261832)
(-0.863277 -0.00189171 -0.268654)
(-0.860197 0.00143763 -0.266749)
(-0.851969 -0.000329962 -0.264197)
(-0.846895 0.000267926 -0.26026)
(-0.862903 0.00275426 -0.270613)
(-1.17508 0.00381184 -0.591606)
(-1.17582 0.00143416 -0.598163)
(-1.17467 -0.000965722 -0.59559)
(-1.17593 -0.00362705 -0.594042)
(-1.17888 0.00631184 -0.589312)
(-1.17423 0.00976826 -0.599243)
(-1.15454 -0.000257773 -0.723764)
(-1.14514 0.00121757 -0.72432)
(-1.14572 -0.000726006 -0.723448)
(-1.1546 -0.000721101 -0.724828)
(-1.16415 0.00289455 -0.724979)
(-1.14042 0.00153123 -0.72122)
(-1.0186 -0.00407262 -0.673443)
(-1.02086 0.00016385 -0.667495)
(-1.01947 0.00046505 -0.668075)
(-1.01872 0.0046382 -0.673167)
(-1.02434 -0.00390815 -0.680565)
(-1.01665 -0.0102191 -0.657953)
(-0.821578 -0.00696055 -0.536081)
(-0.828832 -0.00403531 -0.520974)
(-0.82925 0.00571134 -0.522689)
(-0.820551 0.0124932 -0.535014)
(-0.822179 -0.00974907 -0.549354)
(-0.834315 -0.0157075 -0.51048)
(-0.416395 0.00362795 -0.387949)
(-0.432946 0.000236396 -0.364771)
(-0.432689 -0.00113867 -0.36857)
(-0.417351 -0.0016421 -0.387077)
(-0.407669 0.00150305 -0.407296)
(-0.438711 0.0099499 -0.357991)
(0.462076 0.00386333 -1.03981)
(0.467988 0.00142781 -1.03325)
(0.461959 -0.00211722 -1.0351)
(0.466544 0.00111946 -1.03758)
(0.474312 -0.00213981 -1.03841)
(0.457906 -0.00431265 -1.03737)
(1.68572 -0.00110802 -0.534625)
(1.68294 -0.0014689 -0.530723)
(1.68197 0.00128159 -0.53036)
(1.68563 0.00459095 -0.53427)
(1.69152 -1.90936e-05 -0.536652)
(1.68045 -0.00503152 -0.527401)
(2.21965 -0.000523083 0.26484)
(2.2164 -0.000116461 0.264894)
(2.21626 0.000213172 0.265717)
(2.21951 -0.000514301 0.264274)
(2.22284 0.00228071 0.263887)
(2.21434 0.00184335 0.26743)
(2.21756 -0.00137518 0.778572)
(2.21844 -0.000746635 0.777684)
(2.21798 0.000688289 0.777616)
(2.21821 -0.000471959 0.778472)
(2.21853 0.000772337 0.779834)
(2.21828 0.00124056 0.776363)
(1.91403 0.00223183 0.910255)
(1.91218 0.00167857 0.916752)
(1.91321 -0.00110637 0.915748)
(1.91323 -0.000887611 0.911519)
(1.91191 0.00246595 0.910225)
(1.91367 0.00300592 0.91579)
(2.15374 0.00931764 0.876712)
(2.14619 0.00481406 0.877388)
(2.13627 -0.00449706 0.877767)
(2.16008 -0.00658663 0.876981)
(2.16555 0.00503622 0.875916)
(2.14037 0.00852544 0.879504)
(2.49384 0.00547011 0.94727)
(2.54203 0.00244299 0.931313)
(2.51919 -0.00309964 0.933015)
(2.51899 -0.00734877 0.943251)
(2.50798 0.00354756 0.940893)
(2.52665 0.017775 0.938803)
(3.01282 -0.004528 0.802146)
(3.08373 -0.0003053 0.808309)
(3.06232 -0.000785165 0.807651)
(3.0355 -0.0043956 0.800606)
(3.00446 0.00272628 0.792388)
(3.08598 0.0209522 0.831122)
(2.45502 -0.0137324 0.438177)
(2.52203 0.000202856 0.443044)
(2.5124 -0.00346705 0.442029)
(2.46835 -0.00216969 0.437038)
(2.3932 -0.00535988 0.433019)
(2.60137 -0.00723238 0.447509)
(0.991606 -0.0330041 0.338471)
(1.01591 -0.00697549 0.346472)
(1.02016 0.00816239 0.34229)
(0.997323 0.0246858 0.340106)
(0.956683 -0.0236494 0.345308)
(1.07947 -0.0520961 0.333988)
(0.368952 -0.0524666 0.248447)
(0.269516 -0.0169809 0.203856)
(0.290929 0.0346865 0.206204)
(0.371505 0.0747647 0.249803)
(0.419507 -0.0365621 0.283785)
(0.242197 -0.0847048 0.173499)
(0.176224 0.00269809 -0.547958)
(-0.0336838 0.00837803 -0.588984)
(-0.00723529 0.00782589 -0.590837)
(0.171728 0.0274576 -0.547251)
(0.320433 0.00446777 -0.527256)
(-0.0741804 0.011668 -0.602157)
(-0.494255 0.00493931 -2.44684)
(-0.481107 0.00155338 -2.41584)
(-0.500472 0.000232658 -2.42725)
(-0.481588 0.00989638 -2.43598)
(-0.454691 -0.00290256 -2.44057)
(-0.514869 -0.0146077 -2.43741)
(2.4999 -0.00638051 -2.57254)
(2.49642 -0.00872692 -2.57019)
(2.49317 0.00517122 -2.58181)
(2.50087 0.0193741 -2.57011)
(2.51416 -0.013964 -2.56039)
(2.48525 -0.0211498 -2.57807)
(4.2002 -0.00832643 -0.84205)
(4.20768 -0.0101557 -0.846445)
(4.20813 0.0062665 -0.845164)
(4.20133 0.0164506 -0.846326)
(4.20723 -0.0113214 -0.850254)
(4.19078 -0.017427 -0.833785)
(4.6363 -0.0030302 0.412784)
(4.65013 -0.00408275 0.40049)
(4.64841 0.00200894 0.403667)
(4.6398 0.00467883 0.408206)
(4.63412 -0.00448917 0.407635)
(4.65029 -0.00656614 0.407712)
(5.21317 -0.00329618 0.601307)
(5.21083 -0.000485084 0.631321)
(5.21123 -0.0010357 0.634296)
(5.2134 0.00916521 0.602613)
(5.24126 -0.00470391 0.590578)
(5.15934 -0.0101196 0.641382)
(6.62244 -0.00881613 -0.138838)
(6.67971 -0.010227 -0.118574)
(6.6772 0.0030501 -0.107591)
(6.63799 0.018024 -0.145012)
(6.68185 -0.0293686 -0.155165)
(6.62814 -0.0340995 -0.102284)
(7.38946 0.0549239 -0.741699)
(7.78798 0.0410639 -0.826947)
(7.70687 -0.0521626 -0.807327)
(7.53404 -0.0470251 -0.769171)
(7.40546 0.132793 -0.77262)
(7.78344 0.176703 -0.811821)
(1.09965 -0.0724576 -0.159319)
(2.52934 0.0468672 -0.212866)
(2.35718 -0.0800589 -0.203413)
(1.04803 0.0174282 -0.162858)
(0.266644 0.0393905 -0.140463)
(4.02878 0.319961 -0.245036)
(-3.02736 -0.089297 1.23515)
(-3.06198 -0.0541485 1.24434)
(-3.05073 0.0377897 1.26187)
(-3.0569 0.0521065 1.2093)
(-3.30969 -0.188757 1.24364)
(-2.60525 -0.242294 1.18827)
(-3.50737 -0.00995546 1.05135)
(-3.53377 -0.00263385 1.01336)
(-3.5343 -0.0182145 1.02631)
(-3.53905 -0.000927929 1.02824)
(-3.59086 -0.0274659 1.03649)
(-3.47674 -0.0443879 1.05392)
(-2.04923 0.0270017 0.0969239)
(-2.20485 0.0121424 -0.00743207)
(-2.1698 -0.039458 0.00372967)
(-2.10211 -0.039698 0.0725803)
(-2.06434 0.0204055 0.125997)
(-2.17349 0.0447386 0.0258008)
(-1.08933 0.0527147 -0.203328)
(-1.41374 0.0317637 -0.457485)
(-1.35438 -0.0540254 -0.428258)
(-1.09339 -0.0667267 -0.182029)
(-0.86495 0.0312924 0.0393618)
(-1.37219 0.0783589 -0.446951)
(-1.56874 -0.000238665 -3.31152)
(-1.60711 0.0133924 -3.30296)
(-1.54426 -0.0101526 -3.29904)
(-1.61392 -0.0355353 -3.31121)
(-1.7073 0.0191467 -3.31191)
(-1.4964 0.0488814 -3.29101)
(0.827213 0.0373627 -4.67393)
(1.25803 0.0307378 -4.7297)
(1.16052 -0.0603426 -4.75956)
(0.91581 -0.102426 -4.68217)
(0.863829 -0.00443555 -4.54017)
(1.11349 0.132785 -4.79757)
(3.3203 0.125382 -2.52872)
(3.94113 0.0870753 -2.65596)
(3.8821 -0.143241 -2.67247)
(3.38891 -0.224118 -2.53767)
(2.84729 -0.0602464 -2.44704)
(3.95356 0.223961 -2.67795)
(1.19808 0.28465 -0.364827)
(3.57137 0.393155 -0.38611)
(3.65627 -0.282714 -0.393597)
(1.80624 -0.41657 -0.376525)
(-0.475181 0.395425 -0.377632)
(3.31617 0.932604 -0.39324)
(-0.835167 -0.286331 -1.04421)
(2.06373 0.0405705 -1.05637)
(2.17858 0.278639 -1.07641)
(-0.437083 1.02925 -1.0831)
(-2.04261 0.160238 -1.12301)
(3.88458 0.418601 -1.05108)
(-0.358846 -0.3053 -0.820401)
(-0.654593 -0.285772 -1.07801)
(-0.740796 0.170024 -1.05164)
(-0.633284 0.489828 -0.868756)
(-0.512509 -0.484088 -0.800229)
(0.641632 -0.683447 -1.3183)
(-0.115749 -0.00424714 6.29073)
(0.0506773 0.0363645 5.75498)
(-0.00309438 -0.0655742 5.78605)
(-0.135704 0.00677513 6.29835)
(-0.265407 -0.00330281 6.51247)
(-0.189723 0.0353908 5.28321)
(-2.11054 -0.118161 7.52772)
(-1.61621 -0.0306211 7.93454)
(-1.70405 0.0194217 7.90319)
(-2.2046 0.113451 7.45658)
(-2.72104 -0.0768618 7.10896)
(-0.772598 0.0248637 8.31325)
(-3.58872 -0.0312227 3.79315)
(-3.73076 -0.0434166 4.16822)
(-3.73807 0.000257994 4.16184)
(-3.64912 0.0024094 3.78033)
(-3.82607 -0.130495 3.66472)
(-3.61593 -0.16646 4.62076)
(-3.15364 0.0370417 0.1411)
(-3.16176 -0.00417353 0.253453)
(-3.20157 -0.0732365 0.234327)
(-3.26738 -0.0846461 0.127058)
(-3.40481 -0.0286498 0.0179708)
(-3.25532 0.0277815 0.416849)
(-2.25148 0.0268243 -3.53318)
(-2.07539 0.0133584 -3.18997)
(-2.14787 -0.0162778 -3.26389)
(-2.3899 -0.0306589 -3.60586)
(-2.65439 -0.00105857 -3.83663)
(-2.19001 0.0250232 -3.20311)
(-3.86817 0.0247785 -3.57686)
(-3.94374 0.019096 -3.52633)
(-3.89271 -0.00325374 -3.50596)
(-3.88062 -0.0114437 -3.59068)
(-3.83614 0.0161907 -3.59711)
(-3.88262 0.0287539 -3.48105)
(-0.437175 -0.368431 -0.150207)
(0.0692781 -0.294777 -0.340476)
(-0.291391 -0.199698 -0.174947)
(0.0350402 0.0714419 -0.394367)
(0.916955 -0.0887157 -0.195588)
(-0.142529 0.641158 0.0498868)
(-1.00378 0.0884926 0.316355)
(0.770832 -0.250245 -0.400886)
(1.43246 0.0187934 -1.05796)
(0.428468 0.529625 -0.188778)
(1.20611 -0.297326 0.0701621)
(-0.874154 -0.045879 0.157062)
(0.626681 -0.204201 0.0193147)
(3.16864 0.0977088 -1.42239)
(3.3108 0.0703492 -2.14838)
(2.10733 0.190726 -0.999104)
(2.15852 -0.411221 -0.175756)
(1.25634 -0.412267 -0.420996)
(2.52147 -0.0848797 -0.811729)
(4.94114 0.411872 -2.22094)
(4.33437 0.69085 -2.64972)
(2.44354 0.101261 -1.25528)
(3.24174 -0.407679 -0.515031)
(2.79099 -0.0589306 -0.683325)
(4.45076 0.136612 -1.34742)
(5.87069 0.611124 -2.30945)
(5.28652 0.771872 -2.49492)
(2.14962 0.0305492 1.06187)
(4.60561 -0.414748 -0.524569)
(4.57515 -0.0386235 -0.68415)
(4.6601 0.136768 -1.17093)
(6.00431 0.632902 -2.20177)
(6.197 0.524417 -2.6606)
(5.84635 0.387416 -0.843859)
(5.52107 -0.287595 -0.562793)
(6.08109 -0.0880896 -1.51857)
(4.59855 -0.087172 -1.09748)
(5.51859 0.319166 -2.13717)
(6.06031 0.124414 -2.8597)
(6.09926 0.372337 -2.06416)
(5.57166 -0.122432 -0.858286)
(5.61747 -0.103866 -1.77432)
(4.15399 -0.24466 -1.09756)
(4.81225 -0.0334165 -2.04405)
(5.38044 -0.265572 -2.83285)
(5.21395 0.232476 -2.20663)
(4.97968 0.0853167 -1.19327)
(4.94283 -0.00828314 -1.78849)
(3.46465 -0.275608 -0.934785)
(4.27022 -0.271928 -1.81824)
(4.56664 -0.486944 -2.55251)
(4.32912 -0.0258693 -2.0142)
(4.58221 -0.081726 -1.59203)
(4.19811 0.130078 -1.56099)
(3.01845 -0.275264 -0.503321)
(3.7903 -0.499517 -1.37703)
(3.89119 -0.884432 -2.15197)
(4.02958 -0.338372 -2.06473)
(4.2718 -0.0638739 -1.95329)
(3.39896 0.411121 -1.15488)
(2.52685 -0.180787 -0.0158789)
(3.10353 -0.766361 -0.821051)
(3.16544 -1.1966 -1.6293)
(2.97074 -0.389098 -2.05521)
(2.93489 0.381323 -2.17094)
(2.30439 0.805782 -0.641955)
(1.13811 -0.0921597 0.130004)
(1.632 -0.660525 -0.248355)
(1.84017 -0.51702 -1.09445)
(1.17412 -0.133029 -1.13413)
(0.780312 0.247497 -1.0595)
(0.862914 0.438601 -0.0773706)
(-1.23494 -0.631143 0.0583276)
(0.127095 0.130175 1.09202)
(-1.36191 -0.403279 0.352477)
(0.512849 0.196859 0.69692)
(1.28294 -0.296968 0.931596)
(-0.389135 0.77177 0.0204476)
(-1.49853 0.49469 0.731961)
(0.218842 0.550151 2.77103)
(0.524739 -0.180739 2.10906)
(1.31913 -0.162601 2.4925)
(0.858342 -1.22494 2.15429)
(-2.25673 0.112543 0.267489)
(-0.296019 0.311778 2.64444)
(1.23256 0.662898 4.14631)
(0.84976 -0.81943 3.72488)
(2.23762 -1.57417 3.1324)
(2.14157 -2.00398 2.76718)
(-0.50023 -0.878827 1.50519)
(0.52367 -0.188751 3.43152)
(1.61739 -0.851235 3.20642)
(2.93559 -1.4217 3.86611)
(3.5312 -1.19396 3.4605)
(3.40935 -1.383 2.44595)
(2.38135 -0.601836 2.56003)
(-2.69342 -0.368981 1.49687)
(-0.465843 -2.01972 2.36261)
(4.4293 -1.50328 3.70577)
(4.22054 -0.761358 6.06889)
(4.36498 -0.228364 2.09382)
(4.19003 0.14826 3.21966)
(-5.85035 0.0674179 -1.17183)
(-3.30541 -0.568236 0.866661)
(3.55202 -0.569974 2.87767)
(4.86994 -0.585899 4.3162)
(3.51058 -0.189499 1.61468)
(2.61177 0.635267 1.22164)
(-7.31923 0.319649 -0.738542)
(-6.22222 0.18531 -0.155016)
(-1.50468 -0.284239 1.16025)
(1.66853 -1.33234 0.734884)
(2.00912 -1.22788 0.872708)
(-0.817422 0.15714 -1.23032)
(-8.70567 0.440137 0.360709)
(-8.13208 0.308429 0.340751)
(-3.29442 -0.40932 0.437316)
(-0.671798 -2.05245 -1.20799)
(1.34011 -1.51917 0.430412)
(0.836716 -0.190934 -0.0331878)
(-8.7252 0.735876 1.12854)
(-11.5192 1.66792 1.38467)
(-8.52885 1.86131 0.910975)
(-3.44949 0.311799 0.167277)
(3.40466 0.417123 0.341094)
(2.27313 0.965214 0.37648)
(-0.533115 0.167322 2.03232)
(-0.459437 0.947974 1.82111)
(-2.61576 2.23378 1.36972)
(2.67361 2.10632 0.574902)
(5.76048 1.35068 -0.815548)
(2.25843 2.34893 0.708253)
(2.87165 -0.961862 0.197656)
(3.57292 -0.902953 0.971649)
(2.92115 -0.796323 -0.494755)
(3.67392 1.70275 -4.81678)
(4.77746 -0.110266 -5.57239)
(0.731628 2.53917 0.954347)
(3.1896 0.109001 -3.02203)
(3.92298 0.13369 -3.80436)
(4.19281 0.364877 -5.4711)
(3.26558 0.475104 -3.58271)
(3.1913 -0.406415 -3.37622)
(1.64636 -0.407658 -1.62585)
(-1.40515 -0.441881 -1.66159)
(-0.297023 0.411852 0.0964727)
(-1.76633 -0.0536507 -0.805694)
(-0.071303 0.338383 1.2669)
(1.12752 -0.17559 1.22608)
(-0.967714 0.202788 -1.61162)
(-2.36105 0.11772 -1.14731)
(-1.6935 0.988564 2.55074)
(-1.46891 0.0410927 2.21479)
(-0.463012 0.533196 3.5726)
(-2.12443 -1.40977 1.13482)
(-2.31375 -0.0879329 -2.20323)
(-2.22295 0.307669 0.468406)
(-3.9159 0.919412 4.4841)
(-3.68906 -0.019615 5.20321)
(-3.69917 0.424522 6.44519)
(-3.32219 -1.89911 1.20106)
(-2.66449 -0.284584 -1.69486)
(-3.79195 0.202468 0.848617)
(-5.68131 0.334406 2.47989)
(-4.02443 -0.815828 3.76106)
(-4.04805 -0.800125 3.95052)
(-6.21792 -1.52875 2.35598)
(-4.1477 -0.384886 0.158295)
(-3.70025 -0.28482 -2.54677)
(-4.25422 -0.213842 -3.04042)
(-3.32742 -0.87583 -2.95219)
(-2.12232 -0.426139 -0.294586)
(-5.22375 -0.0683623 -0.579321)
(-3.17926 0.0965768 0.44241)
(-2.42743 -0.208536 -3.6569)
(-3.11153 -0.370547 -4.79129)
(-3.21656 -0.796435 -5.22275)
(-2.27956 -0.413818 -2.97546)
(-3.74177 0.294684 -3.72522)
(-3.58127 0.187178 -3.6758)
(-1.58757 -0.488507 -3.36044)
(-2.74974 -1.30641 -4.7091)
(-3.18027 -1.64841 -5.39595)
(-2.64573 -1.39129 -4.87495)
(-1.9755 -0.674294 -4.69472)
(-1.25208 -0.0348777 -3.83062)
(-1.69806 -0.532629 -1.91927)
(-1.55933 -1.74284 -3.70609)
(-0.363267 -2.45971 -4.1756)
(1.48511 -2.25946 -3.30642)
(2.55721 -1.72308 -2.41037)
(3.00742 -0.559601 -1.16708)
(-5.60576 0.0246884 2.01934)
(-6.54829 -0.0528559 1.01979)
(-3.8939 -0.638228 1.35435)
(-0.277845 -0.67527 4.08681)
(2.14994 -0.364687 2.151)
(3.1832 0.594739 2.35391)
(-3.32933 0.0159475 6.28967)
(-3.01854 0.513595 6.3541)
(-3.53629 0.574285 6.62105)
(1.83714 0.739896 3.15727)
(3.33343 0.586092 -1.83742)
(1.50777 1.99049 2.77377)
(-4.72985 -0.804615 5.88374)
(0.323633 1.05237 -1.34859)
(0.615876 -0.912553 -2.06476)
(3.08356 1.23936 -5.6982)
(4.59973 -0.973418 -6.56212)
(-3.84193 1.65878 3.30413)
(3.93221 0.54293 -4.57906)
(4.57679 0.934154 -6.07254)
(4.01027 0.5844 -5.77766)
(3.22871 0.397089 -4.35416)
(3.6413 -1.17621 -4.31255)
(2.44562 -1.20888 -3.51292)
(0.0988041 -0.287322 -3.66821)
(-0.0617293 0.352513 -1.97008)
(-0.178849 0.0150591 -2.60162)
(-0.28748 0.523991 -0.298857)
(1.10911 -0.216722 0.0240136)
(0.203557 0.266701 -3.58832)
(-1.9392 0.0298486 -2.90935)
(-2.39491 0.989191 0.252086)
(-2.17309 0.0159862 -0.487313)
(-2.62528 1.1698 1.43252)
(-3.19082 -0.777327 -0.0768915)
(-1.77924 0.0594091 -4.86582)
(-2.95695 -0.108669 -1.71875)
(-4.67418 1.11009 2.35042)
(-4.15105 0.181382 2.97133)
(-5.02254 1.35345 5.43586)
(-4.42787 -0.32562 1.50221)
(-0.921088 1.11402 -4.94353)
(-4.34994 -0.222227 0.883181)
(-5.54312 0.48791 3.6025)
(-4.42451 -0.620398 4.41848)
(-3.98586 -0.0286874 4.52889)
(-2.02694 0.250713 1.73421)
(-0.896627 0.955153 -0.465253)
(-3.00962 -0.13808 1.47955)
(-3.65205 0.141062 2.41419)
(-3.23481 -0.393324 2.92805)
(-2.16372 -0.240625 2.12849)
(-1.99064 0.064212 1.65911)
(-2.92417 0.113282 1.46354)
(-1.2457 0.0366731 0.440928)
(-2.2048 0.229288 1.36883)
(-2.47943 -0.352187 1.45855)
(-1.85784 -0.119297 0.827222)
(-1.4712 -0.0364949 1.18781)
(-2.52186 0.117698 2.48712)
(-0.382758 -0.247998 0.964903)
(0.0445218 -0.3721 1.08161)
(0.980296 -0.771127 0.822797)
(0.567917 -0.514478 0.596931)
(0.242776 -0.446156 0.113508)
(0.196025 -0.225108 1.24173)
(0.627627 -0.298241 1.05047)
(2.3952 -0.217573 1.40306)
(3.86935 -1.49279 0.912086)
(3.55186 -1.30797 0.379323)
(2.32825 -1.05664 -0.299789)
(2.98508 -0.597944 -0.314848)
(-0.0215592 0.176712 2.51348)
(-0.205575 0.304825 3.9123)
(1.27177 -1.65389 3.23915)
(3.42082 -0.983825 1.11938)
(2.79137 -0.441598 -0.402047)
(3.89523 0.176772 0.13486)
(0.535812 0.0499048 5.4161)
(-1.25459 0.643936 8.10816)
(-1.42888 -0.828303 7.51908)
(3.083 0.368894 -0.504869)
(3.53246 0.238156 -3.08953)
(2.77828 1.15053 0.686098)
(-6.05707 0.414026 4.90283)
(-7.17025 2.21143 5.28302)
(-7.73661 0.806937 4.69644)
(3.22968 1.39199 -5.50494)
(4.53608 -0.978174 -5.98047)
(-6.74425 -0.158607 2.85686)
(4.24105 0.130968 -4.30989)
(3.92176 0.324979 -4.8671)
(3.61216 0.747254 -4.799)
(3.46356 0.891067 -4.2892)
(3.82894 -0.827829 -4.13985)
(3.44479 -0.90702 -3.81886)
(-0.555719 0.0300885 -3.967)
(-0.693298 0.0712711 -4.21443)
(-0.34542 -0.12793 -4.10507)
(-0.776212 -0.314886 -4.03921)
(-1.29624 0.07924 -4.02943)
(-0.101509 0.342141 -4.0061)
(-2.96054 -0.027528 -2.09377)
(-3.12044 0.0602759 -2.15257)
(-2.48914 -0.0813024 -2.27076)
(-3.28202 -0.304376 -2.01138)
(-4.20527 0.163857 -1.76831)
(-2.03329 0.456652 -2.27479)
(-4.10855 -0.107022 7.03981)
(-4.29342 0.0389334 6.81178)
(-3.54759 0.0469036 6.61727)
(-4.47844 -0.0290544 7.06666)
(-5.51841 0.172751 7.27721)
(-2.76513 0.470663 6.49459)
(-1.55278 0.228322 -2.20291)
(-0.239276 0.177431 -2.53792)
(-0.106243 -0.268311 -2.56749)
(-1.41384 -0.359769 -2.26264)
(-2.92399 0.0452189 -1.76604)
(-0.0917183 0.380876 -2.68309)
(-8.46257 0.146084 1.52366)
(-8.27846 0.129124 2.06658)
(-7.70032 -0.196538 1.81291)
(-8.75185 -0.164828 1.77122)
(-9.57321 0.0787914 1.5348)
(-7.16007 0.322254 1.61524)
(-8.1213 -0.099007 4.66211)
(-8.45084 -0.0935356 5.28053)
(-8.05174 0.0629528 5.04817)
(-8.19349 0.375177 4.59843)
(-8.50133 -0.293814 3.90036)
(-7.15214 -0.304058 5.19074)
(-7.91987 0.0899752 0.516665)
(-6.51461 0.148975 0.240862)
(-6.21456 -0.155745 0.143039)
(-7.86608 -0.0465876 0.546524)
(-9.37387 0.126828 0.835197)
(-5.7526 0.485434 0.138353)
(-10.3134 0.105417 2.08848)
(-10.299 0.125008 3.25626)
(-9.9559 -0.15588 3.15779)
(-10.365 -0.111654 2.13138)
(-10.5116 0.194102 0.995919)
(-9.45627 0.389009 3.36272)
(-7.64566 -0.0822431 0.0777431)
(-8.67043 -0.024571 1.74946)
(-8.5812 -0.0249772 1.77308)
(-7.48229 0.145106 -0.171177)
(-6.70081 -0.197119 -2.06808)
(-8.63757 -0.0552581 3.06988)
(-8.47841 -0.0580123 1.76729)
(-7.44603 -0.0137965 2.01616)
(-7.43213 0.00146984 1.97917)
(-8.37619 0.141928 1.76809)
(-9.071 0.00130855 1.29384)
(-6.49636 0.167597 2.21209)
(-8.17382 0.0452621 -0.785274)
(-8.84892 0.0340921 0.679509)
(-8.71992 -0.0902947 0.610958)
(-8.10663 -0.0614259 -0.924589)
(-7.55763 0.129903 -2.20417)
(-8.53525 0.085056 1.38576)
(-3.9841 0.048545 -4.89654)
(-5.53099 0.0691553 -3.65351)
(-5.44114 -0.150381 -3.67772)
(-3.63645 -0.0991901 -5.26971)
(-2.60121 0.152104 -6.02684)
(-6.57423 0.262751 -1.98442)
(-7.48444 -0.0891866 1.10318)
(-7.68129 -0.0761446 1.38832)
(-7.66229 0.0138431 1.25291)
(-7.4893 0.0422875 1.07227)
(-7.50493 -0.0703104 0.85025)
(-7.0751 -0.0689257 1.81914)
(-5.21993 0.0262221 -2.72586)
(-5.62081 0.00498222 -2.35076)
(-5.56754 -0.126254 -2.4212)
(-5.02037 -0.206554 -2.98794)
(-4.79238 -0.0509504 -3.37591)
(-5.85695 -0.034508 -1.77923)
(-1.97316 0.087694 -4.72498)
(-2.1961 0.0741292 -4.77962)
(-2.1608 -0.146702 -4.76734)
(-1.91544 -0.184707 -4.76471)
(-1.83162 0.149965 -4.74035)
(-2.54137 0.237409 -4.57554)
(-5.43996 -0.0161157 0.928373)
(-5.60929 0.00333639 0.609799)
(-5.5481 -0.0404617 0.449979)
(-5.45534 -0.0310882 0.946888)
(-5.57288 -0.0257641 1.45214)
(-5.65651 -0.0263237 1.04157)
(-3.48617 0.051447 -1.95202)
(-3.32859 0.0397991 -2.36191)
(-3.28049 -0.174137 -2.34971)
(-3.54766 -0.286382 -1.89941)
(-3.67106 -0.00790086 -1.71345)
(-3.43807 0.119534 -2.01129)
(-1.64933 0.0570001 -2.25546)
(-1.57822 0.0455683 -2.42939)
(-1.56988 -0.0709152 -2.37843)
(-1.7017 -0.104733 -2.1769)
(-1.70737 0.0706414 -2.10645)
(-1.59545 0.109489 -2.34395)
(-3.87207 -0.0350796 4.3517)
(-3.87215 0.00156732 3.53385)
(-3.86105 -0.00652748 3.4065)
(-3.92423 0.0804947 4.29658)
(-4.03152 -0.0149709 4.84032)
(-4.10733 -0.0454715 3.51943)
(-2.77823 0.0415591 1.43799)
(-2.72528 0.0608147 0.994119)
(-2.64111 -0.0861531 0.921131)
(-2.78694 -0.121498 1.43641)
(-2.85415 0.0214257 1.67147)
(-2.63637 0.0898111 0.88343)
(-1.71701 0.0320151 0.705488)
(-1.68497 0.0341279 0.599597)
(-1.65576 -0.0243329 0.604181)
(-1.69197 -0.0502191 0.690866)
(-1.70127 0.033485 0.753316)
(-1.60593 0.0513118 0.580307)
(-1.71652 -0.104144 5.84509)
(-1.71477 -0.0648156 5.828)
(-1.71566 0.0606876 5.72118)
(-1.73089 0.149703 5.73357)
(-1.89896 -0.111839 5.50226)
(-1.72855 -0.132149 6.01492)
(-0.468 -0.00889995 3.18447)
(-0.502638 0.0104288 2.91483)
(-0.483269 0.0124984 2.8431)
(-0.454356 0.0501972 3.10364)
(-0.439423 -0.0456646 3.08071)
(-0.57005 -0.0761386 2.83178)
(-0.71926 0.0212808 1.92329)
(-0.751995 0.0236872 1.85575)
(-0.751372 -0.0124289 1.84368)
(-0.717718 -0.0140691 1.89743)
(-0.692784 0.0144224 1.89794)
(-0.748078 0.0117168 1.84099)
(-1.19886 -0.0260893 3.14927)
(-1.32218 -0.0343065 3.42398)
(-1.34582 0.0247695 3.43903)
(-1.23218 0.0537264 3.15908)
(-1.27654 -0.0878043 3.11761)
(-1.40571 -0.110417 3.74542)
(0.793981 -0.027361 2.50639)
(0.771073 -0.0354885 2.55572)
(0.75377 0.0175144 2.56215)
(0.774132 0.0350384 2.53721)
(0.764999 -0.0723529 2.54985)
(0.746809 -0.0743256 2.60317)
(-0.0174328 -0.00379178 1.38415)
(-0.0277518 -0.00772769 1.37729)
(-0.029001 -0.00652351 1.37928)
(-0.0217279 -0.00817857 1.40848)
(-0.0195919 -0.0111069 1.4163)
(-0.027191 -0.00443819 1.39251)
(-0.611988 0.00428803 0.764367)
(-0.70805 0.0119953 0.850342)
(-0.71982 0.0263688 0.816651)
(-0.636672 0.0398554 0.761668)
(-0.582349 -0.0127586 0.704094)
(-0.789795 -0.0302249 0.860214)
(1.62553 -0.0126413 0.934541)
(1.59965 0.000233545 0.97626)
(1.59978 0.0222848 0.962572)
(1.62632 0.0317296 0.939665)
(1.66305 -0.0137759 0.906491)
(1.59198 -0.0335674 0.993767)
(0.556912 -0.00247894 -0.251295)
(0.562033 -0.0031147 -0.247786)
(0.559403 -0.00188209 -0.258886)
(0.559743 -0.000737398 -0.255912)
(0.554543 -0.00469025 -0.277162)
(0.565739 -0.00546275 -0.251968)
(-2.36933 -0.0249501 -1.50596)
(-2.46673 0.00443709 -1.40085)
(-2.4517 0.0622011 -1.46023)
(-2.34185 0.0755013 -1.54425)
(-2.26523 -0.00655797 -1.67931)
(-2.46928 -0.0472165 -1.50707)
(1.7309 -0.00751086 -0.817411)
(1.71554 0.00803897 -0.827518)
(1.71823 0.025276 -0.830676)
(1.73197 0.0308044 -0.838521)
(1.75372 0.00674328 -0.848193)
(1.70533 -0.0133452 -0.824457)
(0.951024 0.00204868 -1.62919)
(0.95569 0.000127734 -1.62396)
(0.954446 -0.0027355 -1.63296)
(0.951491 -0.00270871 -1.63907)
(0.946096 -0.00141426 -1.65308)
(0.957555 0.000333737 -1.64158)
(-3.61053 -0.0097073 -2.18003)
(-3.63651 -0.00584002 -2.14718)
(-3.63324 0.0101583 -2.17358)
(-3.61026 0.0156047 -2.21017)
(-3.58931 -0.0059 -2.26149)
(-3.65246 -0.0135013 -2.19109)
(1.5779 0.00318361 -3.43275)
(1.56598 0.0097661 -3.51171)
(1.56522 -0.00224139 -3.4968)
(1.57481 -0.00860786 -3.44242)
(1.58788 0.0124826 -3.39885)
(1.54948 0.0127425 -3.5017)
(1.25003 0.00282383 -1.20944)
(1.24677 0.00298324 -1.23591)
(1.24546 -0.00191193 -1.23378)
(1.24639 -0.00281396 -1.22086)
(1.24488 0.0021436 -1.21162)
(1.25031 0.00286715 -1.24195)
(2.15818 -0.00104707 0.204974)
(2.24799 0.00733139 0.269507)
(2.31841 0.0389159 0.268238)
(2.30088 0.0317888 0.292668)
(2.27963 -0.0233703 0.278434)
(2.21788 -0.0249029 0.257124)
(1.48502 -0.0262827 -3.67432)
(1.44876 -0.0624929 -3.74576)
(1.28426 -0.0686991 -3.96447)
(1.16464 -0.0676095 -4.26433)
(1.01584 -0.0451409 -4.2472)
(1.18341 -0.00742495 -4.0609)
(0.239879 0.0206496 -0.601418)
(0.209074 0.0810086 -0.633967)
(0.149464 0.170365 -0.599412)
(0.201837 0.187205 -0.511633)
(0.210478 0.0828847 -0.455192)
(0.322661 0.00210441 -0.489575)
(0.443166 -0.00980236 -0.134631)
(0.443037 -0.0278634 -0.157239)
(0.445868 -0.0311979 -0.174836)
(0.462242 -0.0267513 -0.19506)
(0.469137 -0.00354015 -0.198026)
(0.449774 0.0108519 -0.182457)
(0.164021 -0.00907909 -1.84233)
(0.113982 -0.0360738 -1.98816)
(0.0714057 -0.0570066 -2.14216)
(0.066487 -0.0685367 -2.16746)
(0.05541 -0.034364 -2.13177)
(0.0208939 0.00593946 -1.98432)
(0.374521 0.0179271 -1.66114)
(0.383844 0.0450274 -1.69281)
(0.415847 0.0596877 -1.65714)
(0.475538 0.0502406 -1.63229)
(0.52183 0.0240717 -1.60611)
(0.507753 0.00590803 -1.64835)
(0.27158 -0.00476153 0.177853)
(0.266683 -0.0109761 0.176117)
(0.25843 -0.00386271 0.173733)
(0.245263 0.00307588 0.178039)
(0.236522 -0.00158713 0.17522)
(0.247664 -0.00167984 0.169409)
(0.672345 -0.0176471 -0.902062)
(0.670654 -0.0371324 -0.919194)
(0.655761 -0.0326921 -0.925551)
(0.627818 -0.0268893 -0.910263)
(0.597469 -0.0211401 -0.906542)
(0.606901 -0.00588067 -0.894928)
(0.0207119 0.0094025 -1.26028)
(0.0344678 0.0257586 -1.26629)
(0.0526201 0.0353366 -1.25609)
(0.0722025 0.0351344 -1.26069)
(0.0785149 0.0212424 -1.26419)
(0.0811219 0.00477604 -1.25691)
(-0.216041 -0.000653449 0.183374)
(-0.218492 -0.00327326 0.182956)
(-0.220913 -0.00813735 0.182188)
(-0.218615 -0.0105762 0.184301)
(-0.215618 -0.00422426 0.186265)
(-0.214767 0.00124275 0.177602)
(-0.0963989 -0.00361156 -1.04202)
(-0.101057 -0.0108585 -1.03204)
(-0.107454 -0.0173048 -1.02372)
(-0.109317 -0.0214088 -1.03356)
(-0.113692 -0.0106314 -1.04403)
(-0.123517 0.00109938 -1.02594)
(-0.241416 0.00422506 -1.40983)
(-0.236315 0.0121447 -1.41995)
(-0.228344 0.0177372 -1.41595)
(-0.221605 0.0165299 -1.41642)
(-0.216255 0.0088484 -1.41667)
(-0.212109 0.00203671 -1.41443)
(-0.579263 -0.00045366 -0.0992305)
(-0.581092 -0.0022907 -0.0999739)
(-0.583738 -0.00797828 -0.100227)
(-0.588796 -0.0109087 -0.100139)
(-0.591058 -0.00419875 -0.0980547)
(-0.587511 0.000895633 -0.104372)
(0.0851242 -0.00249932 -2.16812)
(0.0760131 -0.00387328 -2.16329)
(0.0755553 -0.0026854 -2.16034)
(0.0729036 -0.00206182 -2.19638)
(0.0737588 -0.00185659 -2.22521)
(0.0618129 -0.00102007 -2.1944)
(-0.76507 0.00182429 -1.40436)
(-0.765116 0.00667193 -1.40898)
(-0.761057 0.0127083 -1.40601)
(-0.755956 0.0143085 -1.40127)
(-0.751456 0.00552238 -1.40242)
(-0.75346 -0.00097048 -1.40191)
(-2.20861 0.000444195 0.43546)
(-2.21599 -0.000365098 0.425197)
(-2.21724 -0.00151194 0.427315)
(-2.22794 -0.00200775 0.437655)
(-2.23282 -0.00291212 0.450005)
(-2.22654 -0.00143643 0.419682)
(-0.142048 0.00202115 -4.87809)
(-0.142996 0.000312463 -4.8837)
(-0.146398 -0.00455113 -4.87813)
(-0.132124 -0.00804249 -4.87352)
(-0.12728 0.00535874 -4.86885)
(-0.143217 0.0105383 -4.89822)
(-0.0969911 0.00245148 -0.4156)
(-0.0937449 0.00497542 -0.415363)
(-0.0918005 0.00555885 -0.414119)
(-0.0856618 0.0069621 -0.407179)
(-0.0841565 0.00560998 -0.403406)
(-0.0776111 0.00157561 -0.40863)
(1.38786 -1.02795 -3.70334)
(0.720409 0.275713 -2.64721)
(1.22106 0.219969 -3.32465)
(2.0481 -0.170921 -1.63298)
(2.64827 0.273518 -0.126268)
(2.00145 0.965334 -3.16357)
(2.43789 -1.63699 -0.122921)
(1.73945 0.434882 -7.86216)
(1.88306 0.81809 -1.15303)
(2.83939 -0.677796 -1.76711)
(2.67352 -1.96991 -3.27987)
(3.51697 1.21244 0.0808717)
(3.3064 -1.45245 7.39915)
(1.1375 0.62201 -7.71896)
(2.80455 0.382274 8.85639)
(3.20778 -1.39465 7.75677)
(0.526744 -1.89119 -5.17026)
(3.55131 0.457177 2.06963)
(0.836428 -0.183496 -6.34691)
(-2.35133 0.261254 -1.2162)
(-1.30894 -0.644886 -2.15619)
(-3.05341 0.79196 0.205299)
(-3.60165 -0.160043 -0.466961)
(-0.773255 0.339953 -4.88969)
(5.66393 -0.283882 -3.90838)
(-1.43803 0.0533366 -1.81093)
(7.11956 -2.05909 -6.23638)
(0.898984 -0.251486 -3.91087)
(-3.60415 -0.638297 -0.458853)
(5.48767 -0.0111625 -1.3434)
(3.99974 0.154231 -5.12788)
(3.95383 -0.236797 0.910582)
(4.39343 -0.672542 -5.75875)
(4.39214 -0.50776 -3.72704)
(2.05311 -0.619168 0.607144)
(2.3395 -0.0647609 -3.66267)
(0.375563 -1.52114 -2.64559)
(-3.66941 0.206365 1.66892)
(-4.06381 -0.766268 3.88644)
(-4.27929 0.51132 6.28125)
(0.186043 0.724483 2.9018)
(4.90504 1.83922 1.03679)
(2.15059 -1.88841 1.28147)
(-0.473498 -0.441303 2.05778)
(0.223967 -0.990192 5.00601)
(2.36603 -0.788959 4.30327)
(2.62611 0.799416 2.20048)
(3.37142 1.84293 1.95009)
(3.65381 -0.810002 0.30441)
(4.01072 -0.40141 -1.54398)
(2.77463 -0.0414274 -0.0953135)
(3.31 0.0520947 -0.499274)
(3.69353 0.424324 0.343828)
(2.80179 0.636261 1.58559)
(1.49963 -0.859733 1.66061)
(-1.33609 -0.268257 4.20046)
(-1.80079 -0.37543 5.07274)
(-1.17525 0.90642 3.9422)
(0.478118 1.95192 1.10026)
(1.00103 0.976409 0.35317)
(1.4124 -0.523459 2.30035)
(-0.178279 -0.408504 3.21441)
(-0.210099 0.514909 3.38588)
(-0.477925 1.09541 2.27099)
(-0.235648 0.802225 1.27156)
(0.496453 0.311809 0.933625)
(0.945873 0.104124 0.538329)
(0.367287 -0.187844 0.900137)
(0.695594 0.0723776 1.05795)
(0.582187 0.326037 0.575767)
(0.734225 0.0406773 -0.11912)
(0.835006 -0.0427324 -0.191514)
(-0.185805 -0.428992 0.3009)
(-0.55097 -0.429383 0.733596)