/*--------------------------------*- C++ -*----------------------------------*\
| =========                 |                                                 |
| \\      /  F ield         | OpenFOAM: The Open Source CFD Toolbox           |
|  \\    /   O peration     | Version:  v1612+                                |
|   \\  /    A nd           | Web:      www.OpenFOAM.com                      |
|    \\/     M anipulation  |                                                 |
\*---------------------------------------------------------------------------*/
FoamFile
{
    version     2.0;
    format      ascii;
    class       volScalarField;
    location    "5.75";
    object      alpha.water;
}
// * * * * * * * * * * * * * * * * * * * * * * * * * * * * * * * * * * * * * //

dimensions      [0 0 0 0 0 0 0];

internalField   nonuniform List<scalar> 
1116
(
0.347084
0.347065
0.347071
0.347074
0.347072
0.347074
0.525221
0.525189
0.525198
0.525201
0.525194
0.525212
0.950742
0.950739
0.950738
0.950738
0.950737
0.95074
0.974681
0.974681
0.974681
0.974681
0.974681
0.974681
0.974681
0.974681
0.974681
0.974681
0.974681
0.974681
0.974579
0.974579
0.974579
0.974579
0.974579
0.974579
0.973557
0.97356
0.973559
0.973558
0.973559
0.973557
0.967113
0.96713
0.967127
0.967116
0.967119
0.96712
0.960673
0.960714
0.960706
0.960677
0.960664
0.960715
0.958492
0.958548
0.958535
0.958496
0.958464
0.958562
0.95665
0.956697
0.956685
0.956655
0.956634
0.9567
0.953314
0.953329
0.953321
0.953319
0.953313
0.953315
0.149601
0.1494
0.14949
0.149498
0.149459
0.149537
0.680205
0.680318
0.680264
0.680245
0.680293
0.680246
0.94221
0.942226
0.942226
0.942217
0.94221
0.942204
0.929594
0.929688
0.929653
0.929637
0.929672
0.929618
0.854929
0.855006
0.854982
0.854962
0.854989
0.854944
0.719304
0.719424
0.719391
0.719342
0.719379
0.719329
0.532319
0.53242
0.5324
0.532324
0.532359
0.532341
0.408074
0.408124
0.408123
0.408051
0.408099
0.408038
0.360778
0.361093
0.361023
0.360751
0.360464
0.361309
0.386686
0.387289
0.387108
0.386703
0.386061
0.38775
0.470909
0.469537
0.469734
0.470913
0.471889
0.468731
0.385292
0.383928
0.383989
0.385352
0.38642
0.383003
0.134766
0.134597
0.134676
0.134681
0.134639
0.134717
0.275623
0.275634
0.275641
0.275621
0.275625
0.275631
0.161952
0.161966
0.16197
0.161958
0.161968
0.161959
0.101657
0.101677
0.101674
0.101662
0.101671
0.101663
0.0657125
0.0657363
0.0657305
0.0657146
0.0657186
0.0657215
0.0144475
0.0144584
0.014459
0.0144389
0.0144325
0.0144596
4.40585e-07
4.44273e-07
4.44355e-07
4.45028e-07
4.4257e-07
4.39693e-07
1.98068e-06
2.10973e-06
2.05869e-06
2.01811e-06
1.97048e-06
2.07969e-06
8.22172e-06
8.34712e-06
8.30519e-06
8.24686e-06
8.21867e-06
8.31029e-06
1.28148e-05
1.28638e-05
1.28546e-05
1.28142e-05
1.28e-05
1.28436e-05
0.023519
0.0229921
0.0229921
0.0235109
0.023417
0.0230635
0.0201119
0.020111
0.020111
0.020111
0.0201118
0.0201125
0.0445741
0.0445729
0.0445744
0.0445724
0.0445662
0.0445757
0.00250842
0.00249813
0.0025038
0.00250367
0.00250015
0.00250439
3.71676e-07
3.73311e-07
3.7416e-07
3.75785e-07
3.73976e-07
3.69224e-07
3.66331e-07
3.67593e-07
3.69049e-07
3.70278e-07
3.67078e-07
3.63757e-07
3.55517e-07
3.57932e-07
3.58485e-07
3.60485e-07
3.59212e-07
3.52806e-07
3.66331e-07
3.67593e-07
3.69049e-07
3.70278e-07
3.67078e-07
3.63757e-07
3.91443e-07
3.92891e-07
3.93828e-07
3.95728e-07
3.94169e-07
3.88468e-07
4.40549e-07
4.44215e-07
4.44311e-07
4.44987e-07
4.4253e-07
4.39642e-07
1.97062e-06
2.09673e-06
2.04733e-06
2.00726e-06
1.9602e-06
2.06711e-06
8.20424e-06
8.32343e-06
8.28313e-06
8.22998e-06
8.18146e-06
8.29568e-06
0.0235477
0.0247827
0.024456
0.0237336
0.0231626
0.0248714
0.0504558
0.0504564
0.0504564
0.0504566
0.0504569
0.0504569
0.0429836
0.0373583
0.036996
0.0642209
0.0737581
0.0469532
0.0785657
0.0785657
0.0691918
0.0788641
0.0788645
0.0525039
0.0785488
0.0785657
0.0786598
0.0788639
0.0743312
0.0471458
0.0728251
0.071186
0.0763539
0.0691985
0.067752
0.0680524
0.0413375
0.0526165
0.0425671
0.0617969
0.0937222
0.0652954
0.0646387
0.0812731
0.0542409
0.0843423
0.0939436
0.0585703
0.0889317
0.089813
0.0872719
0.0936741
0.0939483
0.0855153
0.0898498
0.0903113
0.0918474
0.0927183
0.0939282
0.0937459
0.0900048
0.090529
0.0912286
0.093116
0.0937565
0.0934426
0.0913452
0.0916732
0.091982
0.0926343
0.0933684
0.0918427
0.0916732
0.0917691
0.0919548
0.0921676
0.0926322
0.0544229
0.0291127
0.0344013
0.0345673
0.0361964
0.068794
0.0318077
0.0330125
0.0350004
0.0376921
0.0354174
0.0340837
0.0452908
0.0195209
0.0153424
0.0159293
0.0158527
0.0115319
0.0143354
0.00544965
0.00521958
0.00576522
0.00495951
0.00351295
0.00390757
0.000436772
0.000495528
0.000369815
0.000642492
0.000886348
0.000798713
6.28535e-11
1.53974e-10
4.95017e-11
6.53628e-11
2.16522e-09
9.76647e-10
7.46306e-10
4.61636e-09
8.12501e-10
1.44368e-09
5.90794e-05
2.83937e-09
3.67392e-08
2.26427e-07
4.31889e-08
5.01187e-08
0.00271168
8.27874e-08
1.9377e-05
5.75213e-06
2.68435e-06
4.81785e-08
0.00546617
1.91161e-05
0.00781785
0.00908847
0.00426461
0.0108587
0.0107013
0.00306212
0.0359091
0.0573034
0.0556367
0.0581031
0.0337767
0.0354229
0.0722201
0.0916064
0.0917873
0.0845363
0.0526743
0.0767585
0.0136423
0.0136401
0.0596042
0.0245538
0.0163488
0.0427221
0.03506
0.0365355
0.0370932
0.0237762
0.0211115
0.0427675
-1.19798e-07
-2.36144e-07
1.30494e-05
5.15055e-08
1.60382e-05
5.02628e-05
-8.45425e-09
-4.47075e-12
-1.51206e-08
-3.09064e-10
-1.01927e-08
-2.48135e-07
2.78965e-21
2.62955e-11
1.79706e-21
5.18921e-11
1.06934e-09
7.00228e-10
3.44745e-11
3.50062e-11
1.77773e-11
2.43326e-11
2.32881e-11
7.71862e-10
6.28536e-11
6.4072e-11
4.90095e-11
3.38301e-11
3.89495e-07
1.79383e-08
8.01709e-09
1.08312e-09
8.02171e-10
5.43359e-12
2.21258e-11
6.42984e-10
2.47169e-08
6.84612e-08
3.40517e-08
6.6641e-12
1.87221e-10
4.18394e-08
-1.47981e-10
1.39061e-07
3.90353e-08
4.53013e-08
1.8658e-07
1.05403e-07
9.54027e-06
1.06196e-05
8.88403e-06
8.07291e-06
5.59482e-05
7.35224e-05
0.0297041
0.0370608
0.044496
0.0217562
0.0194833
0.0768962
0.121839
0.121839
0.121839
0.0689158
0.0118348
0.111139
0.0361473
0.036402
0.0368176
0.0259381
0.0201452
0.0423109
1.70914e-05
1.20025e-05
1.89773e-09
9.30645e-09
3.03468e-08
8.75835e-07
1.18725e-20
2.62957e-11
-4.11765e-12
2.39843e-09
9.34227e-09
2.0204e-08
5.92477e-08
6.46092e-08
5.11238e-08
1.85507e-07
1.10899e-07
-5.7444e-10
3.50062e-11
3.00901e-11
2.43326e-11
2.25347e-11
2.18799e-11
2.13961e-11
5.09663e-10
3.2935e-11
3.06966e-10
2.51845e-11
2.32912e-11
2.46811e-10
7.36423e-10
1.28005e-10
1.17245e-09
3.35398e-11
2.641e-11
5.49485e-10
-1.64152e-11
-7.6029e-11
-2.90224e-11
4.50742e-12
2.87586e-13
1.08522e-10
2.22487e-11
7.94239e-11
4.06513e-08
4.1625e-10
1.71187e-10
6.39427e-08
-1.5527e-10
1.61648e-07
2.01935e-08
1.29848e-06
3.19729e-06
6.56851e-08
0.0056384
0.00347619
0.000804213
0.0153937
0.0244243
0.00125983
0.116161
0.116034
0.114121
0.11277
0.111003
0.111139
6.06272e-05
6.03631e-05
6.0355e-05
6.04152e-05
6.03694e-05
6.04265e-05
2.23817e-05
2.2379e-05
2.23503e-05
2.23495e-05
2.23532e-05
2.23415e-05
1.48642e-05
1.47996e-05
1.48245e-05
1.48253e-05
1.48111e-05
1.48337e-05
2.80483e-05
2.81205e-05
2.80051e-05
2.80053e-05
2.80583e-05
2.80134e-05
2.45238e-05
2.4636e-05
2.45561e-05
2.45401e-05
2.45713e-05
2.45159e-05
1.27247e-05
1.26797e-05
1.26975e-05
1.26977e-05
1.26882e-05
1.27032e-05
7.21593e-05
7.21305e-05
7.20165e-05
7.18829e-05
7.18499e-05
7.1869e-05
4.0449e-07
4.03087e-07
4.02708e-07
4.02426e-07
4.02821e-07
4.04219e-07
5.04687e-07
5.06057e-07
5.0523e-07
5.05075e-07
5.0545e-07
5.04566e-07
3.7364e-07
3.66519e-07
3.60934e-07
3.62488e-07
3.7024e-07
3.74552e-07
4.05726e-07
4.05087e-07
4.05443e-07
4.04982e-07
4.05216e-07
4.05433e-07
3.51588e-18
3.52658e-18
5.32266e-18
3.52618e-18
3.52141e-18
3.51154e-18
3.4541e-07
3.50334e-07
3.48906e-07
3.52488e-07
3.55445e-07
3.42598e-07
1.26706e-07
1.27832e-07
1.27024e-07
1.27034e-07
1.2543e-07
1.28782e-07
2.62782e-19
2.56819e-19
2.60255e-19
2.57946e-19
2.59399e-19
2.58156e-19
1.26208e-06
1.24256e-06
1.24619e-06
1.26055e-06
1.27545e-06
1.23886e-06
3.37071e-06
3.36725e-06
3.36948e-06
3.37351e-06
3.37488e-06
3.36855e-06
7.4295e-24
7.44098e-24
7.4527e-24
7.40901e-24
1.46505e-23
7.44112e-24
4.70131e-07
4.79659e-07
4.76797e-07
4.73525e-07
4.73579e-07
4.77734e-07
2.86001e-06
2.69437e-06
2.76428e-06
2.86864e-06
2.91141e-06
2.7047e-06
3.61666e-07
3.6393e-07
3.61171e-07
3.63065e-07
3.68941e-07
3.53309e-07
7.33577e-07
7.62394e-07
7.54183e-07
7.41209e-07
7.38368e-07
7.56717e-07
4.3994e-06
7.25419e-06
6.27654e-06
4.80905e-06
3.64312e-06
7.61399e-06
1.53546e-06
1.65577e-06
1.61797e-06
1.55365e-06
1.50116e-06
1.66451e-06
2.22855e-06
2.35157e-06
2.31831e-06
2.25477e-06
2.21982e-06
2.34264e-06
0.000403608
0.000428467
0.000420186
0.000407303
0.000394053
0.000431135
0.000166972
0.00017977
0.000174566
0.00016788
0.000162754
0.000178715
1.96363e-05
2.0806e-05
2.05128e-05
1.96884e-05
1.92378e-05
2.06622e-05
0.000707006
0.000706988
0.000707001
0.000706866
0.00070641
0.000706071
0.000707006
0.000707004
0.000707002
0.000706984
0.000706798
0.000706342
0.000169313
0.000174983
0.000173653
0.000170482
0.000168931
0.000174473
0.000320151
0.000314016
0.000321941
0.000316203
0.000320648
0.000322462
4.64392e-12
2.64812e-23
3.052e-12
1.70512e-23
1.8545e-23
2.43408e-23
0.04478
0.0448748
0.0448895
0.0447603
0.0447013
0.0448479
8.41739e-23
8.20563e-23
8.31151e-23
8.41739e-23
8.78797e-23
8.09975e-23
1.11305e-07
1.09448e-07
1.09947e-07
1.11944e-07
1.1492e-07
1.06718e-07
0.121085
0.121143
0.121126
0.121323
0.121323
0.121159
-1.48787e-15
-1.14317e-15
-8.41496e-19
-9.49616e-20
-3.24501e-17
-1.38957e-16
-1.31733e-25
5.12075e-31
2.33231e-27
1.98135e-25
9.27813e-17
1.41871e-25
0.121809
0.12191
0.121927
0.121906
0.121915
0.121785
-3.37171e-15
-2.50488e-15
-2.75803e-21
-2.22525e-18
-6.71678e-16
-4.16273e-16
-2.05464e-25
-1.06455e-25
-3.72081e-25
-1.57959e-25
-1.40042e-25
-1.4848e-25
0.12197
0.122078
0.122108
0.122052
0.122062
0.121953
-8.75196e-15
-7.12447e-15
-1.30649e-14
-5.48441e-18
-8.2214e-14
-3.00404e-15
-2.50711e-25
-2.35546e-25
-2.54096e-25
-2.20003e-25
-4.14363e-25
-1.46671e-25
0.120032
0.120159
0.120157
0.120241
0.120271
0.120054
-2.56757e-15
-2.09628e-15
-3.97442e-15
-5.74123e-16
-2.43711e-14
-8.54749e-16
-3.19729e-25
-3.75603e-25
-4.11121e-25
-3.91575e-25
-4.24362e-25
-2.96708e-25
0.111171
0.111236
0.111252
0.11128
0.111273
0.1112
-8.19295e-16
-6.7576e-16
-1.75966e-15
-2.04844e-15
-7.74368e-15
-2.68083e-16
-1.79691e-25
-2.18451e-25
-2.36675e-25
-2.55836e-25
-2.84795e-25
-2.15975e-25
0.104175
0.104214
0.104212
0.104248
0.104231
0.104139
-2.84951e-16
-2.40099e-16
-1.00097e-15
-2.18398e-15
-2.64611e-15
-9.01524e-17
-1.10457e-25
-1.38485e-25
-1.47482e-25
-1.84656e-25
-2.18074e-25
-1.71261e-25
0.035967
0.0361542
0.0364304
0.0216144
0.0134985
0.0416764
0.0338038
0.0333266
0.029743
0.010008
0.00398697
0.0285794
0.003813
0.0035272
0.00322362
0.000487311
6.42983e-05
0.0019604
8.62049e-08
6.98587e-08
1.76309e-07
1.16001e-07
8.93166e-08
3.05039e-07
2.4129e-06
2.40357e-06
1.34517e-06
9.99608e-07
9.73656e-07
1.1297e-06
5.73649e-06
5.26164e-06
7.84709e-06
1.9761e-05
1.25938e-05
3.40302e-05
1.61355e-09
2.46849e-09
2.23667e-09
4.81991e-08
3.03727e-08
8.67592e-08
2.47736e-05
2.24193e-05
2.73582e-05
2.73144e-05
2.57478e-05
4.24947e-05
3.12459e-05
3.27934e-05
3.68994e-05
1.75192e-05
1.74022e-05
8.51502e-05
3.65464e-07
7.55341e-07
4.52083e-07
2.27621e-06
3.45473e-06
9.37902e-07
2.3097e-07
7.39984e-07
5.73937e-07
2.55643e-06
4.49471e-06
3.89349e-06
1.66914e-06
1.7507e-06
2.21848e-06
3.01663e-07
1.76398e-06
9.8508e-06
2.25814e-11
3.52641e-11
1.16194e-11
1.09236e-11
1.13615e-11
1.09288e-11
1.32334e-16
1.31512e-16
1.6036e-15
1.25573e-16
2.30926e-16
3.17537e-17
-7.62525e-18
-1.0726e-15
-1.49942e-15
6.08875e-18
-7.7266e-19
-2.0513e-15
9.63228e-10
8.14812e-10
9.32251e-10
6.34902e-10
1.04603e-10
5.74466e-10
1.2422e-16
1.24226e-16
9.47766e-16
1.19498e-16
2.41938e-17
2.40661e-17
-2.68881e-19
3.53237e-20
-2.63949e-19
1.09488e-19
-2.14962e-20
-1.07373e-19
7.37417e-10
4.56738e-10
6.02507e-10
3.6993e-10
1.19434e-10
5.3755e-10
2.49e-16
1.26831e-16
7.88617e-16
1.28984e-16
6.38185e-14
2.58605e-17
5.13674e-13
5.1565e-13
4.50072e-13
5.85117e-13
5.55001e-13
1.95403e-13
-8.93089e-15
-4.84999e-12
7.89411e-16
-3.22019e-13
-6.63483e-14
-8.56131e-12
6.21376e-16
4.2572e-16
6.365e-16
4.37873e-16
2.47257e-15
4.72255e-16
3.59036e-14
5.6031e-14
4.84481e-14
5.78282e-14
5.64798e-14
4.08219e-14
-6.16331e-12
-1.72747e-11
-1.39989e-10
-2.24001e-11
-4.02388e-13
-1.40337e-10
3.42533e-18
2.11823e-23
2.80875e-23
9.23937e-24
2.09911e-22
1.65989e-23
6.01857e-178
1.30862e-181
2.61361e-185
1.82283e-181
1.27436e-188
1.00997e-193
-3.17486e-09
-5.56022e-09
-8.77121e-09
-3.51626e-09
-1.66364e-09
-3.92224e-11
9.63089e-13
2.50074e-13
9.569e-13
-6.0001e-13
-1.87506e-14
2.05082e-11
1.39524e-09
1.39433e-09
1.39272e-09
1.39043e-09
1.39809e-09
1.55744e-09
-4.04097e-08
-8.08924e-08
-1.33801e-07
-1.11759e-07
-3.46989e-09
-6.03885e-08
2.82296e-11
2.81507e-11
2.8915e-11
2.78365e-11
1.50748e-11
4.89807e-11
2.01955e-10
4.18171e-10
7.98378e-10
1.44698e-10
2.02031e-09
1.57097e-09
0.0174804
0.0168686
0.0165216
0.0347714
0.0389013
0.03101
2.79587e-24
2.12172e-24
1.90252e-24
4.58258e-24
8.30489e-24
1.3483e-24
2.12277e-09
1.57424e-09
1.36637e-09
6.77191e-09
1.27032e-08
1.79712e-09
)
;

boundaryField
{
    seabed_topleft_surface
    {
        type            zeroGradient;
    }
    seabed_topright_surface
    {
        type            zeroGradient;
    }
    breakwater_top_surface
    {
        type            zeroGradient;
    }
    breakwater_left_surface
    {
        type            zeroGradient;
    }
    breakwater_right_surface
    {
        type            zeroGradient;
    }
    water_front_surface
    {
        type            zeroGradient;
    }
    water_back_surface
    {
        type            zeroGradient;
    }
    water_left_surface
    {
        type            zeroGradient;
    }
    water_right_surface
    {
        type            zeroGradient;
    }
    water_top_surface
    {
        type            inletOutlet;
        inletValue      uniform 0;
        value           nonuniform List<scalar> 
180
(
1.48642e-05
1.47996e-05
1.48245e-05
1.48253e-05
1.48111e-05
1.48337e-05
1.27247e-05
1.26797e-05
1.26975e-05
1.26977e-05
1.26882e-05
1.27032e-05
0
0
0
0
0
0
0
0
0
0
0
0
0
0
0
0
0
0
0
0
0
0
0
0
0
0
0
0
0
0
1.53546e-06
1.65577e-06
1.61797e-06
1.55365e-06
1.50116e-06
1.66451e-06
0.000166972
0.00017977
0.000174566
0.00016788
0.000162754
0.000178715
0.000707006
0.000707004
0.000707002
0.000706984
0.000706798
0.000706342
0
0
0
0
0
0
0
0
0
0
0
0
0
0
0
0
0
0
0
0
0
0
0
0
0
0
0
0
0
0
0
0
0
0
0
0
0
0
0
0
0
0
0
0
0
0
0
0
0.003813
0.0035272
0.00322362
0.000487311
6.42983e-05
0.0019604
5.73649e-06
5.26164e-06
7.84709e-06
1.9761e-05
1.25938e-05
3.40302e-05
3.12459e-05
3.27934e-05
3.68994e-05
0
0
8.51502e-05
0
0
0
0
0
0
0
0
0
0
0
0
0
0
0
0
0
0
0
0
0
0
0
0
0
0
0
0
0
0
0
0
0
0
0
0
0
0
0
0
0
0
0
0
0
0
0
0
0
0
0
0
0
0
)
;
    }
}


// ************************************************************************* //
