/*--------------------------------*- C++ -*----------------------------------*\
| =========                 |                                                 |
| \\      /  F ield         | OpenFOAM: The Open Source CFD Toolbox           |
|  \\    /   O peration     | Version:  v1612+                                |
|   \\  /    A nd           | Web:      www.OpenFOAM.com                      |
|    \\/     M anipulation  |                                                 |
\*---------------------------------------------------------------------------*/
FoamFile
{
    version     2.0;
    format      ascii;
    class       surfaceScalarField;
    location    "5.75";
    object      phi;
}
// * * * * * * * * * * * * * * * * * * * * * * * * * * * * * * * * * * * * * //

dimensions      [0 3 -1 0 0 0 0];

internalField   nonuniform List<scalar> 
2916
(
0.000125964
-1.14341
1.14328
2.37842e-05
-1.14356
1.14366
2.16126e-05
-1.1435
1.1435
1.07785e-05
-1.14348
1.14349
-5.8655e-05
-1.14352
1.14359
-1.14345
1.14339
-8.26697e-05
-1.68275
0.53942
2.63395e-05
-1.68287
0.539201
2.73274e-05
-1.68281
0.539311
-5.82244e-06
-1.68279
0.539341
2.17975e-05
-1.68282
0.539279
-1.68277
0.539346
-5.47675e-05
-1.7848
0.10211
1.36411e-05
-1.78491
0.101972
1.42025e-05
-1.78484
0.102032
-7.34145e-06
-1.78483
0.102058
8.0421e-06
-1.78486
0.10202
-1.78484
0.102071
-2.50368e-05
-1.75793
-0.0268483
9.90314e-06
-1.75809
-0.0268535
7.36011e-06
-1.75799
-0.0268494
-6.29823e-06
-1.75798
-0.0268359
-9.09676e-06
-1.75802
-0.0268375
-1.75799
-0.0268546
-1.53669e-05
-1.66993
-0.0879818
8.27059e-06
-1.67021
-0.0879078
1.13689e-05
-1.67006
-0.0879292
1.39647e-06
-1.67004
-0.0879218
-1.85022e-05
-1.6701
-0.0879008
-1.67003
-0.0879789
1.18374e-05
-1.49501
-0.17494
1.61107e-05
-1.49539
-0.174823
2.4313e-05
-1.49521
-0.17486
1.19611e-05
-1.49518
-0.174851
-4.15917e-05
-1.49523
-0.174813
-1.49514
-0.174937
7.62803e-05
-1.28222
-0.212858
3.19524e-05
-1.28266
-0.212685
4.05563e-05
-1.28247
-0.212753
1.79651e-05
-1.28244
-0.212719
-7.46262e-05
-1.28251
-0.212623
-1.28235
-0.212863
0.000225226
-1.08354
-0.19891
2.0938e-05
-1.08374
-0.198715
-3.42619e-05
-1.08364
-0.198771
-1.42089e-05
-1.08371
-0.19875
6.04983e-05
-1.08404
-0.198547
-1.08331
-0.198979
0.000575459
-0.882852
-0.201264
-5.45045e-05
-0.881817
-0.201296
-0.000340058
-0.882113
-0.201242
-0.000100032
-0.882806
-0.201144
0.000774087
-0.884304
-0.200613
-0.880735
-0.201798
0.000846899
-0.658555
-0.225144
-0.000103925
-0.655889
-0.224977
-0.000798096
-0.656442
-0.224978
-0.000128604
-0.658452
-0.225023
0.00161413
-0.661441
-0.224606
-0.653623
-0.225498
0.000440118
-0.256504
-0.402491
-1.61691e-06
-0.253669
-0.401778
-0.000570573
-0.254142
-0.401731
2.84272e-05
-0.256506
-0.402546
0.000627439
-0.258917
-0.403122
-0.251782
-0.401214
-0.00101188
-0.255492
0.000267977
-0.254949
0.00129956
-0.255173
0.000183421
-0.25539
-0.0027667
-0.255967
-0.254549
0.000108483
-2.20585
3.34903
1.2137e-05
-2.20554
3.3493
1.17929e-05
-2.20567
3.34917
2.54235e-05
-2.20574
3.34922
-0.000138676
-2.20566
3.34941
-2.20578
3.34903
4.31461e-05
-2.42358
0.757102
3.48209e-06
-2.42351
0.75721
-1.14511e-05
-2.42351
0.757163
1.59204e-05
-2.42357
0.757151
-5.23629e-05
-2.42354
0.757226
-2.42357
0.757078
0.000176141
-2.19003
-0.131614
5.68972e-06
-2.19008
-0.13129
-2.34276e-05
-2.19003
-0.131422
8.03754e-06
-2.19008
-0.131468
-0.000113311
-2.19007
-0.131334
-2.19005
-0.131554
0.000123607
-1.82962
-0.387378
-9.55563e-06
-1.82977
-0.387021
-6.28066e-06
-1.8297
-0.387178
9.47995e-06
-1.82972
-0.387211
-0.000102318
-1.82972
-0.387072
-1.82969
-0.387322
3.6423e-05
-1.35164
-0.566003
-2.96236e-05
-1.35192
-0.565696
-8.51693e-06
-1.35182
-0.565833
1.55607e-05
-1.3518
-0.565871
-1.84161e-05
-1.35183
-0.56576
-1.35172
-0.565962
-0.00010616
-0.716848
-0.809625
-4.68008e-05
-0.717292
-0.809512
-4.78748e-05
-0.717136
-0.809542
1.78694e-05
-0.717065
-0.809648
0.000240455
-0.717229
-0.809633
-0.71688
-0.809541
-0.000142643
-0.108933
-0.82063
-9.45635e-05
-0.10947
-0.820555
-0.000105137
-0.10927
-0.820608
3.23918e-05
-0.109198
-0.820724
0.000413521
-0.109518
-0.820716
-0.108902
-0.820428
1.45426e-05
0.376809
-0.684666
-0.000147448
0.376699
-0.684722
-0.000330001
0.376712
-0.68457
3.14804e-05
0.376666
-0.684976
0.000915561
0.375899
-0.684848
0.377622
-0.684587
-0.000614
0.521021
-0.344862
1.21645e-05
0.519421
-0.344643
0.00032339
0.520143
-0.344985
0.000108679
0.520638
-0.3449
-0.000760486
0.522251
-0.346095
0.51875
-0.343687
-0.000999138
0.345464
-0.0485875
0.000209742
0.338634
-0.0453993
0.00160264
0.340529
-0.0467558
0.000213345
0.345001
-0.0479965
-0.0036253
0.352982
-0.0514973
0.332944
-0.0433169
-0.00346495
-0.105236
0.0516743
0.000845735
-0.114912
0.0474573
0.00432094
-0.11303
0.0483529
0.000183074
-0.105468
0.0520612
-0.00709443
-0.0977353
0.0548722
-0.120862
0.0454975
-0.000328166
-0.3604
0.000128495
-0.370318
0.000596458
-0.368671
0.000759799
-0.361021
-0.000630784
-0.352312
-0.376042
-0.00323124
-2.73332
6.08559
-0.00012594
-2.7329
6.0791
0.000363308
-2.7331
6.08178
0.000122383
-2.73313
6.08259
0.00114295
-2.733
6.08139
-2.73324
6.08341
-0.000764041
-2.85358
0.87812
-0.000155343
-2.85354
0.877244
9.86052e-05
-2.85354
0.877355
4.31655e-05
-2.85359
0.877664
0.000334099
-2.85359
0.877533
-2.85361
0.877784
-0.00101061
-2.01878
-0.965406
-0.000121081
-2.01887
-0.966855
0.00015654
-2.01882
-0.966422
-7.80082e-07
-2.01879
-0.966104
0.000462265
-2.01889
-0.966503
-2.01878
-0.965919
-0.000960413
-1.05042
-1.35478
-0.000113795
-1.05107
-1.35566
0.000128116
-1.05077
-1.35547
6.81366e-06
-1.0506
-1.35528
0.000542037
-1.05095
-1.35555
-1.05045
-1.35511
-0.000929149
0.245087
-1.86058
-6.79322e-05
0.24323
-1.86086
7.41007e-05
0.244058
-1.86081
3.03385e-05
0.244754
-1.86118
0.000862695
0.243807
-1.86135
0.244898
-1.86045
-0.000564165
2.13272
-2.69669
-3.82159e-05
2.12912
-2.69593
-7.57879e-05
2.1305
-2.69594
9.19061e-05
2.13226
-2.69732
0.00147979
2.13059
-2.6978
2.13187
-2.69503
0.00284988
4.5931
-3.28387
-0.000712918
4.59093
-3.2788
-0.00280094
4.59169
-3.27971
-0.000294963
4.5932
-3.28417
0.00260451
4.59256
-3.28559
4.59206
-3.27801
0.0108605
6.59914
-2.70156
-0.00238501
6.60517
-2.68572
-0.00959979
6.60328
-2.68896
-0.00227775
6.60189
-2.70099
0.0130305
6.5992
-2.70679
6.60558
-2.68508
0.000470966
4.71315
1.54065
0.002199
4.69799
1.56081
-0.00599208
4.71042
1.55607
0.00198349
4.70778
1.54124
-0.00448068
4.73302
1.52655
4.69019
1.56722
-0.0228913
0.522706
4.16475
0.00604823
0.466954
4.15669
0.0205024
0.48398
4.16522
0.00826417
0.514731
4.15729
-0.0515923
0.587236
4.15414
0.430302
4.16498
-0.0427477
0.107397
0.509732
0.00585887
-0.0328829
0.498689
0.0445675
-0.0142258
0.507851
0.00732232
0.0988611
0.505176
-0.0733586
0.211353
0.511438
-0.0971897
0.49963
0.0596768
-0.31268
-0.0140555
-0.329468
-0.0719385
-0.325014
-0.0197969
-0.314301
0.140256
-0.301012
-0.332975
-0.00469829
-2.12421
8.2145
-0.000732112
-2.12484
8.19997
0.000392604
-2.1249
8.20556
1.84196e-06
-2.12427
8.20725
0.00165865
-2.12435
8.20408
-2.12427
8.20935
-0.00097848
-1.72497
0.479861
-0.000426585
-1.72466
0.476514
-0.000266044
-1.72472
0.477014
-0.000547952
-1.72425
0.477925
-0.000103278
-1.72443
0.47717
-1.72453
0.47794
-0.00167061
-1.05885
-1.62986
-0.000183523
-1.06027
-1.63274
-0.000845071
-1.05931
-1.63117
-0.000695398
-1.05877
-1.63173
0.000426791
-1.05961
-1.63245
-1.05861
-1.63141
-0.000346403
-0.243361
-2.16992
0.000206913
-0.246801
-2.16969
4.8669e-05
-0.244968
-2.16965
6.20401e-06
-0.243965
-2.17005
0.000843576
-0.245865
-2.17013
-0.243141
-2.16974
-0.000855275
0.207833
-2.31092
0.000466627
0.199602
-2.30858
0.000931586
0.203089
-2.30933
9.95877e-05
0.206374
-2.31069
0.0022605
0.202488
-2.31186
0.206353
-2.30769
-0.00163801
-0.0679002
-2.41932
0.000538044
-0.0864808
-2.41202
0.00194639
-0.0804435
-2.41382
0.000132149
-0.0705559
-2.41857
0.00104231
-0.0745725
-2.42165
-0.0770674
-2.41057
0.00623796
-0.954472
-2.40353
-0.00136177
-0.977487
-2.3802
-0.00435573
-0.970571
-2.38659
-5.72457e-05
-0.958961
-2.40006
0.00105634
-0.957785
-2.40349
-0.969617
-2.3844
0.0183475
-2.37049
-1.30388
-0.00189072
-2.3865
-1.25646
-0.0167957
-2.37562
-1.26901
-0.000760685
-2.37923
-1.29675
0.0174673
-2.37931
-1.30349
-2.36985
-1.26738
-0.010903
-3.5926
2.77366
0.00633179
-3.63379
2.79085
0.00634217
-3.60763
2.78808
0.00458548
-3.61094
2.7747
-0.0171491
-3.5974
2.76637
-3.61091
2.79113
-0.0285154
-3.35757
3.95823
0.00655156
-3.40897
3.89682
0.0179169
-3.37816
3.92439
0.00710501
-3.38073
3.9379
-0.0299277
-3.36784
3.96161
-3.38146
3.9056
-0.00621304
-1.82868
-1.01295
0.000771521
-1.82539
-1.09188
0.00629839
-1.82202
-1.05382
0.000424256
-1.83459
-1.03509
-0.00757032
-1.84575
-1.00266
-1.81369
-1.07571
-0.00387655
-2.13748
0.000685947
-2.15942
0.0057529
-2.1521
-0.000206077
-2.14294
-0.0139424
-2.13302
-2.16061
-0.245965
-1.88922
2.13519
-0.294368
-1.99838
2.04678
-0.822837
-1.58285
2.11132
-0.315019
-2.60649
2.09868
1.00686
-3.30078
1.97891
-1.0155
2.02236
0.185882
-3.81283
1.73773
0.418814
-4.06087
1.82955
0.206719
-3.75373
2.38298
0.468499
-4.10262
1.23434
0.826524
-4.64609
0.98728
-2.6301
2.44112
0.0654449
-4.473
0.594719
0.177823
-4.71778
0.544537
0.505195
-4.55506
0.473953
0.47798
-4.65771
0.582305
0.138813
-5.11905
0.812127
-3.8794
1.38811
0.0107531
-4.65006
0.166305
0.0374188
-4.94589
0.20144
0.0889081
-4.74375
0.137198
-0.00854479
-4.81021
0.249957
-0.182862
-5.26403
0.319302
-4.21814
0.155881
0.0504912
-4.48072
-0.219826
0.126651
-4.87809
-0.143954
0.127455
-4.55248
-0.192067
0.0148183
-4.65392
-0.0436506
-0.10331
-5.01885
-0.127059
-3.85698
-0.464471
0.132073
-4.20764
-0.405157
0.231703
-4.62076
-0.356966
0.177934
-4.36572
-0.13299
0.154225
-4.33573
-0.294488
-0.0870823
-4.59863
-0.178906
-3.56176
-0.382297
0.210424
-3.73429
-0.68377
0.179313
-4.10245
-0.487193
0.351128
-3.85907
-0.678473
0.309811
-3.87259
-0.421816
-0.129676
-4.0958
-0.0633418
-3.31459
-0.37685
0.0994886
-3.35671
-0.477072
0.0920943
-3.57315
-0.521913
0.377021
-3.38038
-0.763611
0.402146
-3.36556
-0.53216
-0.0650585
-3.51216
-0.116439
-3.1133
-0.266352
-0.190615
-2.39771
-0.768379
0.0196669
-2.62868
-1.15475
0.440014
-2.61835
-1.18238
0.551211
-2.41374
-1.06301
-0.0385201
-2.49701
-0.42542
-2.58106
-0.570755
-0.429383
-0.460541
-1.50779
-0.0265453
-0.828817
-2.2027
0.802056
-1.05466
-2.39229
0.716694
-0.73773
-1.59065
-0.329175
-0.51651
-0.934631
-0.884381
-2.02586
-0.138349
1.06649
-1.38868
0.0831257
0.693186
-1.74348
0.902533
0.438186
-2.31225
0.820901
0.637219
-1.29332
-0.17552
0.956113
-0.476201
0.530764
-1.59067
-0.0945535
1.16105
-0.230172
0.828804
0.452978
-0.244964
0.414652
0.675545
0.202954
1.16781
0.733719
-0.135885
-1.9791
4.25017
-0.0838128
-2.16149
4.1562
-0.391853
-1.65612
4.07548
0.0184883
-2.95614
4.64447
0.715875
-3.59865
4.88017
-1.1495
3.88773
0.248569
-5.15135
4.66142
0.573698
-5.40406
4.74699
0.371168
-4.85674
5.78613
0.353728
-5.4656
3.76125
0.293653
-6.06523
3.51393
-3.68287
5.26815
0.013419
-4.29926
-0.270787
0.0261273
-4.48089
-0.391335
-0.0362868
-4.18085
-0.139523
-0.254991
-4.58423
-0.0803561
-0.389174
-5.5287
0.409786
-3.83471
1.15077
-0.0600972
-2.42523
-1.64763
-0.304994
-2.46253
-1.57203
-0.474739
-2.24177
-1.63214
-0.481032
-2.90695
-1.42103
-0.344309
-4.16932
-1.1768
-2.33976
-1.68337
-0.0430865
-1.13592
-1.46605
-0.320732
-1.16746
-1.16138
-0.308125
-1.11879
-1.32765
-0.266391
-1.96916
-1.02317
-0.0532278
-3.60159
-0.907951
-1.04703
-1.81043
-0.100569
-0.750178
-0.69033
-0.31082
-1.12543
-0.188748
-0.881682
-0.635566
-0.0453565
-0.658916
-2.18203
-0.304381
-0.119031
-4.28561
-0.0347769
-0.834736
-0.713623
0.0408442
-1.42991
-0.0448853
-0.135752
-1.98549
0.549465
-0.581053
-1.06135
0.192612
-0.658842
-2.59339
0.0673277
-0.285825
-4.66753
-0.0544359
-1.7664
0.268986
0.204483
-2.8144
0.702939
-0.0596129
-3.11589
0.872583
-0.543334
-2.25415
0.912909
-0.296274
-3.17091
-0.201702
0.0712425
-4.31746
-0.834022
-3.12541
1.1639
0.0465819
-2.94171
-0.687654
-0.183361
-3.01475
-1.02595
-0.521735
-2.51224
-0.585915
-0.102316
-2.97054
-1.68279
0.484511
-3.75474
-1.57497
-3.08756
-0.124096
-0.0891278
-1.99318
-2.36719
-0.175718
-2.031
-3.09985
-0.152598
-1.84665
-3.081
0.0573195
-2.0351
-2.73601
0.188208
-2.33347
-2.48679
-1.92308
-3.00213
0.0808959
-0.566451
-2.89631
-0.0104325
-0.636187
-3.04696
0.31546
-1.08809
-3.39671
0.198072
-0.85285
-2.35818
-0.498391
-0.525518
-1.58769
-0.929447
-3.08269
0.552719
0.0418768
0.850413
-0.105077
0.915735
-1.39838
0.730112
0.00831795
-0.650302
2.02271
-0.846031
-0.141472
-0.577145
4.96879
-0.206255
-0.779266
5.00025
-0.636133
-0.454446
4.95981
-0.13005
-1.47955
5.61794
0.586905
-1.92111
6.08433
-0.341435
4.81607
0.289347
-2.45041
6.24534
0.55853
-2.64568
6.34423
0.521222
-2.16739
7.53638
0.160977
-2.68161
5.32356
-0.284965
-3.06585
5.10461
-1.90708
6.54883
-0.10893
-2.19204
-0.420234
-0.373201
-2.19445
-0.578302
-0.06125
-2.30653
-0.312328
-0.263282
-2.19215
-0.367793
-0.547849
-2.32812
-0.0433784
-2.23503
0.93087
-0.0792188
-1.84943
-1.91102
-0.0606567
-1.85797
-1.92706
-0.175947
-1.86776
-1.95562
0.000895253
-1.87341
-1.9166
0.162485
-1.88622
-1.78029
-1.80481
-1.9511
-0.203288
-1.46138
-1.65081
-0.104106
-1.49224
-1.6263
-0.166338
-1.50892
-1.62426
0.0217229
-1.49426
-1.59039
0.400969
-1.63168
-1.54173
-1.534
-1.68027
-0.35332
-0.943998
-0.854391
-0.261471
-1.06504
-0.707801
-0.122252
-0.914238
-0.779258
-0.100698
-1.04587
-0.77432
0.303143
-1.33663
-0.733672
-1.14377
-0.800709
-0.279172
-0.517127
-0.192586
-0.0700853
-0.875978
0.151319
-0.149138
-0.567626
-0.0749451
-0.225836
-0.569845
-0.332
-0.126131
-0.814876
-0.675895
-0.925519
-0.0753985
0.137809
-0.444212
0.492214
0.0429785
-0.606647
0.698084
-0.0395783
-0.309201
0.737039
-0.286214
-0.307055
-0.217856
-0.350909
-0.660466
-0.923737
-0.81694
0.704415
0.176961
-1.07082
-0.238005
-0.134009
-0.913539
-0.408087
-0.270408
-0.699583
-0.0591335
-0.418333
-1.05153
-0.790388
0.0676927
-1.63234
-1.08912
-0.994408
0.121065
0.0102821
-1.68414
-1.76415
-0.199285
-1.7435
-2.06032
-0.530286
-1.67712
-1.77246
-0.273011
-1.98141
-2.06341
0.264909
-2.0407
-2.61634
-1.81763
-1.91399
0.0675767
-1.36006
-3.28797
0.0113307
-1.34693
-3.38728
-0.407759
-1.1388
-3.51593
-0.243789
-1.37863
-3.12494
0.172998
-1.29889
-2.7463
-1.20689
-3.52043
0.260128
-1.57831
0.493767
-1.68565
-0.0355826
-2.00783
-0.102117
-1.30377
0.270706
0.350999
-1.78221
-0.238751
-0.75954
5.96708
-0.427924
-0.93482
6.12424
-0.872968
-0.805611
6.21046
-0.331872
-1.55288
6.62972
0.563292
-1.95861
7.14778
-0.800938
6.1803
0.14658
-2.31258
7.6518
0.19665
-2.48981
7.84916
0.555004
-1.99364
8.36605
-0.195986
-2.36291
6.88458
-1.09889
-2.64723
6.69614
-1.89825
6.54725
-0.161428
-2.42214
-0.149242
-0.52431
-2.40022
-0.305015
-0.139413
-2.30029
-0.39057
-0.462225
-2.28388
-0.124017
-0.948593
-2.32325
0.119014
-1.99665
0.0806807
-0.0432839
-1.85389
-2.43599
-0.146547
-1.80545
-2.41857
-0.212841
-1.83668
-2.35294
-0.133047
-1.78053
-2.49975
-0.0937378
-1.75029
-2.39257
-1.7763
-2.2652
-0.0421713
-1.38617
-2.07636
-0.00896661
-1.38278
-2.08217
-0.0373588
-1.3703
-2.06225
-0.0172071
-1.34122
-2.04986
0.0524931
-1.29338
-2.06834
-1.33875
-2.06533
-0.0398389
-0.969681
-1.23104
0.0509412
-0.977296
-1.20406
0.0643058
-0.945894
-1.21702
0.0389195
-0.877897
-1.21226
-0.00419275
-0.775488
-1.20845
-0.915452
-1.2282
-0.00811595
-0.520525
-0.633626
0.248317
-0.503522
-0.578885
0.350065
-0.487526
-0.63506
0.265202
-0.446089
-0.678945
-0.166076
-0.324699
-0.695406
-0.507418
-0.649509
0.0886982
0.134425
-0.251431
0.377146
0.0920697
-0.185953
0.765683
0.11389
-0.252913
0.522955
0.0181896
-0.439407
-0.350842
0.0661156
-0.440754
0.149741
-0.303586
0.00957347
0.0562534
-0.169405
0.11294
-0.179751
-0.23963
0.245991
0.148392
-0.226685
0.125205
-0.400093
-0.251315
-0.064531
-0.526299
-0.306968
0.351633
-0.145358
-0.0049589
-0.77301
-0.929931
-0.0793733
-0.904761
-1.2609
-0.0522694
-0.681693
-0.969479
0.0886318
-1.17628
-1.42812
0.0397087
-1.45158
-1.64214
-0.53039
-0.992262
-0.0083464
-0.938008
-3.11462
-0.278473
-0.944136
-3.07778
-0.741042
-0.87282
-2.86224
-0.388449
-1.07229
-3.58151
0.286759
-1.48499
-3.38809
-1.08484
-2.67922
-0.0569904
-2.45932
-0.176983
-2.50979
-0.490657
-2.56697
-0.440062
-2.42666
0.387173
-1.96123
-2.47988
-0.00577302
9.81714
-1.59688
-0.000928972
9.7927
-1.59758
0.000434542
9.80258
-1.59838
-0.000319248
9.80497
-1.59697
0.00164305
9.79931
-1.5972
9.80871
-1.59772
-0.00264869
9.81932
0.00046971
-0.000425504
9.78875
0.00172662
-0.000387197
9.80239
0.000144108
-0.000315415
9.80435
0.000541324
0.000740452
9.7973
0.000957673
9.80962
-0.000167258
-0.000724196
1.21175
-0.000281167
1.20952
-0.000942086
1.2101
-0.000606588
1.20985
-5.68349e-05
1.20933
1.21005
-0.00660056
1.88945
-2.99987
-0.00188727
1.87454
-3.00032
-0.00126465
1.87959
-3.00158
-0.00122887
1.88032
-2.9994
0.00178699
1.87663
-2.99968
1.8823
-3.0003
-0.0064707
2.34812
-0.451727
-0.000849271
2.3227
-0.452053
-0.00173543
2.33366
-0.453039
-0.00155839
2.3324
-0.451723
0.00237687
2.32568
-0.452025
2.33714
-0.452629
-0.00213745
0.837445
0.000681942
0.834588
-0.000778454
0.835932
-0.000755657
0.835543
0.00112973
0.834572
0.835825
-0.00164309
-1.9057
-2.72239
0.00030248
-1.90995
-2.72506
-0.000686173
-1.90749
-2.72427
-0.000481163
-1.90859
-2.72274
0.000823055
-1.90987
-2.72356
-1.90802
-2.72287
-0.00131473
-1.92307
-0.433043
0.000273057
-1.93044
-0.433149
-0.000545803
-1.92633
-0.43339
-0.000269998
-1.92772
-0.432874
0.000668118
-1.93
-0.432836
-1.92651
-0.433473
0.00104467
0.438593
0.000443795
0.437011
0.000273755
0.438009
0.000329535
0.437554
-0.000221608
0.437005
0.437709
-0.00197933
-2.46797
-2.42236
0.000854624
-2.46693
-2.43066
0.00139189
-2.46723
-2.42724
0.000114811
-2.46789
-2.42363
-0.000643674
-2.46777
-2.42516
-2.46771
-2.42555
-0.000268741
-2.80321
-0.0975362
0.000386765
-2.80337
-0.0973654
0.000351478
-2.80317
-0.0974161
0.000291048
-2.80345
-0.0972551
-0.000373288
-2.80354
-0.0964099
-2.80333
-0.0982261
0.000663118
0.105074
0.000144301
0.104907
0.000411657
0.105053
0.000365519
0.104879
-0.000168596
0.104838
0.104873
-0.00753913
-2.06209
-2.66365
0.00206819
-2.05824
-2.69061
0.00735054
-2.05966
-2.68219
0.00096445
-2.06137
-2.66656
-0.00647957
-2.06243
-2.66715
-2.05869
-2.68102
-0.00196957
-2.12322
-0.0344388
0.000709183
-2.12219
-0.0360939
0.00163964
-2.12272
-0.0352852
0.000486304
-2.12302
-0.034452
-0.00262886
-2.12362
-0.0321023
-2.12219
-0.0373494
-7.90553e-06
0.0805829
0.000128543
0.0807365
0.00022514
0.0806852
0.000183139
0.080568
-0.00025049
0.0806272
0.080579
-0.0175154
-1.60691
-3.45854
0.00396511
-1.59735
-3.52676
0.0176334
-1.60051
-3.50918
0.00347679
-1.60531
-3.46566
-0.0206321
-1.6086
-3.45609
-1.59783
-3.51439
-0.00943386
-1.1436
-0.488321
0.002762
-1.14129
-0.504356
0.00756629
-1.14247
-0.498127
0.00183919
-1.14326
-0.490775
-0.0107606
-1.14457
-0.483537
-1.14152
-0.504426
-0.00023204
0.398863
0.000179489
0.398882
0.000236431
0.398873
0.000168761
0.398816
-0.000889843
0.399641
0.39805
-0.0170607
-1.44399
-4.40101
0.00325831
-1.41984
-4.50744
0.016039
-1.42761
-4.48093
0.00523754
-1.43918
-4.41575
-0.0230708
-1.44481
-4.38646
-1.42405
-4.49781
-0.0357121
-0.278606
-1.618
0.00791264
-0.273824
-1.694
0.028071
-0.276248
-1.66964
0.00596249
-0.277557
-1.63029
-0.0345314
-0.281179
-1.60667
-0.273288
-1.68972
-0.00250669
0.304319
0.000482481
0.295761
0.00122789
0.299065
0.000313087
0.302388
-0.0044725
0.307414
0.294292
0.0111287
-0.229546
-5.48648
-0.00230175
-0.142352
-5.60812
-0.00550544
-0.172567
-5.57416
0.00141134
-0.209984
-5.50942
0.00272392
-0.226895
-5.46436
-0.161888
-5.60057
-0.0399408
1.05114
-2.85874
0.00459122
1.09644
-2.97732
0.0257557
1.07901
-2.94238
0.00647944
1.06181
-2.8828
-0.0273546
1.04844
-2.84817
1.08968
-2.96864
-0.0329936
-0.176675
0.00638849
-0.232416
0.0218852
-0.214293
0.00375487
-0.18722
-0.0344813
-0.171457
-0.22962
0.00243497
2.63111
-5.34637
-2.75972e-05
2.64115
-5.45596
-0.00142097
2.63818
-5.42286
0.000917749
2.63879
-5.37586
-0.00700766
2.64881
-5.33887
2.62843
-5.44487
0.0169741
2.8032
-3.0478
-0.00711236
2.8215
-3.13357
-0.0166097
2.81339
-3.1081
-0.00341275
2.81498
-3.07218
0.0238807
2.8273
-3.05395
2.80344
-3.11977
0.0116192
-0.433902
-0.00897207
-0.476076
-0.018947
-0.461237
-0.0054987
-0.445018
0.0341106
-0.441226
-0.465662
0.0152171
3.08614
-4.4895
-0.00667418
3.0158
-4.55305
-0.0108819
3.04451
-4.53877
-0.00563494
3.06871
-4.51192
0.0180364
3.10322
-4.50415
3.0215
-4.54274
0.0460251
1.94735
-1.95503
-0.0107033
1.902
-1.96305
-0.0300484
1.91782
-1.96207
-0.0101659
1.94153
-1.96488
0.0452097
1.97256
-1.97867
1.89715
-1.95021
0.0274261
-0.569947
-0.00916913
-0.577734
-0.0238089
-0.573677
-0.00718528
-0.575931
0.0338835
-0.581573
-0.569266
0.0270831
-1.78107
-3.74846
-0.00475204
-1.86251
-3.75058
-0.0178457
-1.82202
-3.75748
-0.00397797
-1.80864
-3.75224
0.0301638
-1.77879
-3.76216
-1.83979
-3.7485
0.0305008
-2.95116
-0.815441
-0.00583964
-2.98503
-0.80419
-0.0150246
-2.9666
-0.808297
-0.00663393
-2.96628
-0.815629
0.0212628
-2.95832
-0.827034
-2.9696
-0.799134
0.0121593
-0.0188518
-0.00163626
-0.0201414
-0.00223103
-0.0191215
-0.00142546
-0.0193479
-0.000913786
-0.0179478
-0.0194644
0.00377053
-4.59557
-1.29414
0.00210285
-4.61276
-1.29557
-0.00192678
-4.61078
-1.29477
0.000601212
-4.60136
-1.29634
0.000445699
-4.59793
-1.2971
-4.61468
-1.29398
0.00170426
-3.5867
-1.82601
0.0034079
-3.59265
-1.82601
0.000949088
-3.59029
-1.82633
0.00250739
-3.59205
-1.8265
-0.00180091
-3.59492
-1.82573
-3.5884
-1.82722
0.00567738
-0.705717
-0.000844255
-0.708031
-0.00382
-0.70761
-0.00123839
-0.705764
0.00550722
-0.703806
-0.709267
-0.00513107
-0.57516
-0.600406
1.1807
-0.00180127
-0.585547
-0.602624
1.18484
-0.00101207
-0.587292
-0.607147
1.19365
-0.00277432
-0.529559
-0.583549
1.11487
0.00576403
-0.537959
-0.583539
1.11296
-0.527414
-0.58891
1.12209
-0.000891968
-0.755518
-0.224993
0.406243
0.00565872
-0.766467
-0.227487
0.401859
0.0164235
-0.767556
-0.23011
0.399611
0.0132806
-0.736779
-0.242344
0.452709
-0.00206994
-0.733214
-0.231048
0.441655
-0.734721
-0.253929
0.459169
-0.00134875
-0.36733
0.365023
-0.0106069
-0.368822
0.365845
-0.0249584
-0.368019
0.369739
-0.023719
-0.366087
0.384305
0.00131823
-0.34771
0.345115
-0.361794
0.3904
6.76791e-05
-0.351221
-0.249252
-0.000641628
-0.353413
-0.248502
-0.000625488
-0.359516
-0.247647
9.54862e-05
-0.3334
-0.250869
-0.00150266
-0.33155
-0.250391
-0.342114
-0.248299
0.00175502
-0.636684
0.0587165
0.000471515
-0.639329
0.0597153
-0.00230076
-0.644516
0.0576639
-0.00677337
-0.628587
0.0573171
0.00654768
-0.631628
0.0557109
-0.64156
0.052066
-0.000219415
-0.134279
-0.00301349
-0.134458
-0.0112394
-0.133814
-0.00839903
-0.128834
0.00239271
-0.123495
-0.125885
0.000366836
-0.247297
-0.00232252
-0.000382607
-0.245672
-0.00207987
-0.00143753
-0.244683
-0.00190884
-0.000772369
-0.249689
-0.00184531
0.000931924
-0.25017
-0.00192557
-0.246181
-0.00118574
0.0004517
-0.586316
0.397286
0.00214027
-0.585236
0.397592
0.00284859
-0.585036
0.397309
0.00436474
-0.589572
0.395684
0.00591953
-0.592404
0.396391
-0.586018
0.397822
-0.00196603
0.0636546
-0.00252045
0.0635374
-0.00257835
0.0639927
-0.00364605
0.0659548
-0.00155087
0.0674206
0.0672709
0.000281807
-0.170667
0.168063
-0.000443268
-0.169656
0.168301
-0.00187904
-0.168554
0.168081
-0.000211025
-0.172542
0.169028
0.00179933
-0.173209
0.169273
-0.167483
0.168097
-0.000174181
-0.634216
0.861009
0.000196389
-0.633452
0.861018
-0.000332958
-0.632054
0.861339
1.61023e-05
-0.63725
0.860043
0.00326047
-0.639842
0.859778
-0.629287
0.862886
-0.000919875
0.320454
-0.00108553
0.320778
-0.000735015
0.321322
-0.00107359
0.320692
-0.000302682
0.320268
0.32345
0.000394144
-0.331602
0.499271
-0.000333287
-0.331273
0.500302
-0.00159764
-0.330391
0.499736
-0.000154948
-0.333147
0.500732
0.00161417
-0.33359
0.501094
-0.329688
0.499399
0.000109422
-0.863252
1.39255
-0.000211928
-0.863125
1.39319
-0.00101422
-0.861725
1.39348
-0.000686189
-0.865799
1.39237
0.00257622
-0.868292
1.39122
-0.858916
1.39469
-0.000302403
0.613297
-0.000489841
0.614229
0.000101522
0.614509
-0.000471675
0.612846
-0.00092416
0.611422
0.616389
0.000724995
-0.795597
-6.75917e-05
-0.794476
-0.00105814
-0.794046
-0.000140305
-0.796523
0.000961955
-0.797108
-0.793615
-0.000609027
-1.22845
0.000334973
-1.22823
0.00080533
-1.22737
0.0002152
-1.23007
5.96721e-05
-1.23146
-1.22609
-9.03743e-05
-0.000232598
0.000500566
-0.00024587
-0.00100703
-0.269495
7.1429
-0.906321
-0.515518
7.38485
-1.01459
-0.744767
7.52225
-1.08254
-0.304918
7.71293
-1.52306
0.408044
8.31938
-1.88457
7.75432
-1.16597
-0.187322
7.97038
-0.640166
-0.368955
8.23673
-0.670246
-0.299151
8.38091
-0.928456
-0.141208
8.78201
-1.22702
0.0672597
9.60884
-1.49792
8.83155
-1.00997
-0.147587
-0.90248
-0.294216
-0.876103
-0.276858
-1.01995
-0.0734816
-0.867241
0.106381
-0.793117
-0.810004
0.151906
8.3205
-1.72693
0.00628958
8.85538
-1.8752
0.777682
8.23831
-1.7262
-0.196135
7.97127
-1.63593
-1.48238
7.97748
-1.87967
6.04042
-2.14153
0.31237
7.4781
-0.110135
0.207766
8.35017
-0.0604343
1.13835
6.82952
-0.450247
0.23539
7.32213
0.325082
-0.938651
7.53672
0.116885
5.23943
-1.14762
0.141965
0.84379
0.0922851
0.940272
0.339682
0.600416
0.323908
0.718733
0.328387
0.722
0.442964
0.247184
-0.398449
-1.72491
0.12528
-0.316022
-1.74229
0.383482
-0.713728
-1.66124
0.22918
0.0152213
-1.62087
-0.147334
0.243341
-1.62748
-0.495764
-1.71242
0.183624
0.0101978
-0.702408
0.0749581
0.360666
-0.628456
-0.28514
-0.222199
-0.581679
0.41409
-0.211621
-0.147306
1.01446
-0.0747135
-0.165432
0.0798621
-0.708786
-0.0420302
0.686232
-0.244163
0.769802
-0.784067
0.675732
0.136092
0.557212
0.937099
0.692044
0.669895
-0.0520871
-2.97755
-1.13127
-0.197369
-2.95207
-1.06351
-0.211075
-2.88072
-1.11975
-0.0480664
-3.19791
-1.08571
0.0496144
-3.09414
-1.02359
-2.79139
-1.13661
-0.0847626
-3.24492
-0.350271
-0.228804
-3.16608
-0.270403
-0.400557
-3.0251
-0.265552
-0.0125451
-3.4297
-0.303531
0.296636
-3.35629
-0.212464
-2.89585
-0.307682
-0.017284
0.135869
0.0180901
0.161152
-0.0289993
0.173759
-0.0298402
0.0939388
0.0628912
0.137278
0.177894
-0.0328062
-2.22479
-0.950037
-0.00889016
-2.24285
-0.926741
-0.0258954
-2.23592
-0.929075
-0.0141007
-2.22519
-0.922171
0.0429712
-2.25203
-0.896975
-2.22712
-0.93185
-0.0218067
-2.1382
-0.415053
0.000775391
-2.14268
-0.393155
0.0203232
-2.13733
-0.383684
-0.0153864
-2.10733
-0.385685
0.00187301
-2.12556
-0.356192
-2.14042
-0.392511
-0.00387156
-0.0255316
0.0093098
-0.0224385
0.0283888
-0.0166231
-0.0121175
-0.0406044
-0.0269858
-0.0281674
-0.0197945
-0.0274088
-1.44669
-0.706976
-0.0112131
-1.44364
-0.703359
-0.011048
-1.45093
-0.695334
-0.0136881
-1.44645
-0.68534
0.0140375
-1.45384
-0.679307
-1.4521
-0.693917
-0.0117991
-1.48959
-0.360351
-0.00455417
-1.48637
-0.357664
0.00160509
-1.49001
-0.35076
-0.00118021
-1.48003
-0.349316
0.00742418
-1.48063
-0.338005
-1.48935
-0.347835
-0.00162467
-0.0907287
0.0013012
-0.0912477
0.0065648
-0.0884194
-0.00192551
-0.0938874
-0.00425459
-0.0907072
-0.0888456
-0.0073117
-0.827493
-0.505795
0.0333092
-0.819923
-0.502941
0.0365151
-0.831754
-0.501846
0.0132721
-0.853818
-0.487224
-0.00367827
-0.866699
-0.491064
-0.848647
-0.498458
0.0052551
-1.0023
-0.190795
0.0193967
-1.0024
-0.189328
0.0277716
-1.00543
-0.18546
0.017476
-1.01093
-0.18191
0.000444682
-1.0122
-0.17547
-1.01223
-0.183814
0.000179264
-0.085063
0.000897694
-0.0857285
0.00263684
-0.0847559
-0.000352462
-0.0857613
-0.000703862
-0.0849474
-0.0846043
-0.0237297
-0.568492
-0.165003
0.0502704
-0.557744
-0.205151
0.122526
-0.582554
-0.244461
0.0359753
-0.637514
-0.202568
-0.0325448
-0.674495
-0.188805
-0.61741
-0.217179
0.0178335
-0.931882
0.154761
0.0417984
-0.93412
0.163083
0.0552526
-0.940907
0.159438
0.0348834
-0.954578
0.155523
-0.00833787
-0.960286
0.153542
-0.954297
0.144736
0.0020915
-0.0744386
0.00414236
-0.0751655
0.00663594
-0.0757615
0.00332735
-0.0762946
0.000373829
-0.0760269
-0.0754487
-0.125562
-0.337948
0.129101
-0.101532
-0.326332
-0.142479
0.141405
-0.323272
-0.39081
0.0309736
-0.337321
-0.00613127
-0.181022
-0.365408
0.0816314
-0.291143
-0.252416
0.0228326
-0.722576
0.516556
0.0174304
-0.714533
0.556685
0.0146153
-0.707734
0.546715
-0.00359888
-0.71621
0.552626
-0.0384951
-0.723702
0.546734
-0.698079
0.513178
-0.0116358
0.0338089
-0.00991806
0.0308073
-0.00411898
0.0333261
-0.00390636
0.0319056
-0.00340529
0.0264259
0.0379498
0.164394
-0.580141
-0.385082
0.0817444
-0.710413
-0.610314
0.313404
-0.670414
-0.921532
0.0652522
-0.717445
-0.468651
-0.356895
-0.750323
-0.388036
-0.629061
-0.972511
0.0728609
-1.12427
0.987824
0.0361994
-1.15855
1.04149
0.012217
-1.14405
1.04434
-0.024113
-1.17238
1.04389
-0.039071
-1.19063
1.002
-1.15571
1.00075
0.00786842
0.232597
0.00605184
0.226189
0.013219
0.230556
0.0159436
0.2209
0.0110266
0.209608
0.237167
0.0717586
-1.96878
-1.60269
0.0311965
-1.98893
-1.6586
0.0509201
-1.96518
-1.83831
-0.142294
-2.08495
-1.772
-0.300997
-1.85543
-1.76199
-1.78624
-2.16649
0.00482832
-1.56614
0.580361
0.000211384
-1.56067
0.617849
-0.0135259
-1.5472
0.640092
-0.120075
-1.57737
0.64286
-0.0378241
-1.53194
0.59627
-1.48519
0.66188
-0.0129196
0.322372
-0.00263938
0.317537
-0.0004605
0.32275
-0.0182765
0.319398
-0.013929
0.32285
0.346334
0.055467
-2.93678
-0.0261422
-2.90194
-0.252745
-2.98503
-0.0815887
-3.25495
0.0652894
-2.75714
-3.45899
0.0173585
-1.96754
0.0578198
-1.92269
0.0699963
-1.9575
-0.024483
-2.0649
0.177326
-1.92102
-2.16061
0.00665834
0.0194991
-0.0167592
-0.0512421
0.13044
)
;

boundaryField
{
    seabed_topleft_surface
    {
        type            calculated;
        value           uniform 0;
    }
    seabed_topright_surface
    {
        type            calculated;
        value           uniform 0;
    }
    breakwater_top_surface
    {
        type            calculated;
        value           uniform 0;
    }
    breakwater_left_surface
    {
        type            calculated;
        value           uniform 0;
    }
    breakwater_right_surface
    {
        type            calculated;
        value           uniform 0;
    }
    water_front_surface
    {
        type            calculated;
        value           uniform 0;