/*--------------------------------*- C++ -*----------------------------------*\
| =========                 |                                                 |
| \\      /  F ield         | OpenFOAM: The Open Source CFD Toolbox           |
|  \\    /   O peration     | Version:  v1612+                                |
|   \\  /    A nd           | Web:      www.OpenFOAM.com                      |
|    \\/     M anipulation  |                                                 |
\*---------------------------------------------------------------------------*/
FoamFile
{
    version     2.0;
    format      ascii;
    class       volScalarField;
    location    "1.05";
    object      alpha.water;
}
// * * * * * * * * * * * * * * * * * * * * * * * * * * * * * * * * * * * * * //

dimensions      [0 0 0 0 0 0 0];

internalField   nonuniform List<scalar> 
320
(
1
1
1
1
2.99991e-06
3.23225e-06
1.7581e-06
2.56083e-06
2.26602e-06
1.62145e-06
3.51412e-06
2.67588e-06
1.6819e-06
1.94957e-06
2.99774e-06
1.56915e-06
0.999997
0.999997
0.999998
0.999999
0.999998
0.999994
0.999998
0.999998
0.999994
0.999999
0.999999
1
1
1
1
1
1
1
1
1
1
1
1
1
1
1
1
1
1
1
1
1
1
1
1
1
1
1
1
1
2.211e-06
2.57488e-06
3.24087e-06
2.25974e-06
1.51285e-06
1.26097e-06
1.63517e-06
1.72159e-06
1.83249e-06
2.69738e-06
1.36859e-06
1.43092e-06
2.00941e-06
2.59129e-06
3.55855e-06
1.99452e-06
1.90037e-06
2.0488e-06
1.48529e-06
2.03339e-06
1
0.999998
0.999999
1
0.999999
0.999999
1
1
0.999999
0.999997
0.999998
0.999997
0.999995
0.999996
0.999999
0.999997
0.999997
1
0.999997
0.999996
1
1
1
1
1
1
1
1
1
1
1
1
1
1
1
1
1
1
1
1
1
1
1
1
1
1
1
1
1
1
1
1
1
1
1
1
1
1
1
1
1
1
1
1
1
1
1
1
1
1
1
1
1
1
1
1
1
1
1
1
1
1
1
1
1
1
1
1
1
1
1
1
1
1
1
1
2.06229e-06
1.87499e-06
3.05716e-06
1.94111e-06
1.94411e-06
2.77048e-06
2.16207e-06
2.56061e-06
1.89461e-06
3.04299e-06
2.40304e-06
3.13483e-06
1.77555e-06
2.20622e-06
2.19574e-06
2.6913e-06
2.3856e-06
1.87327e-06
2.91822e-06
2.61213e-06
2.73061e-06
3.37983e-06
2.96882e-06
2.55818e-06
2.06177e-06
2.27679e-06
2.27504e-06
3.56024e-06
0.999997
0.999997
0.999998
0.999998
0.999999
0.999998
0.999995
0.999998
0.999999
0.999997
0.999995
0.999997
0.999999
0.999998
0.999996
0.999998
0.999997
0.999993
0.999996
0.999998
0.999997
0.999999
1
0.999998
0.999996
0.999996
0.999995
0.999997
1
1
1
1
1
1
1
1
1
1
1
1
1
1
1
1
1
1
1
1
1
1
1
1
1
1
1
1
1
1
1
1
1
1
1
1
1
1
1
1
1
1
1
1
1
1
1
1
1
1
1
1
1
1
1
1
1
1
1
1
1
1
1
1
1
1
1
1
1
1
1
1
1
1
1
1
1
1
1
1
1
1
1
1
3.01542e-06
2.80601e-06
2.8985e-06
2.48183e-06
1
1
0.999998
0.999999
)
;

boundaryField
{
    top_fluid_surface
    {
        type            inletOutlet;
        inletValue      uniform 0;
        value           nonuniform List<scalar> 
64
(
0
0
1.7581e-06
0
0
1.62145e-06
0
0
1.6819e-06
1.94957e-06
0
1.56915e-06
2.211e-06
0
0
2.25974e-06
1.51285e-06
1.26097e-06
1.63517e-06
1.72159e-06
1.83249e-06
0
1.36859e-06
1.43092e-06
2.00941e-06
0
0
1.99452e-06
1.90037e-06
2.0488e-06
1.48529e-06
0
0
1.87499e-06
0
1.94111e-06
1.94411e-06
0
2.16207e-06
0
1.89461e-06
0
0
0
1.77555e-06
0
0
0
0
1.87327e-06
0
0
0
0
0
0
2.06177e-06
2.27679e-06
2.27504e-06
0
0
0
0
0
)
;
    }
    bottom_fluid_surface
    {
        type            zeroGradient;
    }
    lateral_surface_1
    {
        type            zeroGradient;
    }
    lateral_surface_2
    {
        type            zeroGradient;
    }
    lateral_surface_3
    {
        type            zeroGradient;
    }
    lateral_surface_4
    {
        type            zeroGradient;
    }
}


// ************************************************************************* //
