/*--------------------------------*- C++ -*----------------------------------*\
| =========                 |                                                 |
| \\      /  F ield         | OpenFOAM: The Open Source CFD Toolbox           |
|  \\    /   O peration     | Version:  v1612+                                |
|   \\  /    A nd           | Web:      www.OpenFOAM.com                      |
|    \\/     M anipulation  |                                                 |
\*---------------------------------------------------------------------------*/
FoamFile
{
    version     2.0;
    format      ascii;
    class       volScalarField;
    location    "1.05";
    object      p_rgh;
}
// * * * * * * * * * * * * * * * * * * * * * * * * * * * * * * * * * * * * * //

dimensions      [1 -1 -2 0 0 0 0];

internalField   nonuniform List<scalar> 
320
(
-9800.19
-9800.19
-9800.2
-9800.2
-0.00227376
-0.00348226
0.00328536
-0.000794565
-0.000105921
0.00297205
-0.00451051
-0.0017299
0.00342548
0.00239035
-0.00262028
0.00351063
-9800.13
-9800.13
-9800.19
-9800.15
-9800.15
-9800.16
-9800.13
-9800.15
-9800.15
-9800.2
-9800.14
-9800.21
-9800.2
-9800.19
-9800.21
-9800.19
-9800.2
-9800.21
-9800.2
-9800.2
-9800.22
-9800.21
-9800.2
-9800.21
-9800.2
-9800.19
-9800.21
-9800.2
-9800.21
-9800.2
-9800.21
-9800.19
-9800.2
-9800.21
-9800.2
-9800.2
-9800.21
-9800.21
-9800.2
-9800.21
0.000623964
-0.00157446
-0.00268815
0.000959097
0.00452581
0.00515586
0.00348572
0.00282698
0.00273472
-0.0018806
0.00424185
0.00394277
0.00169205
-0.00135567
-0.00314265
0.00171799
0.00182274
0.000820594
0.00329003
0.00051865
-9800.2
-9800.14
-9800.19
-9800.21
-9800.21
-9800.21
-9800.21
-9800.21
-9800.2
-9800.13
-9800.2
-9800.18
-9800.16
-9800.13
-9800.18
-9800.18
-9800.18
-9800.2
-9800.19
-9800.13
-9800.21
-9800.2
-9800.2
-9800.2
-9800.21
-9800.21
-9800.2
-9800.2
-9800.2
-9800.2
-9800.21
-9800.21
-9800.22
-9800.21
-9800.21
-9800.21
-9800.21
-9800.21
-9800.22
-9800.21
-9800.21
-9800.2
-9800.2
-9800.2
-9800.21
-9800.21
-9800.2
-9800.2
-9800.2
-9800.2
-9800.21
-9800.21
-9800.22
-9800.21
-9800.2
-9800.21
-9800.21
-9800.2
-9800.21
-9800.21
-9800.2
-9800.2
-9800.21
-9800.2
-9800.2
-9800.2
-9800.2
-9800.2
-9800.2
-9800.2
-9800.2
-9800.2
-9800.21
-9800.21
-9800.2
-9800.21
-9800.21
-9800.2
-9800.2
-9800.2
-9800.2
-9800.2
-9800.2
-9800.2
-9800.2
-9800.2
-9800.2
-9800.21
-9800.21
-9800.21
-9800.2
-9800.21
-9800.21
-9800.2
-9800.21
-9800.21
0.000234144
0.00123841
-0.00457566
0.000783343
0.00172717
-0.00158163
0.0021834
-0.000443836
0.000834834
-0.00372341
-0.00139788
-0.00239541
0.00259688
0.000265886
-0.0002783
-0.00215605
-0.00121276
0.00216692
-0.00234041
-0.00201606
-0.00180129
-0.00430716
-0.0026929
-0.00154085
0.00159887
0.00119025
0.000320385
-0.00644446
-9800.14
-9800.18
-9800.13
-9800.18
-9800.2
-9800.14
-9800.15
-9800.15
-9800.2
-9800.13
-9800.11
-9800.13
-9800.2
-9800.14
-9800.12
-9800.15
-9800.14
-9800.15
-9800.12
-9800.14
-9800.13
-9800.14
-9800.16
-9800.14
-9800.13
-9800.17
-9800.15
-9800.12
-9800.21
-9800.22
-9800.2
-9800.21
-9800.21
-9800.21
-9800.21
-9800.2
-9800.21
-9800.2
-9800.21
-9800.2
-9800.2
-9800.2
-9800.2
-9800.21
-9800.2
-9800.22
-9800.21
-9800.2
-9800.2
-9800.19
-9800.2
-9800.21
-9800.21
-9800.22
-9800.22
-9800.21
-9800.21
-9800.21
-9800.2
-9800.2
-9800.2
-9800.2
-9800.21
-9800.21
-9800.2
-9800.2
-9800.2
-9800.2
-9800.2
-9800.2
-9800.2
-9800.2
-9800.2
-9800.21
-9800.21
-9800.2
-9800.2
-9800.2
-9800.2
-9800.21
-9800.21
-9800.22
-9800.22
-9800.21
-9800.21
-9800.21
-9800.2
-9800.2
-9800.2
-9800.2
-9800.21
-9800.2
-9800.2
-9800.2
-9800.2
-9800.2
-9800.2
-9800.2
-9800.2
-9800.2
-9800.2
-9800.21
-9800.21
-9800.2
-9800.2
-9800.2
-9800.2
-9800.21
-9800.21
-9800.21
-9800.21
-9800.21
-0.00118294
-0.00199829
-0.00120881
-0.00108115
-9800.2
-9800.17
-9800.15
-9800.15
)
;

boundaryField
{
    top_fluid_surface
    {
        type            totalPressure;
        rho             rho;
        psi             none;
        gamma           1;
        p0              uniform 0;
        value           nonuniform List<scalar> 
64
(
-4.77819e-10
-1.41688e-09
0
-5.5325e-10
-8.38264e-11
0
-5.8234e-09
-6.70704e-10
0
0
-1.30065e-09
0
0
-1.38407e-09
-2.48063e-08
0
0
0
0
0
0
-7.16819e-10
0
0
0
-1.6001e-09
-2.71997e-08
0
0
0
0
-4.545e-11
-3.45997e-11
0
-5.60215e-09
0
0
-1.1172e-09
0
-3.24173e-11
0
-5.128e-09
-8.9786e-10
-4.72233e-10
0
-2.95705e-10
-2.76665e-10
-1.02561e-09
-1.30264e-09
0
-4.76675e-10
-1.84448e-09
-9.56481e-10
-2.55176e-09
-1.96347e-09
-2.04247e-09
0
0
0
-8.72454e-09
-1.56119e-08
-3.88707e-10
-1.01242e-10
-3.85819e-10
)
;
    }
    bottom_fluid_surface
    {
        type            fixedFluxPressure;
        gradient        uniform 0;
        value           nonuniform List<scalar> 
64
(
-9800.2
-9800.2
-9800.21
-9800.2
-9800.2
-9800.2
-9800.2
-9800.2
-9800.2
-9800.2
-9800.2
-9800.2
-9800.21
-9800.21
-9800.2
-9800.21
-9800.21
-9800.2
-9800.2
-9800.2
-9800.2
-9800.2
-9800.2
-9800.2
-9800.2
-9800.2
-9800.2
-9800.21
-9800.21
-9800.21
-9800.2
-9800.21
-9800.21
-9800.2
-9800.21
-9800.21
-9800.21
-9800.21
-9800.2
-9800.2
-9800.2
-9800.2
-9800.21
-9800.2
-9800.2
-9800.2
-9800.2
-9800.2
-9800.2
-9800.2
-9800.2
-9800.2
-9800.2
-9800.21
-9800.21
-9800.2
-9800.2
-9800.2
-9800.2
-9800.21
-9800.21
-9800.21
-9800.21
-9800.21
)
;
    }
    lateral_surface_1
    {
        type            fixedFluxPressure;
        gradient        uniform 0;
        value           nonuniform List<scalar> 
40
(
0.000234144
0.00123841
-0.00457566
0.000783343
0.00172717
-0.00158163
0.0021834
-0.00644446
-9800.14
-9800.18
-9800.13
-9800.18
-9800.2
-9800.14
-9800.15
-9800.12
-9800.21
-9800.22
-9800.2
-9800.21
-9800.21
-9800.21
-9800.21
-9800.21
-9800.21
-9800.21
-9800.2
-9800.2
-9800.2
-9800.2
-9800.21
-9800.21
-9800.21
-9800.21
-9800.2
-9800.2
-9800.2
-9800.2
-9800.21
-9800.21
)
;
    }
    lateral_surface_2
    {
        type            fixedFluxPressure;
        gradient        uniform 0;
        value           nonuniform List<scalar> 
40
(
0.000265886
-0.0002783
-0.00215605
-0.00121276
0.00216692
-0.00234041
-0.00201606
-0.00180129
-9800.14
-9800.12
-9800.15
-9800.14
-9800.15
-9800.12
-9800.14
-9800.13
-9800.2
-9800.2
-9800.21
-9800.2
-9800.22
-9800.21
-9800.2
-9800.2
-9800.2
-9800.2
-9800.2
-9800.2
-9800.21
-9800.21
-9800.2
-9800.2
-9800.2
-9800.2
-9800.2
-9800.2
-9800.21
-9800.21
-9800.2
-9800.2
)
;
    }
    lateral_surface_3
    {
        type            fixedFluxPressure;
        gradient        uniform 0;
        value           nonuniform List<scalar> 
40
(
0.0021834
-0.000443836
0.000834834
-0.00372341
-0.00139788
-0.00239541
0.00259688
0.000265886
-9800.15
-9800.15
-9800.2
-9800.13
-9800.11
-9800.13
-9800.2
-9800.14
-9800.21
-9800.2
-9800.21
-9800.2
-9800.21
-9800.2
-9800.2
-9800.2
-9800.21
-9800.21
-9800.2
-9800.2
-9800.2
-9800.2
-9800.2
-9800.2
-9800.21
-9800.2
-9800.2
-9800.2
-9800.2
-9800.2
-9800.2
-9800.2
)
;
    }
    lateral_surface_4
    {
        type            fixedFluxPressure;
        gradient        uniform 0;
        value           nonuniform List<scalar> 
40
(
-0.00180129
-0.00430716
-0.0026929
-0.00154085
0.00159887
0.00119025
0.000320385
-0.00644446
-9800.13
-9800.14
-9800.16
-9800.14
-9800.13
-9800.17
-9800.15
-9800.12
-9800.2
-9800.19
-9800.2
-9800.21
-9800.21
-9800.22
-9800.22
-9800.21
-9800.2
-9800.2
-9800.2
-9800.21
-9800.21
-9800.22
-9800.22
-9800.21
-9800.2
-9800.2
-9800.2
-9800.21
-9800.21
-9800.21
-9800.21
-9800.21
)
;
    }
}


// ************************************************************************* //
