/*--------------------------------*- C++ -*----------------------------------*\
| =========                 |                                                 |
| \\      /  F ield         | OpenFOAM: The Open Source CFD Toolbox           |
|  \\    /   O peration     | Version:  v1612+                                |
|   \\  /    A nd           | Web:      www.OpenFOAM.com                      |
|    \\/     M anipulation  |                                                 |
\*---------------------------------------------------------------------------*/
FoamFile
{
    version     2.0;
    format      ascii;
    class       surfaceScalarField;
    location    "1.9";
    object      alphaPhi;
}
// * * * * * * * * * * * * * * * * * * * * * * * * * * * * * * * * * * * * * //

dimensions      [0 3 -1 0 0 0 0];

internalField   nonuniform List<scalar> 
2916
(
-9.61928e-07
0.537064
-0.53696
3.88197e-07
0.537066
-0.536964
1.33486e-06
0.537066
-0.536964
1.67591e-06
0.537066
-0.536963
1.82402e-06
0.537067
-0.536964
0.537065
-0.53696
-2.30907e-06
1.16599
-0.628822
3.14096e-07
1.166
-0.62883
1.2419e-07
1.166
-0.628827
2.76265e-07
1.166
-0.628826
2.65141e-06
1.166
-0.628828
1.16599
-0.62882
-2.44722e-06
1.6571
-0.491023
-8.84018e-07
1.65711
-0.491029
-2.7757e-06
1.65711
-0.491024
-2.63198e-06
1.6571
-0.491026
1.86979e-06
1.6571
-0.491029
1.65709
-0.491018
-5.58244e-06
2.08952
-0.431914
-4.71547e-06
2.08953
-0.431923
-7.63854e-06
2.08952
-0.43192
-6.97597e-06
2.08952
-0.431923
-1.29872e-06
2.08952
-0.431929
2.08951
-0.43192
-9.55589e-06
2.43921
-0.348851
-8.98196e-06
2.43922
-0.348864
-1.19658e-05
2.43922
-0.348861
-1.123e-05
2.43922
-0.348865
-5.72508e-06
2.43922
-0.348872
2.4392
-0.348866
-1.36179e-05
2.79801
-0.35868
-1.36965e-05
2.79803
-0.358697
-1.53262e-05
2.79802
-0.358695
-1.4247e-05
2.79802
-0.358697
-7.76787e-06
2.79803
-0.358704
2.798
-0.358701
-1.6394e-05
3.11588
-0.346507
-1.58226e-05
3.11589
-0.346525
-1.5773e-05
3.11589
-0.346525
-1.38408e-05
3.11589
-0.346527
-6.35087e-06
3.11589
-0.346532
3.11587
-0.346528
-1.62382e-05
3.25616
-0.217881
-1.48311e-05
3.25615
-0.217895
-1.52968e-05
3.25616
-0.217894
-1.33637e-05
3.25616
-0.217897
-4.89106e-06
3.25616
-0.2179
3.25614
-0.217896
-5.82213e-06
3.14953
-0.0283439
-7.52759e-06
3.14953
-0.0283471
-9.62951e-06
3.14952
-0.0283456
-8.65406e-06
3.14952
-0.0283479
-3.45597e-06
3.14953
-0.0283511
3.14951
-0.0283489
3.47765e-06
2.675
0.341372
-3.82731e-07
2.67502
0.341367
-4.32613e-06
2.67501
0.341359
-5.72903e-06
2.67502
0.341355
-8.11904e-06
2.67504
0.341348
2.675
0.341348
1.48906e-05
1.81013
0.73229
9.99841e-06
1.81019
0.732281
3.33611e-06
1.81017
0.732282
-4.17196e-06
1.81018
0.732283
-1.51503e-05
1.81019
0.732289
1.81015
0.732277
-8.30361e-05
0.98471
-4.23256e-05
0.98473
-2.2433e-05
0.984734
5.12306e-06
0.984744
3.82005e-05
0.98476
0.984736
-1.1882e-06
0.693825
-1.23068
2.7755e-07
0.693829
-1.23069
-2.28789e-07
0.693827
-1.23069
-1.82948e-06
0.693826
-1.23068
-2.13639e-06
0.693826
-1.23068
0.693825
-1.23068
3.81535e-08
1.28546
-1.22024
-1.46383e-06
1.28548
-1.22026
-4.8625e-06
1.28547
-1.22025
-5.87396e-06
1.28547
-1.22025
-2.96672e-06
1.28547
-1.22025
1.28546
-1.22024
-3.09885e-06
1.69322
-0.833674
-5.98998e-06
1.69324
-0.83368
-8.67644e-06
1.69324
-0.833677
-9.23686e-06
1.69323
-0.833681
-5.88625e-06
1.69323
-0.833687
1.69322
-0.833675
-1.23309e-05
1.93773
-0.563913
-1.32953e-05
1.93774
-0.563922
-1.03495e-05
1.93774
-0.563923
-7.82999e-06
1.93774
-0.563928
-5.69134e-06
1.93774
-0.563933
1.93772
-0.563929
-6.7429e-06
1.80013
-0.165188
-1.5998e-05
1.80014
-0.165191
-1.34438e-05
1.80014
-0.165195
-8.94789e-06
1.80013
-0.165198
-9.71714e-06
1.80013
-0.165199
1.80011
-0.165201
-1.31108e-07
1.38991
-0.0380287
-8.80629e-06
1.3899
-0.0380266
-7.88758e-06
1.3899
-0.0380282
-5.70863e-06
1.3899
-0.03803
-7.43689e-06
1.3899
-0.0380301
1.38987
-0.0380306
1.06651e-05
0.843108
-0.00369304
-6.079e-07
0.843098
-0.00369281
-4.1219e-06
0.843092
-0.00369299
-3.56196e-06
0.843096
-0.00369318
-4.99981e-06
0.843099
-0.00369319
0.843075
-0.00369319
1.30169e-05
0.382658
-0.000351044
2.63205e-06
0.382658
-0.000351019
-3.20075e-06
0.382647
-0.000351036
-3.65148e-06
0.382647
-0.000351054
-3.51848e-06
0.382649
-0.000351057
0.382635
-0.000351045
3.08552e-06
0.21539
-3.05567e-05
1.46193e-06
0.215394
-3.05545e-05
-4.46536e-07
0.215386
-3.05553e-05
-7.04207e-07
0.215382
-3.0557e-05
-3.52994e-07
0.215382
-3.05579e-05
0.215374
-3.05556e-05
1.90379e-06
0.40729
0.00636962
5.24746e-07
0.407299
0.00637025
-6.4549e-07
0.407285
0.00636978
-1.50565e-06
0.40728
0.00636949
-3.15915e-06
0.407273
0.00636946
0.40727
0.00636858
6.0718e-06
0.883326
0.101778
1.92155e-06
0.883346
0.101778
-2.72096e-06
0.883344
0.101777
-6.74341e-06
0.88334
0.101773
6.6473e-06
0.883295
0.101794
0.883347
0.101748
-2.87284e-05
0.966014
-7.36221e-06
0.966033
1.56947e-05
0.966042
3.61315e-05
0.96605
-3.0898e-05
0.96612
0.965958
9.80789e-07
0.598596
-1.8287
3.13732e-07
0.598598
-1.82871
-1.99272e-06
0.598599
-1.8287
-2.92023e-06
0.598598
-1.8287
-2.83867e-06
0.598597
-1.8287
0.598597
-1.8287
1.82497e-06
0.606605
-0.465169
-3.87018e-06
0.606601
-0.465164
-3.32163e-06
0.606602
-0.465166
-2.62791e-07
0.606605
-0.465171
-3.79988e-06
0.606605
-0.465171
0.606608
-0.465173
-1.51452e-06
0.477307
-0.0399779
-4.2972e-06
0.477304
-0.039976
-1.58903e-06
0.477306
-0.0399765
-5.3453e-07
0.47731
-0.0399774
-6.01158e-06
0.47731
-0.0399781
0.477311
-0.0399797
1.41214e-06
0.200915
-0.00162514
1.58157e-06
0.200912
-0.00162503
3.36851e-06
0.200917
-0.00162506
2.69752e-06
0.200921
-0.00162513
-2.87666e-06
0.200922
-0.00162518
0.200923
-0.0016253
7.17382e-07
0.0421059
-4.85412e-05
7.34042e-07
0.0421035
-4.85391e-05
7.62526e-07
0.0421052
-4.85419e-05
5.91369e-07
0.0421073
-4.85449e-05
1.30524e-07
0.0421074
-4.85467e-05
0.0421079
-4.85511e-05
7.86997e-08
0.004078
-8.50707e-07
1.01122e-07
0.00407776
-8.50785e-07
7.88455e-08
0.00407796
-8.5094e-07
4.37346e-08
0.00407817
-8.51056e-07
-7.15808e-09
0.00407819
-8.51104e-07
0.00407819
-8.51195e-07
-9.2266e-09
0.000384979
-2.21035e-10
-9.60805e-09
0.000384953
-2.21691e-10
-1.00916e-08
0.000384971
-2.24873e-10
-1.21818e-08
0.000384991
-2.2633e-10
-1.33843e-08
0.000384996
-2.26547e-10
0.000384982
-2.29173e-10
-9.60519e-10
3.39391e-05
-1.91607e-09
-1.83371e-09
3.3937e-05
-1.91839e-09
-1.70401e-09
3.39378e-05
-1.91544e-09
-1.50911e-09
3.39397e-05
-1.91409e-09
-1.38251e-09
3.39409e-05
-1.91517e-09
3.39378e-05
-1.90973e-09
7.63866e-11
3.40939e-06
-1.11926e-09
-1.73917e-11
3.40964e-06
-1.11861e-09
-1.2549e-11
3.40962e-06
-1.11827e-09
1.51799e-11
3.4097e-06
-1.11896e-09
6.95815e-11
3.40986e-06
-1.11649e-09
3.40926e-06
-1.11899e-09
1.29207e-07
0.0061647
0.000208161
1.53879e-07
0.00616545
0.00020815
1.19578e-07
0.00616501
0.000208165
7.36804e-08
0.00616476
0.000208144
1.33301e-07
0.00616452
0.000208248
0.00616412
0.000207953
6.40971e-07
0.100323
0.0072019
8.56378e-07
0.100326
0.00719969
6.36465e-08
0.100325
0.00720032
-3.70277e-07
0.100321
0.00719962
2.68619e-06
0.100331
0.00720724
0.100308
0.0071888
-9.96887e-06
0.212373
-8.77545e-06
0.212328
1.16176e-05
0.212331
-2.68456e-05
0.212339
-0.000162173
0.212491
0.212091
6.59772e-06
0.240424
-0.973021
4.11105e-06
0.240425
-0.973031
6.96429e-07
0.240427
-0.973037
4.9879e-06
0.240426
-0.97303
9.76575e-06
0.240424
-0.973029
0.240422
-0.973059
1.29661e-08
0.0416254
-0.0229853
2.53918e-07
0.0416235
-0.0229834
8.99074e-07
0.041624
-0.0229833
1.62403e-06
0.041625
-0.022986
1.46655e-06
0.0416256
-0.0229873
0.0416274
-0.0229846
-3.30696e-09
0.00166378
-1.54445e-05
3.93558e-08
0.00166366
-1.54389e-05
6.37431e-08
0.0016637
-1.54436e-05
7.38829e-08
0.00166377
-1.54348e-05
5.99568e-08
0.00166382
-1.54244e-05
0.00166395
-1.54476e-05
3.58602e-09
4.86162e-05
-8.425e-06
5.91081e-09
4.86143e-05
-8.42542e-06
5.31213e-09
4.86172e-05
-8.42499e-06
3.43197e-09
4.86203e-05
-8.42525e-06
1.9589e-09
4.86222e-05
-8.42566e-06
4.86266e-05
-8.42477e-06
1.55368e-10
8.5095e-07
-7.15551e-07
2.48393e-10
8.5103e-07
-7.15423e-07
2.32829e-10
8.51188e-07
-7.15392e-07
1.6019e-10
8.51305e-07
-7.15328e-07
8.78844e-11
8.51353e-07
-7.15275e-07
8.51444e-07
-7.15337e-07
-7.26505e-14
2.39385e-10
-6.13201e-13
1.02325e-12
2.40057e-10
-6.14565e-13
1.1733e-12
2.4308e-10
-6.14078e-13
1.28653e-12
2.44461e-10
-6.1378e-13
1.47747e-12
2.44648e-10
-6.1443e-13
2.47074e-10
-6.1251e-13
-1.25175e-15
-1.22748e-11
-1.32477e-11
-1.47028e-15
-1.22978e-11
-1.32804e-11
-9.38246e-16
-1.23457e-11
-1.33684e-11
-5.78716e-17
-1.23676e-11
-1.34077e-11
4.35304e-16
-1.23744e-11
-1.34203e-11
-1.2398e-11
-1.34764e-11
-2.94081e-15
-9.50517e-11
-1.50356e-09
-8.01749e-16
-9.54412e-11
-1.50555e-09
1.37195e-15
-9.49445e-11
-1.50307e-09
3.3761e-15
-9.47646e-11
-1.50184e-09
9.56634e-16
-9.40703e-11
-1.50357e-09
-9.35152e-11
-1.4985e-09
2.65155e-13
1.82665e-07
-1.57612e-07
3.64771e-13
1.82825e-07
-1.57669e-07
5.29732e-13
1.82749e-07
-1.57632e-07
4.63558e-13
1.82653e-07
-1.57574e-07
1.99589e-13
1.82334e-07
-1.57403e-07
1.82261e-07
-1.5722e-07
2.79461e-09
0.000204492
5.08492e-06
5.164e-09
0.000204477
5.08946e-06
6.21381e-09
0.000204492
5.09098e-06
7.25196e-09
0.000204471
5.09097e-06
3.71888e-09
0.000204582
5.0867e-06
0.000204291
5.08816e-06
6.02413e-08
0.00677028
0.000609269
9.25343e-08
0.00676805
0.000609294
3.10195e-08
0.00676874
0.000609337
1.64317e-08
0.00676799
0.000609325
8.51567e-08
0.00677598
0.000609029
0.00675692
0.000609382
-2.75407e-06
0.0143539
-1.96991e-06
0.0143537
-1.3116e-06
0.0143533
-8.38849e-06
0.0143528
-5.37341e-05
0.0143683
0.0143324
8.53776e-70
1.32023e-66
-5.60142e-63
1.85744e-70
1.32245e-66
-5.61137e-63
-9.4223e-71
1.32237e-66
-5.6112e-63
-2.05403e-70
1.32259e-66
-5.61214e-63
-1.99574e-70
1.32343e-66
-5.61554e-63
1.32142e-66
-5.607e-63
7.34884e-66
4.35246e-62
-9.6192e-59
-5.08445e-67
4.36033e-62
-9.63654e-59
-3.7875e-66
4.36034e-62
-9.63632e-59
-5.66819e-66
4.36143e-62
-9.63831e-59
-7.01508e-66
4.36455e-62
-9.6444e-59
4.35887e-62
-9.63078e-59
2.70919e-62
5.35988e-58
-8.42867e-55
-1.09907e-62
5.36938e-58
-8.44308e-55
-2.7834e-62
5.36952e-58
-8.44281e-55
-3.86961e-62
5.37091e-58
-8.44435e-55
-4.68481e-62
5.37482e-58
-8.44952e-55
5.36813e-58
-8.43767e-55
6.96949e-59
3.81273e-54
-4.88155e-51
1.10104e-60
3.81901e-54
-4.88886e-51
-4.69786e-59
3.819e-54
-4.88841e-51
-1.03336e-58
3.81986e-54
-4.88902e-51
-1.43684e-58
3.82257e-54
-4.89177e-51
3.81796e-54
-4.88499e-51
5.61622e-55
1.81872e-50
-2.02665e-47
5.78747e-55
1.82109e-50
-2.02878e-47
3.22799e-55
1.82086e-50
-2.02828e-47
-6.23035e-56
1.82113e-50
-2.02832e-47
-2.84609e-55
1.82231e-50
-2.02931e-47
1.8202e-50
-2.0266e-47
3.47067e-51
5.96888e-47
-5.84447e-44
3.16109e-51
5.97271e-47
-5.84611e-44
9.73264e-52
5.97064e-47
-5.84323e-44
-1.18603e-51
5.97095e-47
-5.84282e-44
-1.81711e-51
5.97476e-47
-5.84571e-44
5.96881e-47
-5.83914e-44
1.01928e-47
1.26309e-43
-1.02201e-40
5.04862e-48
1.26261e-43
-1.02107e-40
-3.9593e-48
1.26185e-43
-1.02029e-40
-1.09159e-47
1.26192e-43
-1.02026e-40
-1.07937e-47
1.26294e-43
-1.02103e-40
1.26226e-43
-1.02048e-40
1.76992e-44
1.61907e-40
-9.24453e-38
3.17803e-45
1.61631e-40
-9.21963e-38
-1.59293e-44
1.6149e-40
-9.20943e-38
-2.88377e-44
1.61524e-40
-9.21135e-38
-2.64333e-44
1.61727e-40
-9.22405e-38
1.61762e-40
-9.22911e-38
1.57409e-41
1.29626e-37
-3.46685e-35
-1.00123e-42
1.29267e-37
-3.44752e-35
-2.17301e-41
1.29135e-37
-3.44213e-35
-3.46015e-41
1.29204e-37
-3.44505e-35
-3.08304e-41
1.29453e-37
-3.45465e-35
1.29602e-37
-3.46374e-35
4.00315e-39
6.98057e-35
3.51623e-36
-6.77222e-39
6.98285e-35
3.53204e-36
-1.73746e-38
6.98152e-35
3.5319e-36
-2.31267e-38
6.98498e-35
3.52965e-36
-1.97511e-38
6.99444e-35
3.52687e-36
6.99543e-35
3.51566e-36
-9.98335e-36
4.44422e-32
1.34522e-32
-1.78644e-35
4.45225e-32
1.34715e-32
-2.29711e-35
4.45287e-32
1.34701e-32
-2.43111e-35
4.45506e-32
1.34719e-32
-1.87433e-35
4.46028e-32
1.34807e-32
4.46009e-32
1.34702e-32
-5.15959e-33
2.11884e-29
-5.37399e-33
2.12318e-29
-4.29583e-33
2.12316e-29
-2.56973e-33
2.12312e-29
-9.11557e-34
2.12368e-29
2.12076e-29
2.49169e-66
5.59672e-63
-2.42067e-59
4.44479e-68
5.60592e-63
-2.42511e-59
-9.99091e-67
5.60549e-63
-2.42495e-59
-1.58668e-66
5.60614e-63
-2.42522e-59
-2.02979e-66
5.60928e-63
-2.42644e-59
5.60004e-63
-2.4222e-59
1.84688e-62
1.89254e-58
-4.3035e-55
-1.13202e-62
1.89582e-58
-4.31146e-55
-2.31592e-62
1.89575e-58
-4.31124e-55
-3.33083e-62
1.89609e-58
-4.31184e-55
-4.40256e-62
1.89724e-58
-4.31407e-55
1.89447e-58
-4.307e-55
4.37629e-59
2.41445e-54
-3.90163e-51
-1.07886e-58
2.41854e-54
-3.90855e-51
-1.72459e-58
2.41845e-54
-3.90831e-51
-2.30311e-58
2.41886e-54
-3.90876e-51
-2.89705e-58
2.42031e-54
-3.91069e-51
2.41688e-54
-3.9044e-51
-2.21777e-56
1.80717e-50
-2.35203e-47
-3.73984e-55
1.81e-50
-2.35581e-47
-6.03057e-55
1.80986e-50
-2.35556e-47
-8.21355e-55
1.81011e-50
-2.35572e-47
-9.9174e-55
1.81111e-50
-2.35676e-47
1.8086e-50
-2.35307e-47
-2.64831e-52
9.16833e-47
-1.0143e-43
-8.8464e-52
9.18029e-47
-1.01564e-43
-2.07026e-51
9.17872e-47
-1.01543e-43
-2.99174e-51
9.17925e-47
-1.01543e-43
-2.90616e-51
9.1837e-47
-1.01581e-43
9.17126e-47
-1.01428e-43
2.97917e-49
3.15895e-43
-2.9814e-40
-5.24839e-48
3.16161e-43
-2.98406e-40
-1.37887e-47
3.16057e-43
-2.98305e-40
-1.84258e-47
3.1605e-43
-2.98286e-40
-1.45587e-47
3.16192e-43
-2.98395e-40
3.15799e-43
-2.97987e-40
9.88339e-46
6.44151e-40
-5.04993e-37
-2.49466e-44
6.44167e-40
-5.05101e-37
-5.51119e-44
6.43814e-40
-5.04849e-37
-6.94679e-44
6.43789e-40
-5.04826e-37
-5.31117e-44
6.44148e-40
-5.05079e-37
6.43568e-40
-5.04577e-37
-5.1544e-42
6.57317e-37
-4.1352e-34
-4.72843e-41
6.56553e-37
-4.13262e-34
-8.81763e-41
6.56024e-37
-4.13004e-34
-1.05013e-40
6.56055e-37
-4.13042e-34
-7.972e-41
6.5663e-37
-4.13379e-34
6.56434e-37
-4.13202e-34
-4.99621e-39
3.66779e-34
-1.47236e-31
-3.4652e-38
3.65884e-34
-1.46945e-31
-6.02498e-38
3.65503e-34
-1.46825e-31
-7.15181e-38
3.65598e-34
-1.4688e-31
-5.65359e-38
3.6612e-34
-1.47093e-31
3.66326e-34
-1.47175e-31
5.29217e-36
1.22055e-31
2.41597e-33
-1.03666e-35
1.21921e-31
2.45578e-33
-2.77121e-35
1.21856e-31
2.45839e-33
-3.80359e-35
1.21905e-31
2.44903e-33
-3.33089e-35
1.22078e-31
2.43081e-33
1.22148e-31
2.3982e-33
-1.82705e-32
8.1447e-29
3.38038e-29
-3.02442e-32
8.15769e-29
3.38376e-29
-3.92309e-32
8.15818e-29
3.38276e-29
-4.38507e-32
8.16101e-29
3.38239e-29
-3.59822e-32
8.16908e-29
3.38321e-29
8.16788e-29
3.37858e-29
-8.66782e-30
4.60854e-26
-8.11193e-30
4.6166e-26
-5.12863e-30
4.6161e-26
-1.91357e-30
4.61561e-26
1.35727e-31
4.61637e-26
4.60973e-26
4.03316e-63
1.1532e-59
-2.4144e-56
-5.92076e-64
1.15518e-59
-2.41898e-56
-2.55691e-63
1.15508e-59
-2.41884e-56
-3.64701e-63
1.15518e-59
-2.41901e-56
-4.42582e-63
1.15574e-59
-2.41996e-56
1.15373e-59
-2.41547e-56
2.67327e-59
4.03999e-55
-5.16079e-52
-3.13315e-59
4.0472e-55
-5.1705e-52
-5.39731e-59
4.04699e-55
-5.17021e-52
-7.25392e-59
4.04755e-55
-5.1706e-52
-9.208e-59
4.04965e-55
-5.17262e-52
4.04322e-55
-5.1634e-52
6.39006e-56
5.30223e-51
-5.62591e-48
-2.63863e-55
5.31152e-51
-5.63604e-48
-4.07819e-55
5.31123e-51
-5.63561e-48
-5.24913e-55
5.31187e-51
-5.63587e-48
-6.33673e-55
5.31451e-51
-5.63785e-48
5.30619e-51
-5.6279e-48
-1.53022e-52
4.05305e-47
-3.95245e-44
-1.35761e-51
4.05975e-47
-3.95896e-44
-2.02772e-51
4.05939e-47
-3.95849e-44
-2.50241e-51
4.0597e-47
-3.95848e-44
-2.79892e-51
4.06149e-47
-3.95967e-44
4.05519e-47
-3.95284e-44
-3.48895e-48
2.07877e-43
-1.86822e-40
-6.97513e-48
2.08183e-43
-1.87093e-40
-9.73078e-48
2.08151e-43
-1.87058e-40
-1.08436e-47
2.08154e-43
-1.87047e-40
-9.32282e-48
2.08232e-43
-1.87094e-40
2.07916e-43
-1.86781e-40
-2.08244e-44
7.20761e-40
-5.65895e-37
-3.57814e-44
7.21655e-40
-5.66588e-37
-4.75409e-44
7.21487e-40
-5.66441e-37
-4.83486e-44
7.21458e-40
-5.6639e-37
-3.19123e-44
7.21691e-40
-5.66524e-37
7.20637e-40
-5.65626e-37
-4.11244e-41
1.56085e-36
-9.81315e-34
-8.53504e-41
1.56224e-36
-9.82185e-34
-1.18358e-40
1.56174e-36
-9.81859e-34
-1.19898e-40
1.56165e-36
-9.81779e-34
-7.59552e-41
1.56219e-36
-9.82071e-34
1.56017e-36
-9.80727e-34
3.8004e-38
1.95676e-33
-8.65042e-31
-2.09495e-38
1.95755e-33
-8.6544e-31
-8.35326e-38
1.95673e-33
-8.65092e-31
-1.12806e-37
1.95667e-33
-8.65064e-31
-8.98879e-38
1.95758e-33
-8.65428e-31
1.95557e-33
-8.64478e-31
1.43855e-34
1.37211e-30
-3.51254e-28
1.02204e-34
1.37203e-30
-3.51208e-28
1.02187e-35
1.37135e-30
-3.51027e-28
-6.79513e-35
1.37141e-30
-3.51039e-28
-8.60489e-35
1.3723e-30
-3.51253e-28
1.37139e-30
-3.51001e-28
5.29265e-32
4.11068e-28
-1.94053e-26
4.85879e-32
4.10861e-28
-1.93301e-26
2.25763e-32
4.10686e-28
-1.93106e-26
-4.60831e-33
4.10814e-28
-1.93274e-26
-2.13624e-32
4.11298e-28
-1.93766e-26
4.11381e-28
-1.94268e-26
5.32829e-31
1.44567e-25
4.25066e-26
6.28712e-30
1.44791e-25
4.25556e-26
1.3659e-29
1.44788e-25
4.25459e-26
1.69355e-29
1.44809e-25
4.25431e-26
1.33435e-29
1.44906e-25
4.25549e-26
1.4483e-25
4.25023e-26
-6.82692e-27
4.40887e-23
-5.12087e-27
4.41552e-23
-1.13277e-27
4.41471e-23
2.51138e-27
4.41396e-23
3.6395e-27
4.41427e-23
4.4077e-23
1.47521e-60
7.00425e-57
-2.336e-53
-8.48205e-61
7.01717e-57
-2.34043e-53
-1.73579e-60
7.01668e-57
-2.34019e-53
-2.17763e-60
7.01709e-57
-2.34027e-53
-2.40424e-60
7.01982e-57
-2.34107e-53
7.00654e-57
-2.3364e-53
9.00516e-57
2.96666e-52
-5.59014e-49
-2.77686e-56
2.97215e-52
-5.60068e-49
-4.18387e-56
2.97199e-52
-5.60016e-49
-5.2544e-56
2.97222e-52
-5.60037e-49
-6.34415e-56
2.97339e-52
-5.60225e-49
2.96814e-52
-5.59148e-49
-3.18382e-53
4.74759e-48
-6.40605e-45
-3.10371e-52
4.75604e-48
-6.41773e-45
-4.16653e-52
4.75566e-48
-6.41704e-45
-4.88542e-52
4.75588e-48
-6.41712e-45
-5.50301e-52
4.75756e-48
-6.41909e-45
4.74926e-48
-6.40694e-45
-1.46011e-48
4.37388e-44
-4.45183e-41
-2.79562e-48
4.38099e-44
-4.45951e-41
-3.12824e-48
4.38046e-44
-4.45891e-41
-3.13313e-48
4.38044e-44
-4.45883e-41
-2.87352e-48
4.38174e-44
-4.46003e-41
4.37435e-44
-4.45181e-41
-1.10391e-44
2.57122e-40
-1.97704e-37
-1.74092e-44
2.57511e-40
-1.98025e-37
-1.88294e-44
2.57467e-40
-1.97992e-37
-1.73751e-44
2.57453e-40
-1.97982e-37
-1.40959e-44
2.57515e-40
-1.98029e-37
2.57081e-40
-1.97673e-37
-7.64131e-41
9.46931e-37
-5.44404e-34
-9.13329e-41
9.4823e-37
-5.4523e-34
-8.019e-41
9.48019e-37
-5.45126e-34
-5.57847e-41
9.4793e-37
-5.45087e-34
-2.5079e-41
9.48121e-37
-5.45203e-34
9.4655e-37
-5.44255e-34
-1.63517e-37
1.94318e-33
-8.45015e-31
-1.83215e-37
1.94539e-33
-8.46179e-31
-1.40603e-37
1.94483e-33
-8.45998e-31
-7.53583e-38
1.94459e-33
-8.45931e-31
-1.57327e-38
1.94495e-33
-8.46109e-31
1.94192e-33
-8.44719e-31
-1.78966e-34
1.89373e-30
-6.57318e-28
-1.68873e-34
1.89533e-30
-6.58129e-28
-9.15035e-35
1.89464e-30
-6.57977e-28
-1.22032e-35
1.89438e-30
-6.57927e-28
2.67327e-35
1.89477e-30
-6.58072e-28
1.89208e-30
-6.57058e-28
-1.02928e-31
8.91444e-28
-2.45211e-25
-8.31101e-32
8.91907e-28
-2.45465e-25
-3.24624e-32
8.91523e-28
-2.45401e-25
7.46978e-33
8.914e-28
-2.45381e-25
1.60573e-32
8.9163e-28
-2.45434e-25
8.90532e-28
-2.45088e-25
-4.55086e-29
2.10615e-25
-3.18795e-23
-2.99515e-29
2.10631e-25
-3.18988e-23
-2.33924e-30
2.10527e-25
-3.18879e-23
1.64977e-29
2.10519e-25
-3.18854e-23
1.79089e-29
2.10626e-25
-3.18944e-23
2.10469e-25
-3.18604e-23
-9.28128e-27
4.77319e-23
1.30308e-23
-9.09245e-27
4.77933e-23
1.30401e-23
-6.97784e-27
4.77845e-23
1.3035e-23
-5.7018e-27
4.77823e-23
1.30319e-23
-4.68972e-27
4.7797e-23
1.30294e-23
4.77427e-23
1.30024e-23
-1.80446e-24
1.25285e-20
-1.41195e-24
1.25421e-20
-4.88815e-25
1.25388e-20
4.84279e-25
1.25363e-20
1.00878e-24
1.25363e-20
1.25183e-20
2.38474e-06
-3.22443e-06
0.0210374
1.68547e-06
-3.17675e-06
0.0210355
2.25542e-06
-3.16713e-06
0.0210354
3.71562e-06
-3.21186e-06
0.0210381
2.61808e-06
-3.21634e-06
0.0210393
-3.03654e-06
0.0210364
2.21274e-12
2.69595e-13
-3.22443e-06
3.01331e-12
2.95317e-13
-3.17675e-06
3.5333e-12
3.03127e-13
-3.16713e-06
5.3941e-12
2.96381e-13
-3.21186e-06
8.79064e-12
2.94638e-13
-3.21635e-06
3.01659e-13
-3.03653e-06
5.0575e-18
7.76082e-14
2.25834e-18
8.50144e-14
1.89497e-19
8.7263e-14
1.97298e-18
8.5323e-14
4.25913e-18
8.4822e-14
8.68415e-14
-2.92666e-08
-0.00194821
-4.49737e-07
-1.39315e-08
-0.00194818
-4.50062e-07
3.29919e-09
-0.00194826
-4.50276e-07
6.21802e-09
-0.00194814
-4.49857e-07
7.10304e-09
-0.00194827
-4.49389e-07
-0.00194854
-4.5011e-07
-5.58493e-08
9.6774e-13
3.95977e-05
-3.13551e-08
1.06002e-12
3.95763e-05
-8.09806e-09
1.08806e-12
3.95982e-05
-2.83372e-08
1.06385e-12
3.95289e-05
-6.50223e-08
1.05758e-12
3.94819e-05
1.08276e-12
3.963e-05
1.39325e-18
5.87397e-13
4.60349e-18
6.43407e-13
4.20866e-18
6.60446e-13
6.4782e-18
6.45753e-13
1.16635e-17
6.41943e-13
6.57249e-13
-3.99035e-11
-1.51332e-05
-9.12468e-07
2.12922e-11
-1.51277e-05
-9.12551e-07
1.5259e-11
-1.51326e-05
-9.12533e-07
3.70745e-11
-1.51235e-05
-9.12467e-07
1.02514e-10
-1.51129e-05
-9.12372e-07
-1.51368e-05
-9.12281e-07
-1.29463e-11
8.51815e-13
-6.2161e-06
7.40776e-11
9.33054e-13
-6.21647e-06
1.48897e-12
9.57683e-13
-6.21749e-06
6.49799e-11
9.36359e-13
-6.21613e-06
3.14432e-10
9.30867e-13
-6.21429e-06
9.52981e-13
-6.21756e-06
-9.22411e-18
6.34935e-13
-1.41937e-18
6.95435e-13
-4.78999e-18
7.13864e-13
-5.55421e-18
6.97984e-13
-1.77701e-18
6.93879e-13
7.10435e-13
3.31148e-11
-8.31918e-06
-1.30114e-06
-3.01528e-11
-8.3194e-06
-1.30115e-06
-7.5112e-11
-8.31905e-06
-1.3011e-06
-7.42017e-11
-8.31937e-06
-1.30104e-06
-2.11974e-11
-8.31984e-06
-1.30097e-06
-8.3191e-06
-1.30084e-06
-1.20535e-10
4.36528e-12
-3.75116e-06
-2.91846e-10
4.7816e-12
-3.7514e-06
-3.08554e-10
4.90797e-12
-3.75166e-06
-2.49956e-10
4.79871e-12
-3.75185e-06
-1.36915e-10
4.77051e-12
-3.75193e-06
4.88379e-12
-3.75185e-06
-2.05777e-17
7.04703e-17
1.25558e-17
8.37248e-17
3.85787e-17
9.46422e-17
6.02951e-17
9.02374e-17
6.63402e-17
8.59104e-17
-5.31611e-22
-2.77165e-11
-2.34263e-06
-4.41923e-12
-2.85854e-11
-2.34236e-06
-4.4295e-12
-1.95462e-11
-2.34233e-06
-4.42548e-12
-8.31537e-12
-2.34222e-06
-4.42295e-12
1.61442e-11
-2.34214e-06
-4.42735e-12
-2.34217e-06
-4.41237e-12
-6.91552e-11
8.19949e-16
-1.1864e-15
-1.69109e-10
9.74229e-16
-1.18712e-15
-1.79508e-10
1.10115e-15
-1.18742e-15
-1.16022e-10
1.04986e-15
-1.18816e-15
-3.73171e-11
9.99488e-16
-1.19009e-15
-2.67266e-19
-1.18961e-15
5.21736e-21
-2.67442e-19
1.56936e-20
-2.67667e-19
2.26467e-20
-2.67778e-19
2.31885e-20
-2.67851e-19
-1.09017e-25
-2.67919e-19
-2.67798e-19
-7.56316e-18
-7.19723e-17
-5.03197e-12
-3.73271e-18
-7.20063e-17
-5.04362e-12
7.97397e-19
-7.203e-17
-5.03911e-12
4.29859e-18
-7.20555e-17
-5.03629e-12
6.21057e-18
-7.21087e-17
-5.04134e-12
-7.20833e-17
-5.02443e-12
-1.21574e-21
-4.52631e-17
-1.16976e-15
-1.91095e-21
-4.52938e-17
-1.17047e-15
-1.62699e-21
-4.53025e-17
-1.17077e-15
-6.75741e-22
-4.53111e-17
-1.17153e-15
4.29022e-22
-4.53241e-17
-1.17349e-15
-4.52991e-17
-1.17302e-15
-2.00561e-22
-5.26796e-18
-5.17098e-22
-5.27659e-18
-6.62144e-22
-5.27965e-18
-6.88365e-22
-5.28294e-18
-5.8701e-22
-5.28288e-18
-5.28545e-18
1.20505e-16
-2.77392e-14
-1.82144e-11
7.87525e-16
-2.77575e-14
-1.82578e-11
1.12952e-15
-2.77787e-14
-1.83416e-11
1.31599e-15
-2.78016e-14
-1.83786e-11
1.26175e-15
-2.7851e-14
-1.83986e-11
-2.78544e-14
-1.84351e-11
-2.4452e-19
-1.82999e-15
-2.97918e-14
-1.05796e-19
-1.83251e-15
-2.98175e-14
5.20929e-20
-1.8334e-15
-2.98235e-14
2.12886e-19
-1.8347e-15
-2.9838e-14
4.81144e-19
-1.83519e-15
-2.98726e-14
-1.83654e-15
-2.98764e-14
-5.51101e-21
-1.8595e-15
-4.54425e-21
-1.86216e-15
-2.08995e-21
-1.86297e-15
-3.99834e-23
-1.86422e-15
1.94956e-21
-1.86457e-15
-1.86596e-15
9.78315e-14
-7.10146e-12
-8.41168e-09
1.35979e-13
-7.11146e-12
-8.42112e-09
1.33026e-13
-7.10531e-12
-8.41596e-09
1.24085e-13
-7.10358e-12
-8.41349e-09
1.10367e-13
-7.1192e-12
-8.41014e-09
-7.09989e-12
-8.39402e-09
-3.98728e-17
-1.17674e-12
-5.90071e-12
-3.2328e-17
-1.17777e-12
-5.9082e-12
-3.36642e-17
-1.17795e-12
-5.90266e-12
-4.44237e-18
-1.17855e-12
-5.90112e-12
9.60725e-17
-1.17974e-12
-5.91823e-12
-1.17997e-12
-5.89728e-12
-1.0694e-17
-1.17999e-12
-9.06535e-18
-1.18105e-12
-6.70419e-18
-1.18123e-12
-1.5388e-18
-1.18183e-12
7.84574e-18
-1.18301e-12
-1.18323e-12
2.84051e-11
-1.72669e-08
1.98852e-07
3.44617e-11
-1.72549e-08
1.98918e-07
3.42362e-11
-1.72544e-08
1.98941e-07
2.89186e-11
-1.72602e-08
1.98907e-07
4.73479e-12
-1.72792e-08
1.98725e-07
-1.72868e-08
1.98679e-07
-2.43959e-14
-1.36285e-09
-1.58959e-08
-2.67773e-14
-1.36323e-09
-1.58831e-08
-4.84379e-14
-1.36353e-09
-1.58826e-08
-3.47826e-14
-1.36396e-09
-1.58882e-08
2.58399e-14
-1.36342e-09
-1.59085e-08
-1.36547e-09
-1.59136e-08
-5.98838e-14
-1.36397e-09
-6.10056e-14
-1.36441e-09
-6.9828e-14
-1.3647e-09
-5.6257e-14
-1.36516e-09
-3.17955e-16
-1.36466e-09
-1.36666e-09
5.65348e-11
-1.75903e-07
5.53445e-06
6.1605e-11
-1.75786e-07
5.5391e-06
4.97609e-11
-1.75808e-07
5.5407e-06
6.29453e-11
-1.75815e-07
5.54059e-06
1.13915e-10
-1.75961e-07
5.53605e-06
-1.75919e-07
5.53825e-06
1.35615e-11
-2.29892e-07
1.53048e-07
1.14502e-11
-2.29745e-07
1.52988e-07
4.21683e-12
-2.29791e-07
1.53124e-07
4.09176e-12
-2.29822e-07
1.53083e-07
4.94202e-11
-2.29696e-07
1.52501e-07
-2.30226e-07
1.54163e-07
-9.86909e-12
7.66746e-08
-1.22601e-11
7.68057e-08
-1.48085e-11
7.67754e-08
-1.85517e-11
7.67859e-08
-1.74743e-11
7.71793e-08
7.62729e-08
3.27953e-09
2.41153e-05
0.000589516
4.38353e-09
2.41243e-05
0.000589537
3.9386e-09
2.4132e-05
0.000589575
2.97851e-09
2.41319e-05
0.000589564
-4.04392e-08
2.40555e-05
0.000589382
2.42038e-05
0.000589512
2.45191e-10
-1.93674e-06
2.63061e-05
2.12908e-10
-1.93373e-06
2.63123e-05
3.60194e-10
-1.93231e-06
2.63186e-05
3.79935e-10
-1.93156e-06
2.63178e-05
-2.22082e-09
-1.94045e-06
2.62521e-05
-1.92075e-06
2.63785e-05
1.34985e-09
3.15587e-05
9.34851e-10
3.15628e-05
1.59885e-09
3.15646e-05
1.73656e-09
3.1567e-05
-9.14963e-09
3.16196e-05
3.1525e-05
3.43822e-07
0.00391922
0.0109953
5.04355e-07
0.00392015
0.0109943
9.0252e-07
0.00391979
0.0109941
7.49787e-07
0.00391973
0.0109942
-2.5115e-05
0.00393086
0.0110241
0.00390709
0.010961
1.48195e-07
0.000609248
0.00333549
-4.65991e-08
0.000609325
0.00333669
1.24724e-08
0.000609338
0.00333607
-7.8362e-08
0.000609383
0.00333611
-2.54759e-06
0.000610575
0.00334837
0.000607908
0.00332237
3.20073e-08
0.000283059
-4.4864e-09
0.000283234
-2.71389e-09
0.000283163
-3.29624e-09
0.000283181
-1.76831e-07
0.00028419
0.000281988
-8.39713e-20
-7.73681e-14
1.01451e-14
-6.79717e-17
-6.20693e-20
-7.75133e-14
1.01633e-14
-6.80703e-17
3.59848e-20
-7.74643e-14
1.01574e-14
-6.80495e-17
4.00336e-20
-7.74305e-14
1.01522e-14
-6.80307e-17
2.11154e-19
-7.76767e-14
1.01753e-14
-6.8039e-17
-7.69777e-14
1.00999e-14
-6.78739e-17
2.23005e-18
-8.34289e-12
1.54877e-12
-1.58412e-15
5.18853e-18
-8.35962e-12
1.55325e-12
-1.5874e-15
1.60727e-17
-8.35436e-12
1.55194e-12
-1.58632e-15
1.39503e-17
-8.34932e-12
1.55032e-12
-1.5855e-15
4.15819e-17
-8.38719e-12
1.56075e-12
-1.5899e-15
-8.28851e-12
1.53445e-12
-1.57654e-15
-2.1475e-16
-8.8674e-12
5.24727e-13
5.00012e-16
-8.88465e-12
5.24319e-13
1.17697e-15
-8.87951e-12
5.24475e-13
1.37731e-15
-8.87408e-12
5.24557e-13
2.60044e-15
-8.91159e-12
5.23172e-13
-8.81207e-12
5.2616e-13
5.45715e-19
-3.55102e-11
3.12249e-11
-6.64271e-18
-3.55811e-11
3.12851e-11
3.22144e-18
-3.5562e-11
3.12701e-11
-1.91438e-18
-3.55378e-11
3.12467e-11
2.057e-17
-3.56912e-11
3.13847e-11
-3.5289e-11
3.10247e-11
3.05958e-15
-1.63291e-09
7.68992e-10
1.63444e-15
-1.63607e-09
7.70279e-10
4.82773e-15
-1.63505e-09
7.6983e-10
3.19855e-15
-1.6342e-09
7.69418e-10
2.17357e-14
-1.6416e-09
7.7229e-10
-1.62288e-09
7.65246e-10
-1.05963e-13
-1.64167e-09
9.3176e-14
-1.64516e-09
2.9454e-13
-1.64413e-09
2.84282e-13
-1.64307e-09
9.67367e-13
-1.65119e-09
-1.63073e-09
-1.42555e-15
-3.87495e-09
3.8976e-09
-2.54131e-15
-3.87946e-09
3.90215e-09
-2.68063e-16
-3.87882e-09
3.9015e-09
-4.9771e-17
-3.87536e-09
3.89802e-09
2.68534e-14
-3.89225e-09
3.91498e-09
-3.84977e-09
3.8723e-09
7.2353e-13
-2.82297e-07
3.22599e-07
1.43531e-13
-2.82749e-07
3.23114e-07
3.48991e-13
-2.82579e-07
3.23039e-07
2.17962e-13
-2.82486e-07
3.22725e-07
4.29725e-12
-2.83632e-07
3.24287e-07
-2.8085e-07
3.20457e-07
-2.66712e-11
-1.5203e-07
1.95867e-11
-1.52303e-07
6.40168e-11
-1.52214e-07
6.28121e-11
-1.52138e-07
3.78506e-10
-1.53073e-07
-1.50965e-07
2.56069e-11
-4.72e-07
8.04267e-07
6.18709e-12
-4.71457e-07
8.04125e-07
5.81371e-13
-4.71536e-07
8.0407e-07
-7.00978e-12
-4.71585e-07
8.03885e-07
-9.69334e-11
-4.78315e-07
8.08556e-07
-4.64125e-07
7.98022e-07
1.77866e-09
1.33522e-07
-2.61153e-07
5.11123e-10
1.369e-07
-2.60386e-07
-8.21216e-10
1.35827e-07
-2.59326e-07
-9.49121e-10
1.35212e-07
-2.60446e-07
7.61673e-09
1.42354e-07
-2.81198e-07
1.23818e-07
-2.36785e-07
4.67279e-10
-9.39514e-05
9.30158e-10
-9.4095e-05
2.80117e-10
-9.40345e-05
2.27125e-09
-9.40149e-05
2.65754e-08
-9.44901e-05
-9.33877e-05
8.35285e-12
1.28778e-07
4.26472e-07
-3.66584e-12
1.28774e-07
4.26579e-07
-2.88804e-11
1.28715e-07
4.26751e-07
-2.22487e-11
1.28622e-07
4.26968e-07
1.39387e-10
1.29202e-07
4.31244e-07
1.27815e-07
4.22398e-07
5.96214e-08
0.00115863
-0.00218969
-1.12704e-07
0.00115972
-0.00219066
-2.56474e-07
0.00115921
-0.00219003
-2.47748e-07
0.00115917
-0.00219029
6.55336e-07
0.0011645
-0.00220129
0.0011526
-0.00217777
2.14417e-08
-0.000574831
-2.03964e-08
-0.000575356
-9.15311e-08
-0.000575117
-7.59377e-08
-0.000575119
4.7406e-07
-0.000577474
-0.000572192
1.56717e-07
0.00559186
-1.14725e-07
0.00559237
3.13805e-07
0.00559186
-1.82243e-07
0.00559219
-8.49001e-06
0.00561119
0.00557213
7.78867e-08
0.002189
-5.14635e-07
0.00219008
-7.80608e-07
0.00218969
-1.52198e-06
0.0021898
-1.19276e-06
0.00219592
0.00218232
1.48581e-08
-1.09377e-07
-1.702e-07
-1.7972e-07
4.1974e-08
4.96919e-58
-4.6805e-55
3.77206e-54
-6.86639e-58
-4.68994e-55
3.77897e-54
-1.12864e-57
-4.68986e-55
3.77859e-54
-1.35027e-57
-4.69003e-55
3.77868e-54
-1.45871e-57
-4.69133e-55
3.77994e-54
-4.68155e-55
3.77233e-54
5.01348e-60
-2.0375e-58
4.12786e-56
-7.67105e-60
-2.04182e-58
4.13598e-56
-1.36056e-59
-2.04176e-58
4.13592e-56
-1.78122e-59
-2.04184e-58
4.13605e-56
-2.15528e-59
-2.04244e-58
4.13717e-56
-2.03802e-58
4.12849e-56
-2.38212e-64
5.71299e-60
-1.71454e-63
5.72496e-60
-2.4703e-63
5.7248e-60
-3.23294e-63
5.72501e-60
-4.2092e-63
5.72669e-60
5.71416e-60
-7.19125e-55
-2.27075e-50
1.77993e-49
-2.18667e-53
-2.27521e-50
1.78324e-49
-2.92918e-53
-2.2752e-50
1.78308e-49