/*--------------------------------*- C++ -*----------------------------------*\
| =========                 |                                                 |
| \\      /  F ield         | OpenFOAM: The Open Source CFD Toolbox           |
|  \\    /   O peration     | Version:  v1612+                                |
|   \\  /    A nd           | Web:      www.OpenFOAM.com                      |
|    \\/     M anipulation  |                                                 |
\*---------------------------------------------------------------------------*/
FoamFile
{
    version     2.0;
    format      ascii;
    class       surfaceScalarField;
    location    "1.9";
    object      phi;
}
// * * * * * * * * * * * * * * * * * * * * * * * * * * * * * * * * * * * * * //

dimensions      [0 3 -1 0 0 0 0];

internalField   nonuniform List<scalar> 
2916
(
-1.04476e-06
0.540907
-0.540905
3.83471e-07
0.540909
-0.54091
1.3409e-06
0.540908
-0.540909
1.66109e-06
0.540909
-0.540909
1.83192e-06
0.540909
-0.540909
0.540907
-0.540906
-2.43511e-06
1.17288
-0.631971
3.0018e-07
1.17288
-0.631979
1.64468e-07
1.17288
-0.631975
3.07679e-07
1.17288
-0.631975
2.72962e-06
1.17288
-0.631976
1.17288
-0.631968
-2.4911e-06
1.66309
-0.490211
-8.87074e-07
1.6631
-0.490217
-2.77764e-06
1.6631
-0.490213
-2.64216e-06
1.6631
-0.490214
1.92159e-06
1.6631
-0.490218
1.66309
-0.490207
-5.63357e-06
2.09258
-0.429478
-4.7981e-06
2.09259
-0.429488
-7.656e-06
2.09259
-0.429484
-6.91408e-06
2.09258
-0.429488
-1.17836e-06
2.09258
-0.429494
2.09257
-0.429485
-9.5236e-06
2.44074
-0.348149
-8.99642e-06
2.44075
-0.348162
-1.19622e-05
2.44075
-0.348159
-1.11441e-05
2.44075
-0.348163
-5.59821e-06
2.44075
-0.34817
2.44073
-0.348164
-1.34282e-05
2.80061
-0.359858
-1.36001e-05
2.80062
-0.359875
-1.53316e-05
2.80062
-0.359872
-1.42235e-05
2.80062
-0.359875
-7.65271e-06
2.80062
-0.359883
2.8006
-0.359879
-1.60945e-05
3.2107
-0.41008
-1.56919e-05
3.21073
-0.410108
-1.58198e-05
3.21073
-0.410107
-1.38738e-05
3.21073
-0.410109
-6.16828e-06
3.21073
-0.410116
3.21071
-0.410113
-1.70033e-05
3.59831
-0.38759
-1.52735e-05
3.59835
-0.387624
-1.59349e-05
3.59835
-0.387623
-1.39198e-05
3.59835
-0.387627
-4.78809e-06
3.59836
-0.387634
3.59833
-0.387628
-7.3952e-06
3.6832
-0.084882
-8.3567e-06
3.68325
-0.0848946
-1.0908e-05
3.68324
-0.0848895
-9.96121e-06
3.68325
-0.0848965
-3.63941e-06
3.68326
-0.0849067
3.68323
-0.0848991
2.86601e-06
3.14258
0.54062
-1.86272e-07
3.14265
0.540606
-4.91123e-06
3.14263
0.540617
-7.03051e-06
3.14264
0.540612
-9.50032e-06
3.14266
0.540598
3.14262
0.540595
1.7831e-05
2.13678
1.00578
1.16095e-05
2.13687
1.00578
2.54736e-06
2.13685
1.00579
-7.6155e-06
2.13685
1.00579
-2.02497e-05
2.13688
1.0058
2.13683
1.00577
-0.000118554
2.1369
-6.10766e-05
2.13681
-3.49939e-05
2.13682
3.2612e-06
2.13682
5.44355e-05
2.13683
2.13688
-1.36884e-06
0.699206
-1.24011
1.96162e-07
0.69921
-1.24012
-2.68462e-07
0.699209
-1.24012
-1.91054e-06
0.699207
-1.24011
-2.2788e-06
0.699207
-1.24012
0.699206
-1.24011
-3.27302e-09
1.30118
-1.23394
-1.61099e-06
1.30119
-1.23396
-5.03109e-06
1.30119
-1.23395
-6.02401e-06
1.30119
-1.23395
-3.23174e-06
1.30119
-1.23396
1.30118
-1.23394
-2.82221e-06
1.74342
-0.932452
-6.02572e-06
1.74344
-0.932464
-8.8546e-06
1.74344
-0.932459
-9.40958e-06
1.74344
-0.932461
-6.17479e-06
1.74343
-0.932468
1.74342
-0.932451
-1.31786e-05
2.25986
-0.945896
-1.44112e-05
2.25988
-0.945923
-1.13142e-05
2.25987
-0.945919
-8.56553e-06
2.25987
-0.945921
-6.35204e-06
2.25987
-0.94593
2.25984
-0.945916
-7.80504e-06
2.56261
-0.650893
-1.91614e-05
2.56264
-0.650911
-1.62261e-05
2.56263
-0.650924
-1.05783e-05
2.56263
-0.650933
-1.16141e-05
2.56264
-0.650939
2.56261
-0.650942
3.06091e-07
3.04193
-0.839184
-1.34648e-05
3.042
-0.839217
-1.24076e-05
3.04198
-0.839223
-8.78404e-06
3.04198
-0.839228
-1.13971e-05
3.04199
-0.839232
3.04195
-0.839236
2.64586e-05
3.73119
-1.09936
-2.70114e-06
3.73132
-1.0994
-1.1411e-05
3.73129
-1.0994
-9.58014e-06
3.73129
-1.09942
-1.26488e-05
3.7313
-1.09942
3.73125
-1.09942
7.07618e-05
4.5612
-1.21768
1.31506e-05
4.5614
-1.21765
-1.87839e-05
4.56134
-1.21765
-2.07456e-05
4.56135
-1.21769
-1.92957e-05
4.56137
-1.21771
4.5613
-1.2177
8.7087e-05
5.06669
-0.590454
4.20906e-05
5.06689
-0.590342
-1.05851e-05
5.0668
-0.590296
-1.94974e-05
5.0668
-0.590341
-9.99707e-06
5.06684
-0.590381
5.06674
-0.590344
3.82297e-05
4.94863
0.658644
9.49032e-06
4.94878
0.658743
-1.46937e-05
4.94872
0.65872
-3.49222e-05
4.94874
0.658695
-7.20008e-05
4.94874
0.658729
4.94876
0.658504
5.79561e-05
3.24011
2.71423
1.81612e-05
3.24032
2.71429
-3.46891e-05
3.24028
2.71429
-8.42652e-05
3.24029
2.71429
6.01768e-05
3.24033
2.71406
3.24024
2.71435
-6.08335e-05
5.37707
-1.51999e-05
5.37709
3.04001e-05
5.37706
7.17408e-05
5.37707
-5.54059e-05
5.37729
5.37707
9.80428e-07
0.647232
-1.88734
4.04936e-07
0.647235
-1.88736
-1.98026e-06
0.647236
-1.88735
-2.86565e-06
0.647235
-1.88735
-2.74926e-06
0.647233
-1.88735
0.647232
-1.88735
3.75918e-06
1.3367
-1.92341
-4.94592e-06
1.3367
-1.92342
-4.45402e-06
1.3367
-1.92342
1.00359e-07
1.3367
-1.92342
-5.11329e-06
1.3367
-1.92342
1.33669
-1.92341
-2.48584e-06
1.90232
-1.49808
-8.86265e-06
1.90235
-1.4981
-3.04268e-06
1.90234
-1.49811
-8.31287e-07
1.90234
-1.4981
-1.28577e-05
1.90235
-1.4981
1.90233
-1.4981
9.82508e-06
2.98554
-2.02912
9.04692e-06
2.98561
-2.02919
1.71576e-05
2.9856
-2.02919
1.39381e-05
2.98559
-2.02917
-1.39959e-05
2.9856
-2.02916
2.98558
-2.02919
7.61898e-05
3.42192
-1.08735
7.79844e-05
3.42203
-1.08733
7.86398e-05
3.42204
-1.08736
6.09585e-05
3.42204
-1.08736
1.37826e-05
3.42205
-1.08734
3.42204
-1.08739
8.50803e-05
4.6811
-2.09845
0.000109423
4.6812
-2.09841
8.60001e-05
4.6812
-2.09836
4.62639e-05
4.68117
-2.09832
-1.26997e-05
4.68118
-2.09831
4.68111
-2.09832
-0.000133516
5.56498
-1.9831
-0.000136756
5.56495
-1.98314
-0.000144099
5.56494
-1.98314
-0.000174107
5.56493
-1.98315
-0.000193511
5.56499
-1.98321
5.56478
-1.98328
-0.000156812
5.26019
-0.912733
-0.000290116
5.26021
-0.912775
-0.0002663
5.2601
-0.91283
-0.000234775
5.26011
-0.912904
-0.000216596
5.26024
-0.91299
5.25994
-0.913078
0.000135099
4.67273
-0.00313193
-3.40402e-05
4.67305
-0.0030158
-1.25532e-05
4.6728
-0.00301021
3.80886e-05
4.67279
-0.00306316
0.000113653
4.67284
-0.00305798
4.67286
-0.00315253
0.000280567
3.15171
2.17938
0.000311616
3.15207
2.17968
0.000238753
3.15181
2.17977
0.000138414
3.15181
2.17977
0.000255709
3.15166
2.17979
3.15227
2.17935
0.000135174
2.14341
3.7224
0.000179079
2.14361
3.7227
6.73598e-08
2.14359
3.72269
-0.0001088
2.14347
3.72273
0.000664381
2.14403
3.72092
2.14316
3.72412
-3.99185e-05
7.52052
-2.78283e-05
7.52068
4.63329e-05
7.52057
-9.45493e-05
7.52068
-0.000579497
7.5218
7.51966
8.50688e-06
0.409239
-2.29659
5.39762e-06
0.40924
-2.29659
1.32042e-06
0.409242
-2.29659
6.72165e-06
0.409242
-2.2966
1.2024e-05
0.40924
-2.29659
0.40923
-2.29657
1.58583e-06
1.53082
-3.04499
8.19538e-06
1.5308
-3.04499
2.89435e-05
1.53079
-3.04499
5.38959e-05
1.5308
-3.04501
5.03355e-05
1.53083
-3.045
1.53083
-3.04496
-5.61547e-06
1.88998
-1.85723
4.73318e-05
1.88994
-1.85729
7.35923e-05
1.88996
-1.8573
8.44194e-05
1.88999
-1.8573
6.92308e-05
1.89001
-1.85727
1.89006
-1.85726
0.000116081
1.6362
-1.77546
0.000194035
1.63625
-1.77557
0.00017258
1.6363
-1.7755
0.000110274
1.63635
-1.77547
6.24868e-05
1.63636
-1.77545
1.63638
-1.77545
0.000174515
0.932005
-0.383332
0.000273517
0.932127
-0.383302
0.000256681
0.932243
-0.38328
0.000175588
0.932311
-0.383248
9.40724e-05
0.932323
-0.383223
0.932334
-0.383244
-1.91128e-05
-0.012872
-1.15355
3.07967e-05
-0.0128126
-1.15352
4.75805e-05
-0.0126732
-1.15346
6.24489e-05
-0.0126071
-1.15342
7.53741e-05
-0.0125842
-1.15342
-0.012501
-1.15341
-9.82786e-05
-0.485863
-1.51001
-0.000102407
-0.485879
-1.51007
-6.67867e-05
-0.485782
-1.51007
2.22801e-06
-0.485749
-1.51008
5.28185e-05
-0.485717
-1.51013
-0.485555
-1.51017
-6.69553e-05
-0.113464
-1.28507
-2.1374e-05
-0.113524
-1.28517
2.86495e-05
-0.113452
-1.28521
6.60188e-05
-0.113427
-1.28526
1.31409e-05
-0.113337
-1.28531
-0.113207
-1.28541
0.000110978
0.93399
-1.0507
0.000175905
0.934072
-1.05068
0.000258417
0.934119
-1.05067
0.000242791
0.934174
-1.05065
0.0001309
0.934258
-1.05055
0.934503
-1.05074
0.000214338
2.36473
0.748431
0.000378237
2.36485
0.748741
0.00045159
2.36488
0.748944
0.000518521
2.36481
0.749054
0.000334528
2.36516
0.749069
2.36516
0.749031
0.000352408
2.29627
3.7905
0.000483943
2.29655
3.79088
0.000195103
2.29664
3.79121
0.000147352
2.29641
3.79119
0.000643915
2.29835
3.78724
2.29504
3.79488
-9.42504e-05
9.81689
-6.94978e-05
9.8172
-2.71321e-05
9.81717
-0.00030612
9.81737
-0.00178749
9.82163
9.81291
5.36936e-07
0.00136409
-0.00136463
1.34966e-07
0.00136396
-0.00136463
-3.50361e-08
0.00136394
-0.00136466
-1.07537e-07
0.00136392
-0.00136468
-1.18045e-07
0.0013639
-0.0013647
0.0013639
-0.00136482
3.75248e-07
0.00278269
-0.00141966
4.11005e-08
0.00278251
-0.00141966
-1.10567e-07
0.00278252
-0.00141967
-1.98104e-07
0.00278251
-0.0014197
-2.60226e-07
0.00278251
-0.00141973
0.00278263
-0.00141984
3.17218e-07
0.00430411
-0.00152233
2.26533e-08
0.00430387
-0.00152228
-1.07702e-07
0.0043039
-0.0015223
-1.91774e-07
0.00430391
-0.00152232
-2.54024e-07
0.00430391
-0.00152234
0.0043041
-0.00152244
3.16972e-07
0.00596283
-0.00165956
9.4095e-08
0.00596255
-0.00165941
-3.5748e-08
0.0059626
-0.00165939
-1.48649e-07
0.00596261
-0.00165938
-2.20707e-07
0.00596261
-0.00165939
0.00596288
-0.00165948
4.39674e-07
0.00777593
-0.00181396
2.61151e-07
0.00777564
-0.00181349
8.95446e-08
0.00777565
-0.00181336
-9.72791e-08
0.00777564
-0.00181328
-1.97912e-07
0.00777557
-0.00181327
0.00777584
-0.00181336
7.21118e-07
0.00972529
-0.00195031
4.93815e-07
0.00972492
-0.00194925
1.01565e-07
0.00972482
-0.00194892
-2.52752e-07
0.00972466
-0.00194878
-3.6255e-07
0.00972437
-0.0019488
0.00972447
-0.00194903
1.05349e-06
0.0117708
-0.0020466
4.3747e-07
0.0117703
-0.00204475
-4.0402e-07
0.0117699
-0.00204427
-1.0412e-06
0.0117695
-0.00204421
-1.05447e-06
0.0117688
-0.00204447
0.0117684
-0.00204513
1.44655e-06
0.0138276
-0.00205823
1.26775e-07
0.0138268
-0.00205531
-1.49671e-06
0.0138261
-0.00205467
-2.57543e-06
0.0138252
-0.00205488
-2.39283e-06
0.013824
-0.00205569
0.0138228
-0.00205719
1.38399e-06
0.0153007
-0.00147444
-6.08693e-07
0.0152989
-0.00147035
-2.97382e-06
0.0152977
-0.00146966
-4.38925e-06
0.0152966
-0.00147039
-3.87901e-06
0.0152951
-0.00147207
0.0152933
-0.0014747
-1.86625e-08
0.0145663
0.000734242
-2.05893e-06
0.014564
0.000736589
-4.10406e-06
0.0145628
0.000736663
-5.10706e-06
0.0145616
0.000735771
-4.18544e-06
0.0145599
0.000734156
0.0145574
0.000731928
-3.17053e-06
0.0111689
0.00340034
-4.81224e-06
0.0111673
0.00339855
-5.8304e-06
0.0111665
0.0033975
-5.91499e-06
0.0111658
0.00339618
-4.36333e-06
0.0111645
0.00339425
0.0111623
0.00339134
-2.81997e-06
0.0111717
-2.71479e-06
0.0111676
-2.04578e-06
0.0111664
-1.03277e-06
0.0111654
-9.2046e-08
0.0111643
0.0111628
3.63674e-07
0.001365
-0.0027307
3.74246e-08
0.00136488
-0.00273061
-1.15566e-07
0.00136489
-0.00273062
-2.03581e-07
0.00136486
-0.00273062
-2.75119e-07
0.00136485
-0.00273064
0.00136484
-0.00273077
2.29413e-07
0.00279649
-0.00285253
-6.73702e-08
0.00279633
-0.00285244
-1.77786e-07
0.00279634
-0.00285245
-2.77988e-07
0.00279633
-0.00285246
-3.81127e-07
0.00279632
-0.00285247
0.00279642
-0.0028526
1.68901e-07
0.00436523
-0.00309224
-8.85614e-08
0.004365
-0.00309209
-1.97161e-07
0.00436501
-0.00309209
-2.92484e-07
0.004365
-0.00309209
-3.88195e-07
0.00436498
-0.0030921
0.00436516
-0.00309222
1.28265e-07
0.00614558
-0.00344086
-8.81917e-08
0.0061453
-0.00344056
-2.01726e-07
0.0061453
-0.00344051
-2.95873e-07
0.00614528
-0.00344048
-3.66687e-07
0.00614525
-0.00344046
0.0061455
-0.00344059
9.99318e-08
0.00819828
-0.00386731
-1.02706e-07
0.00819799
-0.0038666
-2.55703e-07
0.00819796
-0.0038664
-3.59566e-07
0.0081979
-0.00386628
-3.66758e-07
0.00819777
-0.00386623
0.00819801
-0.0038664
1.26025e-07
0.0105075
-0.00425985
-1.98136e-07
0.0105072
-0.00425833
-5.12033e-07
0.0105071
-0.00425786
-6.81935e-07
0.0105068
-0.00425768
-5.8744e-07
0.0105064
-0.00425771
0.0105064
-0.00425815
1.05276e-07
0.0127905
-0.00432971
-5.40307e-07
0.01279
-0.00432699
-1.15872e-06
0.0127895
-0.00432626
-1.47223e-06
0.0127889
-0.0043262
-1.2303e-06
0.0127881
-0.00432666
0.0127875
-0.00432784
-2.46773e-07
0.0145134
-0.00378092
-1.29748e-06
0.0145129
-0.00377743
-2.20562e-06
0.0145122
-0.00377676
-2.59864e-06
0.0145112
-0.00377712
-2.11505e-06
0.0145097
-0.00377823
0.0145081
-0.00378028
-8.01563e-07
0.015565
-0.00252554
-2.04287e-06
0.015565
-0.00252141
-3.02727e-06
0.015564
-0.0025208
-3.40903e-06
0.0155624
-0.00252156
-2.71271e-06
0.0155599
-0.00252332
0.015557
-0.0025261
-3.61701e-07
0.0159806
0.000318701
-2.04997e-06
0.0159801
0.000323364
-3.83713e-06
0.0159791
0.000323719
-4.76988e-06
0.0159771
0.000322429
-4.00814e-06
0.015974
0.000319858
0.01597
0.000315754
-3.54026e-06
0.0136226
0.00576185
-4.83682e-06
0.0136225
0.00575855
-5.78446e-06
0.013622
0.00575656
-6.12467e-06
0.0136209
0.00575391
-4.75507e-06
0.0136188
0.00574943
0.0136157
0.00574199
-4.03952e-06
0.0247989
-3.49923e-06
0.024791
-1.91629e-06
0.0247882
-2.28382e-07
0.0247859
7.89908e-07
0.0247834
0.0247801
2.54754e-07
0.00130329
-0.00403485
-1.54718e-08
0.00130314
-0.00403463
-1.37621e-07
0.00130314
-0.00403463
-2.07044e-07
0.00130313
-0.00403463
-2.68316e-07
0.00130312
-0.00403463
0.00130319
-0.00403487
1.40725e-07
0.00268312
-0.00423345
-9.76238e-08
0.00268288
-0.00423326
-1.86065e-07
0.00268288
-0.00423326
-2.62471e-07
0.00268288
-0.00423326
-3.45498e-07
0.00268287
-0.00423327
0.00268309
-0.00423348
1.00425e-07
0.00421157
-0.00462162
-1.21448e-07
0.00421127
-0.00462141
-2.20074e-07
0.00421127
-0.0046214
-2.99021e-07
0.00421127
-0.0046214
-3.69958e-07
0.00421126
-0.00462139
0.00421157
-0.00462158
5.11387e-08
0.00594677
-0.00517681
-1.80295e-07
0.00594648
-0.00517645
-2.98959e-07
0.00594648
-0.00517639
-3.75538e-07
0.00594646
-0.00517635
-4.1505e-07
0.00594643
-0.00517631
0.00594673
-0.00517649
-5.26717e-08
0.00796073
-0.00588168
-2.87319e-07
0.00796044
-0.00588089
-4.22572e-07
0.00796041
-0.00588067
-4.74792e-07
0.00796034
-0.00588055
-4.20472e-07
0.00796022
-0.00588049
0.0079605
-0.00588079
-1.88577e-07
0.0103705
-0.0066696
-5.16135e-07
0.0103702
-0.00666812
-7.17639e-07
0.0103701
-0.00666768
-7.55101e-07
0.0103699
-0.00666753
-5.6636e-07
0.0103696
-0.0066676
0.0103697
-0.00666822
-3.25379e-07
0.0135245
-0.00748347
-8.16877e-07
0.0135245
-0.00748104
-1.14286e-06
0.0135243
-0.00748046
-1.21123e-06
0.0135239
-0.00748052
-9.22751e-07
0.0135232
-0.00748107
0.013523
-0.00748249
-7.50588e-08
0.0180646
-0.00832122
-6.17794e-07
0.0180648
-0.00831754
-1.1372e-06
0.0180646
-0.00831688
-1.38298e-06
0.018064
-0.0083174
-1.18362e-06
0.0180631
-0.00831873
0.0180627
-0.00832123
1.36234e-06
0.0237508
-0.00821326
9.74161e-07
0.023752
-0.0082079
-2.56791e-07
0.0237523
-0.00820697
-1.23916e-06
0.0237518
-0.00820794
-1.38112e-06
0.0237506
-0.00821016
0.0237498
-0.00821382
2.14903e-06
0.0262612
-0.00219375
2.69417e-06
0.0262625
-0.00218612
1.7842e-06
0.0262634
-0.002185
5.15164e-07
0.0262636
-0.0021866
-3.57079e-07
0.0262634
-0.00219041
0.0262632
-0.00219669
-1.28676e-07
0.0246184
0.00740567
1.78183e-06
0.0246189
0.00740286
3.53234e-06
0.0246188
0.00740166
4.25854e-06
0.0246185
0.00740052
3.37886e-06
0.0246177
0.00739807
0.0246168
0.00739328
-6.78422e-06
0.0494255
-4.98151e-06
0.0494103
-9.18288e-07
0.0494049
2.74853e-06
0.0494026
3.91049e-06
0.0494016
0.0494018
9.92414e-08
0.00117359
-0.00520904
-7.58624e-08
0.00117349
-0.00520883
-1.38646e-07
0.00117349
-0.00520882
-1.67311e-07
0.00117348
-0.00520882
-1.84922e-07
0.00117347
-0.00520881
0.00117351
-0.00520904
4.37463e-08
0.00244005
-0.00550071
-1.22462e-07
0.00243988
-0.00550048
-1.81672e-07
0.00243987
-0.00550047
-2.276e-07
0.00243986
-0.00550047
-2.7594e-07
0.00243986
-0.00550046
0.00243999
-0.00550069
-1.26244e-08
0.00390979
-0.00609202
-1.83863e-07
0.00390952
-0.00609176
-2.4691e-07
0.0039095
-0.00609174
-2.85715e-07
0.00390947
-0.00609172
-3.14466e-07
0.00390946
-0.0060917
0.00390968
-0.00609194
-1.59222e-07
0.00573939
-0.0070068
-3.46702e-07
0.00573888
-0.00700632
-3.91686e-07
0.0057388
-0.00700626
-3.85354e-07
0.00573873
-0.00700619
-3.37089e-07
0.00573868
-0.00700614
0.00573908
-0.00700648
-2.74644e-07
0.00810314
-0.00824553
-5.33518e-07
0.00810254
-0.0082448
-5.93812e-07
0.00810237
-0.00824463
-5.52014e-07
0.00810223
-0.00824451
-4.50946e-07
0.0081021
-0.00824444
0.0081024
-0.00824483
-7.47433e-07
0.011156
-0.00972195
-1.03006e-06
0.0111551
-0.00972086
-9.53504e-07
0.0111547
-0.00972058
-7.19661e-07
0.0111544
-0.00972045
-4.25647e-07
0.0111541
-0.00972046
0.0111543
-0.00972103
-1.19015e-06
0.0147677
-0.0110942
-1.45353e-06
0.0147662
-0.0110925
-1.21722e-06
0.0147656
-0.0110921
-8.14685e-07
0.014765
-0.0110922
-4.5798e-07
0.0147645
-0.0110925
0.0147646
-0.0110936
-1.97871e-06
0.0181458
-0.0116977
-1.82365e-06
0.0181437
-0.0116954
-1.10102e-06
0.0181428
-0.0116951
-3.70872e-07
0.0181421
-0.0116954
2.32201e-08
0.0181415
-0.0116962
0.0181416
-0.0116979
-2.75283e-06
0.0209055
-0.0109703
-1.82907e-06
0.0209033
-0.0109674
-4.41028e-07
0.0209025
-0.0109669
5.96116e-07
0.0209017
-0.0109674
8.53565e-07
0.0209009
-0.0109685
0.0209004
-0.0109705
-4.7897e-06
0.0243314
-0.00561388
-2.28181e-06
0.0243283
-0.00561089
1.0917e-06
0.0243268
-0.00561031
3.21622e-06
0.0243261
-0.00561076
3.04866e-06
0.0243251
-0.00561213
0.0243228
-0.00561443
-3.51573e-06
0.0244261
0.00731638
-2.6855e-06
0.024422
0.00731181
-1.31183e-06
0.02442
0.00731006
-6.70997e-07
0.0244197
0.00730893
-5.93675e-07
0.0244195
0.00730597
0.024417
0.00730005
-1.03424e-05
0.073864
-8.56357e-06
0.0738329
-3.62457e-06
0.073822
1.89114e-06
0.0738186
5.27292e-06
0.0738194
0.0738246
2.2573e-05
-2.45391
0.157296
1.6659e-05
-2.4539
0.157311
1.93899e-05
-2.45392
0.157326
3.50554e-05
-2.4539
0.157292
2.89272e-05
-2.45387
0.157283
-2.45389
0.157356
4.1143e-05
-2.45266
-0.0012935
4.74693e-05
-2.45268
-0.00122073
2.83501e-05
-2.45269
-0.00120316
6.61793e-05
-2.45267
-0.00126835
0.00013502
-2.45267
-0.00126623
-2.45269
-0.0010659
-3.80003e-05
-0.220335
-1.97932e-05
-0.220354
-6.9502e-06
-0.220349
-1.99643e-05
-0.220351
-3.36782e-05
-0.220356
-0.220347
-7.22185e-05
-2.79376
-0.0938657
-3.10852e-05
-2.79377
-0.0939491
1.44381e-05
-2.79375
-0.0939584
1.58018e-05
-2.79376
-0.0939593
8.80242e-06
-2.79378
-0.0939287
-2.7937
-0.093888
-9.03267e-05
-2.84887
0.0539071
-5.00834e-05
-2.84891
0.0538814
-8.52163e-06
-2.84887
0.0538761
-3.70517e-05
-2.84886
0.0538618
-7.53476e-05
-2.84888
0.053868
-2.84877
0.0539205
-6.53307e-07
-0.317927
-1.23297e-05
-0.317928
-1.31016e-05
-0.317936
-1.54216e-05
-0.317938
-2.63425e-05
-0.317936
-0.317935
-4.93634e-05
-1.02562
-0.925426
1.92646e-05
-1.02568
-0.925627
3.865e-05
-1.02567
-0.92561
4.32314e-05
-1.02567
-0.925591
7.03382e-05
-1.02568
-0.92555
-1.02567
-0.925415
-6.91319e-06
-0.462104
-0.509599
4.5164e-06
-0.462111
-0.509706
5.75884e-06
-0.462083
-0.509718
1.25128e-05
-0.462079
-0.509742
3.14358e-05
-0.462091
-0.509746
-0.462054
-0.50966
4.34711e-06
-0.203434
5.88133e-07
-0.203427
2.57538e-06
-0.203439
3.49354e-06
-0.203443
1.14495e-06
-0.203443
-0.203456
3.61446e-05
-1.39528
-1.30564
-3.09141e-05
-1.39533
-1.30581
-7.75504e-05
-1.39529
-1.30578
-7.87848e-05
-1.39528
-1.30577
-2.63773e-05
-1.3953
-1.30576
-1.39527
-1.30562
-3.17869e-05
-1.39158
-0.513268
-7.41888e-05
-1.39164
-0.513351
-7.72588e-05
-1.39163
-0.513378
-6.42211e-05
-1.39164
-0.513406
-3.77596e-05
-1.39164
-0.513423
-1.39157
-0.51339
6.94856e-06
-0.109315
-2.99933e-06
-0.109314
-1.11106e-05
-0.109324
-1.75592e-05
-0.109329
-1.74295e-05
-0.109332
-0.109343
-3.53999e-05
-0.962215
-0.726724
-3.47396e-05
-0.962253
-0.726856
-2.30804e-05
-0.96221
-0.726857
-1.20502e-05
-0.962174
-0.726856
1.55424e-05
-0.962167
-0.726846
-0.962111
-0.726734
-2.41015e-05
-1.26535
-0.210108
-5.32524e-05
-1.26543
-0.210148
-5.70145e-05
-1.26542
-0.21016
-3.80299e-05
-1.26543
-0.210174
-1.1663e-05
-1.26543
-0.210182
-1.26536
-0.210149
-5.29457e-06
-0.0091227
-1.62964e-05
-0.00912515
-2.67537e-05
-0.00912747
-2.99111e-05
-0.00912877
-2.2461e-05
-0.00912935
-0.00913144
-9.14709e-05
-1.3373
-0.542879
-5.14612e-05
-1.33735
-0.543064
-1.71638e-06
-1.33732
-0.543043
3.72432e-05
-1.3373
-0.543016
6.34002e-05
-1.3373
-0.542991
-1.33724
-0.542836
-2.172e-05
-1.42005
-0.127336
-3.45724e-05
-1.42011
-0.127378
-3.12362e-05
-1.4201
-0.127387
-1.49078e-05
-1.4201
-0.12739
8.38356e-06
-1.42011
-0.127394
-1.42005
-0.127336
-7.55398e-06
-0.0203305
-1.62924e-05
-0.0203362
-2.13377e-05
-0.0203364
-2.26542e-05
-0.0203343
-2.00935e-05
-0.0203306
-0.0203237
1.98478e-05
-1.59734
-0.455569
9.82399e-05
-1.59737
-0.455842
0.000135631
-1.59737
-0.455777
0.000155952
-1.59738
-0.455731
0.000150704
-1.59741
-0.455704
-1.59739
-0.455464
-2.93897e-05
-1.52453
-0.200114
-1.5376e-05
-1.52455
-0.20022
4.92741e-06
-1.52455
-0.200232
2.67375e-05
-1.52456
-0.200238
6.0581e-05
-1.52457
-0.200262
-1.52455
-0.200117
-1.74477e-05
-0.0367252
-1.31206e-05
-0.0367415
-5.379e-06
-0.0367457
1.68738e-06
-0.0367476
5.42983e-06
-0.0367498
-0.0367363
0.000102016
-1.51372
-0.227008
0.000139193
-1.51378
-0.227269
0.000134765
-1.51378
-0.227208
0.000125348
-1.51379
-0.22719
0.000110717
-1.5138
-0.227206
-1.51383
-0.226938
-2.44816e-05
-1.46628
-0.247532
-2.3495e-05
-1.46629
-0.247723
-2.1827e-05
-1.46629
-0.247722
-2.8628e-06
-1.4663
-0.24775
5.71121e-05
-1.46631
-0.247817
-1.46632
-0.247564
-2.42923e-05
-0.0580319
-1.96839e-05
-0.0580838
-1.2802e-05
-0.0580978
-1.52369e-06
-0.058117
1.59114e-05
-0.05814
-0.0581023
0.000209676
-1.87664
0.598723
0.000259531
-1.87665
0.598653
0.000256934
-1.87662
0.59875
0.000222274
-1.87659
0.598786
3.92669e-05
-1.8765
0.59894
-1.87662
0.598985
-4.7439e-05
-1.7889
-0.33523
-5.06281e-05
-1.78887
-0.335499
-9.12506e-05
-1.78887
-0.335436
-6.33456e-05
-1.78886
-0.335512
3.78739e-05
-1.78881
-0.335618
-1.78894
-0.335208
-0.000104912
-0.217233
-0.000103879
-0.21739
-0.00011952
-0.217401
-9.79705e-05
-0.217463
-8.86561e-06
-0.21752
-0.217434
0.00027749
-1.10299
2.44987
0.000318261
-1.10271
2.45006
0.000263716
-1.10249
2.45024
0.000344907
-1.10234
2.4501
0.000618767
-1.10235
2.45008
-1.10181
2.45045
0.00016433
-1.8714
0.43301
0.000140106
-1.87124
0.43306
2.54196e-05
-1.87111
0.433299
4.96437e-05
-1.871
0.433123
0.000697618
-1.87084
0.432232
-1.87079
0.434467
-8.82914e-05
-0.199252
-0.000108128
-0.199401
-0.00013359
-0.199357
-0.000163103
-0.1994
-0.000146646
-0.199436
-0.199404
0.00021627
2.14466
4.0955
0.000312109
2.14498
4.09585
0.000272714
2.14558
4.09592
0.000211947
2.1456
4.09576
-0.00244593
2.14108
4.09891
2.15047
4.09241
0.000397093
-0.502585
3.07986
0.00035613
-0.502192
3.08028
0.00060326
-0.501794
3.08043
0.000611389
-0.501572
3.08029
-0.00405221
-0.503956
3.08193
-0.49826
3.07915
0.000279396
1.36969
0.000209228
1.36997
0.000355456
1.36997
0.000384189
1.36996
-0.00215083
1.37108
1.36904
7.44936e-06
9.3546
4.55779
6.55345e-05
9.35489
4.55811
0.000144926
9.35507
4.55794
0.000137864
9.3552
4.55793
-0.00525931
9.3593
4.56664
9.35089
4.54917
0.00025061
7.97224
4.46196
-5.13276e-05
7.97268
4.46279
0.000127624
7.97297
4.46235
-0.000106405
7.9733
4.46242
-0.00516808
7.97433
4.47196
7.97192
4.45295
0.000527601
2.96026
-6.87373e-05
2.96164
3.71429e-05
2.961
-9.27943e-07
2.96115
-0.00356909
2.96718
2.95464
-7.09711e-06
-0.16765
0.526614
-0.358958
-6.56289e-06
-0.167651
0.526597
-0.358945
2.09773e-06
-0.167651
0.526582
-0.358939
1.08737e-06
-0.167651
0.526594
-0.358942
1.81102e-05
-0.16765
0.526568
-0.358934
-0.167643
0.526613
-0.358953
3.11978e-06
-0.197764
0.149695
-0.119584
4.03548e-06
-0.197759
0.149672
-0.119565
1.6009e-05
-0.197758
0.149657
-0.119562
1.18206e-05
-0.19776
0.149682
-0.119569
4.62483e-05
-0.197759
0.149635
-0.119561
-0.197767
0.149779
-0.11961
-4.75168e-06
-0.302929
0.155571
1.12675e-05
-0.302978
0.155591
2.76765e-05
-0.302972
0.155587
2.9946e-05
-0.302943
0.155578
6.44697e-05
-0.302966
0.155572
-0.302795
0.155523
1.52907e-06
-0.313356
0.839969
-7.3596e-06
-0.31337
0.839975
2.13865e-06
-0.313369
0.839941
-5.41735e-06
-0.313365
0.839965
1.3459e-05
-0.313375
0.839924
-0.313321
0.839948
1.9572e-05
-0.341746
0.178066
7.47062e-06
-0.341769
0.178083
2.56281e-05
-0.34176
0.17803
1.1315e-05
-0.341763
0.178095
0.000138711
-0.341772
0.177904
-0.341735
0.178333
-2.17793e-05
-0.587268
1.70156e-05
-0.587391
6.13361e-05
-0.587388
5.38324e-05
-0.587294
0.000215463
-0.587484
-0.586872
-8.43609e-06
-0.497789
1.33777
-1.69742e-05
-0.497815
1.3378
-4.13377e-06
-0.497811
1.33774
-3.3424e-06
-0.497795
1.33776
0.000170155
-0.497831
1.33758
-0.497651
1.33777
8.89297e-05
-0.51443
0.194617
1.86874e-05
-0.514419
0.194756
2.91337e-05
-0.51441
0.194618
2.44619e-05
-0.514433
0.194737
0.000445617
-0.514408
0.194059
-0.514509
0.195636
-3.44107e-05
-1.07676
3.22967e-05
-1.07707
0.000100543
-1.07705
9.59397e-05
-1.07683
0.000725802
-1.07778
-1.07541
0.000123614
-0.584087
1.92173
4.05197e-05
-0.583961
1.92184
1.39762e-05
-0.584034
1.9218
-1.75458e-05
-0.584033
1.92182
-0.000596591
-0.583674
1.92183
-0.584724
1.9219
0.000351081
0.0930317
-0.482852
7.15897e-05
0.0938328
-0.482759
-0.000197961
0.0935597
-0.482706
-0.000171243
0.0934071
-0.482731
0.00158687
0.0951366
-0.48651
0.0907608
-0.478261
5.34618e-05
-1.99824
7.67715e-05
-1.99913
-5.43164e-05
-1.9988
6.48812e-05
-1.99867
0.002116
-2.00222
-1.99404
7.25163e-05
1.16162
0.760034
-1.24017e-05
1.16197
0.759954
-0.000232672
1.16174
0.76028
-0.000150317
1.16181
0.759927
0.00109368
1.16557
0.755016
1.15758
0.76541
0.000179352
3.60348
-2.92488
-0.000339822
3.6052
-2.92547
-0.000773307
3.60443
-2.92496
-0.000747711
3.60441
-2.92536
0.00174125
3.61152
-2.93494
3.59573
-2.91467
0.000123172
-2.95328
-0.000165181
-2.95479
-0.000590725
-2.95403
-0.000524864
-2.95414
0.00258162
-2.96079
-2.94631
5.11415e-05
5.31777
-4.94527e-05
5.31817
0.000203877
5.31796
-5.40344e-05
5.31812
-0.00391571
5.32552
5.31066
4.84412e-05
6.8548
-0.000284506
6.85582
-0.000388756
6.85546
-0.000866227
6.85566
-0.00111265
6.86278
6.84783
7.00982e-05
-0.000478344
-0.000733402
-0.000804854
-0.000193882
2.69e-08
-0.00605254
0.000843084
-8.12059e-08
-0.00605234
0.000843016
-1.17346e-07
-0.00605233
0.000843018
-1.32651e-07
-0.00605232
0.000843009
-1.40112e-07
-0.00605231
0.000843003
-0.00605252
0.00084303
3.90605e-08
-0.00658813
0.000535298
-3.8641e-08
-0.00658787
0.000535264
-7.85875e-08
-0.00658785
0.000535265
-1.09437e-07
-0.00658784
0.000535261
-1.41296e-07
-0.00658783
0.000535258
-0.0065881
0.00053527
4.60144e-10
0.000185461
-2.62439e-08
0.000185451
-4.00862e-08
0.000185451
-5.43008e-08
0.000185449
-7.17529e-08
0.000185448
0.000185452
-2.62935e-08
-0.00641401
0.00175588
-1.24456e-07
-0.0064138
0.00175576
-1.51549e-07
-0.00641379
0.00175576
-1.71233e-07
-0.00641378
0.00175575
-1.88668e-07
-0.00641377
0.00175574
-0.00641397
0.00175583
2.2408e-08
-0.00699896
0.0011199
-5.47122e-08
-0.00699867
0.00111983
-9.70932e-08
-0.00699866
0.00111983
-1.3548e-07
-0.00699864
0.00111983
-1.78899e-07
-0.00699863
0.00111982
-0.0069989
0.00111988
-4.7094e-09
0.000385781
-3.04155e-08
0.000385757
-4.41128e-08
0.000385756
-5.90455e-08
0.000385756
-7.72763e-08
0.000385754
0.000385778
-8.96386e-08
-0.00716018
0.00282365
-1.86303e-07
-0.00715998
0.00282349
-2.00737e-07
-0.00715997
0.00282347
-1.98069e-07
-0.00715995
0.00282346
-1.84514e-07
-0.00715993
0.00282345
-0.00716012
0.0028236
3.0339e-08
-0.00785872
0.00181811
-5.95844e-08
-0.00785839
0.00181801
-1.15999e-07
-0.00785838
0.00181801
-1.63123e-07
-0.00785836
0.001818
-2.09976e-07
-0.00785834
0.001818
-0.00785865
0.0018181
-1.36231e-08
0.000615051
-3.67614e-08
0.000615004
-4.93258e-08
0.000615004
-6.10334e-08
0.000615004
-7.36118e-08
0.000615003
0.000615053
-1.53857e-07
-0.00834577
0.00416238
-2.60728e-07
-0.00834535
0.00416215
-2.66614e-07
-0.00834532
0.00416212
-2.39413e-07
-0.00834528
0.00416212
-1.97194e-07
-0.00834525
0.00416213
-0.00834561
0.00416236
-6.76837e-08
-0.00925809
0.00273026
-1.2489e-07
-0.00925765
0.00273011
-1.34665e-07
-0.00925763
0.0027301
-1.27345e-07
-0.00925761
0.0027301
-1.15399e-07
-0.00925759
0.0027301
-0.00925799
0.00273026
-3.53807e-09
0.000882842
-2.76918e-08
0.000882793
-4.26624e-08
0.000882793
-5.40339e-08
0.000882795
-6.7125e-08
0.000882796
0.000882848
-1.9373e-07
-0.0100682
0.00598492
-3.01516e-07
-0.0100676
0.00598465
-2.81819e-07
-0.0100676
0.00598465
-2.22211e-07
-0.0100675
0.00598468
-1.73168e-07
-0.0100675
0.00598471
-0.0100679
0.00598498
-6.08292e-08
-0.0113571
0.00401903
-1.20138e-07
-0.0113565
0.00401881
-1.22683e-07
-0.0113565
0.0040188
-1.05645e-07
-0.0113565
0.0040188
-1.01123e-07
-0.0113565
0.0040188
-0.011357
0.004019
4.00273e-09
0.00118542
-1.80231e-08
0.00118533
-2.72582e-08
0.00118532
-3.71377e-08
0.00118532
-5.81591e-08
0.00118532
0.0011854
-4.60341e-07
-0.0124702
0.00873339
-4.38506e-07
-0.0124696
0.00873285
-2.41157e-07
-0.0124695
0.00873286
-2.2599e-08
-0.0124695
0.00873291
9.77279e-08
-0.0124695
0.00873298
-0.0124699
0.00873351
-1.53933e-08
-0.0144478
0.00599627
-1.24278e-07
-0.0144471
0.00599588
-1.42438e-07
-0.014447
0.00599586
-1.51029e-07
-0.014447
0.00599586
-2.14053e-07
-0.014447
0.00599588
-0.0144476
0.00599623
1.95417e-08
0.00147395
-1.85911e-08
0.0014738
-4.35268e-08
0.00147379
-7.689e-08
0.00147378
-1.26745e-07
0.00147378
0.00147392
-5.32495e-07
-0.0158726
0.0135119
-4.0126e-07
-0.0158715
0.0135111
-7.59414e-08
-0.0158714
0.0135112
1.80726e-07
-0.0158714
0.0135113
1.76724e-07
-0.0158715
0.0135114
-0.0158723
0.0135123
-2.05318e-07
-0.0190172
0.00914063
-2.23656e-07
-0.0190161
0.00913996
-1.55597e-07
-0.019016
0.00913997
-1.18991e-07
-0.019016
0.00914001
-1.66881e-07
-0.019016
0.00914011
-0.019017
0.00914077
-6.1038e-08
0.00159728
-7.87716e-08
0.00159711
-8.44926e-08
0.00159713
-1.02453e-07
0.00159716
-1.29271e-07
0.00159721
0.00159743
-8.30149e-07
-0.021245
0.0230597
-2.8377e-07
-0.0212434
0.0230585
4.15917e-07
-0.0212433
0.0230587
8.58527e-07
-0.0212433
0.023059
7.73742e-07
-0.0212436
0.0230592
-0.0212448
0.0230606
-5.79048e-07
-0.0262519
0.0141478
-3.11865e-07
-0.0262504
0.0141469
-6.2639e-09