/*--------------------------------*- C++ -*----------------------------------*\
| =========                 |                                                 |
| \\      /  F ield         | OpenFOAM: The Open Source CFD Toolbox           |
|  \\    /   O peration     | Version:  v1612+                                |
|   \\  /    A nd           | Web:      www.OpenFOAM.com                      |
|    \\/     M anipulation  |                                                 |
\*---------------------------------------------------------------------------*/
FoamFile
{
    version     2.0;
    format      ascii;
    class       volScalarField;
    location    "3.95";
    object      p_rgh;
}
// * * * * * * * * * * * * * * * * * * * * * * * * * * * * * * * * * * * * * //

dimensions      [1 -1 -2 0 0 0 0];

internalField   nonuniform List<scalar> 
1116
(
5461.15
5461.16
5461.15
5461.19
5461.21
5461.14
5509.26
5509.28
5509.28
5509.31
5509.32
5509.26
5850.8
5850.81
5850.82
5850.84
5850.85
5850.81
6431.05
6431.07
6431.08
6431.09
6431.1
6431.08
7197.13
7197.15
7197.16
7197.16
7197.17
7197.17
8076.71
8076.73
8076.74
8076.74
8076.75
8076.75
9611.95
9611.96
9611.97
9611.97
9611.97
9611.99
12394.9
12394.9
12395
12395
12395
12395
15988.5
15988.4
15988.4
15988.4
15988.4
15988.5
19681.4
19681.3
19681.3
19681.2
19681.2
19681.3
22956
22955.8
22955.8
22955.7
22955.7
22955.8
25811.8
25811.7
25811.8
25811.7
25811.7
25811.8
-41.3222
-41.322
-41.3219
-41.3217
-41.3216
-41.3214
-50.8872
-50.8863
-50.8862
-50.8861
-50.8858
-50.886
-75.8637
-75.8635
-75.8637
-75.8634
-75.863
-75.8633
-90.0737
-90.0734
-90.0733
-90.073
-90.0723
-90.0723
-13.1092
-13.1072
-13.1059
-13.1051
-13.1042
-13.104
205.017
205.039
205.039
205.043
205.054
205.042
888.392
888.413
888.428
888.435
888.441
888.437
3207.55
3207.48
3207.56
3207.57
3207.52
3207.64
10761.9
10761.4
10761.7
10761.7
10761.5
10761.9
20240.8
20240.3
20240.5
20240.5
20240.4
20240.6
24000.3
24000.2
24000.3
24000.2
24000.2
24000.2
27454.6
27454.5
27454.5
27454.5
27454.5
27454.6
-16.2494
-16.2494
-16.2491
-16.2489
-16.2485
-16.2481
-19.7906
-19.7904
-19.7903
-19.79
-19.7897
-19.7896
-33.5646
-33.5644
-33.5645
-33.5644
-33.5643
-33.5644
-54.0792
-54.0785
-54.0786
-54.0783
-54.0778
-54.079
-37.1762
-37.176
-37.1755
-37.175
-37.1748
-37.1748
25.882
25.8817
25.8817
25.882
25.882
25.8821
45.3531
45.3483
45.348
45.3472
45.3461
45.3485
59.1075
59.0914
59.0968
59.0963
59.0956
59.0995
611.099
610.428
610.762
610.753
610.595
610.908
10827.2
10825.7
10826.4
10826.3
10825.8
10826.9
27231
27230.1
27230.5
27230.4
27230
27230.9
31625.3
31625.3
31625.2
31625.2
31625.3
31625.3
-18.4768
-18.4768
-18.4765
-18.4761
-18.4757
-18.4753
-20.0974
-20.0973
-20.097
-20.0967
-20.0963
-20.0961
-22.9193
-22.9193
-22.9192
-22.9192
-22.919
-22.9193
-20.7786
-20.7784
-20.7784
-20.7783
-20.7781
-20.779
2.92016
2.92091
2.92088
2.92126
2.92184
2.92059
30.784
30.7841
30.7841
30.7842
30.7842
30.7839
38.8074
38.802
38.8019
38.801
38.8004
38.8022
49.349
49.3442
49.3447
49.3451
49.345
49.3471
53.1672
53.1347
53.1531
53.1567
53.1564
53.1612
4554.97
4556.12
4556.05
4555.49
4556.24
4554.73
27464.9
27479.3
27473.1
27470.5
27476.5
27467.7
37458.9
37461.1
37460.1
37460.1
37460.5
37459.5
6.55324
6.55332
6.55335
6.55337
6.55336
6.55335
6.87378
6.87383
6.87384
6.87382
6.87378
6.87373
7.53303
7.53304
7.53303
7.53299
7.53295
7.53291
8.56966
8.56968
8.56967
8.56963
8.56958
8.56953
10.046
10.0461
10.0461
10.046
10.0459
10.0458
12.051
12.0511
12.051
12.0509
12.0508
12.0508
14.7032
14.7032
14.7031
14.703
14.7032
14.7035
18.138
18.1379
18.138
18.1378
18.1385
18.1392
22.3493
22.3483
22.3504
22.3471
22.3509
22.355
26.543
26.5372
26.5486
26.5297
26.5398
26.5626
28.1574
28.1472
28.1668
28.1293
28.1382
28.1936
10.5779
10.577
10.5775
10.575
10.5741
10.587
6.22071
6.22076
6.22078
6.22076
6.22072
6.22066
6.53287
6.5329
6.53288
6.53284
6.53277
6.5327
7.17372
7.17371
7.17368
7.17365
7.17362
7.17361
8.17826
8.17825
8.17824
8.17825
8.17825
8.17822
9.6082
9.60822
9.60819
9.60815
9.60808
9.60802
11.5681
11.5681
11.568
11.5678
11.5678
11.5679
14.2309
14.2308
14.2309
14.2305
14.2309
14.2313
17.9099
17.9091
17.9108
17.9085
17.9107
17.9131
23.3096
23.3048
23.3178
23.2953
23.3076
23.3327
30.7839
30.7653
30.8321
30.6957
30.7275
30.9007
29.9708
29.9408
29.9995
29.8791
29.8544
30.1066
-12.7459
-12.7502
-12.7658
-12.7469
-12.7961
-12.7164
5.56272
5.56273
5.56272
5.56268
5.56263
5.56257
5.84763
5.84764
5.84761
5.84756
5.84751
5.84746
6.43365
6.43365
6.43363
6.43361
6.43361
6.43362
7.35744
7.35745
7.35747
7.35749
7.3575
7.35748
8.68386
8.6839
8.68392
8.68389
8.68385
8.68381
10.5252
10.5252
10.5252
10.5251
10.5252
10.5254
13.1112
13.1108
13.1117
13.1102
13.1112
13.1127
17.0443
17.0415
17.0474
17.0373
17.0431
17.0524
25.6878
25.6698
25.7177
25.6247
25.6536
25.7557
43.3957
43.3296
43.5234
43.1774
43.2149
43.6513
43.0341
43.0203
43.6738
42.1703
42.0371
44.3795
-35.0836
-35.0069
-35.1279
-34.9869
-35.075
-35.0868
4.62216
4.62214
4.62212
4.62209
4.62205
4.62202
4.85633
4.85635
4.85634
4.85631
4.85628
4.85628
5.32899
5.32902
5.32902
5.32902
5.32903
5.32903
6.04599
6.046
6.04602
6.04604
6.04605
6.046
7.01559
7.01558
7.01561
7.01557
7.01556
7.01552
8.26741
8.26726
8.26765
8.26727
8.26752
8.26757
9.83759
9.83677
9.83825
9.83755
9.83844
9.83812
11.4688
11.4642
11.4694
11.4687
11.4725
11.4668
15.1593
15.1412
15.1506
15.1659
15.1732
15.1341
16.5671
16.5487
16.4394
16.77
16.6844
16.3764
240.266
239.36
242.575
236.34
235.922
246.412
758.259
756.965
766.439
745.434
735.956
785.14
-12.8957
-12.8956
-12.8954
-12.895
-12.8947
-12.8944
-8.56128
-8.56122
-8.56106
-8.56094
-8.56091
-8.56099
-4.57406
-4.57413
-4.57413
-4.5742
-4.57433
-4.5744
-13.3909
-13.3907
-13.3905
-13.3903
-13.3901
-13.3902
-8.24153
-8.24152
-8.24139
-8.24135
-8.24146
-8.24158
-4.22669
-4.2267
-4.22666
-4.2267
-4.2268
-4.22666
-13.7212
-13.7211
-13.7212
-13.7211
-13.7212
-13.7214
-6.9037
-6.90369
-6.90355
-6.90348
-6.90354
-6.9035
-3.40821
-3.40813
-3.40798
-3.40791
-3.40789
-3.40768
-11.0238
-11.0241
-11.0244
-11.0245
-11.0244
-11.0242
-2.99876
-2.99859
-2.99838
-2.99824
-2.99822
-2.99809
-2.21508
-2.21513
-2.21504
-2.21499
-2.21498
-2.21501
-1.37158
-1.37396
-1.37451
-1.37472
-1.37448
-1.37199
5.05969
5.06198
5.06249
5.06266
5.06248
5.06048
-1.09341
-1.09324
-1.09314
-1.09309
-1.0931
-1.0935
14.498
14.498
14.498
14.4979
14.4976
14.4982
9.7166
9.71706
9.71724
9.71734
9.71729
9.71673
1.14546
1.14547
1.14552
1.14557
1.14559
1.14545
17.3225
17.3271
17.3272
17.3277
17.3285
17.3269
12.4117
12.4129
12.4132
12.4132
12.4134
12.413
0.958873
0.958977
0.959169
0.959161
0.959152
0.958711
32.3413
32.3353
32.3385
32.3385
32.3382
32.3415
15.1945
15.1902
15.1917
15.19
15.1892
15.1896
-0.495462
-0.497153
-0.496768
-0.497469
-0.498421
-0.49839
-8.54582
-8.50562
-8.52314
-8.52664
-8.52188
-8.52661
-21.098
-21.0803
-21.0917
-21.0938
-21.0957
-21.0905
-13.4125
-13.409
-13.4123
-13.4123
-13.4128
-13.4147
2.75524
4.44166
3.64051
3.43948
3.78195
3.38718
-57.9341
-57.9579
-57.9606
-57.9601
-57.9627
-57.9557
-21.9902
-21.9869
-21.9913
-21.9918
-21.9849
-22.0042
5792.27
5804.8
5799.23
5798.02
5799.24
5797.39
-70.2107
-70.193
-70.1877
-70.1914
-70.1874
-70.213
-1.39987
-1.39426
-1.38968
-1.38517
-1.37811
-1.40429
18337.4
18351
18345.3
18347
18349.9
18341.6
-9.80448
-9.80858
-9.80946
-9.81243
-9.81085
-9.79396
-5.81311
-5.81619
-5.81694
-5.81401
-5.81572
-5.81226
17345.8
17328.8
17348
17349
17319.2
17419.4
-6.79487
-6.75404
-6.68371
-6.72968
-6.56397
-6.86737
7.50093
6.00075
5.69437
8.67433
8.59858
3.97174
20250.9
20261.3
20255.6
20289.7
20341.6
20210.2
6.74856
6.70832
6.74299
6.80333
6.80363
6.63773
-12.7583
-12.5614
-12.5032
-12.8326
-12.7889
-12.3519
26446.6
26454.8
26454.2
26461.9
26496.9
26402.3
42.2096
42.243
42.2917
42.2116
42.2273
42.3073
-4.90745
-4.8803
-4.87635
-4.89804
-4.88702
-4.84468
30404.1
30405.1
30406.9
30407.2
30408.1
30406.9
1993.42
1996.78
1998.17
1997.06
2010.39
1988.07
-3.15717
-3.14132
-3.13952
-3.14653
-3.13045
-3.14206
30625.1
30625.9
30627.3
30627.5
30626.8
30628.6
5194.55
5200.46
5199.27
5202.57
5219.5
5179.9
-0.696311
-0.685433
-0.685772
-0.685157
-0.665531
-0.700065
30456.4
30456.9
30458.2
30459
30458.3
30460.1
2813.08
2819.43
2815.61
2819.33
2825.12
2808.29
-0.413127
-0.400334
-0.404065
-0.400805
-0.391086
-0.411267
3.46147
3.46144
3.46144
3.46145
3.46146
3.46149
2.13742
2.13741
2.13745
2.13749
2.13755
2.1376
0.729463
0.729485
0.729515
0.729548
0.729583
0.729617
3.63149
3.63153
3.63155
3.63155
3.63156
3.63158
2.23556
2.23562
2.23566
2.23568
2.23569
2.2357
0.7599
0.759944
0.759962
0.75997
0.759969
0.759954
3.96748
3.96753
3.96753
3.96751
3.96749
3.96745
2.42352
2.42355
2.42353
2.42348
2.42341
2.42333
0.814132
0.814135
0.814111
0.814067
0.814014
0.813965
4.45473
4.45473
4.45472
4.45469
4.45463
4.45453
2.67339
2.67334
2.67328
2.67321
2.67312
2.67306
0.873291
0.873251
0.873212
0.873164
0.873121
0.873126
5.04158
5.04154
5.04151
5.04147
5.04139
5.04135
2.91327
2.91322
2.91315
2.91312
2.91306
2.91315
0.895169
0.895126
0.895102
0.895082
0.895085
0.895134
5.53461
5.53465
5.53452
5.53461
5.53444
5.5344
2.99922
2.99927
2.99906
2.99905
2.99871
2.99901
0.797608
0.797594
0.797546
0.797477
0.797438
0.797522
5.28362
5.28428
5.28339
5.28495
5.28247
5.28456
2.55234
2.55279
2.55188
2.55134
2.54938
2.55063
0.853812
0.85368
0.853254
0.852566
0.851644
0.851993
2.55546
2.55867
2.55347
2.56281
2.55303
2.56036
-0.00667025
-0.00104293
-0.00478808
-0.0107637
-0.0206826
0.0100798
-1.08078
-1.08026
-1.08005
-1.08023
-1.08095
-1.07887
-5.56487
-5.55681
-5.57325
-5.5396
-5.54431
-5.57578
-1.91929
-1.93072
-1.93536
-1.91898
-1.9319
-1.96957
0.819327
0.818508
0.816728
0.808657
0.802211
0.814647
-32.123
-32.1022
-32.1633
-32.0275
-32.0462
-32.1786
-17.4244
-17.4261
-17.4353
-17.6697
-17.925
-17.4414
-7.48721
-7.52709
-7.52606
-7.49048
-7.50788
-7.59425
-56.4051
-56.4545
-56.4638
-56.2486
-56.2713
-56.4629
70.3217
75.4682
77.5789
66.305
60.2388
86.7097
0.52184
0.533414
0.52396
0.46413
0.42244
0.569024
4745.76
4729.32
4761.14
4707.84
4649.98
4855.65
644.635
648.782
658.325
624.728
600.39
669.503
57.0618
58.8701
59.4474
55.8466
54.0955
59.3042
)
;

boundaryField
{
    seabed_topleft_surface
    {
        type            fixedFluxPressure;
        gradient        uniform 0;
        value           nonuniform List<scalar> 
72
(
5461.15
5461.16
5461.15
5461.19
5461.21
5461.14
5509.26
5509.28
5509.28
5509.31
5509.32
5509.26
5850.8
5850.81
5850.82
5850.84
5850.85
5850.81
6431.05
6431.07
6431.08
6431.09
6431.1
6431.08
7197.13
7197.15
7197.16
7197.16
7197.17
7197.17
8076.71
8076.73
8076.74
8076.74
8076.75
8076.75
9611.95
9611.96
9611.97
9611.97
9611.97
9611.99
12394.9
12394.9
12395
12395
12395
12395
15988.5
15988.4
15988.4
15988.4
15988.4
15988.5
19681.4
19681.3
19681.3
19681.2
19681.2
19681.3
22956
22955.8
22955.8
22955.7
22955.7
22955.8
25811.8
25811.7
25811.8
25811.7
25811.7
25811.8
)
;
    }
    seabed_topright_surface
    {
        type            fixedFluxPressure;
        gradient        uniform 0;
        value           nonuniform List<scalar> 
72
(
6.55324
6.55332
6.55335
6.55337
6.55336
6.55335
6.87378
6.87383
6.87384
6.87382
6.87378
6.87373
7.53303
7.53304
7.53303
7.53299
7.53295
7.53291
8.56966
8.56968
8.56967
8.56963
8.56958
8.56953
10.046
10.0461
10.0461
10.046
10.0459
10.0458
12.051
12.0511
12.051
12.0509
12.0508
12.0508
14.7032
14.7032
14.7031
14.703
14.7032
14.7035
18.138
18.1379
18.138
18.1378
18.1385
18.1392
22.3493
22.3483
22.3504
22.3471
22.3509
22.355
26.543
26.5372
26.5486
26.5297
26.5398
26.5626
28.1574
28.1472
28.1668
28.1293
28.1382
28.1936
10.5779
10.577
10.5775
10.575
10.5741
10.587
)
;
    }
    breakwater_top_surface
    {
        type            fixedFluxPressure;
        gradient        uniform 0;
        value           nonuniform List<scalar> 
36
(
17345.8
17328.8
17348
17349
17319.2
17419.4
20250.9
20261.3
20255.6
20289.7
20341.6
20210.2
26446.6
26454.8
26454.2
26461.9
26496.9
26402.3
30404.1
30405.1
30406.9
30407.2
30408.1
30406.9
30625.1
30625.9
30627.3
30627.5
30626.8
30628.6
30456.4
30456.9
30458.2
30459
30458.3
30460.1
)
;
    }
    breakwater_left_surface
    {
        type            fixedFluxPressure;
        gradient        uniform 0;
        value           nonuniform List<scalar> 
24
(
25811.8
25811.7
25811.8
25811.7
25811.7
25811.8
27454.6
27454.5
27454.5
27454.5
27454.5
27454.6
31625.3
31625.3
31625.2
31625.2
31625.3
31625.3
37458.9
37461.1
37460.1
37460.1
37460.5
37459.5
)
;
    }
    breakwater_right_surface
    {
        type            fixedFluxPressure;
        gradient        uniform 0;
        value           nonuniform List<scalar> 
24
(
10.5779
10.577
10.5775
10.575
10.5741
10.587
-12.7459
-12.7502
-12.7658
-12.7469
-12.7961
-12.7164
-35.0836
-35.0069
-35.1279
-34.9869
-35.075
-35.0868
758.259
756.965
766.439
745.434
735.956
785.14
)
;
    }
    water_front_surface
    {
        type            fixedFluxPressure;
        gradient        uniform 0;
        value           nonuniform List<scalar> 
186
(
5461.15
5509.26
5850.8
6431.05
7197.13
8076.71
9611.95
12394.9
15988.5
19681.4
22956
25811.8
-41.3222
-50.8872
-75.8637
-90.0737
-13.1092
205.017
888.392
3207.55
10761.9
20240.8
24000.3
27454.6
-16.2494
-19.7906
-33.5646
-54.0792
-37.1762
25.882
45.3531
59.1075
611.099
10827.2
27231
31625.3
-18.4768
-20.0974
-22.9193
-20.7786
2.92016
30.784
38.8074
49.349
53.1672
4554.97
27464.9
37458.9
6.55324
6.87378
7.53303
8.56966
10.046
12.051
14.7032
18.138
22.3493
26.543
28.1574
10.5779
6.22071
6.53287
7.17372
8.17826
9.6082
11.5681
14.2309
17.9099
23.3096
30.7839
29.9708
-12.7459
5.56272
5.84763
6.43365
7.35744
8.68386
10.5252
13.1112
17.0443
25.6878
43.3957
43.0341
-35.0836
4.62216
4.85633
5.32899
6.04599
7.01559
8.26741
9.83759
11.4688
15.1593
16.5671
240.266
758.259
-12.8957
-8.56128
-4.57406
-13.3909
-8.24153
-4.22669
-13.7212
-6.9037
-3.40821
-11.0238
-2.99876
-2.21508
-1.37158
5.05969
-1.09341
14.498
9.7166
1.14546
17.3225
12.4117
0.958873
32.3413
15.1945
-0.495462
-8.54582
-21.098
-13.4125
2.75524
-57.9341
-21.9902
5792.27
-70.2107
-1.39987
18337.4
-9.80448
-5.81311
17345.8
-6.79487
7.50093
20250.9
6.74856
-12.7583
26446.6
42.2096
-4.90745
30404.1
1993.42
-3.15717
30625.1
5194.55
-0.696311
30456.4
2813.08
-0.413127
3.46147
2.13742
0.729463
3.63149
2.23556
0.7599
3.96748
2.42352
0.814132
4.45473
2.67339
0.873291
5.04158
2.91327
0.895169
5.53461
2.99922
0.797608
5.28362
2.55234
0.853812
2.55546
-0.00667025
-1.08078
-5.56487
-1.91929
0.819327
-32.123
-17.4244
-7.48721
-56.4051
70.3217
0.52184
4745.76
644.635
57.0618
)
;
    }
    water_back_surface
    {
        type            fixedFluxPressure;
        gradient        uniform 0;
        value           nonuniform List<scalar> 
186
(
5461.14
5509.26
5850.81
6431.08
7197.17
8076.75
9611.99
12395
15988.5
19681.3
22955.8
25811.8
-41.3214
-50.886
-75.8633
-90.0723
-13.104
205.042
888.437
3207.64
10761.9
20240.6
24000.2
27454.6
-16.2481
-19.7896
-33.5644
-54.079
-37.1748
25.8821
45.3485
59.0995
610.908
10826.9
27230.9
31625.3
-18.4753
-20.0961
-22.9193
-20.779
2.92059
30.7839
38.8022
49.3471
53.1612
4554.73
27467.7
37459.5
6.55335
6.87373
7.53291
8.56953
10.0458
12.0508
14.7035
18.1392
22.355
26.5626
28.1936
10.587
6.22066
6.5327
7.17361
8.17822
9.60802
11.5679
14.2313
17.9131
23.3327
30.9007
30.1066
-12.7164
5.56257
5.84746
6.43362
7.35748
8.68381
10.5254
13.1127
17.0524
25.7557
43.6513
44.3795
-35.0868
4.62202
4.85628
5.32903
6.046
7.01552
8.26757
9.83812
11.4668
15.1341
16.3764
246.412
785.14
-12.8944
-8.56099
-4.5744
-13.3902
-8.24158
-4.22666
-13.7214
-6.9035
-3.40768
-11.0242
-2.99809
-2.21501
-1.37199
5.06048
-1.0935
14.4982
9.71673
1.14545
17.3269
12.413
0.958711
32.3415
15.1896
-0.49839
-8.52661
-21.0905
-13.4147
3.38718
-57.9557
-22.0042
5797.39
-70.213
-1.40429
18341.6
-9.79396
-5.81226
17419.4
-6.86737
3.97174
20210.2
6.63773
-12.3519
26402.3
42.3073
-4.84468
30406.9
1988.07
-3.14206
30628.6
5179.9
-0.700065
30460.1
2808.29
-0.411267
3.46149
2.1376
0.729617
3.63158
2.2357
0.759954
3.96745
2.42333
0.813965
4.45453
2.67306
0.873126
5.04135
2.91315
0.895134
5.5344
2.99901
0.797522
5.28456
2.55063
0.851993
2.56036
0.0100798
-1.07887
-5.57578
-1.96957
0.814647
-32.1786
-17.4414
-7.59425
-56.4629
86.7097
0.569024
4855.65
669.503
59.3042
)
;
    }
    water_left_surface
    {
        type            fixedFluxPressure;
        gradient        uniform 0;
        value           nonuniform List<scalar> 
42
(
5461.15
5461.16
5461.15
5461.19
5461.21
5461.14
-41.3222
-41.322
-41.3219
-41.3217
-41.3216
-41.3214
-16.2494
-16.2494
-16.2491
-16.2489
-16.2485
-16.2481
-18.4768
-18.4768
-18.4765
-18.4761
-18.4757
-18.4753
-12.8957
-12.8956
-12.8954
-12.895
-12.8947
-12.8944
-8.56128
-8.56122
-8.56106
-8.56094
-8.56091
-8.56099
-4.57406
-4.57413
-4.57413
-4.5742
-4.57433
-4.5744
)
;
    }
    water_right_surface
    {
        type            fixedFluxPressure;
        gradient        uniform 0;
        value           nonuniform List<scalar> 
42
(
6.55324
6.55332
6.55335
6.55337
6.55336
6.55335
6.22071
6.22076
6.22078
6.22076
6.22072
6.22066
5.56272
5.56273
5.56272
5.56268
5.56263
5.56257
4.62216
4.62214
4.62212
4.62209
4.62205
4.62202
3.46147
3.46144
3.46144
3.46145
3.46146
3.46149
2.13742
2.13741
2.13745
2.13749
2.13755
2.1376
0.729463
0.729485
0.729515
0.729548
0.729583
0.729617
)
;
    }
    water_top_surface
    {
        type            totalPressure;
        rho             rho;
        psi             none;
        gamma           1;
        p0              uniform 0;
        value           nonuniform List<scalar> 
180
(
-2.56686
-2.56723
-2.56725
-2.56734
-2.56749
-2.56725
-2.28907
-2.28947
-2.28949
-2.28955
-2.28966
-2.28939
-1.46564
-1.46592
-1.4659
-1.46589
-1.46591
-1.46561
-0.594772
-0.594871
-0.594812
-0.594783
-0.594784
-0.594605
-0.0200047
-0.0200145
-0.020003
-0.0200049
-0.0200198
-0.0200064
0
0
0
0
0
0
0
0
0
0
0
0
0
0
0
0
0
0
0
0
0
0
0
0
0
0
0
0
0
0
0
0
0
0
0
0
-22.4234
-22.4852
-22.4592
-22.4525
-22.4784
-22.4284
-7.53876
-8.93445
-9.1112
-7.07417
-7.11295
-9.70961
-33.98
-33.7713
-33.6452
-34.2244
-34.2277
-33.2309
-6.87766
-6.87567
-6.84854
-6.91989
-6.9454
-6.78772
-12.533
-12.5634
-12.5506
-12.5699
-12.6815
-12.4317
-14.4767
-14.5068
-14.4832
-14.5091
-14.5655
-14.4271
-23.2601
-23.3217
-23.2874
-23.2919
-23.3062
-23.2655
0
0
0
0
0
0
0
0
0
0
0
0
0
0
0
0
0
0
0
0
0
0
0
0
0
0
0
0
0
0
0
0
0
0
0
0
0
0
0
0
0
0
0
0
0
0
0
0
0
0
0
0
0
0
0
0
0
0
0
0
-0.894169
-0.88969
-0.883185
-0.910001
-0.936336
-0.849885
0
0
0
0
0
0
)
;
    }
}


// ************************************************************************* //
