/*--------------------------------*- C++ -*----------------------------------*\
| =========                 |                                                 |
| \\      /  F ield         | OpenFOAM: The Open Source CFD Toolbox           |
|  \\    /   O peration     | Version:  v1612+                                |
|   \\  /    A nd           | Web:      www.OpenFOAM.com                      |
|    \\/     M anipulation  |                                                 |
\*---------------------------------------------------------------------------*/
FoamFile
{
    version     2.0;
    format      ascii;
    class       volScalarField;
    location    "2.65";
    object      alpha.water;
}
// * * * * * * * * * * * * * * * * * * * * * * * * * * * * * * * * * * * * * //

dimensions      [0 0 0 0 0 0 0];

internalField   nonuniform List<scalar> 
1116
(
0.956715
0.956715
0.956714
0.956713
0.956713
0.956713
0.958628
0.958624
0.958625
0.958625
0.958624
0.958625
0.962187
0.962183
0.962184
0.962184
0.962183
0.962185
0.966198
0.966194
0.966194
0.966194
0.966193
0.966195
0.968507
0.968503
0.968501
0.9685
0.9685
0.968502
0.969999
0.969995
0.969994
0.969993
0.969992
0.969994
0.971199
0.971195
0.971193
0.971191
0.971191
0.971193
0.973096
0.973096
0.973096
0.973096
0.973096
0.973096
0.973117
0.973117
0.973117
0.973117
0.973117
0.973117
0.973118
0.973118
0.973118
0.973118
0.973118
0.973118
0.973118
0.973118
0.973118
0.973118
0.973118
0.973118
0.960422
0.960422
0.960422
0.960423
0.960425
0.960419
0.686813
0.686808
0.686807
0.686811
0.686811
0.686807
0.417273
0.41727
0.417268
0.41727
0.417268
0.417267
0.401313
0.401312
0.401312
0.40131
0.401309
0.401311
0.455178
0.455178
0.455179
0.455178
0.455175
0.455177
0.523434
0.523436
0.523439
0.523437
0.523434
0.523434
0.534694
0.534697
0.534699
0.534698
0.534695
0.534693
0.517213
0.517214
0.517215
0.517214
0.517212
0.51721
0.450673
0.450673
0.450673
0.450672
0.450671
0.45067
0.308692
0.308686
0.308688
0.308687
0.308685
0.30869
0.373705
0.373692
0.373696
0.373695
0.373691
0.3737
0.761659
0.761629
0.761639
0.761637
0.761628
0.761647
0.96026
0.96026
0.96026
0.960261
0.960263
0.960257
5.33598e-08
5.33542e-08
5.33458e-08
5.33722e-08
5.34068e-08
5.33761e-08
1.5484e-08
1.54806e-08
1.54777e-08
1.54844e-08
1.54941e-08
1.5485e-08
9.81242e-09
9.81015e-09
9.80862e-09
9.81061e-09
9.81282e-09
9.808e-09
4.8053e-09
4.80392e-09
4.80339e-09
4.80368e-09
4.80359e-09
4.80041e-09
6.17049e-10
6.16641e-10
6.16545e-10
6.16635e-10
6.16603e-10
6.15816e-10
3.69977e-11
3.68244e-11
3.67973e-11
3.68341e-11
3.68185e-11
3.65166e-11
1.21194e-13
1.2032e-13
1.20321e-13
1.20357e-13
1.20247e-13
1.18915e-13
-5.26637e-13
-5.26521e-13
-5.26602e-13
-5.266e-13
-5.26589e-13
-5.26839e-13
-9.7461e-06
-9.74692e-06
-9.74691e-06
-9.74748e-06
-9.74866e-06
-9.74731e-06
0.000372063
0.000372069
0.000372065
0.00037207
0.000372078
0.000372074
0.166833
0.166797
0.166806
0.166807
0.1668
0.166816
0.834516
0.834519
0.834518
0.834515
0.834528
0.834498
1.58649e-07
1.58643e-07
1.58653e-07
1.58659e-07
1.58723e-07
1.588e-07
1.0099e-06
1.00988e-06
1.00987e-06
1.00995e-06
1.01007e-06
1.01e-06
5.25762e-08
5.2555e-08
5.25518e-08
5.2599e-08
5.27321e-08
5.26811e-08
1.00516e-07
1.00493e-07
1.00473e-07
1.00474e-07
1.00487e-07
1.00637e-07
1.71139e-07
1.71089e-07
1.71076e-07
1.71076e-07
1.71058e-07
1.70959e-07
1.21196e-13
1.20322e-13
1.20322e-13
1.20359e-13
1.20249e-13
1.18917e-13
6.2477e-19
6.20703e-19
6.20927e-19
6.20868e-19
6.20362e-19
6.15362e-19
-1.50239e-13
-1.83742e-13
-1.70067e-13
-1.77884e-13
-1.85996e-13
-2.18439e-13
-2.36207e-06
-2.36181e-06
-2.36188e-06
-2.36197e-06
-2.36203e-06
-2.36225e-06
2.88511e-05
2.88512e-05
2.88511e-05
2.88546e-05
2.88599e-05
2.88551e-05
0.000441249
0.00044125
0.000441248
0.000441254
0.000441261
0.000441267
0.786945
0.786922
0.786917
0.786926
0.786954
0.78687
4.13301e-61
4.14083e-61
4.14035e-61
4.14057e-61
4.14211e-61
4.13401e-61
9.9731e-57
9.98761e-57
9.98543e-57
9.98594e-57
9.99039e-57
9.97323e-57
1.29842e-52
1.29887e-52
1.29816e-52
1.29812e-52
1.29881e-52
1.29698e-52
1.13544e-48
1.13441e-48
1.13347e-48
1.1335e-48
1.1345e-48
1.13385e-48
6.97788e-45
6.96922e-45
6.96506e-45
6.96947e-45
6.98422e-45
6.98428e-45
1.04577e-40
1.05143e-40
1.05381e-40
1.06088e-40
1.08277e-40
1.04986e-40
1.40505e-36
1.43135e-36
1.44253e-36
1.45786e-36
1.49588e-36
1.43549e-36
3.7231e-33
3.85503e-33
3.90174e-33
3.94219e-33
4.02887e-33
3.82597e-33
1.31507e-30
1.3825e-30
1.39471e-30
1.39372e-30
1.39839e-30
1.29158e-30
8.59903e-33
8.78578e-33
8.82525e-33
8.83478e-33
8.8695e-33
8.59091e-33
4.03708e-30
4.04503e-30
4.04588e-30
4.04813e-30
4.05334e-30
4.05397e-30
1.93756e-27
1.94232e-27
1.94255e-27
1.94271e-27
1.94343e-27
1.941e-27
4.98261e-58
4.9921e-58
4.9915e-58
4.99166e-58
4.99342e-58
4.9835e-58
1.20278e-53
1.20483e-53
1.20462e-53
1.20465e-53
1.2051e-53
1.20289e-53
1.51424e-49
1.51604e-49
1.51553e-49
1.51547e-49
1.51608e-49
1.51355e-49
1.23827e-45
1.23906e-45
1.23848e-45
1.23844e-45
1.23914e-45
1.23763e-45
7.50462e-42
7.50969e-42
7.50653e-42
7.51195e-42
7.53631e-42
7.4964e-42
3.40715e-37
3.4244e-37
3.42829e-37
3.45059e-37
3.53009e-37
3.38438e-37
4.38277e-33
4.43554e-33
4.45359e-33
4.49028e-33
4.59954e-33
4.39405e-33
1.14463e-29
1.16656e-29
1.17284e-29
1.18144e-29
1.2062e-29
1.14474e-29
5.15161e-27
5.28658e-27
5.29645e-27
5.29457e-27
5.33937e-27
4.97731e-27
2.34377e-29
2.38042e-29
2.3845e-29
2.3873e-29
2.40722e-29
2.30505e-29
5.99305e-27
6.00265e-27
6.00308e-27
6.00545e-27
6.01202e-27
6.01213e-27
1.84837e-24
1.85225e-24
1.85226e-24
1.8522e-24
1.85263e-24
1.85012e-24
2.34131e-55
2.34582e-55
2.34558e-55
2.34566e-55
2.34648e-55
2.34177e-55
5.60492e-51
5.61526e-51
5.61456e-51
5.61474e-51
5.61676e-51
5.60607e-51
6.73624e-47
6.74709e-47
6.74577e-47
6.74573e-47
6.74814e-47
6.73596e-47
5.10592e-43
5.11294e-43
5.11167e-43
5.11163e-43
5.11376e-43
5.10567e-43
4.74792e-39
4.75461e-39
4.75043e-39
4.76108e-39
4.81227e-39
4.70122e-39
6.29998e-34
6.32349e-34
6.32348e-34
6.36075e-34
6.507e-34
6.20991e-34
6.68743e-30
6.73313e-30
6.74215e-30
6.78679e-30
6.943e-30
6.61877e-30
1.44293e-26
1.45648e-26
1.45871e-26
1.46744e-26
1.49816e-26
1.42346e-26
7.42773e-24
7.49101e-24
7.4812e-24
7.49995e-24
7.61905e-24
7.19582e-24
1.70071e-22
1.70829e-22
1.68034e-22
1.65097e-22
1.63186e-22
1.50171e-22
7.76761e-24
7.78892e-24
7.76443e-24
7.73937e-24
7.73287e-24
7.5867e-24
8.47888e-22
8.49412e-22
8.49323e-22
8.49181e-22
8.49209e-22
8.47888e-22
5.17733e-53
5.18737e-53
5.18686e-53
5.18704e-53
5.18884e-53
5.1783e-53
1.21432e-48
1.21664e-48
1.21651e-48
1.21656e-48
1.21698e-48
1.21461e-48
1.36817e-44
1.37065e-44
1.37047e-44
1.37049e-44
1.37093e-44
1.36833e-44
9.38001e-41
9.39594e-41
9.39452e-41
9.39448e-41
9.39747e-41
9.38045e-41
3.99837e-36
4.00378e-36
3.99688e-36
4.01285e-36
4.09214e-36
3.91334e-36
6.65958e-31
6.67547e-31
6.66947e-31
6.7053e-31
6.85566e-31
6.53173e-31
5.51893e-27
5.53717e-27
5.53428e-27
5.56568e-27
5.68947e-27
5.41987e-27
1.07882e-23
1.08284e-23
1.082e-23
1.0879e-23
1.11108e-23
1.05746e-23
5.66287e-21
5.68e-21
5.669e-21
5.69469e-21
5.8064e-21
5.51926e-21
1.0066e-18
1.00455e-18
9.98764e-19
9.94484e-19
9.90652e-19
9.66475e-19
1.38108e-20
1.38204e-20
1.3763e-20
1.37331e-20
1.41149e-20
1.3355e-20
9.07472e-22
9.09084e-22
9.0888e-22
9.08555e-22
8.50089e-22
9.06126e-22
8.91384e-07
8.91434e-07
8.91614e-07
8.91819e-07
8.91841e-07
8.91684e-07
4.92141e-07
4.92097e-07
4.92247e-07
4.92424e-07
4.92476e-07
4.92457e-07
-8.09746e-15
-8.8694e-15
-9.10403e-15
-8.90158e-15
-8.84906e-15
-9.06054e-15
1.09763e-05
1.09764e-05
1.09764e-05
1.09764e-05
1.09765e-05
1.09765e-05
6.47587e-06
6.47486e-06
6.47555e-06
6.47536e-06
6.47375e-06
6.47612e-06
-4.73943e-14
-5.19096e-14
-5.32859e-14
-5.21005e-14
-5.17928e-14
-5.30353e-14
6.3031e-08
6.30194e-08
6.29819e-08
6.31075e-08
6.32516e-08
6.31317e-08
5.50205e-08
5.50133e-08
5.49764e-08
5.50939e-08
5.52304e-08
5.51076e-08
-3.05207e-13
-3.34295e-13
-3.43149e-13
-3.35515e-13
-3.33539e-13
-3.41515e-13
5.08561e-07
5.0856e-07
5.08558e-07
5.08556e-07
5.08553e-07
5.08551e-07
1.10897e-07
1.10694e-07
1.1075e-07
1.10433e-07
1.10191e-07
1.11063e-07
-2.44458e-13
-2.6774e-13
-2.74822e-13
-2.68702e-13
-2.67117e-13
-2.7349e-13
5.08561e-07
5.08561e-07
5.0856e-07
5.08558e-07
5.08556e-07
5.08553e-07
2.95242e-07
2.95197e-07
2.95189e-07
2.95175e-07
2.95153e-07
2.95127e-07
-3.54551e-15
-3.89013e-15
-4.00172e-15
-3.91019e-15
-3.88319e-15
-3.88681e-15
1.96001e-09
1.95034e-09
1.94887e-09
1.9509e-09
1.95005e-09
1.93386e-09
1.73977e-09
1.7406e-09
1.74054e-09
1.73996e-09
1.73844e-09
1.73869e-09
8.36233e-26
8.66794e-26
8.49533e-26
8.36199e-26
8.48941e-26
7.81237e-26
-4.38442e-16
-4.35189e-16
-4.34951e-16
-4.35158e-16
-4.3448e-16
-4.28744e-16
-1.8805e-18
-1.87486e-18
-1.89174e-18
-1.90162e-18
-1.91217e-18
-1.91275e-18
3.02634e-18
3.13079e-18
3.06695e-18
3.01901e-18
3.06033e-18
2.80377e-18
-2.37638e-15
-2.35944e-15
-2.35711e-15
-2.35741e-15
-2.35574e-15
-2.33569e-15
-1.10754e-14
-1.10161e-14
-1.10518e-14
-1.10846e-14
-1.10516e-14
-1.12286e-14
-7.87767e-15
-7.83481e-15
-7.86299e-15
-7.88346e-15
-7.86203e-15
-7.98053e-15
-3.52601e-08
-3.52562e-08
-3.52622e-08
-3.52518e-08
-3.52263e-08
-3.53038e-08
-1.05592e-12
-1.05059e-12
-1.05343e-12
-1.05575e-12
-1.05256e-12
-1.0684e-12
-4.47499e-12
-4.45305e-12
-4.46519e-12
-4.47347e-12
-4.45898e-12
-4.52451e-12
9.32056e-07
9.32005e-07
9.32039e-07
9.32152e-07
9.32481e-07
9.31658e-07
-6.43699e-08
-6.43568e-08
-6.43516e-08
-6.4453e-08
-6.46219e-08
-6.42026e-08
-2.7867e-12
-2.52299e-13
-2.58037e-13
-1.30299e-12
-4.42799e-12
-2.18351e-12
4.15231e-05
4.15237e-05
4.15246e-05
4.15208e-05
4.15113e-05
4.15378e-05
3.56281e-06
3.56315e-06
3.56297e-06
3.5629e-06
3.56346e-06
3.5621e-06
1.47914e-07
1.47941e-07
1.47926e-07
1.4792e-07
1.48044e-07
1.47757e-07
0.439189
0.439152
0.439188
0.439114
0.438812
0.439487
0.0164924
0.0164597
0.0164995
0.0164773
0.0162913
0.0167632
7.95352e-06
7.95412e-06
7.95377e-06
7.95389e-06
7.95424e-06
7.95472e-06
1.19079e-15
1.20071e-15
1.17549e-15
1.18794e-15
1.29349e-14
1.10324e-15
2.58887e-11
1.44168e-11
1.07939e-11
1.10356e-11
5.36197e-11
1.03141e-11
2.38584e-17
2.3848e-17
2.38512e-17
2.3827e-17
2.3825e-17
2.38432e-17
-1.63178e-12
-9.85854e-13
-3.37111e-12
-3.07338e-12
-6.50658e-12
-1.69445e-11
8.27421e-11
7.55845e-11
7.23068e-11
7.3809e-11
9.67274e-11
6.75469e-11
1.76087e-06
1.78465e-06
1.76946e-06
1.83224e-06
1.90158e-06
1.71657e-06
1.42845e-07
1.42323e-07
1.42802e-07
1.43307e-07
1.42218e-07
1.44628e-07
0.000244447
0.000246142
0.000246977
0.000248245
0.000239525
0.000254974
0.0228961
0.0229095
0.0229106
0.0229603
0.0229709
0.0229233
0.00419179
0.00419048
0.00419239
0.00420955
0.00421739
0.00419055
0.134848
0.134883
0.134861
0.135056
0.135216
0.134677
0.065219
0.0653206
0.0652727
0.0653534
0.0654133
0.0651757
0.268559
0.2685
0.268409
0.268794
0.269637
0.267528
0.267602
0.26754
0.267455
0.267822
0.268577
0.26658
0.00964818
0.00967136
0.00965133
0.00964405
0.00967008
0.00957947
0.436448
0.436431
0.436449
0.436412
0.43642
0.436759
0.137425
0.137624
0.13749
0.137086
0.137114
0.137291
0.0016842
0.00168392
0.00168463
0.00167957
0.00167077
0.00169168
4.64739e-51
4.65639e-51
4.65594e-51
4.6561e-51
4.6577e-51
4.64818e-51
8.00617e-53
8.02257e-53
8.02245e-53
8.02277e-53
8.02501e-53
8.008e-53
3.20134e-56
3.20826e-56
3.20817e-56
3.20831e-56
3.20927e-56
3.2022e-56
1.05093e-46
1.05296e-46
1.05287e-46
1.05291e-46
1.05327e-46
1.05119e-46
3.65871e-48
3.66603e-48
3.66602e-48
3.66615e-48
3.6671e-48
3.65975e-48
1.68184e-51
1.68536e-51
1.68532e-51
1.68538e-51
1.68584e-51
1.68229e-51
1.08444e-42
1.08647e-42
1.08636e-42
1.08638e-42
1.08671e-42
1.08461e-42
7.87479e-44
7.88977e-44
7.88969e-44
7.8898e-44
7.89152e-44
7.87639e-44
4.52507e-47
4.53415e-47
4.53404e-47
4.53412e-47
4.5352e-47
4.52599e-47
6.53095e-39
6.54269e-39
6.54188e-39
6.54181e-39
6.54361e-39
6.53119e-39
1.00849e-39
1.01031e-39
1.01029e-39
1.01029e-39
1.01047e-39
1.00863e-39
7.97904e-43
7.99421e-43
7.99403e-43
7.99409e-43
7.99575e-43
7.98039e-43
3.72798e-33
3.73242e-33
3.72478e-33
3.74073e-33
3.82134e-33
3.63674e-33
2.68548e-30
2.68857e-30
2.68294e-30
2.69462e-30
2.75286e-30
2.61932e-30
1.39625e-27
1.39787e-27
1.39499e-27
1.40129e-27
1.43153e-27
1.36241e-27
4.34892e-28
4.35632e-28
4.35e-28
4.37203e-28
4.46791e-28
4.25437e-28
1.92048e-25
1.92347e-25
1.92032e-25
1.9301e-25
1.97197e-25
1.87768e-25
5.1903e-23
5.1983e-23
5.18937e-23
5.21659e-23
5.32873e-23
5.07519e-23
2.38257e-24
2.38712e-24
2.38372e-24
2.39626e-24
2.4483e-24
2.33179e-24
6.65496e-22
6.6656e-22
6.65409e-22
6.68941e-22
6.83256e-22
6.50832e-22
8.91715e-20
8.93127e-20
8.91476e-20
8.96408e-20
9.15306e-20
8.72282e-20
3.04727e-21
3.05321e-21
3.04819e-21
3.0645e-21
3.12956e-21
2.98092e-21
4.9152e-19
4.92311e-19
4.91356e-19
4.94096e-19
5.04429e-19
4.80763e-19
2.43847e-17
2.44246e-17
2.43738e-17
2.45186e-17
2.50191e-17
2.3867e-17
1.08769e-18
1.08958e-18
1.08734e-18
1.09323e-18
1.11576e-18
1.06305e-18
7.5354e-17
7.54769e-17
7.5312e-17
7.57644e-17
7.72964e-17
7.37395e-17
1.77066e-17
1.77054e-17
1.77068e-17
1.77001e-17
1.76965e-17
1.77088e-17
4.12069e-16
4.12117e-16
4.12338e-16
4.11626e-16
3.9683e-16
4.11266e-16
1.63458e-14
1.63794e-14
1.63751e-14
1.63715e-14
9.04567e-15
1.61762e-14
1.70759e-17
1.70733e-17
1.70811e-17
1.70518e-17
1.70361e-17
1.70672e-17
1.43815e-13
1.43348e-13
1.43702e-13
1.42685e-13
1.7099e-13
1.48022e-13
8.51583e-13
7.55984e-13
8.16994e-13
4.15102e-13
1.04058e-11
2.34809e-12
5.82858e-18
5.92691e-18
5.78708e-18
6.08404e-18
2.46242e-18
4.49821e-18
1.48175e-20
1.46764e-20
1.43683e-20
1.39683e-20
1.49167e-12
1.62986e-20
4.64113e-09
4.67302e-09
4.71208e-09
4.79993e-09
4.87406e-09
4.43798e-09
9.45907e-80
2.54988e-78
8.25283e-73
1.1966e-67
2.13722e-58
1.23221e-79
)
;

boundaryField
{
    seabed_topleft_surface
    {
        type            zeroGradient;
    }
    seabed_topright_surface
    {
        type            zeroGradient;
    }
    breakwater_top_surface
    {
        type            zeroGradient;
    }
    breakwater_left_surface
    {
        type            zeroGradient;
    }
    breakwater_right_surface
    {
        type            zeroGradient;
    }
    water_front_surface
    {
        type            zeroGradient;
    }
    water_back_surface
    {
        type            zeroGradient;
    }
    water_left_surface
    {
        type            zeroGradient;
    }
    water_right_surface
    {
        type            zeroGradient;
    }
    water_top_surface
    {
        type            inletOutlet;
        inletValue      uniform 0;
        value           nonuniform List<scalar> 
180
(
0
0
0
0
0
0
0
0
0
0
0
0
0
0
0
0
0
0
0
0
0
0
0
0
0
0
0
0
0
0
0
0
0
0
0
0
0
0
0
0
0
0
0
0
0
0
0
0
0
0
0
0
0
0
-2.7867e-12
-2.52299e-13
-2.58037e-13
-1.30299e-12
-4.42799e-12
-2.18351e-12
1.47914e-07
1.47941e-07
1.47926e-07
1.4792e-07
1.48044e-07
1.47757e-07
7.95352e-06
7.95412e-06
7.95377e-06
7.95389e-06
7.95424e-06
7.95472e-06
2.38584e-17
2.3848e-17
2.38512e-17
2.3827e-17
2.3825e-17
2.38432e-17
1.76087e-06
1.78465e-06
1.76946e-06
1.83224e-06
1.90158e-06
1.71657e-06
0.0228961
0.0229095
0.0229106
0.0229603
0.0229709
0.0229233
0.065219
0.0653206
0.0652727
0.0653534
0.0654133
0.0651757
0.00964818
0.00967136
0.00965133
0.00964405
0.00967008
0.00957947
0.0016842
0.00168392
0.00168463
0.00167957
0.00167077
0.00169168
0
0
0
0
0
0
0
0
0
0
0
0
0
0
0
0
0
0
0
0
0
0
0
0
0
0
0
0
0
0
0
0
0
0
0
0
0
0
0
0
0
0
0
0
0
0
0
0
0
0
0
0
0
0
0
0
0
0
0
0
0
0
0
0
0
0
0
0
0
0
0
0
)
;
    }
}


// ************************************************************************* //
