/*--------------------------------*- C++ -*----------------------------------*\
| =========                 |                                                 |
| \\      /  F ield         | OpenFOAM: The Open Source CFD Toolbox           |
|  \\    /   O peration     | Version:  v1612+                                |
|   \\  /    A nd           | Web:      www.OpenFOAM.com                      |
|    \\/     M anipulation  |                                                 |
\*---------------------------------------------------------------------------*/
FoamFile
{
    version     2.0;
    format      ascii;
    class       volScalarField;
    location    "2.65";
    object      p_rgh;
}
// * * * * * * * * * * * * * * * * * * * * * * * * * * * * * * * * * * * * * //

dimensions      [1 -1 -2 0 0 0 0];

internalField   nonuniform List<scalar> 
1116
(
17565.1
17565.1
17565.1
17565.1
17565.1
17565
17169.2
17169.2
17169.2
17169.2
17169.2
17169.2
16289.5
16289.5
16289.5
16289.5
16289.5
16289.5
15708.5
15708.5
15708.5
15708.5
15708.4
15708.4
15543.6
15543.6
15543.6
15543.6
15543.6
15543.6
15478.8
15478.8
15478.8
15478.8
15478.8
15478.8
15496.1
15496.1
15496
15496
15496
15496
16002
16002
16002
16002
16002
16002
17322.7
17322.7
17322.7
17322.7
17322.7
17322.7
20271
20271
20271
20271
20271
20271.1
24814.7
24814.6
24814.7
24814.7
24814.7
24814.8
29141.8
29141.9
29141.9
29141.9
29142
29141.9
13456
13455.8
13455.8
13455.9
13455.9
13455.8
8216.18
8216.12
8216.1
8216.13
8216.1
8216.08
7927
7926.99
7926.97
7926.95
7926.91
7926.95
8977.12
8977.13
8977.14
8977.12
8977.06
8977.1
10290.7
10290.8
10290.8
10290.8
10290.8
10290.7
10502.6
10502.7
10502.7
10502.7
10502.7
10502.6
10152.7
10152.8
10152.8
10152.7
10152.7
10152.7
8863.56
8863.56
8863.56
8863.53
8863.51
8863.5
6198.14
6198.04
6198.07
6198.05
6198.03
6198.13
8661.68
8661.43
8661.52
8661.52
8661.46
8661.67
21189.8
21189.3
21189.5
21189.5
21189.3
21189.7
32857.8
32858
32858
32858
32858.1
32857.9
-15.9935
-15.9928
-15.9927
-15.9925
-15.9925
-15.9931
-10.8737
-10.8733
-10.8731
-10.8729
-10.8727
-10.8728
-13.0452
-13.0446
-13.0445
-13.0445
-13.0446
-13.0454
-24.5363
-24.5354
-24.5355
-24.5355
-24.5355
-24.5365
-33.0902
-33.0893
-33.0895
-33.0899
-33.0901
-33.0912
-29.775
-29.7735
-29.7735
-29.7739
-29.7739
-29.7752
-10.1648
-10.1644
-10.1644
-10.1642
-10.1635
-10.1635
93.4372
93.4345
93.4345
93.4353
93.436
93.44
240.831
240.828
240.83
240.83
240.828
240.831
558.739
558.741
558.748
558.753
558.756
558.764
5580.53
5579.64
5579.89
5579.92
5579.78
5580.25
29905.6
29905.8
29905.8
29905.8
29906.1
29905.5
-5.26462
-5.26441
-5.26409
-5.26382
-5.26367
-5.26373
1.63966
1.63993
1.64016
1.64021
1.64013
1.63998
3.29248
3.29284
3.29293
3.29278
3.2925
3.29217
-0.851226
-0.85096
-0.851217
-0.851556
-0.851889
-0.852335
-7.21919
-7.21901
-7.21936
-7.21992
-7.22028
-7.22091
-10.9439
-10.9435
-10.9439
-10.9444
-10.9449
-10.9461
-9.82022
-9.81994
-9.82031
-9.82072
-9.821
-9.82198
-13.8244
-13.8251
-13.826
-13.8266
-13.8277
-13.8278
2.12964
2.12954
2.12957
2.12969
2.12652
2.12814
35.2491
35.2518
35.2521
35.2524
35.252
35.2524
192.855
192.845
192.849
192.852
192.848
192.861
28236.1
28235.1
28235
28235.3
28236
28233.7
-0.1074
-0.107399
-0.107397
-0.107394
-0.107391
-0.107389
-0.112015
-0.112016
-0.112014
-0.11201
-0.112006
-0.112002
-0.121279
-0.121284
-0.121279
-0.12127
-0.121259
-0.121249
-0.135239
-0.135239
-0.135223
-0.135199
-0.135173
-0.135149
-0.154134
-0.154114
-0.154074
-0.154027
-0.153982
-0.153945
-0.178535
-0.178477
-0.178418
-0.178363
-0.178319
-0.178288
-0.208774
-0.208701
-0.208673
-0.208673
-0.208693
-0.208717
-0.242085
-0.242125
-0.242259
-0.242425
-0.242599
-0.24274
-0.268248
-0.268392
-0.268662
-0.268983
-0.269308
-0.269568
-0.306524
-0.306764
-0.307109
-0.307475
-0.307819
-0.308088
-0.351359
-0.351628
-0.351892
-0.352127
-0.3523
-0.352417
-0.389657
-0.389716
-0.38976
-0.389805
-0.389835
-0.389831
-0.102945
-0.102939
-0.102935
-0.102932
-0.102929
-0.102928
-0.107985
-0.107981
-0.107976
-0.107972
-0.107968
-0.107965
-0.118253
-0.118249
-0.118241
-0.118231
-0.118221
-0.118212
-0.134037
-0.134027
-0.134009
-0.133989
-0.133969
-0.133951
-0.156009
-0.155986
-0.15596
-0.155936
-0.155916
-0.155897
-0.185816
-0.18579
-0.185783
-0.185789
-0.185801
-0.18581
-0.228049
-0.228058
-0.228128
-0.22823
-0.228337
-0.228423
-0.301404
-0.301406
-0.301544
-0.301749
-0.301978
-0.302176
-0.424715
-0.424899
-0.42516
-0.425431
-0.42568
-0.425894
-0.554943
-0.555143
-0.55521
-0.555158
-0.555051
-0.554931
-0.648822
-0.64872
-0.648463
-0.648103
-0.647704
-0.64734
-0.677189
-0.676838
-0.676519
-0.676268
-0.676128
-0.676015
-0.0936577
-0.0936488
-0.0936446
-0.0936428
-0.0936426
-0.0936438
-0.0989031
-0.0988972
-0.0988942
-0.0988928
-0.0988929
-0.0988947
-0.109749
-0.109743
-0.109739
-0.109735
-0.109732
-0.10973
-0.126757
-0.126748
-0.12674
-0.126733
-0.126729
-0.126725
-0.150693
-0.15068
-0.150679
-0.150683
-0.150692
-0.150699
-0.181445
-0.18145
-0.181492
-0.181544
-0.1816
-0.181642
-0.212001
-0.212089
-0.212225
-0.212372
-0.212505
-0.2126
-0.212563
-0.212789
-0.213013
-0.213199
-0.213324
-0.213388
-0.17828
-0.17847
-0.178526
-0.178471
-0.178322
-0.178145
-0.150853
-0.150778
-0.150487
-0.150055
-0.149533
-0.149059
-0.16125
-0.160802
-0.160167
-0.159527
-0.158989
-0.158638
0.0397044
0.0398732
0.0399221
0.0398421
0.0396505
0.0393538
-0.079522
-0.0795121
-0.0795096
-0.0795106
-0.0795138
-0.0795179
-0.0846385
-0.0846328
-0.0846329
-0.0846358
-0.0846408
-0.0846475
-0.0953769
-0.0953733
-0.0953746
-0.0953787
-0.0953836
-0.0953889
-0.112715
-0.112713
-0.112721
-0.11273
-0.11274
-0.112749
-0.138411
-0.138423
-0.138448
-0.138479
-0.13851
-0.138533
-0.176822
-0.176866
-0.176931
-0.177002
-0.177065
-0.177109
-0.24382
-0.243897
-0.243988
-0.244077
-0.244149
-0.244195
-0.381599
-0.381663
-0.381696
-0.381697
-0.381668
-0.381628
-0.577521
-0.577498
-0.577339
-0.577084
-0.576796
-0.576497
-0.793134
-0.792861
-0.792399
-0.791856
-0.791384
-0.790991
-1.0488
-1.04848
-1.04814
-1.04778
-1.04772
-1.04766
-1.42832
-1.42855
-1.42933
-1.42958
-1.43098
-1.43064
-5.24738
-5.24714
-5.24695
-5.24688
-5.24677
-5.24669
-6.37219
-6.3721
-6.37203
-6.37201
-6.372
-6.37198
-7.37419
-7.37436
-7.37441
-7.37442
-7.37443
-7.37432
-3.77997
-3.77964
-3.77948
-3.77948
-3.77949
-3.77961
-5.9443
-5.94428
-5.94421
-5.94423
-5.94437
-5.94431
-8.06404
-8.06416
-8.06417
-8.06415
-8.06411
-8.06394
-7.49704
-7.49693
-7.49694
-7.49702
-7.49714
-7.4973
-6.73508
-6.73515
-6.73522
-6.73528
-6.7354
-6.73547
-8.0427
-8.04276
-8.04274
-8.0427
-8.04266
-8.04249
-9.02977
-9.02988
-9.0301
-9.03029
-9.03045
-9.03063
-7.8181
-7.81828
-7.81842
-7.81853
-7.81866
-7.8186
-9.7504
-9.75046
-9.75041
-9.75037
-9.75037
-9.75018
-10.7369
-10.7371
-10.7374
-10.7375
-10.7376
-10.7376
-8.14807
-8.14829
-8.14841
-8.14844
-8.14845
-8.14832
-9.63825
-9.63829
-9.63825
-9.63823
-9.63827
-9.63814
-10.3994
-10.3994
-10.3995
-10.3996
-10.3998
-10.4
-8.77416
-8.77426
-8.77427
-8.77428
-8.7743
-8.77421
-10.0588
-10.059
-10.0589
-10.0589
-10.0589
-10.0587
-6.19559
-6.19536
-6.19537
-6.19561
-6.19613
-6.19686
-8.09697
-8.09687
-8.0968
-8.09694
-8.09712
-8.09741
-9.16177
-9.16195
-9.16183
-9.16161
-9.16131
-9.16093
3.37047
3.37087
3.37076
3.37093
3.3698
3.37128
-5.90045
-5.90017
-5.9002
-5.9005
-5.90094
-5.90085
-8.57718
-8.57758
-8.57748
-8.57727
-8.57695
-8.57583
5.35676
5.35823
5.35644
5.35632
5.35454
5.35482
-15.519
-15.5181
-15.5187
-15.5198
-15.5215
-15.5222
-16.9394
-16.938
-16.9383
-16.9396
-16.9415
-16.9475
-28.7895
-28.791
-28.7904
-28.7896
-28.7961
-28.7927
-18.4304
-18.4304
-18.429
-18.4259
-18.4294
-18.4178
-14.3039
-14.3036
-14.2997
-14.2961
-14.297
-14.2849
-79.3536
-79.3771
-79.3677
-79.355
-79.3689
-79.3648
-32.3898
-32.398
-32.3905
-32.387
-32.3986
-32.3494
-32.2857
-32.2832
-32.2772
-32.2755
-32.2782
-32.2777
19006
19004.1
19005.8
19002.7
18989.4
19018.9
773.313
771.397
773.667
772.441
761.988
788.581
-84.5207
-84.5079
-84.5033
-84.4898
-84.4723
-84.5699
-3.37871
-3.37879
-3.38028
-3.3752
-3.38417
-3.36796
-3.72251
-3.72821
-3.73058
-3.73579
-3.77346
-3.72022
-6.1692
-6.16482
-6.1666
-6.16319
-6.16538
-6.18737
-2.72368
-2.72248
-2.71985
-2.71496
-2.70579
-2.71765
-4.14516
-4.1516
-4.15782
-4.15173
-4.14671
-4.21289
-4.67051
-4.67309
-4.68156
-4.67158
-4.67508
-4.71876
-4.77723
-4.77381
-4.76762
-4.75884
-4.75317
-4.71263
-0.585669
-0.483969
-0.442945
-0.37827
-0.751243
-0.102295
1358.35
1359.15
1359.19
1362.27
1362.8
1359.94
188.722
188.676
188.772
189.549
189.926
188.747
7119.21
7120.86
7119.69
7130.08
7139.11
7109.5
3247.84
3253.84
3250.82
3255.55
3258.61
3245.44
11596.9
11594.1
11589.8
11607.6
11646
11548.8
14256.4
14252.1
14248.2
14269
14310.1
14202.7
107.285
108.696
107.533
107.216
108.769
103.469
14387.1
14386.1
14386.6
14385.3
14380.8
14403.6
7198.18
7208.58
7201.33
7179.57
7181.51
7190.35
-142.969
-143.004
-142.902
-143.089
-143.601
-142.421
-0.0607488
-0.0607433
-0.0607431
-0.0607467
-0.0607526
-0.060759
-0.0382224
-0.0382208
-0.0382226
-0.0382269
-0.0382329
-0.0382393
-0.0134467
-0.0134466
-0.0134476
-0.0134492
-0.0134516
-0.0134546
-0.0650189
-0.0650165
-0.0650196
-0.0650255
-0.0650332
-0.0650422
-0.0410369
-0.0410382
-0.041042
-0.0410474
-0.0410543
-0.0410616
-0.0142165
-0.0142174
-0.0142188
-0.0142206
-0.0142231
-0.014226
-0.0740545
-0.0740548
-0.0740594
-0.074066
-0.0740735
-0.0740809
-0.047168
-0.047169
-0.0471726
-0.0471773
-0.0471828
-0.0471886
-0.0155103
-0.0155109
-0.015512
-0.0155133
-0.0155151
-0.0155169
-0.0887622
-0.0887658
-0.0887746
-0.0887854
-0.0887963
-0.0888051
-0.0581188
-0.0581198
-0.0581241
-0.0581297
-0.0581354
-0.0581406
-0.0166549
-0.0166553
-0.0166566
-0.0166582
-0.01666
-0.0166622
-0.109691
-0.109705
-0.109725
-0.109746
-0.109764
-0.109775
-0.0775242
-0.0775281
-0.0775361
-0.077545
-0.0775525
-0.0775578
-0.0153435
-0.0153449
-0.0153475
-0.0153503
-0.0153526
-0.0153548
-0.132765
-0.132791
-0.132819
-0.132842
-0.132855
-0.13286
-0.115187
-0.115197
-0.115209
-0.11522
-0.115228
-0.115233
-0.00779739
-0.00779968
-0.00780165
-0.0078037
-0.00780489
-0.00780701
-0.14249
-0.142519
-0.142529
-0.142526
-0.142511
-0.142491
-0.19063
-0.190642
-0.190652
-0.190657
-0.190663
-0.190662
0.0128049
0.0128031
0.0128062
0.0128066
0.0128112
0.0128105
-0.122716
-0.122717
-0.122676
-0.122617
-0.122548
-0.122483
-0.323448
-0.323454
-0.323461
-0.323446
-0.323463
-0.32344
0.0382444
0.0382433
0.038253
0.0382599
0.0382726
0.0382917
-0.0919146
-0.0918676
-0.0918029
-0.0917435
-0.0916978
-0.091648
-0.520465
-0.520466
-0.520529
-0.520489
-0.520606
-0.520536
0.024932
0.0249241
0.0249234
0.0249233
0.024915
0.0249719
-0.0779866
-0.0779217
-0.0779062
-0.0779436
-0.0780361
-0.078137
-0.757562
-0.75753
-0.757902
-0.75772
-0.758298
-0.758034
-0.231484
-0.231524
-0.231591
-0.23159
-0.231944
-0.231351
-0.817266
-0.817403
-0.817663
-0.817822
-0.818464
-0.818167
-1.02715
-1.02706
-1.02812
-1.02777
-1.02992
-1.02841
-0.227335
-0.22731
-0.22744
-0.227536
-0.228086
-0.22815
0.140703
0.140463
0.140101
0.13919
0.138649
0.137493
-1.51149
-1.51232
-1.51413
-1.51445
-1.52301
-1.51477
-2.5594
-2.56047
-2.5631
-2.56242
-2.57338
-2.56202
)
;

boundaryField
{
    seabed_topleft_surface
    {
        type            fixedFluxPressure;
        gradient        uniform 0;
        value           nonuniform List<scalar> 
72
(
17565.1
17565.1
17565.1
17565.1
17565.1
17565
17169.2
17169.2
17169.2
17169.2
17169.2
17169.2
16289.5
16289.5
16289.5
16289.5
16289.5
16289.5
15708.5
15708.5
15708.5
15708.5
15708.4
15708.4
15543.6
15543.6
15543.6
15543.6
15543.6
15543.6
15478.8
15478.8
15478.8
15478.8
15478.8
15478.8
15496.1
15496.1
15496
15496
15496
15496
16002
16002
16002
16002
16002
16002
17322.7
17322.7
17322.7
17322.7
17322.7
17322.7
20271
20271
20271
20271
20271
20271.1
24814.7
24814.6
24814.7
24814.7
24814.7
24814.8
29141.8
29141.9
29141.9
29141.9
29142
29141.9
)
;
    }
    seabed_topright_surface
    {
        type            fixedFluxPressure;
        gradient        uniform 0;
        value           nonuniform List<scalar> 
72
(
-0.1074
-0.107399
-0.107397
-0.107394
-0.107391
-0.107389
-0.112015
-0.112016
-0.112014
-0.11201
-0.112006
-0.112002
-0.121279
-0.121284
-0.121279
-0.12127
-0.121259
-0.121249
-0.135239
-0.135239
-0.135223
-0.135199
-0.135173
-0.135149
-0.154134
-0.154114
-0.154074
-0.154027
-0.153982
-0.153945
-0.178535
-0.178477
-0.178418
-0.178363
-0.178319
-0.178288
-0.208774
-0.208701
-0.208673
-0.208673
-0.208693
-0.208717
-0.242085
-0.242125
-0.242259
-0.242425
-0.242599
-0.24274
-0.268248
-0.268392
-0.268662
-0.268983
-0.269308
-0.269568
-0.306524
-0.306764
-0.307109
-0.307475
-0.307819
-0.308088
-0.351359
-0.351628
-0.351892
-0.352127
-0.3523
-0.352417
-0.389657
-0.389716
-0.38976
-0.389805
-0.389835
-0.389831
)
;
    }
    breakwater_top_surface
    {
        type            fixedFluxPressure;
        gradient        uniform 0;
        value           nonuniform List<scalar> 
36
(
-3.37871
-3.37879
-3.38028
-3.3752
-3.38417
-3.36796
-2.72368
-2.72248
-2.71985
-2.71496
-2.70579
-2.71765
-4.77723
-4.77381
-4.76762
-4.75884
-4.75317
-4.71263
188.722
188.676
188.772
189.549
189.926
188.747
11596.9
11594.1
11589.8
11607.6
11646
11548.8
14387.1
14386.1
14386.6
14385.3
14380.8
14403.6
)
;
    }
    breakwater_left_surface
    {
        type            fixedFluxPressure;
        gradient        uniform 0;
        value           nonuniform List<scalar> 
24
(
29141.8
29141.9
29141.9
29141.9
29142
29141.9
32857.8
32858
32858
32858
32858.1
32857.9
29905.6
29905.8
29905.8
29905.8
29906.1
29905.5
28236.1
28235.1
28235
28235.3
28236
28233.7
)
;
    }
    breakwater_right_surface
    {
        type            fixedFluxPressure;
        gradient        uniform 0;
        value           nonuniform List<scalar> 
24
(
-0.389657
-0.389716
-0.38976
-0.389805
-0.389835
-0.389831
-0.677189
-0.676838
-0.676519
-0.676268
-0.676128
-0.676015
0.0397044
0.0398732
0.0399221
0.0398421
0.0396505
0.0393538
-1.42832
-1.42855
-1.42933
-1.42958
-1.43098
-1.43064
)
;
    }
    water_front_surface
    {
        type            fixedFluxPressure;
        gradient        uniform 0;
        value           nonuniform List<scalar> 
186
(
17565.1
17169.2
16289.5
15708.5
15543.6
15478.8
15496.1
16002
17322.7
20271
24814.7
29141.8
13456
8216.18
7927
8977.12
10290.7
10502.6
10152.7
8863.56
6198.14
8661.68
21189.8
32857.8
-15.9935
-10.8737
-13.0452
-24.5363
-33.0902
-29.775
-10.1648
93.4372
240.831
558.739
5580.53
29905.6
-5.26462
1.63966
3.29248
-0.851226
-7.21919
-10.9439
-9.82022
-13.8244
2.12964
35.2491
192.855
28236.1
-0.1074
-0.112015
-0.121279
-0.135239
-0.154134
-0.178535
-0.208774
-0.242085
-0.268248
-0.306524
-0.351359
-0.389657
-0.102945
-0.107985
-0.118253
-0.134037
-0.156009
-0.185816
-0.228049
-0.301404
-0.424715
-0.554943
-0.648822
-0.677189
-0.0936577
-0.0989031
-0.109749
-0.126757
-0.150693
-0.181445
-0.212001
-0.212563
-0.17828
-0.150853
-0.16125
0.0397044
-0.079522
-0.0846385
-0.0953769
-0.112715
-0.138411
-0.176822
-0.24382
-0.381599
-0.577521
-0.793134
-1.0488
-1.42832
-5.24738
-6.37219
-7.37419
-3.77997
-5.9443
-8.06404
-7.49704
-6.73508
-8.0427
-9.02977
-7.8181
-9.7504
-10.7369
-8.14807
-9.63825
-10.3994
-8.77416
-10.0588
-6.19559
-8.09697
-9.16177
3.37047
-5.90045
-8.57718
5.35676
-15.519
-16.9394
-28.7895
-18.4304
-14.3039
-79.3536
-32.3898
-32.2857
19006
773.313
-84.5207
-3.37871
-3.72251
-6.1692
-2.72368
-4.14516
-4.67051
-4.77723
-0.585669
1358.35
188.722
7119.21
3247.84
11596.9
14256.4
107.285
14387.1
7198.18
-142.969
-0.0607488
-0.0382224
-0.0134467
-0.0650189
-0.0410369
-0.0142165
-0.0740545
-0.047168
-0.0155103
-0.0887622
-0.0581188
-0.0166549
-0.109691
-0.0775242
-0.0153435
-0.132765
-0.115187
-0.00779739
-0.14249
-0.19063
0.0128049
-0.122716
-0.323448
0.0382444
-0.0919146
-0.520465
0.024932
-0.0779866
-0.757562
-0.231484
-0.817266
-1.02715
-0.227335
0.140703
-1.51149
-2.5594
)
;
    }
    water_back_surface
    {
        type            fixedFluxPressure;
        gradient        uniform 0;
        value           nonuniform List<scalar> 
186
(
17565
17169.2
16289.5
15708.4
15543.6
15478.8
15496
16002
17322.7
20271.1
24814.8
29141.9
13455.8
8216.08
7926.95
8977.1
10290.7
10502.6
10152.7
8863.5
6198.13
8661.67
21189.7
32857.9
-15.9931
-10.8728
-13.0454
-24.5365
-33.0912
-29.7752
-10.1635
93.44
240.831
558.764
5580.25
29905.5
-5.26373
1.63998
3.29217
-0.852335
-7.22091
-10.9461
-9.82198
-13.8278
2.12814
35.2524
192.861
28233.7
-0.107389
-0.112002
-0.121249
-0.135149
-0.153945
-0.178288
-0.208717
-0.24274
-0.269568
-0.308088
-0.352417
-0.389831
-0.102928
-0.107965
-0.118212
-0.133951
-0.155897
-0.18581
-0.228423
-0.302176
-0.425894
-0.554931
-0.64734
-0.676015
-0.0936438
-0.0988947
-0.10973
-0.126725
-0.150699
-0.181642
-0.2126
-0.213388
-0.178145
-0.149059
-0.158638
0.0393538
-0.0795179
-0.0846475
-0.0953889
-0.112749
-0.138533
-0.177109
-0.244195
-0.381628
-0.576497
-0.790991
-1.04766
-1.43064
-5.24669
-6.37198
-7.37432
-3.77961
-5.94431
-8.06394
-7.4973
-6.73547
-8.04249
-9.03063
-7.8186
-9.75018
-10.7376
-8.14832
-9.63814
-10.4
-8.77421
-10.0587
-6.19686
-8.09741
-9.16093
3.37128
-5.90085
-8.57583
5.35482
-15.5222
-16.9475
-28.7927
-18.4178
-14.2849
-79.3648
-32.3494
-32.2777
19018.9
788.581
-84.5699
-3.36796
-3.72022
-6.18737
-2.71765
-4.21289
-4.71876
-4.71263
-0.102295
1359.94
188.747
7109.5
3245.44
11548.8
14202.7
103.469
14403.6
7190.35
-142.421
-0.060759
-0.0382393
-0.0134546
-0.0650422
-0.0410616
-0.014226
-0.0740809
-0.0471886
-0.0155169
-0.0888051
-0.0581406
-0.0166622
-0.109775
-0.0775578
-0.0153548
-0.13286
-0.115233
-0.00780701
-0.142491
-0.190662
0.0128105
-0.122483
-0.32344
0.0382917
-0.091648
-0.520536
0.0249719
-0.078137
-0.758034
-0.231351
-0.818167
-1.02841
-0.22815
0.137493
-1.51477
-2.56202
)
;
    }
    water_left_surface
    {
        type            fixedFluxPressure;
        gradient        uniform 0;
        value           nonuniform List<scalar> 
42
(
17565.1
17565.1
17565.1
17565.1
17565.1
17565
13456
13455.8
13455.8
13455.9
13455.9
13455.8
-15.9935
-15.9928
-15.9927
-15.9925
-15.9925
-15.9931
-5.26462
-5.26441
-5.26409
-5.26382
-5.26367
-5.26373
-5.24738
-5.24714
-5.24695
-5.24688
-5.24677
-5.24669
-6.37219
-6.3721
-6.37203
-6.37201
-6.372
-6.37198
-7.37419
-7.37436
-7.37441
-7.37442
-7.37443
-7.37432
)
;
    }
    water_right_surface
    {
        type            fixedFluxPressure;
        gradient        uniform 0;
        value           nonuniform List<scalar> 
42
(
-0.1074
-0.107399
-0.107397
-0.107394
-0.107391
-0.107389
-0.102945
-0.102939
-0.102935
-0.102932
-0.102929
-0.102928
-0.0936577
-0.0936488
-0.0936446
-0.0936428
-0.0936426
-0.0936438
-0.079522
-0.0795121
-0.0795096
-0.0795106
-0.0795138
-0.0795179
-0.0607488
-0.0607433
-0.0607431
-0.0607467
-0.0607526
-0.060759
-0.0382224
-0.0382208
-0.0382226
-0.0382269
-0.0382329
-0.0382393
-0.0134467
-0.0134466
-0.0134476
-0.0134492
-0.0134516
-0.0134546
)
;
    }
    water_top_surface
    {
        type            totalPressure;
        rho             rho;
        psi             none;
        gamma           1;
        p0              uniform 0;
        value           nonuniform List<scalar> 
180
(
-7.96426
-7.96492
-7.96491
-7.96489
-7.96499
-7.96448
-8.85701
-8.8577
-8.85759
-8.85754
-8.85754
-8.85686
-7.76526
-7.76571
-7.76556
-7.76547
-7.76541
-7.76481
-9.38353
-9.38399
-9.38376
-9.38365
-9.38365
-9.38305
-7.87228
-7.87262
-7.87248
-7.87245
-7.87257
-7.87214
-8.57586
-8.57641
-8.57643
-8.57647
-8.57656
-8.57598
-8.57717
-8.57797
-8.57792
-8.57778
-8.57747
-8.57655
-9.44671
-9.44729
-9.44707
-9.44691
-9.44681
-9.44564
-11.9291
-11.9301
-11.9289
-11.9285
-11.9278
-11.9287
0
0
0
0
0
0
0
0
0
0
0
0
0
0
0
0
0
0
0
0
0
0
0
0
0
0
0
0
0
0
0
0
0
0
0
0
0
0
0
0
0
0
0
0
0
0
0
0
0
0
0
0
0
0
-0.000338885
-0.000338898
-0.000338896
-0.000338899
-0.000338906
-0.000338893
-0.000384521
-0.00038453
-0.000384529
-0.000384538
-0.000384555
-0.000384554
-0.000487999
-0.000488005
-0.000488015
-0.000488045
-0.000488092
-0.000488124
-0.000680331
-0.000680373
-0.000680432
-0.000680527
-0.000680654
-0.000680771
-0.00101709
-0.00101732
-0.00101753
-0.00101779
-0.00101807
-0.00101832
-0.00162681
-0.00162758
-0.0016281
-0.00162857
-0.00162897
-0.00162914
-0.00274023
-0.00274177
-0.00274238
-0.00274262
-0.00274237
-0.00274132
-0.00508687
-0.00508786
-0.00508683
-0.00508494
-0.00508191
-0.00507731
-0.0106149
-0.0106109
-0.0106054
-0.0105995
-0.0105929
-0.0105873
-0.02737
-0.0273595
-0.0273535
-0.027353
-0.0273739
-0.027338
-0.120784
-0.12083
-0.120846
-0.120939
-0.121638
-0.120248
-0.759828
-0.759802
-0.760775
-0.759287
-0.759059
-0.761191
)
;
    }
}


// ************************************************************************* //
