/*--------------------------------*- C++ -*----------------------------------*\
| =========                 |                                                 |
| \\      /  F ield         | OpenFOAM: The Open Source CFD Toolbox           |
|  \\    /   O peration     | Version:  v1612+                                |
|   \\  /    A nd           | Web:      www.OpenFOAM.com                      |
|    \\/     M anipulation  |                                                 |
\*---------------------------------------------------------------------------*/
FoamFile
{
    version     2.0;
    format      ascii;
    class       volVectorField;
    location    "2.65";
    object      U;
}
// * * * * * * * * * * * * * * * * * * * * * * * * * * * * * * * * * * * * * //

dimensions      [0 1 -1 0 0 0 0];

internalField   nonuniform List<vector> 
1116
(
(0.545747 -1.05707e-05 -0.511941)
(0.545743 -2.0917e-06 -0.511962)
(0.545742 -5.35795e-06 -0.511952)
(0.545751 -3.14092e-06 -0.511953)
(0.545753 -1.02333e-05 -0.511965)
(0.545728 4.05889e-06 -0.511947)
(1.70581 -9.18663e-06 -0.387203)
(1.70581 -3.87073e-07 -0.38723)
(1.70581 -8.86588e-06 -0.38722)
(1.70582 -5.81737e-06 -0.387222)
(1.70582 -5.50353e-06 -0.387235)
(1.70581 1.10184e-05 -0.387213)
(2.63384 -8.67632e-06 -0.197947)
(2.63386 -1.45703e-06 -0.197974)
(2.63386 -5.9189e-06 -0.197964)
(2.63386 -6.02455e-06 -0.197965)
(2.63387 -2.72819e-06 -0.197977)
(2.63385 1.01411e-05 -0.197953)
(3.33204 -8.65089e-06 -0.124168)
(3.33207 -2.20931e-06 -0.124189)
(3.33207 -5.1088e-06 -0.124181)
(3.33207 -6.55183e-06 -0.124182)
(3.33207 -3.78471e-06 -0.124191)
(3.33205 7.68816e-06 -0.124169)
(3.82572 -9.27106e-06 -0.109884)
(3.82575 -3.53783e-06 -0.109898)
(3.82575 -7.77214e-06 -0.109892)
(3.82575 -7.77293e-06 -0.109893)
(3.82575 -5.26459e-06 -0.109902)
(3.82572 7.14923e-06 -0.109882)
(4.20695 -1.03463e-05 -0.0793066)
(4.20699 -5.44714e-06 -0.0793163)
(4.207 -1.08596e-05 -0.0793115)
(4.20699 -8.52104e-06 -0.0793134)
(4.20699 -6.27139e-06 -0.0793221)
(4.20695 6.94635e-06 -0.079302)
(4.53354 -1.25884e-05 -0.0022231)
(4.53358 -7.79822e-06 -0.00222876)
(4.53358 -1.15157e-05 -0.00222527)
(4.53357 -8.51407e-06 -0.00222771)
(4.53357 -6.60098e-06 -0.00223768)
(4.53352 6.36555e-06 -0.00221923)
(4.78747 -1.04978e-05 0.122657)
(4.78749 -4.89226e-06 0.122643)
(4.78749 -7.4218e-06 0.122649)
(4.78749 -4.48703e-06 0.122646)
(4.78748 -5.10251e-06 0.122634)
(4.78743 4.92132e-06 0.122655)
(4.8854 -7.89461e-06 0.450537)
(4.88546 -1.40907e-07 0.450524)
(4.88545 -4.13508e-07 0.450529)
(4.88544 -3.29537e-07 0.450528)
(4.88545 -2.7783e-06 0.450517)
(4.88537 4.35237e-06 0.450536)
(4.27054 -8.03916e-06 0.926165)
(4.27065 2.77409e-06 0.92617)
(4.27062 5.83573e-06 0.926164)
(4.27061 3.60191e-06 0.92616)
(4.27063 -3.25735e-07 0.92615)
(4.27052 4.04833e-06 0.926156)
(2.31482 1.13006e-06 1.08059)
(2.31492 9.46824e-07 1.08062)
(2.31492 -5.20349e-06 1.0806)
(2.31491 5.76862e-06 1.08059)
(2.31495 -1.25513e-06 1.08059)
(2.3148 1.74956e-07 1.08056)
(0.21931 -2.97537e-05 0.187479)
(0.219403 -3.73836e-05 0.187466)
(0.219394 -2.03694e-05 0.187465)
(0.219392 -2.02711e-05 0.187458)
(0.219452 8.81909e-06 0.187452)
(0.219307 2.29282e-05 0.187453)
(0.087677 1.54042e-05 -1.85269)
(0.0876442 -3.0746e-06 -1.85272)
(0.0876742 -8.02179e-06 -1.85271)
(0.0876619 -1.68006e-05 -1.85271)
(0.08764 7.0864e-06 -1.85274)
(0.0877074 -7.76976e-06 -1.85271)
(1.80123 4.3449e-05 -2.12415)
(1.80124 2.90721e-07 -2.12419)
(1.80124 -1.17907e-05 -2.12418)
(1.80124 -1.73882e-05 -2.12419)
(1.80125 -2.56688e-06 -2.12422)
(1.80123 -3.5969e-05 -2.12418)
(3.01854 4.40347e-05 -1.57669)
(3.01859 3.48529e-06 -1.57674)
(3.01856 -9.86499e-06 -1.57672)
(3.01857 -1.04777e-05 -1.57673)
(3.0186 -7.58725e-06 -1.57676)
(3.01853 -3.90694e-05 -1.57671)
(3.7434 3.86844e-05 -1.12144)
(3.74348 9.12847e-06 -1.12149)
(3.74344 -2.84653e-06 -1.12147)
(3.74344 -1.75696e-06 -1.12147)
(3.74349 -6.12531e-06 -1.1215)
(3.7434 -3.35757e-05 -1.12145)
(4.2969 3.39909e-05 -0.857594)
(4.29701 1.46812e-05 -0.857632)
(4.29696 8.52221e-06 -0.857614)
(4.29696 9.04471e-06 -0.857619)
(4.29702 -4.34023e-07 -0.857646)
(4.29691 -2.73427e-05 -0.857602)
(4.83571 3.05395e-05 -0.722391)
(4.83585 1.79268e-05 -0.722425)
(4.83579 1.78918e-05 -0.72241)
(4.83579 1.71473e-05 -0.722418)
(4.83585 8.01484e-06 -0.722442)
(4.83574 -1.95611e-05 -0.722404)
(5.35135 2.9904e-05 -0.638831)
(5.35153 2.25415e-05 -0.638868)
(5.35147 2.80399e-05 -0.638856)
(5.35148 2.5311e-05 -0.638862)
(5.35153 1.9695e-05 -0.638885)
(5.35144 -9.80949e-06 -0.63885)
(6.11243 3.21478e-05 -0.533748)
(6.11271 2.66815e-05 -0.5338)
(6.11263 3.65882e-05 -0.533785)
(6.11265 3.1177e-05 -0.533789)
(6.11271 2.75419e-05 -0.533809)
(6.1126 -5.77395e-06 -0.533774)
(6.71411 3.5469e-05 0.103558)
(6.71439 2.72806e-05 0.103474)
(6.71431 3.29376e-05 0.1035)
(6.71432 2.85726e-05 0.103505)
(6.71435 1.87431e-05 0.103486)
(6.71426 -1.44964e-05 0.103532)
(6.56172 3.99813e-05 1.38021)
(6.56202 2.96316e-05 1.38012)
(6.56193 1.77594e-05 1.38014)
(6.56194 1.84198e-05 1.38015)
(6.56198 -3.09433e-06 1.38014)
(6.56184 -2.97534e-05 1.38018)
(4.84712 4.61079e-05 2.67063)
(4.84751 3.20888e-05 2.67066)
(4.84741 5.37805e-06 2.67063)
(4.8474 1.93109e-05 2.67064)
(4.84747 -2.39718e-06 2.67063)
(4.84724 -2.24361e-05 2.67065)
(1.50301 -5.13139e-05 2.0879)
(1.50331 -5.19399e-05 2.08792)
(1.50323 1.86306e-06 2.08791)
(1.50322 -1.04147e-05 2.08791)
(1.50328 2.98631e-05 2.08794)
(1.50307 3.82389e-05 2.08786)
(-0.473464 0.000109541 -2.92347)
(-0.473482 -0.000122003 -2.92339)
(-0.473375 6.72451e-05 -2.92344)
(-0.473553 -0.000110479 -2.92352)
(-0.473634 0.000232929 -2.92348)
(-0.47308 -1.99677e-05 -2.92347)
(3.00914 9.08164e-05 -3.60541)
(3.00917 -0.00015655 -3.60529)
(3.00921 9.88041e-05 -3.60532)
(3.00911 -5.38526e-05 -3.60542)
(3.0091 0.000151638 -3.60539)
(3.00927 -0.000120559 -3.60534)
(7.02955 6.48778e-05 -2.946)
(7.0295 -0.000129522 -2.94588)
(7.02943 6.66632e-05 -2.94592)
(7.02941 -2.4014e-05 -2.94596)
(7.02946 0.000116662 -2.94592)
(7.0295 -8.78531e-05 -2.94599)
(10.9207 6.0875e-05 -2.18698)
(10.9206 -5.80411e-05 -2.18687)
(10.9206 0.000131181 -2.1869)
(10.9206 5.91628e-05 -2.18691)
(10.9206 0.000178801 -2.18688)
(10.9206 -1.80041e-05 -2.18698)
(14.7131 9.45982e-05 -1.85813)
(14.7132 4.16877e-05 -1.85806)
(14.7132 0.000223995 -1.85807)
(14.7132 0.000153463 -1.85805)
(14.7133 0.000273062 -1.85801)
(14.7134 5.88906e-05 -1.85811)
(18.4003 6.29921e-05 -1.67106)
(18.4003 4.58304e-05 -1.67103)
(18.4004 0.000252314 -1.67103)
(18.4005 0.00015679 -1.671)
(18.4005 0.000307504 -1.67096)
(18.4008 0.000123682 -1.67102)
(20.5908 3.5122e-06 -1.4579)
(20.5908 1.092e-05 -1.45793)
(20.591 0.000254236 -1.45792)
(20.5911 0.000112647 -1.45787)
(20.5909 0.000272824 -1.45783)
(20.5915 0.000135115 -1.45781)
(24.3948 -2.15113e-06 -0.246792)
(24.3947 7.49518e-06 -0.246804)
(24.395 0.000215951 -0.246789)
(24.3952 2.19263e-06 -0.246743)
(24.395 5.69708e-05 -0.246686)
(24.3956 -2.40163e-05 -0.246667)
(16.3886 2.44115e-05 1.63398)
(16.3889 -3.16787e-05 1.63404)
(16.389 2.98374e-05 1.63404)
(16.389 -5.65494e-05 1.63407)
(16.3888 -3.81171e-05 1.63411)
(16.3891 -8.45188e-05 1.63408)
(9.86302 3.76096e-05 3.38418)
(9.86333 -9.73743e-06 3.38431)
(9.8633 1.35334e-06 3.38425)
(9.86335 -1.95356e-05 3.38428)
(9.86335 -4.556e-05 3.38435)
(9.86339 -8.06405e-05 3.38426)
(4.4278 8.32148e-05 5.30421)
(4.42805 4.70113e-05 5.30447)
(4.42798 -1.72669e-06 5.30436)
(4.42797 1.96556e-05 5.30437)
(4.428 -2.2674e-05 5.30442)
(4.42788 -5.48021e-05 5.30433)
(1.62723 -2.71019e-05 4.06746)
(1.62758 -2.07838e-05 4.06762)
(1.62748 1.82298e-05 4.06758)
(1.62748 8.66187e-06 4.06758)
(1.62746 1.85332e-05 4.06758)
(1.62738 8.97368e-06 4.06752)
(0.0673515 -2.12656e-05 -3.39372)
(0.0673613 -0.000130946 -3.39377)
(0.0673947 6.72731e-05 -3.39385)
(0.0672907 -3.18293e-05 -3.39393)
(0.0672487 0.000142141 -3.39384)
(0.0674986 2.14719e-05 -3.39373)
(0.65517 -9.22973e-05 -5.3616)
(0.655047 -8.34906e-05 -5.36176)
(0.654984 1.14019e-05 -5.36174)
(0.654971 2.04238e-05 -5.36176)
(0.654996 8.97402e-06 -5.36174)
(0.655118 1.86367e-05 -5.36144)
(-1.80217 -6.73663e-05 -5.96078)
(-1.80252 -7.01683e-06 -5.96096)
(-1.80262 2.84736e-05 -5.96096)
(-1.80261 3.25356e-05 -5.96095)
(-1.80255 3.44467e-05 -5.96095)
(-1.80233 7.7709e-05 -5.96073)
(-2.7104 -2.70893e-05 -5.88211)
(-2.71061 5.14486e-05 -5.88245)
(-2.71059 0.000109539 -5.88241)
(-2.71057 8.32882e-05 -5.88239)
(-2.71053 0.00010746 -5.8824)
(-2.71037 0.000102323 -5.88205)
(-3.75956 -8.93207e-05 -5.41257)
(-3.75978 -5.86167e-05 -5.41296)
(-3.75959 7.82028e-06 -5.41287)
(-3.75949 -7.56017e-06 -5.4128)
(-3.75943 8.98604e-05 -5.41279)
(-3.75912 0.000129163 -5.41231)
(-4.27256 -0.000169738 -5.29827)
(-4.27293 -0.000242407 -5.2987)
(-4.27274 -0.000235218 -5.29859)
(-4.2727 -0.000221622 -5.29849)
(-4.27279 -3.61916e-05 -5.29856)
(-4.27225 0.000104654 -5.29784)
(-3.36479 -0.000138842 -4.21193)
(-3.36558 -0.000211848 -4.21244)
(-3.36526 -0.000266434 -4.21224)
(-3.36523 -0.000242991 -4.21206)
(-3.3656 -0.000176319 -4.21221)
(-3.36449 -6.92268e-05 -4.21147)
(-1.95396 1.80124e-06 -0.0758707)
(-1.95488 2.52177e-06 -0.0763023)
(-1.95446 -0.000136939 -0.075975)
(-1.95436 -4.6935e-05 -0.075693)
(-1.95475 -0.000346392 -0.0756409)
(-1.95392 -0.000419425 -0.0758627)
(9.88933 3.79431e-05 10.2186)
(9.88956 1.4731e-05 10.2185)
(9.88965 -5.64874e-05 10.2186)
(9.8897 2.676e-05 10.2187)
(9.89033 -0.000408346 10.2191)
(9.88901 -0.000639369 10.2187)
(11.0913 9.53793e-05 14.1512)
(11.0916 5.16236e-05 14.1515)
(11.0917 3.46634e-05 14.1515)
(11.0917 0.000121872 14.1515)
(11.0919 1.71248e-05 14.1516)
(11.0916 -0.000195342 14.1515)
(4.90901 0.000104447 9.78736)
(4.90958 6.49423e-05 9.78802)
(4.90949 1.46557e-05 9.78779)
(4.90952 1.63177e-06 9.78784)
(4.91 -1.21788e-06 9.788)
(4.9091 -3.74782e-05 9.78765)
(2.93957 1.36994e-05 5.06327)
(2.93978 4.79674e-06 5.06339)
(2.93978 5.85141e-06 5.06337)
(2.93978 0.000150094 5.06334)
(2.93983 -0.000115992 5.06352)
(2.93966 -0.000258656 5.06312)
(-0.00261573 -9.83603e-07 -0.0026471)
(-0.00261549 -2.05719e-06 -0.00264703)
(-0.00261508 -2.0309e-06 -0.00264698)
(-0.00261461 -1.93461e-06 -0.00264695)
(-0.00261408 -1.58885e-06 -0.00264693)
(-0.00261342 -6.12265e-07 -0.00264684)
(-0.00792603 -6.5951e-07 -0.00272267)
(-0.00792477 -2.07052e-06 -0.00272139)
(-0.00792314 -2.98456e-06 -0.00272109)
(-0.00792134 -3.30751e-06 -0.00272112)
(-0.00791938 -2.92257e-06 -0.00272138)
(-0.00791695 -1.23663e-06 -0.00272187)
(-0.0134616 -5.22113e-07 -0.00286289)
(-0.0134574 -3.02e-06 -0.00285879)
(-0.0134531 -5.84739e-06 -0.00285777)
(-0.0134487 -7.01133e-06 -0.00285786)
(-0.0134441 -6.50186e-06 -0.00285863)
(-0.0134384 -2.89025e-06 -0.00286006)
(-0.019375 -1.66259e-06 -0.00308126)
(-0.0193643 -7.2416e-06 -0.00307444)
(-0.0193546 -1.28748e-05 -0.00307313)
(-0.0193457 -1.49554e-05 -0.00307389)
(-0.0193366 -1.38427e-05 -0.00307613)
(-0.0193254 -6.23659e-06 -0.00308001)
(-0.0258831 -5.91216e-06 -0.00340465)
(-0.0258599 -1.78472e-05 -0.00339909)
(-0.0258421 -2.60654e-05 -0.00339954)
(-0.0258274 -2.7984e-05 -0.00340251)
(-0.0258132 -2.48439e-05 -0.00340757)
(-0.0257946 -1.10498e-05 -0.00341532)
(-0.0332177 -1.59967e-05 -0.00398053)
(-0.0331759 -3.73805e-05 -0.00398716)
(-0.0331496 -4.34796e-05 -0.00399436)
(-0.0331312 -4.15599e-05 -0.00400238)
(-0.0331147 -3.38759e-05 -0.00401193)
(-0.0330899 -1.44826e-05 -0.00402414)
(-0.041289 -2.9234e-05 -0.00496315)
(-0.041228 -5.73447e-05 -0.00500007)
(-0.0412005 -5.19135e-05 -0.00502026)
(-0.0411883 -4.07717e-05 -0.005035)
(-0.0411801 -2.73694e-05 -0.00504733)
(-0.0411593 -1.04918e-05 -0.00505872)
(-0.0490336 -3.38617e-05 -0.00582827)
(-0.0489642 -5.09776e-05 -0.00590837)
(-0.0489523 -2.15475e-05 -0.00594136)
(-0.0489625 2.77728e-06 -0.00595711)
(-0.0489793 1.96315e-05 -0.0059617)
(-0.0489824 1.22874e-05 -0.00595648)
(-0.0561207 -1.33871e-05 -0.00439058)
(-0.0560623 1.10883e-05 -0.00449719)
(-0.0560788 6.781e-05 -0.00452594)
(-0.0561259 9.79061e-05 -0.00452089)
(-0.056186 0.000106037 -0.0044915)
(-0.056243 5.13102e-05 -0.00443847)
(-0.0584612 2.49197e-05 0.000228114)
(-0.0584501 0.000100104 0.00015929)
(-0.0584974 0.000174113 0.000163821)
(-0.0585716 0.000204386 0.000196149)
(-0.0586665 0.000197229 0.000253665)
(-0.0587859 9.15132e-05 0.00034393)
(-0.0559114 7.07603e-05 0.00242955)
(-0.0559497 0.000167109 0.00247338)
(-0.0559925 0.000202315 0.00251163)
(-0.0560444 0.000206971 0.00255365)
(-0.0561258 0.00018457 0.00261274)
(-0.0562724 8.34199e-05 0.00270806)
(-0.0295839 2.88871e-05 0.00974012)
(-0.0296097 4.22592e-05 0.00979632)
(-0.0296182 1.9781e-05 0.00980448)
(-0.0296251 4.65155e-06 0.00980499)
(-0.029651 -9.40239e-06 0.00981617)
(-0.0297232 -8.28275e-06 0.0098536)
(-0.00264946 -9.3824e-07 -0.00782227)
(-0.00264865 -1.94832e-06 -0.00782205)
(-0.00264798 -1.90371e-06 -0.00782182)
(-0.00264739 -1.67395e-06 -0.00782164)
(-0.00264688 -1.16005e-06 -0.0078215)
(-0.00264632 -3.36201e-07 -0.00782123)
(-0.00806586 -1.39393e-06 -0.00809102)
(-0.00806277 -3.08648e-06 -0.00808848)
(-0.00806031 -3.31371e-06 -0.00808765)
(-0.00805816 -3.05095e-06 -0.0080875)
(-0.00805627 -2.20383e-06 -0.00808791)
(-0.00805414 -7.75576e-07 -0.00808883)
(-0.0138122 -2.74855e-06 -0.00859126)
(-0.0138047 -6.14355e-06 -0.00858341)
(-0.0137991 -6.88691e-06 -0.00858115)
(-0.0137944 -6.53189e-06 -0.00858101)
(-0.0137901 -5.08121e-06 -0.00858245)
(-0.0137851 -2.04293e-06 -0.00858548)
(-0.0200701 -5.36341e-06 -0.00933219)
(-0.0200539 -1.18473e-05 -0.00931984)
(-0.0200427 -1.31259e-05 -0.0093172)
(-0.0200339 -1.23901e-05 -0.00931846)
(-0.0200259 -9.80523e-06 -0.00932301)
(-0.0200163 -4.05749e-06 -0.00933138)
(-0.0269081 -9.91059e-06 -0.0102663)
(-0.0268756 -2.06365e-05 -0.0102586)
(-0.0268561 -2.10727e-05 -0.0102605)
(-0.0268423 -1.88116e-05 -0.0102667)
(-0.0268301 -1.43027e-05 -0.0102774)
(-0.0268144 -5.83175e-06 -0.0102941)
(-0.0342715 -1.51658e-05 -0.0112284)
(-0.034211 -2.84394e-05 -0.01125)
(-0.0341814 -2.41549e-05 -0.0112673)
(-0.0341648 -1.82763e-05 -0.0112846)
(-0.0341522 -1.18235e-05 -0.0113044)
(-0.0341337 -4.40838e-06 -0.0113294)
(-0.0423994 -1.68662e-05 -0.0117066)
(-0.0422968 -2.31368e-05 -0.0117924)
(-0.0422601 -5.34888e-06 -0.0118367)
(-0.0422494 7.71495e-06 -0.0118677)
(-0.0422491 1.47373e-05 -0.0118917)
(-0.0422437 7.98283e-06 -0.0119111)
(-0.052206 -8.36445e-06 -0.0110886)
(-0.0520629 1.14956e-05 -0.0112485)
(-0.0520322 5.3907e-05 -0.0113106)
(-0.052048 7.60982e-05 -0.0113368)
(-0.0520875 7.9377e-05 -0.0113383)
(-0.0521326 3.73688e-05 -0.011313)
(-0.0624553 1.69469e-05 -0.00992091)
(-0.0623194 7.79028e-05 -0.0100974)
(-0.0623201 0.000144437 -0.0101312)
(-0.0623771 0.000174857 -0.0101079)
(-0.0624696 0.00016976 -0.0100399)
(-0.062592 7.84427e-05 -0.00991683)
(-0.0622877 5.81374e-05 -0.00199422)
(-0.0622227 0.000137175 -0.00207167)
(-0.0622797 0.000159958 -0.0020176)
(-0.06239 0.000152498 -0.00191047)
(-0.0625454 0.000123038 -0.00175388)
(-0.062757 5.13484e-05 -0.00153161)
(-0.0566472 4.05085e-05 0.0127803)
(-0.0567357 6.29862e-05 0.0129605)
(-0.0568628 2.76285e-05 0.0130904)
(-0.0570186 -6.87252e-06 0.0132139)
(-0.0572145 -3.68587e-05 0.0133597)
(-0.0574668 -2.4796e-05 0.0135603)
(-0.0383204 -3.6752e-05 0.0520847)
(-0.0384161 -0.000122311 0.0522544)
(-0.0384952 -0.000188899 0.0523151)
(-0.0385762 -0.000206895 0.0523498)
(-0.0386759 -0.000193227 0.0523976)
(-0.0387995 -9.02331e-05 0.0524789)
(-0.00256511 -5.10093e-07 -0.0128645)
(-0.00256455 -1.16354e-06 -0.0128644)
(-0.00256416 -1.18296e-06 -0.0128641)
(-0.00256386 -9.27218e-07 -0.0128638)
(-0.00256371 -5.06958e-07 -0.0128636)
(-0.00256361 -6.89105e-08 -0.0128632)
(-0.00785492 -1.02113e-06 -0.0134085)
(-0.00785287 -2.14443e-06 -0.0134064)
(-0.00785147 -2.05685e-06 -0.0134055)
(-0.00785045 -1.59286e-06 -0.0134052)
(-0.0078499 -8.20666e-07 -0.0134055)
(-0.00784956 -1.62822e-07 -0.0134063)
(-0.0136169 -2.21815e-06 -0.0144419)
(-0.0136121 -4.38135e-06 -0.0144355)
(-0.0136091 -3.99264e-06 -0.0144333)
(-0.0136071 -3.03292e-06 -0.014433)
(-0.013606 -1.66027e-06 -0.0144345)
(-0.0136055 -4.5755e-07 -0.0144376)
(-0.0201749 -4.1833e-06 -0.0159723)
(-0.0201641 -7.77733e-06 -0.0159634)
(-0.0201585 -6.40378e-06 -0.0159614)
(-0.0201554 -4.45073e-06 -0.0159628)
(-0.0201543 -2.10547e-06 -0.0159677)
(-0.0201544 -4.64031e-07 -0.0159766)
(-0.0279129 -6.75402e-06 -0.0178616)
(-0.0278899 -1.1037e-05 -0.0178612)
(-0.027881 -6.62033e-06 -0.0178653)
(-0.0278779 -2.65865e-06 -0.0178727)
(-0.0278787 9.09129e-07 -0.0178845)
(-0.0278818 1.2278e-06 -0.0179022)
(-0.0372357 -7.80675e-06 -0.0197193)
(-0.037191 -8.1437e-06 -0.0197554)
(-0.0371793 3.57302e-06 -0.019778)
(-0.0371803 1.08234e-05 -0.0197979)
(-0.0371895 1.43314e-05 -0.019819)
(-0.0372037 7.39973e-06 -0.019843)
(-0.0476767 -2.29502e-07 -0.020518)
(-0.0476035 1.58023e-05 -0.0206244)
(-0.0475951 3.90674e-05 -0.0206761)
(-0.0476111 4.88712e-05 -0.0207087)
(-0.0476429 4.80635e-05 -0.0207296)
(-0.0476875 2.21989e-05 -0.0207375)
(-0.056386 2.73033e-05 -0.0164633)
(-0.0562973 7.75573e-05 -0.0166325)
(-0.0563075 0.000107224 -0.0166925)
(-0.0563566 0.000110999 -0.0167085)
(-0.0564327 9.53295e-05 -0.0166886)
(-0.0565387 4.12472e-05 -0.0166239)
(-0.0666048 6.7186e-05 -0.0021706)
(-0.0665513 0.000147608 -0.00230567)
(-0.0666111 0.00015594 -0.00230682)
(-0.0667218 0.000134324 -0.0022516)
(-0.0668721 9.4468e-05 -0.00214238)
(-0.0670681 3.57195e-05 -0.00196366)
(-0.0781073 6.91946e-05 0.0318308)
(-0.0781839 0.000133541 0.0318579)
(-0.0783173 0.000114505 0.0319635)
(-0.0784839 7.84161e-05 0.0321013)
(-0.0786791 3.3249e-05 0.0322821)
(-0.0789011 4.93906e-06 0.0325102)
(-0.0949019 2.16634e-05 0.0759287)
(-0.0951336 -4.14622e-06 0.0761786)
(-0.0953002 -7.83792e-05 0.0763106)
(-0.0954477 -0.000117561 0.076401)
(-0.0955824 -0.000129006 0.0764983)
(-0.0956864 -6.35938e-05 0.0765986)
(-0.0818198 -7.68457e-05 0.156235)
(-0.0819783 -0.000197136 0.156463)
(-0.0820784 -0.000255868 0.156587)
(-0.0821496 -0.000252891 0.156647)
(-0.0822203 -0.000183994 0.156765)
(-0.0822167 -6.82319e-05 0.156719)
(-0.00233098 -2.47025e-07 -0.0175402)
(-0.00233042 -5.99102e-07 -0.0175404)
(-0.00233022 -5.57407e-07 -0.0175401)
(-0.00233017 -2.88508e-07 -0.0175399)
(-0.00233028 -3.99107e-09 -0.0175398)
(-0.0023304 1.13001e-07 -0.0175393)
(-0.00719091 -7.2842e-07 -0.0184567)
(-0.00718899 -1.24184e-06 -0.0184556)
(-0.00718833 -7.16844e-07 -0.018455)
(-0.00718828 -1.20719e-07 -0.0184548)
(-0.00718872 4.13087e-07 -0.0184551)
(-0.00718924 3.26786e-07 -0.0184555)
(-0.0126692 -1.52245e-06 -0.0202518)
(-0.0126651 -2.16596e-06 -0.0202481)
(-0.0126641 -5.83137e-07 -0.0202468)
(-0.0126644 6.83693e-07 -0.0202468)
(-0.0126657 1.5521e-06 -0.0202483)
(-0.0126673 9.23263e-07 -0.0202506)
(-0.019267 -1.96387e-06 -0.0229933)
(-0.0192593 -1.67806e-06 -0.022989)
(-0.0192584 1.76694e-06 -0.0229886)
(-0.0192602 3.88813e-06 -0.0229906)
(-0.0192638 4.99964e-06 -0.0229952)
(-0.0192677 2.58472e-06 -0.0230021)
(-0.0275496 -1.75619e-07 -0.0266514)
(-0.0275365 3.85741e-06 -0.0266562)
(-0.0275368 1.01682e-05 -0.0266622)
(-0.0275424 1.32538e-05 -0.0266702)
(-0.0275511 1.34872e-05 -0.0266812)
(-0.0275606 6.36244e-06 -0.026695)
(-0.0382759 6.92714e-06 -0.0311686)
(-0.0382545 2.08005e-05 -0.0312052)
(-0.0382581 3.06963e-05 -0.0312286)
(-0.0382715 3.35637e-05 -0.0312492)
(-0.0382905 3.00494e-05 -0.0312692)
(-0.038313 1.33135e-05 -0.0312872)
(-0.0542049 2.16364e-05 -0.0368759)
(-0.054176 5.22399e-05 -0.0369688)
(-0.0541871 6.3823e-05 -0.0370171)
(-0.0542149 6.33515e-05 -0.0370496)
(-0.0542552 5.20595e-05 -0.0370687)
(-0.0543083 2.19471e-05 -0.0370689)
(-0.0797042 3.76795e-05 -0.042836)
(-0.079694 8.13973e-05 -0.0429678)
(-0.0797289 8.67981e-05 -0.0430172)
(-0.0797846 7.85499e-05 -0.0430313)
(-0.0798625 5.86986e-05 -0.0430104)
(-0.0799676 2.3199e-05 -0.0429431)
(-0.116943 4.04508e-05 -0.0488682)
(-0.117022 7.07167e-05 -0.0489446)
(-0.117108 4.86872e-05 -0.0489317)
(-0.117197 2.52447e-05 -0.0488756)
(-0.117308 -8.22881e-07 -0.0487746)
(-0.117443 -7.6528e-06 -0.0486179)
(-0.143786 8.54101e-06 -0.043403)
(-0.143983 -2.74636e-05 -0.0433255)
(-0.144086 -0.000102225 -0.0432334)
(-0.144147 -0.000136134 -0.0431329)
(-0.14421 -0.000146689 -0.0430189)
(-0.144254 -7.70966e-05 -0.0428827)
(-0.169952 -0.000110635 -0.00780036)
(-0.170206 -0.000267674 -0.00758931)
(-0.170243 -0.000339112 -0.00750666)
(-0.170169 -0.00032544 -0.00747157)
(-0.170141 -0.000281475 -0.0074511)
(-0.16995 -0.000138339 -0.0074503)
(-0.0813056 -8.66629e-05 0.0179943)
(-0.0814309 -0.000137424 0.0180718)
(-0.0814214 -0.000140695 0.0180729)
(-0.0813323 -1.50184e-05 0.0180011)
(-0.0812556 -0.000117188 0.0178136)
(-0.0811423 -0.000194236 0.0179352)
(0.231169 -3.45703e-05 -3.93574)
(0.231164 1.10085e-05 -3.936)
(0.231164 1.78647e-05 -3.93602)
(0.23115 -4.44595e-07 -3.93598)
(0.23115 1.32255e-05 -3.93596)
(0.231153 5.02427e-05 -3.93576)
(0.200664 2.17882e-05 -3.866)
(0.200647 3.05802e-05 -3.86622)
(0.200638 7.47972e-07 -3.86619)
(0.200644 -4.78043e-06 -3.86618)
(0.200647 -2.59045e-05 -3.8662)
(0.200612 -1.48347e-05 -3.86601)
(0.0601416 1.59863e-05 -3.99047)
(0.0601396 1.74251e-05 -3.99058)
(0.0601397 2.49089e-06 -3.99056)
(0.0601429 -1.36698e-06 -3.99054)
(0.0601437 -1.51653e-05 -3.99055)
(0.0601379 -1.5319e-05 -3.99042)
(-0.0386915 -8.9254e-06 -4.31363)
(-0.0387864 8.09556e-06 -4.31382)
(-0.0387971 -7.92112e-06 -4.31376)
(-0.0388149 7.14581e-06 -4.31374)
(-0.0388067 -7.91305e-06 -4.31378)
(-0.0386952 6.6297e-06 -4.31352)
(0.0294113 1.6486e-05 -4.22044)
(0.0294263 2.02517e-07 -4.22063)
(0.0294199 -1.81923e-05 -4.22059)
(0.0294123 -1.48702e-05 -4.22058)
(0.0294089 -2.34602e-05 -4.22061)
(0.0293742 -2.92498e-05 -4.22038)
(0.00365708 1.51475e-05 -4.20806)
(0.00365399 2.03533e-05 -4.20818)
(0.00365375 5.91062e-06 -4.20814)
(0.0036562 3.37082e-06 -4.20812)
(0.00365853 -1.41735e-05 -4.20813)
(0.00365213 -1.5775e-05 -4.20798)
(-0.699929 2.79511e-05 -3.1722)
(-0.699985 1.91555e-05 -3.17244)
(-0.700006 -2.52746e-05 -3.17239)
(-0.700035 -1.88942e-05 -3.1724)
(-0.700042 -4.94058e-05 -3.17247)
(-0.699995 -2.89213e-05 -3.17215)
(0.120848 1.47194e-05 -3.95374)
(0.120884 1.09318e-05 -3.95391)
(0.120871 -3.02786e-06 -3.95388)
(0.120866 3.39873e-06 -3.95388)
(0.120872 -2.39842e-05 -3.95391)
(0.120828 -3.33218e-05 -3.95367)
(0.0880979 1.34608e-05 -3.93992)
(0.0881036 1.76613e-05 -3.94003)
(0.088103 7.43544e-06 -3.94001)
(0.0881054 4.95163e-06 -3.94)
(0.088108 -1.15807e-05 -3.94)
(0.0880933 -1.57711e-05 -3.93988)
(-0.27851 1.81925e-05 -3.7374)
(-0.278432 -1.54634e-05 -3.73783)
(-0.278487 -6.4253e-05 -3.73778)
(-0.278528 -5.39972e-05 -3.73779)
(-0.278553 -6.99879e-05 -3.7379)
(-0.278667 -4.80635e-05 -3.73737)
(0.154292 2.89001e-05 -4.77644)
(0.154325 3.55677e-05 -4.77668)
(0.154322 5.99024e-06 -4.77666)
(0.154327 7.11148e-06 -4.77667)
(0.154336 -4.20416e-05 -4.77674)
(0.154298 -5.18685e-05 -4.77644)
(0.118757 1.85113e-05 -4.33096)
(0.118756 2.36784e-05 -4.33111)
(0.118759 8.77411e-06 -4.33109)
(0.118759 9.53903e-06 -4.33109)
(0.11876 -1.42607e-05 -4.33111)
(0.118761 -2.18036e-05 -4.33099)
(-0.221803 -5.42997e-06 -3.15653)
(-0.221776 -4.66e-05 -3.15698)
(-0.221849 -8.52305e-05 -3.15696)
(-0.221909 -6.88181e-05 -3.15695)
(-0.221934 -7.22394e-05 -3.15705)
(-0.222022 -4.24715e-05 -3.15651)
(-0.0597393 2.99368e-05 -4.57098)
(-0.0597157 3.59385e-05 -4.57123)
(-0.0597106 -3.15231e-07 -4.57122)
(-0.0597025 -1.7165e-06 -4.57124)
(-0.0597042 -4.25789e-05 -4.57132)
(-0.0597124 -4.24812e-05 -4.57103)
(0.00154407 1.64431e-05 -3.96648)
(0.00154105 1.7029e-05 -3.96664)
(0.0015356 2.99041e-06 -3.96664)
(0.00153204 4.05113e-06 -3.96664)
(0.00152712 -1.93121e-05 -3.96667)
(0.00152822 -2.54933e-05 -3.96654)
(0.36846 1.19462e-05 -3.49163)
(0.36852 -2.2006e-05 -3.49202)
(0.368417 -4.5191e-05 -3.49205)
(0.368366 -3.91602e-05 -3.49209)
(0.368377 -8.00815e-05 -3.4922)
(0.368236 -7.70275e-05 -3.49177)
(-0.0243768 3.16404e-05 -4.70701)
(-0.0243823 3.73165e-05 -4.70724)
(-0.0243709 7.69221e-06 -4.70721)
(-0.0243576 1.08639e-05 -4.70721)
(-0.0243769 -2.30314e-05 -4.70726)
(-0.0243125 -2.36002e-05 -4.707)
(-0.0946105 1.32285e-05 -4.13938)
(-0.094616 4.27619e-06 -4.13952)
(-0.0946225 -1.48303e-05 -4.13954)
(-0.0946303 -1.56232e-05 -4.13955)
(-0.0946395 -2.92629e-05 -4.13957)
(-0.0946425 -2.42425e-05 -4.13943)
(0.379242 -3.9638e-05 -3.92408)
(0.379153 -8.83713e-05 -3.92445)
(0.37908 -7.25923e-05 -3.92447)
(0.379022 -7.21147e-05 -3.92451)
(0.379089 -1.35647e-05 -3.92462)
(0.378849 1.94955e-05 -3.92433)
(-0.129936 1.8891e-07 -4.08375)
(-0.129914 -2.85489e-05 -4.08386)
(-0.129936 -3.74313e-05 -4.08387)
(-0.129926 -4.0411e-05 -4.08386)
(-0.129975 1.86005e-05 -4.08387)
(-0.12993 5.64855e-05 -4.08364)
(-0.145513 9.42705e-06 -4.13903)
(-0.145514 2.43778e-06 -4.13915)
(-0.145518 -2.17313e-05 -4.13914)
(-0.145527 -3.25963e-05 -4.13915)
(-0.145544 -4.42824e-05 -4.13915)
(-0.145546 -2.73995e-05 -4.13904)
(0.0511154 -2.51866e-05 -6.32368)
(0.0502808 -5.74542e-05 -6.32412)
(0.0503846 -5.08044e-05 -6.32405)
(0.0502138 -3.23912e-05 -6.32405)
(0.0499917 -9.64565e-05 -6.324)
(0.0504592 -6.84495e-05 -6.3243)
(0.14493 1.04924e-05 -4.08934)
(0.144724 -5.99918e-05 -4.08957)
(0.144591 -5.28602e-05 -4.08955)
(0.144542 -0.000115066 -4.08947)
(0.144228 2.36954e-05 -4.08943)
(0.145023 0.000158757 -4.08906)
(0.0663481 7.15208e-07 -4.34385)
(0.0664087 -2.1015e-05 -4.34394)
(0.0663617 -6.39526e-05 -4.34391)
(0.0663291 -9.04354e-05 -4.34394)
(0.0662916 -6.78014e-05 -4.344)
(0.0662454 -1.72557e-05 -4.34379)
(1.31153 0.000130843 -0.903215)
(1.3108 0.000164595 -0.903971)
(1.31128 -4.79577e-05 -0.903537)
(1.31118 0.000157798 -0.903327)
(1.31192 -0.000462026 -0.90177)
(1.3093 -0.000726704 -0.906441)
(-1.47059 0.000338994 -3.96553)
(-1.47107 0.000133847 -3.96611)
(-1.47106 -0.0001034 -3.96568)
(-1.47128 -3.31409e-05 -3.96542)
(-1.47161 -6.82565e-05 -3.96446)
(-1.47092 6.39096e-05 -3.96668)
(-0.269957 9.63881e-05 -4.88207)
(-0.269915 -1.55439e-05 -4.88224)
(-0.270081 -0.000193203 -4.88198)
(-0.27021 -0.000195802 -4.88192)
(-0.27028 -0.000136587 -4.88177)
(-0.27035 -1.65278e-05 -4.8819)
(10.7619 0.000108138 13.3575)
(10.7625 1.12795e-05 13.3578)
(10.7624 -0.000207227 13.3577)
(10.7622 0.000106536 13.3577)
(10.7631 -0.000380073 13.3587)
(10.7608 -0.000741636 13.3569)
(6.67549 0.000502469 7.24483)
(6.6766 0.000172516 7.245)
(6.67623 -0.00066637 7.24456)
(6.67597 -0.000151919 7.24459)
(6.67721 -0.00160606 7.24766)
(6.67354 -0.00189581 7.24065)
(0.852677 0.000880666 0.650326)
(0.853369 0.000559594 0.651224)
(0.853052 -0.000361973 0.651354)
(0.852716 8.95705e-05 0.651027)
(0.853494 -0.00124144 0.653703)
(0.850717 -0.00141462 0.64691)
(8.0361 0.000257943 13.9912)
(8.03747 0.000137061 13.992)
(8.03698 -0.000117329 13.9918)
(8.0365 0.000188746 13.9919)
(8.0374 -0.000154411 13.9922)
(8.03641 -0.000508726 13.9916)
(10.2587 0.000718334 13.9341)
(10.2637 0.000271592 13.935)
(10.2605 -0.000663732 13.9345)
(10.2604 0.000213713 13.9348)
(10.2689 -0.00232636 13.9364)
(10.2465 -0.00295611 13.9343)
(8.05287 0.00120948 8.47831)
(8.05858 0.00064875 8.48071)
(8.05536 -0.000269726 8.48018)
(8.0554 0.000194825 8.4799)
(8.05957 -0.0010359 8.47943)
(8.04776 -0.00112924 8.48102)
(5.96813 0.000211812 7.80234)
(5.96957 0.000127182 7.80339)
(5.96907 -0.000124633 7.80294)
(5.96912 -0.000288092 7.80337)
(5.97053 0.000361473 7.80484)
(5.96712 0.000547185 7.80176)
(7.43707 0.000722505 9.04104)
(7.44208 0.000209525 9.04502)
(7.43946 -0.000692694 9.04287)
(7.44074 -0.000133747 9.04119)
(7.44668 -0.000931825 9.04414)
(7.43012 -0.00109202 9.03824)
(9.78692 0.000923496 7.34425)
(9.79313 0.000243193 7.35395)
(9.78928 -0.000785274 7.34914)
(9.79016 -0.000756374 7.34539)
(9.79562 0.000849127 7.35027)
(9.7786 0.0013263 7.34089)
(-0.030582 9.48123e-06 1.46601)
(-0.0302827 0.000172657 1.46639)
(-0.0302529 -0.000434386 1.4668)
(-0.0302243 0.000579248 1.46618)
(-0.0277975 -0.00115735 1.47174)
(-0.0327195 -0.00232198 1.46113)
(-2.08367 0.000566147 -0.585635)
(-2.08438 0.00135814 -0.58598)
(-2.08465 -0.00043368 -0.585986)
(-2.08302 0.00735618 -0.586486)
(-2.09149 -0.00756592 -0.586544)
(-2.07658 -0.016112 -0.586335)
(-0.699462 -0.000394813 1.30447)
(-0.699891 -3.70705e-05 1.30946)
(-0.700809 -0.00107556 1.3022)
(-0.69834 0.00180646 1.31934)
(-0.703452 -0.00271665 1.36358)
(-0.695807 -0.00564796 1.25717)
(-0.1668 -0.000414437 2.28484)
(-0.167255 -0.000342059 2.2851)
(-0.166373 -0.000321108 2.28623)
(-0.166873 -0.00246296 2.28354)
(-0.168324 0.00225481 2.28793)
(-0.164032 0.00435097 2.28229)
(-2.07796 0.000370761 -1.35595)
(-2.08052 0.00148624 -1.35831)
(-2.07709 -0.00163272 -1.35488)
(-2.08035 0.00443724 -1.3613)
(-2.09816 -0.00322809 -1.38289)
(-2.06092 -0.0102466 -1.33309)
(0.273361 0.000438319 10.1013)
(0.278119 0.00180846 10.1076)
(0.275836 -0.000368165 10.1031)
(0.283963 0.00716591 10.1096)
(0.301216 -0.00619845 10.1527)
(0.260297 -0.0148533 10.0607)
(0.939997 0.000235814 0.735309)
(0.94006 -7.96476e-05 0.735706)
(0.940982 -0.00113985 0.735674)
(0.939921 -0.000685146 0.733959)
(0.941356 -0.000451611 0.736652)
(0.940027 -0.000619367 0.733851)
(2.67318 -1.53468e-05 -0.106801)
(2.67173 0.000210748 -0.105606)
(2.67194 0.000211968 -0.105295)
(2.67706 -0.00267303 -0.106044)
(2.68258 0.00385026 -0.107926)
(2.66371 0.00657874 -0.10459)
(8.89449 0.000627104 13.3207)
(8.89711 0.00102883 13.323)
(8.89631 0.000788075 13.3218)
(8.89897 0.00319335 13.3222)
(8.91364 -0.0027549 13.3305)
(8.88309 -0.00547161 13.3152)
(-0.465418 5.22677e-05 -3.83194)
(-0.467105 -9.20458e-05 -3.83444)
(-0.466958 0.000172416 -3.83492)
(-0.463644 -0.000763212 -3.83047)
(-0.467852 0.000989455 -3.82707)
(-0.461367 0.00211928 -3.84153)
(7.18421 0.00044497 3.97222)
(7.18397 0.000673319 3.97346)
(7.1835 0.000560729 3.97247)
(7.18507 0.000517676 3.9725)
(7.19121 -7.9862e-05 3.97772)
(7.17775 -0.000218127 3.96669)
(11.1085 0.00114017 7.97535)
(11.1109 0.00116637 7.98178)
(11.1102 0.000606462 7.97892)
(11.1102 0.00208 7.97994)
(11.1193 -0.00227782 7.9824)
(11.1024 -0.00375694 7.97679)
(1.9666 0.000113546 2.5121)
(1.96572 0.000280184 2.51189)
(1.96555 0.000220505 2.51192)
(1.96789 0.00166968 2.5123)
(1.97452 -0.00159397 2.51602)
(1.95966 -0.00317531 2.50845)
(7.7841 0.000862817 5.32521)
(7.78635 0.000889912 5.32859)
(7.78508 0.000399756 5.32673)