/*--------------------------------*- C++ -*----------------------------------*\
| =========                 |                                                 |
| \\      /  F ield         | OpenFOAM: The Open Source CFD Toolbox           |
|  \\    /   O peration     | Version:  v1612+                                |
|   \\  /    A nd           | Web:      www.OpenFOAM.com                      |
|    \\/     M anipulation  |                                                 |
\*---------------------------------------------------------------------------*/
FoamFile
{
    version     2.0;
    format      ascii;
    class       volScalarField;
    location    "2.65";
    object      p_rgh;
}
// * * * * * * * * * * * * * * * * * * * * * * * * * * * * * * * * * * * * * //

dimensions      [1 -1 -2 0 0 0 0];

internalField   nonuniform List<scalar> 
320
(
-9800.21
-9800.21
-9800.21
-9800.21
-0.00634951
-0.00516312
-0.00331382
0.000286556
0.00577035
-0.00153611
0.00499988
0.000733447
-0.00210762
-0.00361442
0.000477702
-0.000274499
-9799.99
-9800.04
-9800.04
-9800.09
-9800.14
-9800.01
-9800.1
-9800.09
-9799.99
-9800.03
-9800.11
-9800.11
-9800.21
-9800.21
-9800.21
-9800.21
-9800.21
-9800.21
-9800.22
-9800.22
-9800.22
-9800.21
-9800.21
-9800.21
-9800.21
-9800.21
-9800.21
-9800.22
-9800.21
-9800.21
-9800.21
-9800.22
-9800.21
-9800.21
-9800.22
-9800.22
-9800.22
-9800.21
-9800.21
-9800.21
0.00569794
-0.000206413
-0.00169712
-0.00141305
0.000362985
-0.00028394
0.00588905
0.00724952
-0.00216979
-0.00904932
0.0003283
0.00575627
-0.00241716
0.000354063
6.76263e-05
0.00351106
0.000708208
0.00579634
0.000819805
-0.000548867
-9800.15
-9800.01
-9800.08
-9800.07
-9800.1
-9800.14
-9800.11
-9800.18
-9800.1
-9800.02
-9800.09
-9800.14
-9799.98
-9800.11
-9800.09
-9800.11
-9800.12
-9800.14
-9800.12
-9800.06
-9800.2
-9800.21
-9800.21
-9800.21
-9800.2
-9800.2
-9800.21
-9800.2
-9800.19
-9800.2
-9800.22
-9800.21
-9800.22
-9800.21
-9800.21
-9800.21
-9800.21
-9800.21
-9800.21
-9800.2
-9800.21
-9800.21
-9800.21
-9800.2
-9800.2
-9800.21
-9800.22
-9800.2
-9800.2
-9800.2
-9800.22
-9800.21
-9800.22
-9800.21
-9800.21
-9800.21
-9800.21
-9800.21
-9800.21
-9800.2
-9800.21
-9800.21
-9800.21
-9800.21
-9800.21
-9800.21
-9800.21
-9800.21
-9800.21
-9800.21
-9800.21
-9800.21
-9800.21
-9800.21
-9800.21
-9800.21
-9800.21
-9800.21
-9800.21
-9800.21
-9800.21
-9800.21
-9800.21
-9800.21
-9800.2
-9800.2
-9800.21
-9800.21
-9800.21
-9800.21
-9800.21
-9800.21
-9800.21
-9800.21
-9800.21
-9800.21
-0.0029727
0.0085465
-0.00159275
0.00413804
0.00161807
0.00223912
-0.00166984
-0.00682645
0.00616226
0.00634435
-0.0090042
-0.0148035
-0.0017605
-0.00111204
-0.00559976
0.00395741
-0.00142271
0.00168062
0.00252204
-0.00413252
-0.0134678
-0.00384482
0.00490574
0.00151542
0.00302139
0.00176596
-0.00543499
-0.000821749
-9800.02
-9800.15
-9800.03
-9800.15
-9800.13
-9800.07
-9800.02
-9800
-9800.11
-9800.08
-9799.99
-9800.02
-9800.12
-9800.07
-9800.02
-9800.11
-9800.09
-9800.1
-9800.06
-9800.06
-9800.01
-9800.07
-9800.14
-9800.02
-9800.09
-9800.11
-9800.04
-9800.05
-9800.21
-9800.21
-9800.21
-9800.21
-9800.21
-9800.22
-9800.22
-9800.21
-9800.21
-9800.22
-9800.21
-9800.2
-9800.19
-9800.2
-9800.2
-9800.22
-9800.22
-9800.22
-9800.23
-9800.2
-9800.2
-9800.2
-9800.21
-9800.22
-9800.22
-9800.21
-9800.2
-9800.2
-9800.21
-9800.21
-9800.21
-9800.21
-9800.21
-9800.21
-9800.21
-9800.21
-9800.22
-9800.22
-9800.21
-9800.2
-9800.19
-9800.2
-9800.2
-9800.21
-9800.21
-9800.22
-9800.22
-9800.21
-9800.2
-9800.2
-9800.21
-9800.22
-9800.22
-9800.21
-9800.21
-9800.2
-9800.21
-9800.21
-9800.21
-9800.21
-9800.21
-9800.21
-9800.21
-9800.21
-9800.21
-9800.21
-9800.21
-9800.2
-9800.2
-9800.2
-9800.21
-9800.21
-9800.21
-9800.21
-9800.22
-9800.21
-9800.21
-9800.21
-9800.21
-9800.21
-9800.21
-9800.21
-9800.21
-9800.2
-0.00450394
0.00189529
0.00767273
0.00839132
-9800.05
-9800.14
-9800.15
-9800.13
)
;

boundaryField
{
    top_fluid_surface
    {
        type            totalPressure;
        rho             rho;
        psi             none;
        gamma           1;
        p0              uniform 0;
        value           nonuniform List<scalar> 
64
(
-7.9364e-09
-1.13271e-08
-3.92884e-09
0
0
-8.61973e-10
0
0
-1.2463e-09
-4.02779e-09
0
0
0
-6.62207e-13
-4.37059e-10
-1.07896e-09
-3.70641e-11
0
0
0
-1.37655e-09
-1.76243e-08
0
0
-1.67899e-09
0
0
0
0
0
0
-3.55469e-10
-5.68007e-09
0
-3.93731e-09
0
0
0
-1.56142e-09
-9.26145e-09
0
0
-2.60931e-08
-4.73767e-08
-6.19734e-10
-5.92676e-10
-9.59935e-09
0
-5.01038e-10
0
0
-2.43114e-09
-3.6692e-08
-4.03914e-09
0
0
0
0
-1.04851e-08
-6.6805e-10
-8.83995e-09
0
0
0
)
;
    }
    bottom_fluid_surface
    {
        type            fixedFluxPressure;
        gradient        uniform 0;
        value           nonuniform List<scalar> 
64
(
-9800.21
-9800.21
-9800.21
-9800.21
-9800.21
-9800.21
-9800.21
-9800.21
-9800.21
-9800.21
-9800.21
-9800.21
-9800.21
-9800.21
-9800.21
-9800.21
-9800.21
-9800.21
-9800.21
-9800.21
-9800.21
-9800.21
-9800.21
-9800.21
-9800.2
-9800.2
-9800.21
-9800.21
-9800.21
-9800.21
-9800.21
-9800.21
-9800.21
-9800.21
-9800.21
-9800.21
-9800.21
-9800.21
-9800.21
-9800.21
-9800.21
-9800.21
-9800.21
-9800.21
-9800.21
-9800.21
-9800.21
-9800.2
-9800.2
-9800.2
-9800.21
-9800.21
-9800.21
-9800.21
-9800.22
-9800.21
-9800.21
-9800.21
-9800.21
-9800.21
-9800.21
-9800.21
-9800.21
-9800.2
)
;
    }
    lateral_surface_1
    {
        type            fixedFluxPressure;
        gradient        uniform 0;
        value           nonuniform List<scalar> 
40
(
-0.0029727
0.0085465
-0.00159275
0.00413804
0.00161807
0.00223912
-0.00166984
-0.000821749
-9800.02
-9800.15
-9800.03
-9800.15
-9800.13
-9800.07
-9800.02
-9800.05
-9800.21
-9800.21
-9800.21
-9800.21
-9800.21
-9800.22
-9800.22
-9800.2
-9800.21
-9800.21
-9800.21
-9800.21
-9800.21
-9800.21
-9800.21
-9800.2
-9800.21
-9800.21
-9800.21
-9800.21
-9800.21
-9800.21
-9800.21
-9800.2
)
;
    }
    lateral_surface_2
    {
        type            fixedFluxPressure;
        gradient        uniform 0;
        value           nonuniform List<scalar> 
40
(
-0.00111204
-0.00559976
0.00395741
-0.00142271
0.00168062
0.00252204
-0.00413252
-0.0134678
-9800.07
-9800.02
-9800.11
-9800.09
-9800.1
-9800.06
-9800.06
-9800.01
-9800.2
-9800.2
-9800.22
-9800.22
-9800.22
-9800.23
-9800.2
-9800.2
-9800.2
-9800.2
-9800.21
-9800.21
-9800.22
-9800.22
-9800.21
-9800.2
-9800.2
-9800.21
-9800.21
-9800.21
-9800.21
-9800.22
-9800.21
-9800.21
)
;
    }
    lateral_surface_3
    {
        type            fixedFluxPressure;
        gradient        uniform 0;
        value           nonuniform List<scalar> 
40
(
-0.00166984
-0.00682645
0.00616226
0.00634435
-0.0090042
-0.0148035
-0.0017605
-0.00111204
-9800.02
-9800
-9800.11
-9800.08
-9799.99
-9800.02
-9800.12
-9800.07
-9800.22
-9800.21
-9800.21
-9800.22
-9800.21
-9800.2
-9800.19
-9800.2
-9800.21
-9800.21
-9800.22
-9800.22
-9800.21
-9800.2
-9800.19
-9800.2
-9800.21
-9800.21
-9800.21
-9800.21
-9800.21
-9800.2
-9800.2
-9800.2
)
;
    }
    lateral_surface_4
    {
        type            fixedFluxPressure;
        gradient        uniform 0;
        value           nonuniform List<scalar> 
40
(
-0.0134678
-0.00384482
0.00490574
0.00151542
0.00302139
0.00176596
-0.00543499
-0.000821749
-9800.01
-9800.07
-9800.14
-9800.02
-9800.09
-9800.11
-9800.04
-9800.05
-9800.2
-9800.2
-9800.21
-9800.22
-9800.22
-9800.21
-9800.2
-9800.2
-9800.2
-9800.2
-9800.21
-9800.22
-9800.22
-9800.21
-9800.21
-9800.2
-9800.21
-9800.21
-9800.21
-9800.21
-9800.21
-9800.21
-9800.21
-9800.2
)
;
    }
}


// ************************************************************************* //
