/*--------------------------------*- C++ -*----------------------------------*\
| =========                 |                                                 |
| \\      /  F ield         | OpenFOAM: The Open Source CFD Toolbox           |
|  \\    /   O peration     | Version:  v1612+                                |
|   \\  /    A nd           | Web:      www.OpenFOAM.com                      |
|    \\/     M anipulation  |                                                 |
\*---------------------------------------------------------------------------*/
FoamFile
{
    version     2.0;
    format      ascii;
    class       surfaceScalarField;
    location    "2.65";
    object      phi;
}
// * * * * * * * * * * * * * * * * * * * * * * * * * * * * * * * * * * * * * //

dimensions      [0 3 -1 0 0 0 0];

internalField   nonuniform List<scalar> 
816
(
-2.81078e-06
3.07523e-07
2.38557e-06
3.04333e-06
2.70823e-06
-5.63378e-06
2.04963e-06
8.77954e-07
8.57043e-07
5.3937e-06
-1.19778e-05
-1.27546e-06
3.46598e-06
1.98943e-06
3.05756e-06
-6.91904e-06
-1.08413e-06
2.98899e-06
2.06928e-06
-3.18719e-06
-2.04439e-05
0.000141187
-7.51736e-06
1.89253e-06
0.000138213
3.60246e-05
1.7695e-05
0.000114838
6.83681e-05
7.38866e-05
9.86842e-06
1.24581e-05
9.15427e-05
2.35512e-05
-1.54924e-05
2.34144e-05
-1.10826e-05
-0.000136153
-8.29773e-06
-0.000195239
0.000106732
0.000226911
2.38855e-06
-0.000252686
-4.14108e-05
1.37029e-05
-1.30187e-05
-0.000120285
0.000116782
-2.42643e-05
-1.7847e-05
-0.000108035
8.9593e-05
6.5085e-05
-3.57397e-06
-4.55938e-05
5.21711e-05
0.000146624
6.35519e-06
-4.19544e-05
0.000118149
0.000121421
1.49347e-06
0.000108149
-0.000102699
-2.31416e-05
0.000193957
3.45193e-05
-7.23948e-06
1.37674e-05
-1.27323e-05
-1.96632e-06
1.40563e-06
6.27253e-06
-6.80043e-06
2.99355e-06
5.60755e-06
7.23207e-06
-3.44742e-07
9.17278e-07
9.12642e-06
-8.28784e-07
5.29553e-07
-3.52779e-07
-7.48178e-06
-4.83387e-06
1.65605e-06
-4.16331e-06
-2.27426e-06
5.34e-06
-6.00244e-06
-1.62581e-06
6.14876e-07
6.45189e-07
-4.49046e-06
-4.28067e-06
2.33852e-07
-4.87011e-06
-3.43501e-06
-7.98341e-06
-9.7254e-07
-5.21063e-07
-1.35127e-05
2.26501e-06
3.51533e-06
6.65226e-06
-2.01379e-06
1.61844e-06
9.19857e-09
1.0697e-05
-2.51055e-06
7.68558e-06
-5.62593e-06
9.29204e-07
1.90409e-06
-8.7826e-07
-1.53692e-06
-1.63473e-06
-5.99679e-06
-1.16734e-06
-2.34876e-06
-3.50251e-06
-1.59539e-06
7.16721e-07
-3.90123e-08
-1.77352e-06
-1.59711e-06
9.72851e-07
1.96447e-07
9.43279e-07
1.05645e-06
5.73497e-07
-7.92714e-08
2.28256e-06
-2.31835e-06
-3.37747e-06
-1.52787e-06
2.47393e-06
-1.77796e-06
9.48379e-08
2.56256e-06
-2.13266e-06
2.08317e-06
-3.09341e-06
-6.05253e-06
1.37235e-07
-1.93538e-06
-2.966e-06
-1.44772e-06
1.30834e-06
-2.37851e-06
-2.09082e-06
2.04808e-06
-2.6963e-07
-2.54912e-06
-2.50172e-07
-2.12854e-06
5.3199e-07
1.11467e-06
2.32832e-06
8.71553e-07
8.89795e-07
5.37833e-07
5.36341e-08
1.79902e-06
-1.10674e-06
2.30025e-06
1.858e-06
5.55431e-07
-5.83962e-07
1.89522e-06
5.61182e-07
-1.13455e-06
-5.42507e-07
-1.50077e-06
-1.68617e-06
-1.68387e-06
-1.80124e-06
-5.9667e-07
6.49582e-07
-1.1211e-06
-1.25947e-06
2.02813e-08
6.54426e-07
1.36191e-07
1.29449e-07
5.08117e-07
8.71567e-08
6.04593e-08
1.41502e-06
-1.48678e-06
-9.2781e-07
-8.00607e-07
1.81468e-06
1.8929e-07
-4.5714e-07
1.66773e-06
1.12803e-06
-7.96288e-07
-1.51894e-06
1.4901e-07
-8.45814e-07
-2.15786e-06
-1.48581e-06
8.10654e-07
-4.14558e-07
-1.67513e-06
1.1562e-06
-7.03434e-07
-2.52892e-06
-9.35027e-08
1.58052e-07
-6.56637e-05
-0.000131023
-1.24882e-05
0.000127905
-5.27116e-05
-5.25604e-06
-5.66126e-06
-6.85669e-05
1.3224e-05
0.000156875
-7.16812e-05
1.26149e-05
5.72478e-05
2.22307e-05
1.09323e-05
4.60547e-05
-0.000145872
3.71189e-05
-6.00402e-06
7.04688e-05
-0.000144089
-1.54e-05
-5.83917e-05
-0.000365749
-5.46848e-06
-0.00028579
-0.000252846
9.92416e-06
-0.000279678
0.000276214
-2.21924e-06
-7.75643e-05
-8.2778e-05
0.000177885
-1.10725e-05
2.62032e-05
-5.72408e-05
1.61378e-06
-0.00012675
-5.25656e-05
8.83812e-07
-1.46177e-05
-7.92399e-05
-1.0046e-05
-4.31002e-05
0.000222252
-4.6992e-06
-0.000162928
-0.000145847
0.000117971
9.95997e-07
2.43207e-05
6.20651e-05
-6.3613e-06
-2.42056e-05
-0.000114577
-1.3944e-05
1.62547e-05
-0.000128168
-1.86471e-05
-2.19866e-05
1.11685e-06
-0.000101097
-0.000122705
-5.88635e-06
-8.94439e-06
7.12311e-06
-5.02502e-06
-4.30524e-06
-2.5827e-06
-8.46023e-06
9.54393e-07
4.71642e-06
4.07918e-06
8.57269e-09
7.38493e-06
7.58406e-06
7.48918e-06
1.09094e-05
-2.93505e-06
-4.40215e-06
4.3801e-06
4.74807e-06
2.02796e-06
-3.23903e-06
2.03909e-06
-1.02621e-05
-1.03909e-05
1.34938e-05
-1.57321e-05
-9.66508e-06
1.233e-05
-4.90993e-06
5.88912e-06
-1.16386e-05
1.42192e-06
-7.79672e-06
-6.16195e-07
-7.20635e-07
-3.99478e-06
-3.68132e-06
4.82484e-06
-7.28947e-06
3.23743e-06
-8.26664e-06
-4.79072e-06
8.32404e-07
-3.39189e-06
-1.65001e-06
2.3907e-06
-2.56873e-06
-8.31888e-07
-3.77493e-06
4.96884e-06
-2.12962e-06
4.22316e-06
4.63397e-06
8.0533e-07
-4.88478e-06
-4.67984e-06
7.39907e-06
-3.05371e-06
-1.33562e-05
2.2688e-07
-1.24604e-05
-2.76891e-06
-7.32142e-06
-9.04223e-06
-1.3312e-06
3.0895e-06
3.4778e-06
-6.5809e-07
-2.40824e-06
-7.13702e-07
-1.94013e-06
-1.09973e-06
3.14e-06
-1.30747e-06
1.8751e-06
3.11281e-06
-4.6525e-07
-2.7964e-07
4.44883e-06
2.90239e-06
5.71618e-06
-6.57664e-08
1.96544e-06
9.82378e-07
-9.92898e-07
1.32896e-06
2.58694e-06
1.84598e-06
6.37356e-06
4.20662e-06
4.77464e-06
4.92098e-06
1.10873e-06
1.75293e-06
-5.7095e-06
-5.22677e-06
2.32456e-06
1.00005e-06
-2.27762e-07
-1.25275e-06
3.94649e-06
2.25387e-06
-2.76452e-07
1.09616e-06
-3.52951e-06
1.96414e-07
-4.1514e-07
-2.06781e-06
3.33626e-07
-1.28773e-06
-1.07074e-06
5.72849e-07
-1.19883e-06
-2.2803e-06
-9.86206e-07
-2.07976e-06
-1.64194e-06
-2.57851e-07
1.73668e-06
4.40307e-07
3.23264e-06
4.13357e-06
2.09741e-07
-6.15564e-07
8.37096e-07
-1.66783e-06
-8.2814e-07
3.06455e-06
-1.23267e-06
2.3968e-06
8.64587e-07
-1.0649e-06
-1.42191e-06
-1.80564e-08
-1.98743e-06
-3.47584e-07
1.45212e-06
-1.16571e-06
1.16408e-06
1.06104e-06
-5.65781e-07
-3.35486e-08
1.38546e-06
1.16606e-06
3.09725e-06
-8.62289e-08
7.09745e-07
6.02531e-08
-2.23703e-07
7.26236e-07
8.8768e-07
1.88345e-06
1.71377e-06
2.64834e-06
3.00589e-06
1.43866e-06
8.83319e-07
6.28178e-07
-1.13091e-06
-3.01471e-06
8.20414e-07
5.74803e-07
2.62893e-07
-1.35109e-06
2.77438e-06
5.03732e-07
-2.52405e-07
1.25738e-06
-1.10899e-06
2.37087e-07
2.34134e-07
-7.98343e-07
-8.76505e-08
-1.10507e-06
-4.73399e-07
1.01336e-06
-2.64472e-07
-1.45175e-06
-4.44903e-07
-1.04291e-06
-1.29841e-06
-3.9761e-08
4.47611e-07
2.15855e-07
6.56957e-07
2.22477e-06
-4.9905e-07
-7.77353e-08
1.08002e-07
-4.19582e-07
-1.41128e-06
2.0855e-06
-1.42651e-06
7.36932e-07
1.64441e-08
1.55732e-06
9.00845e-07
-2.7615e-07
-2.35031e-07
-1.00854e-06
1.22896e-06
1.08478e-06
-6.92477e-07
1.16221e-06
-9.07592e-07
8.18556e-08
-8.2355e-07
-7.34615e-07
-1.02606e-06
3.71894e-07
-5.97044e-07
-4.79733e-07
3.99543e-07
-1.17888e-07
2.14286e-07
-4.38511e-07
1.15969e-06
-1.22047e-06
-5.17692e-07
1.50588e-06
3.73867e-07
1.36106e-06
5.90695e-07
-1.19114e-06
3.45397e-07
5.77384e-08
-1.15284e-06
6.4265e-07
-1.20978e-06
9.32616e-07
-1.26833e-06
3.18779e-07
-9.65677e-07
1.32663e-06
-7.46877e-07
-1.07925e-06
-7.1067e-07
-1.45284e-07
-4.92781e-07
5.51833e-07
-2.18709e-07
4.45216e-08
4.35315e-07
1.46464e-06
3.10134e-08
2.48144e-07
7.32481e-08
5.72708e-07
7.33941e-07
6.22301e-07
1.04436e-06
-8.09529e-08
9.1303e-07
-1.40241e-06
4.1102e-07
1.08423e-06
-4.07522e-07
1.88258e-06
9.46565e-08
1.11019e-06
2.61431e-07
4.27121e-07
2.36134e-07
-7.20283e-07
6.01533e-07
8.27579e-08
-1.00154e-06
-9.75601e-08
-8.98427e-07
5.01374e-07
-4.80139e-07
1.1769e-06
-5.46586e-07
3.21799e-07
-6.59031e-07
1.05957e-06
0.000145908
-8.57236e-05
1.78058e-05
-6.30606e-05
-2.36437e-07
2.17952e-05
2.32802e-05
-1.99703e-05
6.24106e-07
-5.16107e-05
-1.09181e-05
-9.89097e-05
-7.28107e-06
-1.34215e-05
4.95209e-06
0.000116667
-5.30708e-06
-7.47971e-05
-9.3913e-06
-0.000369837
3.965e-06
-0.000257019
1.24683e-05
6.11454e-05
2.68424e-06
4.4643e-05
8.10686e-06
9.50906e-05
8.24182e-06
0.000259307
5.65268e-06
0.000132219
9.79282e-06
2.8443e-05
1.4457e-05
-7.31009e-05
6.1934e-06
-0.000225524
-6.14044e-06
-0.000235452
-5.75552e-06
0.00029935
-2.11926e-06
0.000318416
7.25389e-06
0.000140443
-2.827e-07
6.87948e-05
-7.31333e-07
-3.5951e-05
-1.14772e-05
-0.000105254
9.63443e-06
4.1046e-05
1.66638e-05
1.74077e-05
4.58637e-06
-6.37541e-06
2.56661e-06
-5.02104e-06
3.8508e-06
7.07191e-06
3.79456e-06
5.54171e-06
6.89377e-06
-4.45282e-06
6.7222e-06
-9.90235e-06
-4.94997e-06
4.38231e-06
-9.28803e-06
6.18202e-06
-1.11216e-05
-4.87628e-06
3.5048e-06
-8.81238e-06
-2.92212e-06
3.27616e-06
-1.57075e-05
6.45644e-06
-5.48509e-06
-1.69461e-06
1.76691e-05
-1.83473e-06
7.96279e-06
3.89634e-06
-8.17756e-06
1.38046e-06
4.8703e-06
2.09761e-07
6.02914e-06
5.20856e-06
-3.27978e-06
2.26659e-06
-5.96374e-06
-1.00293e-06
-2.26906e-06
3.0902e-06
-6.26306e-06
2.12607e-06
4.2563e-06
-2.16364e-06
7.66251e-06
-1.77761e-06
-4.71844e-06
-4.68721e-06
-1.18745e-05
-5.70932e-06
4.37967e-07
-2.02885e-06
-7.43278e-06
5.55335e-07
-1.54166e-06
1.37801e-06
1.89094e-06
-6.9033e-07
2.31121e-06
-1.53045e-06
2.70814e-06
5.2924e-07
3.53811e-06
3.66959e-06
3.12321e-06
3.26782e-06
-1.64433e-06
-1.72279e-06
-4.29599e-06
-2.0594e-06
-5.05516e-06
5.19329e-07
1.91593e-06
7.4465e-07
-5.54493e-07
-3.69155e-06
-7.05991e-06
-5.23479e-06
-2.82985e-06
-5.01835e-07
7.71361e-06
3.21849e-06
4.24632e-06
6.96456e-07
-3.31635e-06
1.256e-06
3.06103e-06
4.33271e-06
2.6868e-06
2.9239e-06
-1.66739e-06
-1.06629e-07
-2.59724e-06
6.56598e-08
-1.86115e-06
-2.29491e-06
-3.90572e-06
-5.13139e-07
1.27866e-06
1.94809e-06
3.13098e-06
3.56269e-07
-1.37473e-06
-1.89685e-06
-5.48414e-06
-1.01315e-06
3.96418e-07
-1.27019e-06
-4.09787e-06
6.95145e-07
-1.02489e-06
9.57038e-07
5.18006e-07
-8.13799e-07
1.04521e-06
-6.1169e-07
5.34121e-07
4.99557e-07
1.27525e-06
2.17849e-06
8.92085e-07
1.90962e-06
-2.01221e-07
-9.35248e-07
-1.45669e-06
-1.31583e-06
-1.57656e-06
4.71139e-07
1.95104e-07
1.22554e-06
-4.16683e-07
-1.61639e-06
-1.55997e-06
-3.18121e-06
-3.70113e-07
-7.96213e-07
2.32702e-06
1.96785e-06
1.48583e-06
1.93942e-07
-7.07715e-07
1.09445e-06
8.11527e-07
2.94067e-06
6.02903e-07
2.22371e-06
-7.04762e-07
8.0411e-07
-1.25793e-06
7.98486e-07
-8.24946e-07
-2.05466e-06
-1.04917e-06
-1.16333e-06
1.10968e-07
5.48046e-07
3.70788e-07
2.70172e-07
-6.38435e-07
-1.14587e-06
-1.81577e-06
-6.94331e-07
4.95287e-08
-1.54102e-06
-1.19899e-06
1.36674e-07
-7.72143e-07
6.43127e-07
-4.57445e-07
-6.25698e-07
1.58033e-07
8.33227e-07
1.07862e-06
-3.73117e-07
-4.8426e-07
-4.0428e-08
1.16427e-07
-8.19097e-07
-1.26201e-06
-3.22681e-07
1.16877e-06
8.80841e-07
1.29157e-06
1.99706e-06
1.55703e-06
5.28315e-07
2.99766e-07
-7.44633e-07
-5.42659e-07
-2.70703e-07
-4.03139e-07
-1.02661e-06
-6.45353e-07
-7.88108e-07
6.85663e-05
0.000173803
2.30017e-05
4.87402e-05
1.50784e-05
7.63343e-05
3.93368e-06
-4.33317e-06
4.94246e-06
7.90358e-06
5.88314e-06
3.82411e-06
)
;

boundaryField
{
    top_fluid_surface
    {
        type            calculated;
        value           nonuniform List<scalar> 
64
(
-0.000253327
-0.000255351
-0.000156207
5.52609e-05
0.000256291
-7.20717e-05
0.000229853
7.36119e-05
-9.30457e-05
-0.000163812
1.80975e-05
6.23039e-05
0.000276327
-1.77221e-06
-3.85151e-05
-7.387e-05
-3.84888e-06
1.41213e-05
0.000278499
0.000315706
-9.70415e-05
-0.000365034
4.08021e-05
0.000238905
-0.000106194
3.63777e-05
1.22669e-05
0.000129879
4.5488e-05
0.000286908
9.14496e-05
-4.26354e-05
-0.00017927
0.000343586
-0.000122873
0.000177358
0.00010273
0.000101096
-9.12662e-05
-0.000270129
0.000271237
0.000232747
-0.000410469
-0.000600009
-7.08397e-05
-5.88036e-05
-0.000252977
0.000141528
-3.69149e-05
5.49294e-05
0.000117142
-0.000147704
-0.000536089
-0.000168627
0.000203229
4.90443e-05
0.000131949
3.3043e-05
-0.000244576
-3.73957e-05
-0.00022325
5.79055e-05
0.000301322
0.000351134
)
;
    }
    bottom_fluid_surface
    {
        type            calculated;
        value           uniform 0;
    }
    lateral_surface_1
    {
        type            calculated;
        value           uniform 0;
    }
    lateral_surface_2
    {
        type            calculated;
        value           uniform 0;
    }
    lateral_surface_3
    {
        type            calculated;
        value           uniform 0;
    }
    lateral_surface_4
    {
        type            calculated;
        value           uniform 0;
    }
}


// ************************************************************************* //
