/*--------------------------------*- C++ -*----------------------------------*\
| =========                 |                                                 |
| \\      /  F ield         | OpenFOAM: The Open Source CFD Toolbox           |
|  \\    /   O peration     | Version:  v1612+                                |
|   \\  /    A nd           | Web:      www.OpenFOAM.com                      |
|    \\/     M anipulation  |                                                 |
\*---------------------------------------------------------------------------*/
FoamFile
{
    version     2.0;
    format      ascii;
    class       surfaceScalarField;
    location    "2.55";
    object      alphaPhi;
}
// * * * * * * * * * * * * * * * * * * * * * * * * * * * * * * * * * * * * * //

dimensions      [0 3 -1 0 0 0 0];

internalField   nonuniform List<scalar> 
2916
(
-8.34778e-06
0.591191
-0.488173
-4.22114e-06
0.591192
-0.488187
-4.13689e-06
0.591192
-0.488182
-7.42085e-06
0.591194
-0.488181
-2.53454e-06
0.591195
-0.48819
0.591188
-0.488181
-7.68923e-06
1.17382
-0.479609
-4.55637e-06
1.17382
-0.479624
-6.71591e-06
1.17382
-0.479619
-6.27411e-06
1.17382
-0.47962
3.60837e-06
1.17382
-0.479629
1.17382
-0.479617
-7.4149e-06
1.57665
-0.319134
-3.95724e-06
1.57666
-0.319149
-5.8435e-06
1.57666
-0.319145
-5.60935e-06
1.57666
-0.319147
3.24765e-06
1.57666
-0.319154
1.57665
-0.319137
-7.04484e-06
1.86057
-0.224452
-4.65015e-06
1.86058
-0.224465
-6.93353e-06
1.86058
-0.22446
-6.84707e-06
1.86058
-0.224463
1.25355e-06
1.86058
-0.224472
1.86056
-0.224455
-7.48001e-06
2.08232
-0.164337
-6.39814e-06
2.08233
-0.164344
-8.79193e-06
2.08233
-0.164341
-7.87755e-06
2.08233
-0.164344
7.27345e-07
2.08233
-0.164353
2.08231
-0.164341
-8.98338e-06
2.27014
-0.132283
-8.02202e-06
2.27013
-0.132266
-9.91596e-06
2.27014
-0.132274
-8.63672e-06
2.27013
-0.132276
-2.10439e-07
2.27013
-0.132279
2.27011
-0.132278
-1.05844e-05
2.41971
-0.111362
-7.9441e-06
2.4197
-0.111176
-8.73043e-06
2.41968
-0.111251
-7.8223e-06
2.41968
-0.111245
-5.31036e-07
2.41968
-0.111217
2.41966
-0.111281
-7.19933e-06
2.51403
-0.0723878
-3.33499e-06
2.51413
-0.0722994
-3.1157e-06
2.51406
-0.0722402
-2.60214e-06
2.51404
-0.072229
1.44903e-06
2.51407
-0.072234
2.51401
-0.0722712
-3.72649e-06
2.34724
0.168449
4.37544e-06
2.34726
0.168121
4.94795e-06
2.34726
0.168381
3.92487e-06
2.34725
0.168424
5.38083e-06
2.34726
0.168342
2.34722
0.168445
-1.44251e-06
1.66791
0.657973
6.87116e-06
1.66794
0.657738
9.53802e-06
1.66795
0.657943
8.62186e-06
1.66794
0.65794
5.91647e-06
1.66795
0.657871
1.6679
0.65796
4.30276e-06
0.622686
0.99651
-4.48189e-07
0.622727
0.996495
4.80119e-06
0.622728
0.996498
6.7211e-06
0.622726
0.996498
1.50597e-06
0.622749
0.99649
0.622684
0.996501
-3.39271e-05
0.586962
-2.44716e-05
0.586962
-1.50993e-05
0.586962
-7.2155e-06
0.586962
1.49892e-05
0.586973
0.586938
3.70027e-07
0.456322
-0.41158
-4.90068e-06
0.456316
-0.411576
-7.51603e-06
0.45632
-0.411575
-8.68185e-06
0.456323
-0.411581
-1.00331e-05
0.45632
-0.411584
0.456318
-0.411578
1.3094e-05
0.663039
-0.029551
-4.38746e-06
0.663039
-0.0295491
-9.14359e-06
0.663038
-0.0295495
-6.58583e-06
0.663038
-0.0295493
-1.46123e-05
0.663039
-0.0295487
0.663033
-0.0295524
1.34256e-05
0.983119
-0.00105347
-1.90535e-06
0.98313
-0.0010534
-6.5598e-06
0.983124
-0.00105341
-5.33481e-06
0.983123
-0.00105339
-1.30167e-05
0.983129
-0.00105338
0.983114
-0.00105352
1.50728e-05
1.28805
-7.68267e-05
2.50071e-06
1.28807
-7.68222e-05
-1.78498e-06
1.28806
-7.68223e-05
-3.55317e-06
1.28806
-7.68212e-05
-1.30249e-05
1.28807
-7.68209e-05
1.28804
-7.68306e-05
1.64088e-05
1.45509
-8.48382e-06
7.06815e-06
1.45513
-8.4831e-06
4.13765e-06
1.45512
-8.483e-06
-2.46255e-07
1.45511
-8.48298e-06
-1.11525e-05
1.45512
-8.48301e-06
1.45509
-8.48356e-06
1.61503e-05
1.53834
-1.11411e-06
1.04214e-05
1.53838
-1.11402e-06
9.8881e-06
1.53837
-1.11402e-06
5.22126e-06
1.53837
-1.11402e-06
-4.56327e-06
1.53838
-1.11403e-06
1.53834
-1.11413e-06
1.65093e-05
1.46519
-1.67487e-07
1.41493e-05
1.46524
-1.67473e-07
1.56751e-05
1.46523
-1.67474e-07
1.16726e-05
1.46522
-1.67478e-07
3.32145e-06
1.46523
-1.67481e-07
1.46521
-1.67497e-07
1.41804e-05
1.2725
-2.89212e-08
1.45266e-05
1.27255
-2.89183e-08
1.58873e-05
1.27254
-2.89194e-08
1.26658e-05
1.27253
-2.89198e-08
4.56981e-06
1.27253
-2.892e-08
1.27252
-2.89227e-08
8.45507e-06
1.18044
0.00731541
7.72433e-06
1.18048
0.00731402
7.97968e-06
1.18048
0.00731485
6.55561e-06
1.18047
0.00731575
-7.54976e-08
1.18046
0.00731628
1.18046
0.00731759
1.31428e-05
1.38411
0.111491
6.11618e-06
1.38417
0.111479
5.14709e-06
1.38415
0.111481
2.98102e-06
1.38415
0.111481
-5.97528e-06
1.38415
0.111477
1.38413
0.111483
3.1285e-05
1.24173
0.728072
1.55427e-05
1.24184
0.728034
1.364e-05
1.24181
0.728045
8.885e-06
1.24181
0.728041
-6.80836e-06
1.24182
0.72803
1.24175
0.72805
-4.76582e-05
1.69459
-1.00817e-05
1.69461
2.19173e-06
1.6946
9.89334e-06
1.6946
3.07989e-05
1.69461
1.69454
6.44647e-07
0.030634
-3.5425e-06
-6.3535e-07
0.0306321
-3.54282e-06
-1.01063e-06
0.0306325
-3.54347e-06
1.00028e-06
0.0306323
-3.54423e-06
1.8024e-06
0.0306317
-3.54416e-06
0.0306355
-3.54347e-06
-9.03116e-09
0.0011381
-5.47542e-05
-1.55384e-08
0.00113803
-5.47498e-05
2.48331e-09
0.00113804
-5.47499e-05
1.52382e-08
0.00113802
-5.47459e-05
-1.08569e-10
0.001138
-5.47445e-05
0.00113816
-5.47585e-05
-4.0101e-10
8.46966e-05
-3.0475e-07
-4.77078e-10
8.46914e-05
-3.05511e-07
2.35562e-10
8.46915e-05
-3.06255e-07
5.29001e-10
8.46902e-05
-3.03888e-07
-1.04489e-10
8.469e-05
-3.00883e-07
8.47007e-05
-3.02113e-07
5.83373e-11
9.2491e-06
-1.46657e-06
1.36509e-10
9.24859e-06
-1.46688e-06
1.77762e-10
9.24858e-06
-1.4668e-06
1.88007e-10
9.24847e-06
-1.46687e-06
1.66807e-10
9.24851e-06
-1.46681e-06
9.24969e-06
-1.4668e-06
1.82486e-11
1.31495e-06
-5.08599e-07
3.9473e-11
1.31486e-06
-5.08296e-07
4.56594e-11
1.31486e-06
-5.08191e-07
4.2414e-11
1.31486e-06
-5.08272e-07
3.57707e-11
1.31487e-06
-5.08268e-07
1.315e-06
-5.0773e-07
1.69626e-12
2.01829e-07
-1.03576e-09
5.5379e-12
2.01815e-07
-1.02414e-09
6.60308e-12
2.01816e-07
-1.02399e-09
6.05438e-12
2.01819e-07
-1.02758e-09
6.47645e-12
2.01821e-07
-1.02753e-09
2.01842e-07
-1.01058e-09
4.75206e-14
3.43573e-08
-1.17887e-11
5.93337e-13
3.43545e-08
-1.07128e-11
7.72754e-13
3.43552e-08
-1.05719e-11
6.86442e-13
3.4356e-08
-1.09917e-11
9.72011e-13
3.43559e-08
-1.21399e-11
3.43602e-08
-1.05111e-11
4.09486e-14
5.71074e-09
-2.67759e-11
9.65777e-15
5.71072e-09
-2.68328e-11
-9.20598e-15
5.71056e-09
-2.67982e-11
-2.80079e-14
5.71093e-09
-2.68155e-11
-1.13328e-14
5.71098e-09
-2.68248e-11
5.71178e-09
-2.68577e-11
4.03523e-09
0.00688115
0.0004621
-2.81305e-08
0.00687987
0.000462041
-2.54244e-08
0.00688062
0.000462084
-1.10883e-08
0.00688145
0.000462137
-2.08046e-08
0.00688195
0.000462189
0.0068832
0.000462225
-8.37524e-08
0.106929
0.0102506
-4.00761e-08
0.106916
0.0102504
6.22655e-08
0.106918
0.0102506
1.03664e-07
0.106919
0.0102506
-2.60406e-07
0.106916
0.0102505
0.106922
0.0102505
3.86337e-06
0.305181
0.181267
9.26235e-07
0.305174
0.181277
7.52776e-07
0.305171
0.181275
-4.7769e-07
0.305169
0.181271
-4.32091e-06
0.305161
0.181271
0.305166
0.18127
-3.77641e-06
1.77385
1.23652e-05
1.77382
1.85892e-05
1.77381
2.68546e-05
1.7738
4.13968e-06
1.77379
1.77384
-1.22216e-11
6.56904e-08
-3.81552e-06
-5.54893e-12
6.56893e-08
-3.81587e-06
1.78507e-12
6.56928e-08
-3.8166e-06
9.41634e-12
6.5693e-08
-3.81736e-06
1.71089e-11
6.56929e-08
-3.81744e-06
6.57068e-08
-3.81674e-06
-6.97695e-11
2.38005e-07
-5.51692e-05
-2.85547e-11
2.37259e-07
-5.51642e-05
1.59778e-11
2.36607e-07
-5.51637e-05
1.37184e-11
2.38506e-07
-5.51615e-05
8.63461e-12
2.40926e-07
-5.51626e-05
2.40102e-07
-5.51757e-05
-5.60879e-12
-4.37751e-08
-2.05302e-07
1.33478e-13
-4.37787e-08
-2.05433e-07
2.54049e-12
-4.37691e-08
-2.05541e-07
3.69006e-12
-4.38051e-08
-2.05197e-07
7.1323e-12
-4.38488e-08
-2.04743e-07
-4.38256e-08
-2.04925e-07
2.8794e-12
-9.66009e-08
-1.65655e-06
1.37869e-11
-9.65355e-08
-1.65695e-06
1.52533e-11
-9.65057e-08
-1.65688e-06
1.40146e-11
-9.65244e-08
-1.65696e-06
1.55982e-11
-9.65209e-08
-1.65695e-06
-9.63692e-08
-1.65705e-06
-2.79733e-12
-1.32188e-09
-1.02775e-06
7.90445e-12
-1.30478e-09
-1.02779e-06
1.1308e-11
-1.30392e-09
-1.02775e-06
1.21129e-11
-1.30928e-09
-1.02771e-06
1.73138e-11
-1.31035e-09
-1.02769e-06
-1.28457e-09
-1.02751e-06
-1.21233e-14
-7.77874e-12
-2.34586e-09
-1.18291e-14
-7.72923e-12
-2.31802e-09
-1.07415e-14
-7.72727e-12
-2.31716e-09
-6.82878e-15
-7.74024e-12
-2.32568e-09
3.5475e-15
-7.70413e-12
-2.32548e-09
-7.63166e-12
-2.28434e-09
-1.05535e-15
-2.60119e-11
-9.57469e-12
-1.27325e-15
-2.60937e-11
-9.50032e-12
-1.43405e-15
-2.60658e-11
-9.50011e-12
-1.30116e-15
-2.60753e-11
-9.51648e-12
-4.98753e-16
-2.60399e-11
-9.46324e-12
-2.60948e-11
-9.3817e-12
-1.11257e-15
2.42247e-09
-2.58041e-09
-5.11487e-15
2.42932e-09
-2.58683e-09
-1.01559e-14
2.42653e-09
-2.58417e-09
-1.37727e-14
2.42806e-09
-2.58564e-09
-2.78263e-14
2.42899e-09
-2.58665e-09
2.43493e-09
-2.59226e-09
-8.19286e-10
0.000452399
1.65489e-05
-1.58404e-09
0.000452346
1.65449e-05
-3.29726e-09
0.000452387
1.65476e-05
-4.9676e-09
0.000452436
1.65496e-05
-1.40522e-08
0.00045249
1.65554e-05
0.000452514
1.65455e-05
-4.65066e-08
0.0090919
0.0015287
-6.45357e-08
0.00909153
0.00152883
-2.62091e-08
0.00909175
0.00152878
8.87032e-09
0.0090918
0.00152875
-3.81152e-09
0.00909187
0.00152876
0.00909181
0.00152874
1.19328e-06
0.136641
0.0531951
-1.62833e-07
0.136655
0.0531933
-1.68642e-07
0.136652
0.0531931
-6.2988e-08
0.136649
0.0531923
2.69545e-08
0.136651
0.0531904
0.136643
0.0531972
8.86319e-06
1.68849
-2.24049e-06
1.68841
4.01666e-05
1.6884
3.0363e-05
1.6884
-0.000106891
1.68836
1.68866
-7.7423e-68
4.70481e-64
-6.56216e-61
-2.35804e-67
4.71332e-64
-6.57473e-61
-3.0603e-67
4.71214e-64
-6.57405e-61
-2.94629e-67
4.71165e-64
-6.57442e-61
-1.98246e-67
4.71259e-64
-6.5769e-61
4.70243e-64
-6.564e-61
-1.88918e-63
2.25714e-59
-1.6084e-56
-8.38135e-63
2.26034e-59
-1.61066e-56
-1.24171e-62
2.25949e-59
-1.61031e-56
-1.32428e-62
2.25913e-59
-1.6104e-56
-9.94005e-63
2.25957e-59
-1.61116e-56
2.25496e-59
-1.60844e-56
-4.19016e-59
4.44888e-55
-2.11927e-52
-2.08665e-58
4.45045e-55
-2.11965e-52
-3.22229e-58
4.44699e-55
-2.11842e-52
-3.50862e-58
4.4454e-55
-2.11837e-52
-2.63401e-58
4.4459e-55
-2.11958e-52
4.43715e-55
-2.11674e-52
-1.45473e-54
5.31621e-51
-1.87035e-48
-4.14943e-54
5.3101e-51
-1.86818e-48
-5.90865e-54
5.30319e-51
-1.86653e-48
-6.24212e-54
5.30034e-51
-1.86662e-48
-4.62242e-54
5.30135e-51
-1.86844e-48
5.29322e-51
-1.86767e-48
-2.81085e-50
4.17522e-47
-1.14089e-44
-5.52067e-50
4.16521e-47
-1.13925e-44
-6.98902e-50
4.15872e-47
-1.13859e-44
-6.96517e-50
4.15711e-47
-1.1393e-44
-5.00498e-50
4.15998e-47
-1.14145e-44
4.15776e-47
-1.14271e-44
-3.04607e-46
2.25653e-43
-6.85822e-41
-4.59681e-46
2.25441e-43
-6.87713e-41
-5.05593e-46
2.25324e-43
-6.88683e-41
-4.62167e-46
2.25561e-43
-6.91201e-41
-3.128e-46
2.26474e-43
-6.98854e-41
2.25838e-43
-6.90733e-41
-2.91662e-42
1.44445e-39
-8.12406e-37
-3.65555e-42
1.45751e-39
-8.24273e-37
-3.45024e-42
1.46372e-39
-8.2959e-37
-2.77671e-42
1.47334e-39
-8.37017e-37
-1.6263e-42
1.50005e-39
-8.57228e-37
1.4662e-39
-8.2869e-37
-1.2143e-38
5.59428e-36
-3.07189e-33
-1.15586e-38
5.73725e-36
-3.16537e-33
-7.45939e-39
5.79464e-36
-3.20051e-33
-3.10091e-39
5.85091e-36
-3.23272e-33
-2.65126e-40
5.98272e-36
-3.30726e-33
5.75013e-36
-3.15964e-33
-4.75284e-36
3.80649e-33
-1.71169e-30
-5.52546e-37
3.97484e-33
-1.79519e-30
4.9027e-36
4.01712e-33
-1.81376e-30
8.47853e-36
4.0323e-33
-1.81747e-30
7.9104e-36
4.07727e-33
-1.83259e-30
3.82961e-33
-1.70786e-30
1.13251e-37
1.28288e-34
5.10054e-36
3.96176e-37
1.28604e-34
4.86715e-36
6.23475e-37
1.28734e-34
4.89309e-36
7.10922e-37
1.28945e-34
5.02285e-36
5.61673e-37
1.29363e-34
5.24549e-36
1.29161e-34
5.55235e-36
3.23526e-34
7.76127e-32
2.21394e-32
5.01251e-34
7.77436e-32
2.23079e-32
5.86433e-34
7.77726e-32
2.24382e-32
5.81576e-34
7.78455e-32
2.2593e-32
4.3062e-34
7.80139e-32
2.28099e-32
7.8176e-32
2.30965e-32
6.86794e-32
3.71313e-29
5.40105e-32
3.72945e-29
2.71999e-32
3.73169e-29
4.75716e-33
3.73295e-29
-7.54754e-33
3.73662e-29
3.73727e-29
-1.85377e-64
6.76119e-61
-7.30009e-58
-3.79044e-64
6.77223e-61
-7.31404e-58
-4.355e-64
6.76991e-61
-7.31312e-58
-3.97476e-64
6.76878e-61
-7.31328e-58
-2.80617e-64
6.77001e-61
-7.31577e-58
6.75532e-61
-7.30101e-58
-1.01809e-59
3.28715e-56
-1.79856e-53
-1.72583e-59
3.2917e-56
-1.80155e-53
-1.92994e-59
3.29024e-56
-1.8012e-53
-1.7728e-59
3.28951e-56
-1.80122e-53
-1.26722e-59
3.29001e-56
-1.8019e-53
3.28312e-56
-1.79859e-53
-3.03822e-55
6.3594e-52
-2.29753e-49
-4.63796e-55
6.3643e-52
-2.29995e-49
-5.00569e-55
6.35987e-52
-2.29906e-49
-4.50846e-55
6.3575e-52
-2.29893e-49
-3.06199e-55
6.35794e-52
-2.2999e-49
6.34483e-52
-2.29618e-49
-5.2082e-51
7.19585e-48
-1.89675e-45
-7.36281e-51
7.19526e-48
-1.89763e-45
-7.6757e-51
7.18794e-48
-1.89666e-45
-6.74089e-51
7.18423e-48
-1.89662e-45
-4.47096e-51
7.18467e-48
-1.89784e-45
7.17141e-48
-1.89581e-45
-5.30653e-47
5.08737e-44
-1.04118e-41
-6.93822e-47
5.08334e-44
-1.04184e-41
-6.83432e-47
5.07732e-44
-1.0416e-41
-5.74344e-47
5.07495e-44
-1.04196e-41
-3.67933e-47
5.07643e-44
-1.04319e-41
5.06958e-44
-1.04288e-41
-4.35854e-43
3.29156e-40
-1.56933e-37
-5.13576e-43
3.29228e-40
-1.57503e-37
-4.55807e-43
3.29039e-40
-1.57624e-37
-3.47652e-43
3.2962e-40
-1.58363e-37
-2.02702e-43
3.32545e-40
-1.61374e-37
3.27692e-40
-1.56217e-37
-5.46529e-39
4.14448e-36
-2.86766e-33
-4.76021e-39
4.171e-36
-2.89723e-33
-2.60939e-39
4.18091e-36
-2.9078e-33
-6.42096e-40
4.20687e-36
-2.92911e-33
3.09572e-40
4.29873e-36
-2.99941e-33
4.14539e-36
-2.87581e-33
-8.50958e-36
1.80221e-32
-1.04721e-29
8.65477e-36
1.82772e-32
-1.06666e-29
2.77629e-35
1.8368e-32
-1.07285e-29
3.78325e-35
1.85044e-32
-1.08075e-29
3.20748e-35
1.89205e-32
-1.10435e-29
1.80905e-32
-1.05128e-29
2.23771e-32
1.5019e-29
-7.00569e-27
5.24213e-32
1.53401e-29
-7.18226e-27
7.3073e-32
1.53962e-29
-7.2046e-27
7.75055e-32
1.54421e-29
-7.21331e-27
5.81944e-32
1.56674e-29
-7.29608e-27
1.47749e-29
-6.83518e-27
7.90391e-34
1.9596e-31
2.24354e-32
1.19254e-33
1.95971e-31
2.22559e-32
1.33869e-33
1.96152e-31
2.24044e-32
1.2285e-33
1.9672e-31
2.27249e-32
8.09867e-34
1.97983e-31
2.32535e-32
1.97406e-31
2.37173e-32
5.01671e-31
1.0609e-28
5.74422e-29
5.75054e-31
1.0627e-28
5.79005e-29
4.81502e-31
1.06458e-28
5.81793e-29
3.21641e-31
1.06773e-28
5.84668e-29
1.3698e-31
1.07256e-28
5.88522e-29
1.07733e-28
5.92763e-29
-4.20712e-29
6.8342e-26
-1.41756e-28
6.86159e-26
-2.24584e-28
6.86721e-26
-2.50041e-28
6.87057e-26
-1.91784e-28
6.8774e-26
6.87465e-26
-5.9131e-62
3.65163e-58
-2.85407e-55
-1.44589e-61
3.65792e-58
-2.8596e-55
-1.61964e-61
3.65701e-58
-2.85928e-55
-1.40613e-61
3.65671e-58
-2.85935e-55
-9.81141e-62
3.65774e-58
-2.86031e-55
3.65027e-58
-2.85447e-55
-4.4362e-57
1.78803e-53
-6.98765e-51
-7.02893e-57
1.79089e-53
-7.00036e-51
-7.1141e-57
1.79036e-53
-6.99936e-51
-5.8547e-57
1.79019e-53
-6.99951e-51
-3.92979e-57
1.7907e-53
-7.00201e-51
1.78723e-53
-6.98864e-51
-1.33906e-52
3.36899e-49
-8.53568e-47
-1.75102e-52
3.3733e-49
-8.54867e-47
-1.625e-52
3.37194e-49
-8.54668e-47
-1.22761e-52
3.37143e-49
-8.54657e-47
-6.9635e-53
3.37233e-49
-8.54982e-47
3.36608e-49
-8.53472e-47
-1.99145e-48
3.63404e-45
-6.54701e-43
-2.29401e-48
3.63706e-45
-6.55547e-43
-1.93569e-48
3.63511e-45
-6.55373e-43
-1.30559e-48
3.63442e-45
-6.55387e-43
-6.19167e-49
3.63555e-45
-6.55715e-43
3.62962e-45
-6.54761e-43
-1.62052e-44
2.48464e-41
-3.39944e-39
-1.58383e-44
2.48576e-41
-3.40458e-39
-1.08719e-44
2.48436e-41
-3.40413e-39
-5.23564e-45
2.48417e-41
-3.40526e-39
-1.27819e-45
2.48557e-41
-3.40999e-39
2.48238e-41
-3.40161e-39
-2.74916e-40
4.64429e-37
-3.21631e-34
-1.69541e-40
4.65079e-37
-3.22608e-34
-3.63387e-42
4.64876e-37
-3.22559e-34
1.24295e-40
4.66625e-37
-3.24151e-34
1.49826e-40
4.75056e-37
-3.31386e-34
4.59331e-37
-3.17109e-34
-1.74554e-36
1.07041e-32
-5.79593e-30
4.38933e-36
1.07482e-32
-5.83045e-30
1.05581e-35
1.07587e-32
-5.83734e-30
1.35343e-35
1.08218e-32
-5.87209e-30
1.12282e-35
1.10725e-32
-6.00761e-30
1.06119e-32
-5.73644e-30
4.14809e-32
5.28922e-29
-1.96633e-26
9.7388e-32
5.32619e-29
-1.98375e-26
1.35452e-31
5.33612e-29
-1.98704e-26
1.42977e-31
5.37008e-29
-1.99861e-26
1.07052e-31
5.49283e-29
-2.04178e-26
5.24518e-29
-1.94223e-26
1.18945e-28
5.59829e-26
-1.39521e-23
1.88452e-28
5.64328e-26
-1.40809e-23
2.15557e-28
5.64654e-26
-1.40748e-23
1.99353e-28
5.67234e-26
-1.41188e-23
1.32906e-28
5.78379e-26
-1.43598e-23
5.49281e-26
-1.35717e-23
1.57674e-26
6.29721e-24
-7.72876e-22
2.09716e-26
6.3347e-24
-7.75738e-22
2.02676e-26
6.26999e-24
-7.60031e-22
1.59347e-26
6.20038e-24
-7.4102e-22
8.82277e-27
6.18381e-24
-7.22859e-22
5.75298e-24
-6.55511e-22
3.69164e-28
2.5899e-25
7.03523e-26
1.78489e-28
2.59816e-25
7.13906e-26
-8.87166e-29
2.59835e-25
7.17819e-26
-2.63381e-28
2.59902e-25
7.20701e-26
-2.63007e-28
2.60418e-25
7.25191e-26
2.58593e-25
7.24512e-26
-1.05261e-25
6.54768e-23
-1.7481e-25
6.56554e-23
-2.11628e-25
6.56777e-23
-1.95686e-25
6.56697e-23
-1.25586e-25
6.56837e-23
6.55896e-23
-1.04956e-59
8.84499e-56
-4.01116e-53
-2.30837e-59
8.86011e-56
-4.019e-53
-2.23765e-59
8.85842e-56
-4.01858e-53
-1.71424e-59
8.85839e-56
-4.01869e-53
-1.20258e-59
8.86163e-56
-4.02005e-53
8.8439e-56
-4.01174e-53
-8.58013e-55
4.3211e-51
-9.59284e-49
-1.05477e-54
4.32825e-51
-9.61111e-49
-7.7375e-55
4.3274e-51
-9.61002e-49
-4.18727e-55
4.32748e-51
-9.61032e-49
-2.25469e-55
4.32918e-51
-9.61364e-49
4.32105e-51
-9.59474e-49
-2.28976e-50
7.83406e-47
-1.09715e-44
-1.94667e-50
7.84575e-47
-1.09909e-44
-8.81574e-51
7.84409e-47
-1.09893e-44
1.07854e-51
7.84434e-47
-1.09894e-44
4.59477e-51
7.84761e-47
-1.09932e-44
7.83362e-47
-1.09725e-44
-2.0785e-46
7.88914e-43
-7.60689e-41
-9.29834e-47
7.89935e-43
-7.61967e-41
6.84331e-47
7.89771e-43
-7.61857e-41
1.87341e-46
7.89828e-43
-7.61883e-41
1.87923e-46
7.90206e-43
-7.62181e-41
7.88927e-43
-7.60854e-41
-1.98568e-43
4.99149e-39
-7.1974e-37
1.1779e-42
4.99718e-39
-7.2068e-37
2.49565e-42
4.9961e-39
-7.19726e-37
3.1204e-42
4.99755e-39
-7.21093e-37
2.52669e-42
5.00381e-39
-7.29529e-37
4.98974e-39
-7.09681e-37
2.34056e-37
5.4121e-34
-4.41095e-31
4.95401e-37
5.42018e-34
-4.42017e-31
6.57525e-37
5.41647e-34
-4.41627e-31
6.80701e-37
5.44185e-34
-4.43722e-31
5.06206e-37
5.56225e-34
-4.53672e-31
5.32147e-34
-4.32579e-31
1.30075e-32
1.13029e-29
-5.89633e-27
2.07176e-32
1.13321e-29
-5.9146e-27
2.36773e-32
1.1332e-29
-5.9122e-27
2.22575e-32
1.13949e-29
-5.94332e-27
1.54855e-32
1.1659e-29
-6.07707e-27
1.11402e-29
-5.79126e-27
8.90695e-29
5.17797e-26
-1.67952e-23
1.22576e-28
5.19702e-26
-1.68578e-23
1.25159e-28
5.19808e-26
-1.68486e-23
1.06776e-28
5.22851e-26
-1.69377e-23
6.71635e-29
5.34856e-26
-1.73065e-23
5.10307e-26
-1.64686e-23
9.52987e-26
6.95014e-23
-1.268e-20
1.10364e-25
6.97812e-23
-1.27211e-20
9.07083e-26
6.97373e-23
-1.26988e-20
5.98739e-26
7.00949e-23
-1.27557e-20
2.46991e-26
7.15927e-23
-1.30105e-20
6.81398e-23
-1.23609e-20
7.1557e-24
2.4224e-20
-2.33085e-18
-8.95491e-24
2.42712e-20
-2.32796e-18
-2.65113e-23
2.41696e-20
-2.31547e-18
-3.62648e-23
2.41543e-20
-2.30846e-18
-3.318e-23
2.44224e-20
-2.31746e-18
2.33128e-20
-2.24014e-18
-8.06083e-25
1.92941e-22
1.8808e-21
-1.23838e-24
1.93704e-22
1.88883e-21
-1.44708e-24
1.93402e-22
1.88355e-21
-1.34318e-24
1.934e-22
1.8945e-21
-1.0139e-24
1.94981e-22
1.94031e-21
1.89326e-22
1.81362e-21
-1.46054e-25
3.2428e-22
-1.78457e-25
3.24355e-22
-1.91081e-25
3.24553e-22
-1.39465e-25
3.25074e-22
-1.96015e-25
3.26062e-22
3.20689e-22
-3.85048e-11
-2.30936e-06
-2.71372e-07
1.66605e-11
-2.30956e-06
-2.71688e-07
2.59465e-11
-2.31003e-06
-2.71714e-07
4.07721e-11
-2.31057e-06
-2.71826e-07
9.43837e-11
-2.31068e-06
-2.71818e-07
-2.31024e-06
-2.71341e-07
1.13263e-11
2.63838e-14
1.39115e-07
6.62562e-12
2.89005e-14
1.38271e-07
-6.05352e-12
2.96648e-14
1.38206e-07
-1.30336e-11
2.90048e-14
1.37544e-07
-8.04967e-12
2.88339e-14
1.37309e-07
2.95215e-14
1.39655e-07
-2.39475e-19
-1.13189e-16
-1.10553e-19
-1.23952e-16
9.4317e-21
-1.27221e-16
1.1215e-19
-1.2443e-16
2.71467e-19
-1.23717e-16
-1.2655e-16
-4.51475e-10
-4.24876e-05
-3.72843e-07
-1.51722e-10
-4.24846e-05
-3.76199e-07
4.98888e-11
-4.24824e-05
-3.7657e-07
9.84819e-11
-4.24795e-05
-3.70253e-07
2.20396e-10
-4.24804e-05
-3.64941e-07
-4.24894e-05
-3.6591e-07
1.07352e-11
1.68947e-13
-2.45297e-07
-1.78364e-10
1.85052e-13
-2.43503e-07
-2.6667e-10
1.89955e-13
-2.43424e-07
-2.25273e-10
1.85729e-13
-2.42064e-07
-2.46786e-10
1.84633e-13
-2.41578e-07
1.89051e-13
-2.4673e-07
-1.46646e-18
5.78538e-15
-8.55149e-19
6.33524e-15
-3.93605e-19
6.50352e-15
1.36124e-19
6.35781e-15
1.37855e-18
6.31952e-15
6.47674e-15
1.4488e-12
-1.62282e-07
-4.8604e-07
1.1836e-13
-1.62274e-07
-4.86159e-07
-1.66504e-12
-1.62254e-07
-4.86142e-07
-2.70668e-12
-1.62313e-07
-4.86161e-07
-1.79268e-12
-1.62384e-07
-4.86118e-07
-1.62339e-07
-4.86312e-07
6.14067e-13
8.91166e-13
-1.31337e-08
-1.76561e-13
9.76142e-13
-1.31131e-08
-4.01134e-13
1.00199e-12
-1.31191e-08
-8.77971e-13
9.79694e-13
-1.3106e-08
-2.32542e-12
9.7393e-13
-1.30979e-08
9.97161e-13
-1.31552e-08
-8.68167e-18
-2.44085e-14
-7.10196e-18
-2.67372e-14
-5.15189e-18
-2.74455e-14
-1.35183e-18
-2.68355e-14
7.13568e-18
-2.6678e-14
-2.73117e-14
-4.0073e-12
-1.38577e-06
-2.443e-07
-2.21441e-11
-1.38569e-06
-2.44331e-07
-3.35257e-11
-1.38568e-06
-2.44343e-07
-3.40235e-11
-1.38534e-06
-2.44364e-07
-1.91664e-11
-1.3851e-06
-2.44365e-07
-1.38644e-06
-2.44427e-07
1.0569e-11
8.7852e-13
-2.07857e-08
2.13536e-12
9.62249e-13
-2.07718e-08
-4.03092e-12
9.87693e-13
-2.07736e-08
-1.00209e-11
9.657e-13
-2.07714e-08
-2.00997e-11
9.60016e-13
-2.07715e-08
9.82857e-13
-2.07904e-08
-1.05328e-17
-6.95435e-15
-8.35936e-18
-7.61689e-15
-5.73695e-18
-7.81816e-15
-7.65874e-19
-7.64384e-15
1.02443e-17
-7.59852e-15
-7.77964e-15
-3.09069e-11
-9.17171e-07
-2.36899e-10
-5.68222e-11
-9.17249e-07
-2.38759e-10
-5.98831e-11
-9.17238e-07
-2.39532e-10
-4.93204e-11
-9.17232e-07
-2.4076e-10
-2.46288e-11
-9.17228e-07
-2.41387e-10
-9.17101e-07
-2.42336e-10
1.30146e-11
8.29964e-15
-1.78777e-09
-1.02156e-12
9.11258e-15
-1.7862e-09
-1.2023e-11
9.38099e-15
-1.78574e-09
-1.77092e-11
9.16465e-15
-1.78484e-09
-2.58619e-11
9.09853e-15
-1.78493e-09
9.03553e-15
-1.78477e-09
-8.51705e-20
-1.24565e-18
-4.7582e-20
-1.24545e-18
-1.91494e-20
-1.24577e-18
2.26961e-20
-1.24614e-18
1.21547e-19
-1.24745e-18
-1.24556e-18
-6.09387e-14
-6.73848e-09
1.03166e-11
-9.78105e-14
-6.73999e-09
1.01822e-11
-1.14185e-13
-6.7395e-09
1.01864e-11
-1.08708e-13
-6.73736e-09
1.01979e-11
-1.03875e-13
-6.73246e-09
1.01435e-11
-6.73066e-09
1.00672e-11
1.16827e-13
-2.56398e-15
1.67321e-12
4.7488e-14
-2.5634e-15
1.66912e-12
4.57881e-15
-2.56382e-15
1.66824e-12
-4.22946e-14
-2.56441e-15
1.66978e-12
-1.08674e-13
-2.56686e-15
1.66586e-12
-2.56304e-15
1.66193e-12
4.75455e-22
-2.56522e-15
-3.33914e-22
-2.56463e-15
-6.77132e-22
-2.56506e-15
-8.6508e-22
-2.56564e-15
-1.3187e-21
-2.5681e-15
-2.56427e-15
-4.17162e-16
-2.11124e-12
6.71845e-12
-3.84227e-16
-2.10749e-12
6.65786e-12
-4.4465e-16
-2.10658e-12
6.66208e-12
-3.21926e-16
-2.10817e-12
6.65912e-12
-2.38073e-16
-2.1045e-12
6.65348e-12
-2.09993e-12
6.65286e-12
-1.52816e-17
-1.32825e-13
-1.24872e-13
-3.30344e-17
-1.32781e-13
-1.24985e-13
-2.32687e-17
-1.32797e-13
-1.24993e-13
-7.25532e-18
-1.32828e-13
-1.25013e-13
4.18337e-17
-1.32917e-13
-1.25017e-13
-1.32718e-13
-1.2479e-13
6.98996e-20
-1.35369e-13
-2.54133e-19
-1.35325e-13
-5.34097e-19
-1.35341e-13
-7.32245e-19
-1.35373e-13
-5.69738e-19
-1.35465e-13
-1.35261e-13
-2.42218e-14
-7.68965e-12
-2.57747e-09
-1.40842e-14
-7.7054e-12
-2.5839e-09
-4.24456e-14
-7.69848e-12
-2.58124e-09
-4.18447e-14
-7.70203e-12
-2.58271e-09
-1.76563e-13
-7.70062e-12
-2.58358e-09
-7.71431e-12
-2.58952e-09
-5.2698e-17
-1.3583e-11
1.09099e-11
-4.32925e-17
-1.35811e-11
1.08963e-11
-6.49151e-17
-1.35824e-11
1.09062e-11
2.71401e-17
-1.35846e-11
1.09058e-11
2.87102e-16
-1.35939e-11
1.09151e-11
-1.35769e-11
1.08828e-11
-1.17638e-16
-1.3719e-11
-3.48559e-16
-1.37169e-11
-5.20808e-16
-1.37183e-11
-4.76385e-16
-1.37208e-11
1.09544e-16
-1.37306e-11
-1.37127e-11
1.01893e-10
-4.35303e-10
1.66554e-05
4.87361e-11
-4.34832e-10
1.66516e-05
-7.44974e-12
-4.34987e-10
1.66543e-05
-8.84441e-11
-4.3518e-10
1.66563e-05
-3.98869e-10
-4.35108e-10
1.66623e-05
-4.36027e-10
1.66518e-05
3.73831e-14
-4.71361e-09
4.29798e-09
1.16628e-14
-4.71321e-09
4.29816e-09
1.94342e-15
-4.71302e-09
4.2978e-09
1.78423e-15
-4.71242e-09
4.29698e-09
1.93937e-15
-4.71262e-09
4.29722e-09
-4.71306e-09
4.29676e-09
2.23636e-13
-4.79612e-09
-6.76776e-14
-4.79538e-09
-2.09654e-13
-4.79522e-09
-1.89113e-13
-4.79476e-09
1.13156e-13
-4.79526e-09
-4.79483e-09
1.74279e-08
0.000113419
0.00142964
-1.93282e-08
0.000113475
0.00142975
-2.61126e-08
0.000113452
0.0014297
-2.36181e-08
0.000113435
0.00142969
-6.40974e-08
0.000113424
0.00142975
0.000113435
0.00142961
6.37836e-09
3.24751e-06
0.00011032
1.01736e-09
3.25187e-06
0.000110383
-1.0669e-09
3.25065e-06
0.000110358
-3.11774e-09
3.25076e-06
0.000110342
-8.20277e-09
3.24866e-06
0.000110335
3.25106e-06
0.000110331
2.2272e-10
3.08377e-06
1.25171e-10
3.08821e-06
9.96229e-11
3.08695e-06
2.67663e-11
3.08723e-06
-3.06034e-11
3.08486e-06
3.08804e-06
5.63353e-07
0.00546853
0.0491107
-3.45861e-07
0.00547043
0.0491086
-3.37665e-07
0.00546914
0.0491087
-2.00968e-07
0.00546595
0.0491109
-6.74905e-07
0.00546528
0.0491104
0.00546676
0.0491144
1.80662e-07
0.000270782
0.00530471
4.78511e-08
0.000271424
0.00530634
7.56334e-09
0.000271166
0.00530519
-4.65567e-08
0.000271102
0.00530207
4.06119e-08
0.000270752
0.00530159
0.00027133
0.00530263
1.34389e-08
0.0002456
9.22908e-09
0.000246236
7.18077e-09
0.000245984
3.65204e-09
0.000245928
1.66557e-08
0.00024557
0.000246163
0.000131573
0.297969
1.23296
3.83721e-05
0.298042
1.23306
-5.16885e-05
0.298054
1.23298
6.3941e-05
0.297773
1.23329
0.000200468
0.297252
1.23457
0.298673
1.23216
3.36372e-05
0.0102946
0.232286
5.42369e-06
0.0103277
0.232474
-4.40317e-06
0.0103148
0.232336
7.48091e-06
0.0103137
0.232041
1.10578e-05
0.0102946
0.232152
0.0103291
0.231866
4.13719e-06
0.00768229
1.35686e-06
0.00770755
-1.24076e-08
0.00769687
1.59672e-07
0.00769844
7.72684e-06
0.00768391
0.00770462
3.62441e-17
5.26791e-13
1.18044e-12
-1.37493e-12
-3.30377e-16
5.26399e-13
1.09284e-12
-1.38014e-12
-6.40173e-16
5.26514e-13
1.12813e-12
-1.36817e-12
-1.7352e-16
5.10818e-13
9.39484e-12
-1.36541e-12
-1.10024e-15
4.85154e-13
4.291e-12
-1.41023e-12
4.70832e-13
9.83074e-13
-1.23523e-12
2.2481e-14
1.60472e-11
5.99763e-09
-6.07356e-09
-1.77272e-14
1.6245e-11
6.02559e-09
-6.10276e-09
7.92654e-14
1.58651e-11
5.97834e-09
-6.05482e-09
5.81856e-15
1.6512e-11
6.07992e-09
-6.15513e-09
-8.37029e-13
1.93614e-11
6.44817e-09
-6.51692e-09
1.33537e-11
5.61222e-09
-5.68786e-09
-7.53398e-10
-5.92573e-06
2.85455e-08
-1.15619e-09
-5.95327e-06
2.86282e-08
3.19907e-09
-5.92786e-06
2.85518e-08
5.85306e-09
-6.00541e-06
2.89668e-08
-4.40051e-08
-6.16556e-06
2.89365e-08
-5.75565e-06
2.8664e-08
-2.39937e-11
4.47454e-07
-4.47336e-07
-8.17107e-12
4.45725e-07
-4.45649e-07
-9.13493e-11
4.50101e-07
-4.499e-07
-2.52277e-11
4.4822e-07
-4.48178e-07
6.01978e-10
4.20761e-07
-4.21096e-07
4.75041e-07
-4.73752e-07
6.99426e-09
9.74178e-05
-9.69716e-05
-1.77103e-08
9.73294e-05
-9.68532e-05
2.60715e-08
9.81422e-05
-9.77303e-05
8.44079e-09
9.83339e-05
-9.78623e-05
-5.12914e-07
9.3561e-05
-9.26127e-05
0.000102892
-0.000102925
4.06475e-07
-0.00195569
-6.6416e-08
-0.0019579
1.54881e-06
-0.00195827
-2.43274e-07
-0.00196053
-1.44595e-05
-0.00196664
-0.00195304
1.09731e-08
7.8174e-05
-8.06873e-05
1.37343e-08
7.80492e-05
-8.05459e-05
-4.70026e-08
7.76964e-05
-8.01099e-05
-4.83078e-08
7.78767e-05
-8.03689e-05
3.97066e-07
8.01224e-05
-8.3198e-05
7.42038e-05
-7.61592e-05
-6.55321e-07
0.0119559
-0.0102227
-7.16988e-07
0.0119631
-0.0101932
-3.62976e-06
0.0119985
-0.010055
-1.67394e-06
0.0120239
-0.0101745
1.86426e-05
0.0118641
-0.0112006
0.0121643
-0.00891283
4.22757e-06
-0.0853801
1.73764e-06
-0.0854441
2.04497e-05
-0.0855036
8.68565e-08
-0.0856833
-0.000127844
-0.0855274
-0.0857758
6.73351e-07
-0.0105033
0.00507647
1.5895e-06
-0.0105158
0.00507241
3.45855e-06
-0.0105312
0.00506975
3.65535e-06
-0.0105209
0.00506724
-7.68557e-06
-0.0103982
0.0050729
-0.0106257
0.00511458
8.84448e-06
0.159125
-0.279435
8.30136e-06
0.159234
-0.279595
-2.95358e-05
0.159436
-0.279386
-4.11443e-05
0.159901
-0.281842
0.000233063
0.159203
-0.281717
0.160536
-0.286368
2.44465e-05
-0.110656
1.22575e-05
-0.110844
2.53224e-05
-0.110714
1.67955e-05
-0.110779
-0.000151008
-0.111127
-0.110281
6.93344e-06
0.175879
-0.578362
1.52491e-05
0.17591
-0.578309
0.000141968
0.175799
-0.578147
6.05492e-05
0.175968
-0.57868
-0.000522841
0.176744
-0.580444
0.174948
-0.576407
5.76815e-05
0.111506
-0.614442
5.84472e-05
0.111652
-0.614371
8.26941e-05
0.111528
-0.613851
-5.09838e-05
0.111704
-0.612938
-0.000141101
0.112134
-0.615975
0.11123
-0.612392
4.57165e-06
-0.011573
3.18723e-06
-0.0116263
3.48303e-06
-0.0115921
1.70905e-06
-0.0115946
-1.40507e-05
-0.011621
-0.0115117
6.02731e-05
0.525043
6.82334e-05
0.525257
0.000273815
0.525102
1.50713e-05
0.525423
-0.00125582
0.526054
0.52456
7.93749e-05
0.00389435
6.04595e-05
0.00391621
0.000112955
0.00389484
-1.61637e-05
0.00389602
-5.11465e-05
0.0039338
0.00380986
3.6062e-06
1.02916e-06
6.4368e-07
5.25919e-07
-2.80779e-06
3.11598e-58
-8.10674e-55
6.93246e-54
-6.44583e-58
-8.12362e-55
6.9456e-54
-9.36603e-58
-8.12348e-55
6.94498e-54
-9.14561e-58
-8.12378e-55
6.94533e-54
-9.64252e-58
-8.12605e-55
6.948e-54
-8.10858e-55
6.93384e-54
3.49467e-60
-3.54404e-58
7.55473e-56
-7.7351e-60
-3.55182e-58
7.57012e-56
-1.19698e-59
-3.55171e-58
7.57014e-56
-1.4301e-59
-3.55186e-58
7.57055e-56
-1.70346e-59
-3.55292e-58
7.5729e-56
-3.54498e-58
7.55674e-56
-1.33874e-63
9.69634e-60
-2.97422e-63
9.71727e-60
-3.52295e-63
9.71721e-60
-4.15925e-63
9.71788e-60
-4.73448e-63
9.72116e-60
9.69973e-60
-2.72085e-53
-3.94095e-50
3.29284e-49
-2.94589e-53
-3.94893e-50
3.2992e-49
-1.17761e-53
-3.9489e-50
3.29901e-49
1.4646e-54
-3.94904e-50
3.29933e-49
-1.58628e-54
-3.95007e-50
3.30069e-49
-3.94205e-50
3.29433e-49
-2.72495e-55
-1.98667e-53
7.26381e-51
-4.03977e-55
-1.99089e-53