/*--------------------------------*- C++ -*----------------------------------*\
| =========                 |                                                 |
| \\      /  F ield         | OpenFOAM: The Open Source CFD Toolbox           |
|  \\    /   O peration     | Version:  v1612+                                |
|   \\  /    A nd           | Web:      www.OpenFOAM.com                      |
|    \\/     M anipulation  |                                                 |
\*---------------------------------------------------------------------------*/
FoamFile
{
    version     2.0;
    format      ascii;
    class       volScalarField;
    location    "1.45";
    object      alpha.water;
}
// * * * * * * * * * * * * * * * * * * * * * * * * * * * * * * * * * * * * * //

dimensions      [0 0 0 0 0 0 0];

internalField   nonuniform List<scalar> 
1116
(
1
1
1
1
1
1
1
1
1
1
1
1
1
1
1
1
1
1
0.999989
0.999989
0.999989
0.999989
0.999989
0.999989
0.999892
0.999892
0.999892
0.999892
0.999892
0.999892
0.987361
0.98736
0.987361
0.987361
0.987361
0.987362
0.930196
0.930186
0.930187
0.930188
0.930188
0.930191
0.87426
0.874249
0.87425
0.874252
0.874252
0.874256
0.735101
0.735109
0.735111
0.735112
0.735109
0.735104
0.232536
0.232572
0.232573
0.232573
0.23257
0.232546
0.00280439
0.00280505
0.00280512
0.00280511
0.00280502
0.00280421
0.00216841
0.00216873
0.00216897
0.00216896
0.00216863
0.00216818
1
1
1
1
1
1
1
1
1
1
1
1
0.999989
0.999989
0.999989
0.999989
0.999989
0.999989
0.995239
0.99524
0.99524
0.99524
0.995241
0.995241
0.839018
0.839015
0.839018
0.839019
0.839019
0.839022
0.517338
0.517328
0.517334
0.517336
0.517336
0.517341
0.10721
0.107201
0.107204
0.107207
0.107206
0.107209
4.18129e-06
4.18187e-06
4.18199e-06
4.182e-06
4.18219e-06
4.18219e-06
1.54656e-06
1.54653e-06
1.54651e-06
1.54651e-06
1.54653e-06
1.54659e-06
0.0038326
0.00383065
0.00383087
0.00383093
0.00383039
0.00383255
0.0102898
0.0102901
0.01029
0.01029
0.01029
0.0102894
0.00199398
0.00199464
0.00199457
0.00199456
0.00199466
0.00199377
1
1
1
1
1
1
0.999972
0.999972
0.999972
0.999972
0.999972
0.999972
0.909398
0.909404
0.909405
0.909405
0.909405
0.909411
0.490333
0.490342
0.490347
0.490347
0.490348
0.490357
0.0383187
0.0383193
0.0383221
0.0383226
0.0383235
0.038328
1.56547e-06
1.56623e-06
1.56636e-06
1.56641e-06
1.56644e-06
1.56653e-06
-1.04463e-06
-1.04463e-06
-1.0447e-06
-1.04476e-06
-1.0448e-06
-1.04483e-06
5.03776e-08
5.04051e-08
5.04007e-08
5.0395e-08
5.03913e-08
5.03969e-08
8.06897e-07
8.06897e-07
8.0688e-07
8.06891e-07
8.06869e-07
8.06916e-07
0.000669736
0.000669658
0.000669647
0.000669641
0.000669555
0.000669531
0.00275186
0.00275193
0.00275181
0.00275184
0.00275196
0.00275177
0.000810543
0.000810983
0.000810901
0.000810886
0.000811009
0.000810416
0.999972
0.999972
0.999972
0.999972
0.999972
0.999972
0.814601
0.814605
0.814605
0.814606
0.814605
0.81461
0.187189
0.187196
0.187198
0.187199
0.187199
0.187207
1.58432e-07
1.58212e-07
1.58208e-07
1.58185e-07
1.5817e-07
1.58176e-07
1.85975e-07
1.85939e-07
1.8593e-07
1.85923e-07
1.85918e-07
1.85912e-07
8.84682e-11
8.83995e-11
8.84092e-11
8.83999e-11
8.83443e-11
8.81863e-11
3.78651e-09
3.78906e-09
3.78784e-09
3.78612e-09
3.78297e-09
3.77785e-09
1.74331e-08
1.74511e-08
1.74518e-08
1.74504e-08
1.74498e-08
1.74415e-08
3.46259e-06
3.46245e-06
3.46178e-06
3.46114e-06
3.46142e-06
3.46168e-06
4.12811e-06
4.12992e-06
4.12969e-06
4.12961e-06
4.12977e-06
4.12857e-06
1.26751e-05
1.26755e-05
1.26749e-05
1.26754e-05
1.26761e-05
1.26756e-05
1.39391e-05
1.39376e-05
1.39307e-05
1.39318e-05
1.39428e-05
1.39451e-05
6.13563e-69
6.14518e-69
6.14512e-69
6.1459e-69
6.14812e-69
6.14018e-69
1.36097e-64
1.363e-64
1.36297e-64
1.36315e-64
1.36366e-64
1.36195e-64
1.45085e-60
1.45292e-60
1.45289e-60
1.45308e-60
1.45366e-60
1.45187e-60
9.79629e-57
9.80979e-57
9.8096e-57
9.81097e-57
9.81513e-57
9.80342e-57
4.67093e-53
4.67724e-53
4.67719e-53
4.67791e-53
4.68001e-53
4.67461e-53
1.66872e-49
1.67096e-49
1.67096e-49
1.67124e-49
1.67203e-49
1.67016e-49
4.65117e-46
4.65744e-46
4.65745e-46
4.65825e-46
4.66055e-46
4.65547e-46
1.04534e-42
1.04676e-42
1.04676e-42
1.04694e-42
1.04747e-42
1.04635e-42
1.97463e-39
1.97734e-39
1.97732e-39
1.97766e-39
1.97868e-39
1.9766e-39
3.37429e-36
3.37895e-36
3.37887e-36
3.37941e-36
3.38119e-36
3.3777e-36
5.202e-33
5.20989e-33
5.20975e-33
5.21039e-33
5.21287e-33
5.20709e-33
6.10442e-30
6.11396e-30
6.11361e-30
6.11399e-30
6.11631e-30
6.10848e-30
2.394e-65
2.39746e-65
2.39732e-65
2.39758e-65
2.39843e-65
2.39533e-65
5.26148e-61
5.26872e-61
5.2684e-61
5.26895e-61
5.27094e-61
5.26432e-61
5.53132e-57
5.53857e-57
5.53823e-57
5.53883e-57
5.54105e-57
5.5343e-57
3.65774e-53
3.66236e-53
3.66214e-53
3.66257e-53
3.66413e-53
3.65982e-53
1.69352e-49
1.69561e-49
1.69551e-49
1.69573e-49
1.6965e-49
1.69457e-49
5.82223e-46
5.82931e-46
5.82898e-46
5.82979e-46
5.83257e-46
5.82613e-46
1.55334e-42
1.55522e-42
1.55512e-42
1.55534e-42
1.55611e-42
1.55444e-42
3.37372e-39
3.37781e-39
3.37757e-39
3.37805e-39
3.37977e-39
3.3762e-39
6.30408e-36
6.31181e-36
6.31132e-36
6.31217e-36
6.31544e-36
6.30885e-36
1.06906e-32
1.0704e-32
1.07031e-32
1.07044e-32
1.071e-32
1.06988e-32
1.54783e-29
1.55007e-29
1.54996e-29
1.55009e-29
1.55078e-29
1.54899e-29
1.40365e-26
1.40577e-26
1.40566e-26
1.40571e-26
1.40622e-26
1.40437e-26
1.42006e-61
1.42212e-61
1.42205e-61
1.4222e-61
1.4227e-61
1.42085e-61
3.26484e-57
3.26939e-57
3.26924e-57
3.26956e-57
3.27078e-57
3.26664e-57
3.56453e-53
3.56934e-53
3.56916e-53
3.56953e-53
3.57093e-53
3.56652e-53
2.41754e-49
2.42072e-49
2.4206e-49
2.42087e-49
2.42186e-49
2.41895e-49
1.12617e-45
1.12763e-45
1.12757e-45
1.1277e-45
1.12818e-45
1.12685e-45
3.78428e-42
3.78914e-42
3.78891e-42
3.78934e-42
3.79098e-42
3.78653e-42
9.40571e-39
9.41776e-39
9.41704e-39
9.41801e-39
9.4221e-39
9.41101e-39
1.73949e-35
1.74172e-35
1.74156e-35
1.74171e-35
1.74246e-35
1.7404e-35
2.41304e-32
2.41617e-32
2.41592e-32
2.4161e-32
2.41714e-32
2.41424e-32
2.63331e-29
2.63681e-29
2.63653e-29
2.6367e-29
2.63781e-29
2.63463e-29
2.59678e-26
2.60048e-26
2.60023e-26
2.60034e-26
2.60135e-26
2.59805e-26
1.51075e-23
1.51297e-23
1.51282e-23
1.51285e-23
1.51335e-23
1.51129e-23
1.03555e-58
1.03705e-58
1.03701e-58
1.03712e-58
1.0375e-58
1.03617e-58
2.58373e-54
2.58737e-54
2.58728e-54
2.58757e-54
2.58856e-54
2.5853e-54
3.02808e-50
3.03227e-50
3.03216e-50
3.03251e-50
3.03372e-50
3.02997e-50
2.16533e-46
2.16829e-46
2.16821e-46
2.16846e-46
2.16936e-46
2.16673e-46
1.03633e-42
1.03774e-42
1.0377e-42
1.03782e-42
1.03826e-42
1.037e-42
3.46617e-39
3.47088e-39
3.47068e-39
3.47105e-39
3.47252e-39
3.46832e-39
8.35085e-36
8.36217e-36
8.36153e-36
8.3623e-36
8.36578e-36
8.35553e-36
1.50206e-32
1.50409e-32
1.50395e-32
1.50406e-32
1.50467e-32
1.5028e-32
2.10358e-29
2.10643e-29
2.1062e-29
2.10631e-29
2.10715e-29
2.10448e-29
2.38851e-26
2.39177e-26
2.39149e-26
2.39158e-26
2.39249e-26
2.3894e-26
2.23289e-23
2.23595e-23
2.23569e-23
2.23575e-23
2.23656e-23
2.23361e-23
7.88863e-21
7.89962e-21
7.8987e-21
7.89875e-21
7.90125e-21
7.89046e-21
0.907979
0.90798
0.907981
0.907981
0.90798
0.907984
0.398335
0.398338
0.398338
0.398337
0.398337
0.398342
0.0453315
0.0453324
0.0453326
0.0453322
0.045332
0.0453341
0.0619574
0.0619584
0.0619583
0.061959
0.0619589
0.0619613
1.48231e-23
1.58819e-23
1.58819e-23
1.58819e-23
1.48231e-23
1.58819e-23
-2.81323e-13
-3.08162e-13
-3.16308e-13
-3.09267e-13
-3.07445e-13
-3.14766e-13
1.58002e-07
1.58013e-07
1.58023e-07
1.58017e-07
1.58008e-07
1.5799e-07
3.37981e-19
3.00827e-19
2.33683e-19
8.67401e-20
3.37981e-19
3.37947e-19
-2.2596e-12
-2.47515e-12
-2.54058e-12
-2.48403e-12
-2.46942e-12
-2.52827e-12
3.77555e-07
3.77552e-07
3.77541e-07
3.77534e-07
3.77544e-07
3.77563e-07
1.0266e-05
1.0266e-05
1.02666e-05
1.02663e-05
1.02659e-05
1.02652e-05
-1.61893e-11
-1.77331e-11
-1.82017e-11
-1.77965e-11
-1.7692e-11
-1.81137e-11
3.08634e-09
3.08285e-09
3.08629e-09
3.08722e-09
3.09276e-09
3.09836e-09
2.93428e-05
2.93429e-05
2.9343e-05
2.93431e-05
2.93432e-05
2.93432e-05
-3.0882e-15
-3.66506e-15
-4.13967e-15
-3.94788e-15
-3.75958e-15
3.39319e-29
-3.15388e-12
-3.15714e-12
-3.15621e-12
-3.15471e-12
-3.15226e-12
-3.14812e-12
-8.7164e-17
-8.72031e-17
-8.71866e-17
-8.71778e-17
-8.7191e-17
5.36327e-17
1.75834e-17
1.75798e-17
1.75764e-17
1.75776e-17
1.75794e-17
1.75675e-17
5.32714e-09
5.33199e-09
5.33001e-09
5.32669e-09
5.3204e-09
5.31061e-09
1.75581e-15
1.75695e-15
1.75691e-15
1.7571e-15
1.75762e-15
1.75672e-15
6.21033e-18
6.20957e-18
6.21033e-18
6.21123e-18
6.21284e-18
6.21479e-18
8.86494e-08
8.86716e-08
8.86598e-08
8.86538e-08
8.86617e-08
8.86331e-08
1.91619e-13
1.91727e-13
1.9172e-13
1.91741e-13
1.91798e-13
1.91677e-13
-2.50672e-19
-2.52778e-19
-2.55147e-19
-2.60964e-19
-2.73937e-19
4.04984e-19
1.38108e-07
1.38069e-07
1.38053e-07
1.38072e-07
1.38108e-07
1.38142e-07
1.40991e-10
1.4131e-10
1.41243e-10
1.4123e-10
1.41364e-10
1.40993e-10
1.90784e-13
1.9089e-13
1.90884e-13
1.90905e-13
1.90961e-13
1.90842e-13
6.08912e-07
6.09127e-07
6.09086e-07
6.09088e-07
6.09202e-07
6.09071e-07
1.72319e-08
1.72363e-08
1.7236e-08
1.7239e-08
1.72472e-08
1.72428e-08
1.98603e-11
1.98696e-11
1.98687e-11
1.98707e-11
1.98762e-11
1.98655e-11
8.02162e-07
8.02237e-07
8.02215e-07
8.02282e-07
8.02395e-07
8.02314e-07
3.52045e-08
3.52106e-08
3.52104e-08
3.52148e-08
3.52229e-08
3.5216e-08
1.51021e-09
1.51058e-09
1.51053e-09
1.5107e-09
1.51106e-09
1.5106e-09
3.08918e-07
3.09133e-07
3.09097e-07
3.09099e-07
3.09177e-07
3.08917e-07
2.6288e-08
2.63075e-08
2.63059e-08
2.63078e-08
2.63167e-08
2.62966e-08
1.57704e-09
1.57884e-09
1.5787e-09
1.57881e-09
1.57948e-09
1.57767e-09
6.39456e-17
6.40244e-17
6.40145e-17
6.40158e-17
6.4039e-17
6.39555e-17
3.5655e-17
3.56993e-17
3.56958e-17
3.56978e-17
3.57115e-17
3.56649e-17
2.57855e-18
2.58231e-18
2.58209e-18
2.58227e-18
2.5834e-18
2.5795e-18
3.86365e-16
3.86748e-16
3.86695e-16
3.86686e-16
3.86773e-16
3.8633e-16
3.28674e-16
3.29062e-16
3.29026e-16
3.29033e-16
3.29136e-16
3.28712e-16
8.73136e-17
8.7454e-17
8.74473e-17
8.74569e-17
8.75036e-17
8.7362e-17
1.13502e-14
1.13608e-14
1.1359e-14
1.13584e-14
1.13605e-14
1.13473e-14
1.83638e-14
1.83623e-14
1.83627e-14
1.83624e-14
1.83601e-14
1.83608e-14
3.69551e-15
3.70192e-15
3.70181e-15
3.70236e-15
3.70464e-15
3.69847e-15
7.54115e-13
7.54758e-13
7.54633e-13
7.54592e-13
7.54727e-13
7.53902e-13
4.65993e-13
4.66569e-13
4.66525e-13
4.66545e-13
4.66723e-13
4.66105e-13
1.83028e-13
1.83327e-13
1.83319e-13
1.83343e-13
1.83452e-13
1.83164e-13
9.11078e-11
9.20587e-11
9.19455e-11
9.18804e-11
9.21483e-11
9.10427e-11
7.64095e-10
7.65736e-10
7.65526e-10
7.65465e-10
7.65911e-10
7.6407e-10
2.19887e-12
2.20202e-12
2.20204e-12
2.20237e-12
2.20334e-12
2.20134e-12
1.3562e-07
1.35869e-07
1.35833e-07
1.35823e-07
1.359e-07
1.35606e-07
3.38914e-08
3.39403e-08
3.39342e-08
3.3934e-08
3.39498e-08
3.3896e-08
2.60549e-10
2.61011e-10
2.60984e-10
2.61e-10
2.61155e-10
2.60735e-10
1.73085e-55
1.73335e-55
1.73334e-55
1.73356e-55
1.73422e-55
1.73197e-55
3.75933e-58
3.76499e-58
3.76499e-58
3.76553e-58
3.76706e-58
3.76194e-58
1.22512e-61
1.22698e-61
1.22699e-61
1.22717e-61
1.22768e-61
1.22601e-61
5.89399e-51
5.90239e-51
5.90233e-51
5.90308e-51
5.90538e-51
5.89777e-51
1.90746e-53
1.91031e-53
1.91031e-53
1.91058e-53
1.91139e-53
1.9088e-53
7.12742e-57
7.13811e-57
7.13815e-57
7.1392e-57
7.14221e-57
7.13252e-57
9.35694e-47
9.37013e-47
9.37001e-47
9.3712e-47
9.37494e-47
9.36292e-47
4.63947e-49
4.64637e-49
4.64635e-49
4.64704e-49
4.64905e-49
4.64277e-49
2.10801e-52
2.11116e-52
2.11117e-52
2.11149e-52
2.1124e-52
2.10955e-52
8.93012e-43
8.94264e-43
8.94247e-43
8.94358e-43
8.94719e-43
8.93574e-43
6.8774e-45
6.88765e-45
6.88759e-45
6.8886e-45
6.89164e-45
6.88229e-45
4.00835e-48
4.01434e-48
4.01434e-48
4.01495e-48
4.01672e-48
4.01129e-48
5.5504e-39
5.55815e-39
5.55798e-39
5.55862e-39
5.56084e-39
5.55368e-39
6.65478e-41
6.66471e-41
6.66457e-41
6.66549e-41
6.66845e-41
6.65928e-41
5.22293e-44
5.23075e-44
5.2307e-44
5.23147e-44
5.23379e-44
5.22665e-44
2.28927e-35
2.29245e-35
2.29233e-35
2.29256e-35
2.29347e-35
2.29048e-35
4.25213e-37
4.25847e-37
4.2583e-37
4.25885e-37
4.26073e-37
4.25478e-37
4.69721e-40
4.70423e-40
4.70411e-40
4.70476e-40
4.70684e-40
4.70033e-40
6.14971e-32
6.15818e-32
6.15772e-32
6.15825e-32
6.16065e-32
6.15251e-32
1.76515e-33
1.76778e-33
1.76768e-33
1.76789e-33
1.76868e-33
1.76617e-33
2.85181e-36
2.85606e-36
2.85594e-36
2.85631e-36
2.85758e-36
2.85358e-36
1.03123e-28
1.03263e-28
1.03254e-28
1.03261e-28
1.03301e-28
1.03163e-28
4.62305e-30
4.62993e-30
4.62963e-30
4.63014e-30
4.63222e-30
4.62557e-30
1.12229e-32
1.12396e-32
1.1239e-32
1.12403e-32
1.12454e-32
1.12295e-32
1.02317e-25
1.02455e-25
1.02443e-25
1.02449e-25
1.02488e-25
1.0235e-25
7.35529e-27
7.36622e-27
7.36567e-27
7.36642e-27
7.36974e-27
7.35898e-27
2.71219e-29
2.71622e-29
2.71606e-29
2.71637e-29
2.71761e-29
2.71371e-29
5.71497e-23
5.72252e-23
5.7218e-23
5.72203e-23
5.72414e-23
5.71639e-23
6.77305e-24
6.78305e-24
6.78249e-24
6.78309e-24
6.7861e-24
6.77606e-24
3.78431e-26
3.78993e-26
3.78966e-26
3.79006e-26
3.79178e-26
3.78626e-26
1.71562e-20
1.71782e-20
1.71759e-20
1.71762e-20
1.71822e-20
1.7159e-20
3.41043e-21
3.4154e-21
3.4151e-21
3.41536e-21
3.41684e-21
3.41176e-21
2.89822e-23
2.90252e-23
2.90228e-23
2.90255e-23
2.90387e-23
2.89957e-23
2.50909e-18
2.51214e-18
2.51177e-18
2.51177e-18
2.51255e-18
2.50923e-18
8.67085e-19
8.68312e-19
8.68233e-19
8.68287e-19
8.68647e-19
8.67372e-19
1.17457e-20
1.17631e-20
1.17621e-20
1.1763e-20
1.17683e-20
1.17506e-20
)
;

boundaryField
{
    seabed_topleft_surface
    {
        type            zeroGradient;
    }
    seabed_topright_surface
    {
        type            zeroGradient;
    }
    breakwater_top_surface
    {
        type            zeroGradient;
    }
    breakwater_left_surface
    {
        type            zeroGradient;
    }
    breakwater_right_surface
    {
        type            zeroGradient;
    }
    water_front_surface
    {
        type            zeroGradient;
    }
    water_back_surface
    {
        type            zeroGradient;
    }
    water_left_surface
    {
        type            zeroGradient;
    }
    water_right_surface
    {
        type            zeroGradient;
    }
    water_top_surface
    {
        type            inletOutlet;
        inletValue      uniform 0;
        value           nonuniform List<scalar> 
180
(
0.0453315
0.0453324
0.0453326
0.0453322
0.045332
0.0453341
0
0
0
0
0
0
0
0
0
0
0
0
0
0
0
0
0
0
0
0
0
0
0
0
0
0
0
0
0
0
0
0
0
0
0
0
0
0
0
0
0
0
1.90784e-13
1.9089e-13
1.90884e-13
1.90905e-13
1.90961e-13
1.90842e-13
1.98603e-11
1.98696e-11
1.98687e-11
1.98707e-11
1.98762e-11
1.98655e-11
1.51021e-09
1.51058e-09
1.51053e-09
1.5107e-09
1.51106e-09
1.5106e-09
1.57704e-09
1.57884e-09
1.5787e-09
1.57881e-09
1.57948e-09
1.57767e-09
2.57855e-18
2.58231e-18
2.58209e-18
2.58227e-18
2.5834e-18
2.5795e-18
8.73136e-17
8.7454e-17
8.74473e-17
8.74569e-17
8.75036e-17
8.7362e-17
3.69551e-15
3.70192e-15
3.70181e-15
3.70236e-15
3.70464e-15
3.69847e-15
1.83028e-13
1.83327e-13
1.83319e-13
1.83343e-13
1.83452e-13
1.83164e-13
2.19887e-12
2.20202e-12
2.20204e-12
2.20237e-12
2.20334e-12
2.20134e-12
2.60549e-10
2.61011e-10
2.60984e-10
2.61e-10
2.61155e-10
2.60735e-10
1.22512e-61
1.22698e-61
1.22699e-61
1.22717e-61
1.22768e-61
1.22601e-61
7.12742e-57
7.13811e-57
7.13815e-57
7.1392e-57
7.14221e-57
7.13252e-57
2.10801e-52
2.11116e-52
2.11117e-52
2.11149e-52
2.1124e-52
2.10955e-52
4.00835e-48
4.01434e-48
4.01434e-48
4.01495e-48
4.01672e-48
4.01129e-48
5.22293e-44
5.23075e-44
5.2307e-44
5.23147e-44
5.23379e-44
5.22665e-44
4.69721e-40
4.70423e-40
4.70411e-40
4.70476e-40
4.70684e-40
4.70033e-40
2.85181e-36
2.85606e-36
2.85594e-36
2.85631e-36
2.85758e-36
2.85358e-36
1.12229e-32
1.12396e-32
1.1239e-32
1.12403e-32
1.12454e-32
1.12295e-32
2.71219e-29
2.71622e-29
2.71606e-29
2.71637e-29
2.71761e-29
2.71371e-29
3.78431e-26
3.78993e-26
3.78966e-26
3.79006e-26
3.79178e-26
3.78626e-26
2.89822e-23
2.90252e-23
2.90228e-23
2.90255e-23
2.90387e-23
2.89957e-23
1.17457e-20
1.17631e-20
1.17621e-20
1.1763e-20
1.17683e-20
1.17506e-20
)
;
    }
}


// ************************************************************************* //
