/*--------------------------------*- C++ -*----------------------------------*\
| =========                 |                                                 |
| \\      /  F ield         | OpenFOAM: The Open Source CFD Toolbox           |
|  \\    /   O peration     | Version:  v1612+                                |
|   \\  /    A nd           | Web:      www.OpenFOAM.com                      |
|    \\/     M anipulation  |                                                 |
\*---------------------------------------------------------------------------*/
FoamFile
{
    version     2.0;
    format      ascii;
    class       volScalarField;
    location    "1.45";
    object      p_rgh;
}
// * * * * * * * * * * * * * * * * * * * * * * * * * * * * * * * * * * * * * //

dimensions      [1 -1 -2 0 0 0 0];

internalField   nonuniform List<scalar> 
1116
(
38833.9
38833.9
38833.9
38833.9
38833.9
38833.9
37769.6
37769.6
37769.6
37769.5
37769.5
37769.5
34655.7
34655.6
34655.6
34655.6
34655.6
34655.5
30482.7
30482.7
30482.7
30482.6
30482.6
30482.6
25159.2
25159.2
25159.2
25159.2
25159.2
25159.2
19514
19514
19514.1
19514.1
19514.1
19514.1
13252.9
13252.8
13252.8
13252.8
13252.8
13252.9
8961.61
8961.55
8961.57
8961.6
8961.61
8961.66
7235.45
7235.56
7235.6
7235.62
7235.61
7235.56
2378.18
2378.38
2378.38
2378.38
2378.37
2378.22
851.065
851.074
851.08
851.083
851.083
851.077
898.353
898.375
898.393
898.405
898.403
898.385
39014.5
39014.5
39014.5
39014.6
39014.6
39014.6
37178.3
37178.3
37178.3
37178.3
37178.3
37178.3
33271.8
33271.8
33271.8
33271.8
33271.8
33271.8
27643
27643
27643
27643
27643
27643
18501.1
18501.1
18501.2
18501.2
18501.2
18501.4
10184.5
10184.3
10184.4
10184.5
10184.5
10184.6
2076.68
2076.5
2076.57
2076.61
2076.6
2076.66
-33.3728
-33.377
-33.3767
-33.3764
-33.3759
-33.3751
-79.6031
-79.6079
-79.6101
-79.6097
-79.6102
-79.6111
-55.9582
-55.9796
-55.9765
-55.9731
-55.9814
-55.9584
232.14
232.153
232.163
232.175
232.189
232.184
500.558
500.599
500.595
500.6
500.621
500.567
39630.6
39630.6
39630.6
39630.6
39630.6
39630.6
36918
36918
36918
36918
36918
36918
29664.8
29664.9
29665
29665
29665
29665.2
14326.3
14326.5
14326.7
14326.7
14326.7
14327
1135.09
1135.11
1135.19
1135.2
1135.23
1135.35
-32.6009
-32.5955
-32.5962
-32.5968
-32.5969
-32.5968
-31.1339
-31.1316
-31.1309
-31.1307
-31.1304
-31.129
-40.4914
-40.4924
-40.4922
-40.4925
-40.4933
-40.4936
-78.7225
-78.7239
-78.7258
-78.7278
-78.7306
-78.734
-115.108
-115.106
-115.107
-115.107
-115.11
-115.115
-75.3009
-75.2807
-75.2786
-75.2737
-75.2596
-75.2913
101.998
102.001
101.993
101.99
101.997
101.992
42303.9
42303.9
42303.9
42303.9
42303.9
42303.8
32575.6
32575.8
32575.8
32575.8
32575.8
32576
7292.97
7293.26
7293.34
7293.37
7293.4
7293.69
-2.9727
-2.97632
-2.97659
-2.97484
-2.97316
-2.97324
-14.7253
-14.7245
-14.7249
-14.7253
-14.7252
-14.7252
-20.175
-20.1738
-20.1735
-20.1738
-20.1744
-20.1743
-23.7907
-23.7899
-23.7895
-23.7897
-23.7904
-23.7905
-37.3615
-37.3623
-37.3623
-37.3622
-37.3623
-37.3625
-73.8436
-73.8443
-73.8445
-73.8445
-73.8453
-73.8458
-101.088
-101.089
-101.089
-101.09
-101.092
-101.093
-75.9816
-75.984
-75.9862
-75.9891
-75.993
-75.9982
-11.6429
-11.648
-11.6508
-11.6511
-11.6523
-11.6597
0.00149681
0.00146738
0.00145401
0.00145195
0.00145622
0.00146049
0.00165003
0.00163362
0.00162762
0.00163397
0.00164624
0.00166132
0.00206357
0.00205999
0.00206195
0.00207438
0.00209071
0.00210768
0.00264479
0.00266063
0.00267429
0.00269061
0.00270749
0.00272248
0.00326444
0.00330259
0.00332401
0.00333844
0.00334835
0.00335362
0.00374909
0.00379922
0.00381631
0.00381743
0.00380894
0.00379445
0.00401673
0.00405766
0.00405546
0.00403223
0.00399728
0.00396064
0.00418313
0.00419535
0.00416966
0.00412323
0.00407004
0.00402002
0.00403274
0.00401632
0.00397656
0.00392834
0.00388135
0.00384281
0.00346206
0.00343818
0.0034098
0.00338442
0.00336616
0.00335612
0.000457774
0.000446206
0.000442413
0.000446129
0.000456251
0.000469569
-0.000377609
-0.000373478
-0.000366257
-0.000356032
-0.00034448
-0.000337708
0.00147308
0.00145595
0.00144881
0.00145422
0.00146555
0.00147966
0.00167024
0.00166232
0.00166265
0.00167373
0.00169161
0.00171477
0.00214959
0.00215067
0.00215755
0.00217297
0.00219354
0.00221687
0.00282804
0.00284198
0.00285611
0.00287261
0.0028905
0.00290719
0.00353161
0.00355748
0.00357182
0.00358134
0.00358625
0.00358442
0.00392185
0.00394674
0.00394847
0.00393804
0.00391752
0.00388621
0.00332453
0.00333099
0.00330809
0.00327008
0.00322134
0.0031661
0.000838044
0.000820634
0.00077704
0.000723259
0.000665663
0.000609509
-0.00381137
-0.00384073
-0.00388122
-0.00392245
-0.00395839
-0.00398668
-0.00989749
-0.00991674
-0.00993296
-0.00994218
-0.00994232
-0.00993592
-0.0170533
-0.0170475
-0.0170382
-0.0170245
-0.0170074
-0.0169918
-0.0232321
-0.0232177
-0.0232087
-0.0232039
-0.0232037
-0.0232096
0.00148818
0.00147852
0.00147615
0.00148406
0.00149659
0.00151086
0.00171998
0.00171702
0.00172065
0.00173291
0.00175069
0.00177211
0.00225306
0.00225619
0.00226499
0.00227995
0.00229923
0.00232004
0.00303935
0.00304981
0.00306113
0.00307484
0.00308979
0.0031033
0.00399199
0.00400487
0.00401063
0.00401379
0.00401389
0.00400917
0.00503888
0.00504107
0.00502889
0.00501025
0.00498634
0.00495658
0.00642971
0.00640852
0.00637404
0.00633398
0.00629083
0.00624834
0.00949169
0.0094543
0.00941304
0.00937311
0.00933773
0.00930988
0.0143523
0.0143245
0.0143025
0.0142881
0.0142829
0.014283
0.0202457
0.0202479
0.0202525
0.0202605
0.0202707
0.0202795
0.0199981
0.0200161
0.0200252
0.0200285
0.0200251
0.0200155
0.0180947
0.0181014
0.0180932
0.0180726
0.0180436
0.018016
0.00143497
0.00143125
0.00143202
0.0014399
0.00145099
0.00146302
0.00169152
0.00169215
0.00169765
0.00170843
0.00172312
0.00174003
0.00225723
0.00226154
0.00226973
0.00228198
0.00229714
0.00231291
0.00309816
0.00310453
0.00311195
0.0031213
0.00313151
0.00314047
0.00412448
0.00412605
0.00412435
0.00412277
0.00411972
0.00411421
0.00504509
0.00503001
0.00501199
0.00499285
0.00497289
0.00495265
0.0049523
0.00491776
0.00488708
0.00485978
0.00483698
0.00482036
0.00169018
0.00165696
0.00163694
0.00162676
0.00162668
0.00163511
-0.00672523
-0.00672985
-0.00672361
-0.00670768
-0.00668652
-0.00666555
-0.0232977
-0.0232813
-0.0232682
-0.0232594
-0.0232574
-0.0232646
-0.0459419
-0.0459381
-0.0459517
-0.0459803
-0.0460182
-0.0460575
-0.115649
-0.115665
-0.115698
-0.115744
-0.115791
-0.11582
44112.4
44112.6
44112.6
44112.6
44112.6
44112.7
21479.5
21479.6
21479.7
21479.6
21479.6
21479.9
2475.28
2475.34
2475.35
2475.32
2475.31
2475.44
3069.04
3069.09
3069.09
3069.12
3069.12
3069.23
6.56654
6.56809
6.56855
6.56989
6.5716
6.57125
-53.7825
-53.7834
-53.7831
-53.7824
-53.7816
-53.7809
-16.4248
-16.4244
-16.424
-16.4228
-16.4217
-16.423
-25.9003
-25.9011
-25.9006
-25.8998
-25.899
-25.8985
-35.1031
-35.1027
-35.1025
-35.1025
-35.1027
-35.1029
-3.77222
-3.77315
-3.77294
-3.77242
-3.77223
-3.77228
-8.66072
-8.66046
-8.65985
-8.65941
-8.65907
-8.65894
-9.6916
-9.69112
-9.69093
-9.69078
-9.69074
-9.69077
-15.189
-15.1884
-15.1878
-15.1874
-15.1873
-15.1875
-10.5853
-10.5846
-10.5839
-10.5835
-10.5834
-10.5833
-6.73477
-6.7349
-6.73494
-6.73485
-6.73469
-6.73455
-17.3507
-17.3502
-17.3498
-17.3498
-17.3501
-17.3505
-10.6658
-10.6655
-10.6652
-10.6651
-10.6653
-10.6657
-5.04147
-5.04139
-5.04129
-5.04117
-5.04112
-5.0412
-18.9244
-18.9242
-18.9243
-18.9246
-18.9251
-18.9253
-11.5392
-11.5391
-11.5392
-11.5394
-11.5397
-11.5401
-4.17587
-4.17584
-4.17583
-4.17584
-4.1759
-4.17606
-26.5306
-26.5308
-26.5311
-26.5314
-26.5318
-26.5321
-13.6929
-13.6928
-13.693
-13.6931
-13.6932
-13.6934
-3.43972
-3.43975
-3.43979
-3.43977
-3.4397
-3.43971
-39.2075
-39.2076
-39.2074
-39.2074
-39.2079
-39.2081
-14.7688
-14.7688
-14.7688
-14.7687
-14.7688
-14.7689
-2.80311
-2.80297
-2.80297
-2.80296
-2.80285
-2.80304
-43.5159
-43.5168
-43.5168
-43.5169
-43.5179
-43.5166
-10.2389
-10.2388
-10.2385
-10.2383
-10.2382
-10.2379
-0.669466
-0.669205
-0.668996
-0.668778
-0.668564
-0.668685
-18.8637
-18.8658
-18.8669
-18.8679
-18.8695
-18.8683
3.37292
3.37273
3.37304
3.37363
3.37405
3.37536
3.3194
3.31985
3.32034
3.3208
3.32114
3.32146
9.20352
9.198
9.19742
9.19846
9.19809
9.1973
15.498
15.4983
15.499
15.4998
15.5002
15.5009
7.53856
7.53937
7.54001
7.54039
7.54069
7.54101
-0.350364
-0.350347
-0.350371
-0.35043
-0.350502
-0.35056
0.355736
0.355795
0.355804
0.35576
0.355713
0.355676
0.368997
0.369031
0.369044
0.369051
0.369045
0.369014
-0.838118
-0.838035
-0.838051
-0.838121
-0.838211
-0.838265
0.647601
0.647745
0.6478
0.647757
0.647684
0.647618
0.655103
0.655155
0.655165
0.655158
0.655127
0.655079
-1.78812
-1.78803
-1.78806
-1.78817
-1.78837
-1.7885
1.22362
1.22384
1.22393
1.22387
1.22372
1.22353
1.15899
1.15909
1.15913
1.15912
1.15906
1.15899
-3.10188
-3.10184
-3.102
-3.10225
-3.10258
-3.10292
2.33342
2.33363
2.33368
2.33359
2.33339
2.33291
2.02915
2.02929
2.02934
2.02932
2.02924
2.02899
-4.16446
-4.16453
-4.16458
-4.16472
-4.165
-4.16532
3.59331
3.59352
3.59363
3.59363
3.59341
3.59282
3.38408
3.38425
3.38437
3.38441
3.38433
3.3839
-20.6304
-20.6318
-20.6326
-20.6335
-20.6347
-20.6356
4.64041
4.641
4.64143
4.64159
4.64148
4.64145
5.21135
5.21179
5.2121
5.21227
5.21224
5.21184
0.00121269
0.00121274
0.00121531
0.00122152
0.00122979
0.00123849
0.000807488
0.000808856
0.00081126
0.000815149
0.00082015
0.000825306
0.000348824
0.000349348
0.000350207
0.00035143
0.000353092
0.000354856
0.00145447
0.00145711
0.00146219
0.00147018
0.00148054
0.001492
0.000981698
0.000984112
0.000987535
0.000992235
0.000998116
0.00100442
0.000424531
0.000425295
0.000426417
0.000427856
0.000429687
0.000431665
0.00198892
0.00199313
0.00199916
0.00200744
0.00201736
0.00202728
0.00136538
0.00136802
0.00137145
0.00137579
0.00138084
0.00138567
0.000593409
0.000594154
0.000595159
0.000596355
0.000597734
0.000599017
0.00285056
0.00285336
0.00285696
0.00286179
0.00286716
0.00287167
0.00200291
0.00200371
0.00200466
0.00200625
0.00200815
0.00200962
0.000888022
0.000887875
0.000887922
0.000888061
0.00088828
0.000888398
0.00412461
0.0041195
0.00411424
0.00411038
0.00410656
0.00410226
0.00299435
0.00298869
0.00298388
0.00298055
0.00297801
0.00297612
0.00138165
0.00137944
0.00137759
0.00137612
0.00137514
0.00137483
0.00608974
0.00606912
0.00605265
0.0060392
0.00602855
0.0060213
0.00457249
0.00455786
0.00454809
0.00454253
0.00454098
0.00454383
0.00224999
0.0022456
0.00224269
0.00224135
0.00224226
0.00224627
0.00963871
0.00960816
0.0095903
0.00958152
0.00958169
0.00959097
0.00723475
0.00721971
0.00721531
0.00722061
0.00723487
0.00725771
0.00391547
0.0039136
0.00391493
0.00391963
0.00392904
0.00394356
0.0163475
0.0163317
0.0163322
0.0163474
0.0163731
0.0164057
0.0117393
0.0117413
0.0117556
0.0117796
0.0118114
0.0118458
0.00731899
0.0073252
0.00733473
0.0073474
0.00736271
0.00737717
0.0276823
0.0276914
0.0277109
0.0277352
0.0277602
0.0277786
0.0197503
0.0197624
0.019779
0.0197968
0.0198111
0.0198151
0.014894
0.0148991
0.0149046
0.0149096
0.0149108
0.0149058
0.0410361
0.0410388
0.0410349
0.0410245
0.0410066
0.0409809
0.0341241
0.0341139
0.0340981
0.0340778
0.0340543
0.0340333
0.0321393
0.0321289
0.0321175
0.0321039
0.0320925
0.0320913
0.0435008
0.0434659
0.0434234
0.0433752
0.0433321
0.0433081
0.0709922
0.0709644
0.0709362
0.0709116
0.0708985
0.0709147
0.0735295
0.0735269
0.0735224
0.0735186
0.0735257
0.0735564
-0.0534105
-0.0534519
-0.0535019
-0.0535523
-0.0535821
-0.0535811
0.148
0.148006
0.148001
0.147994
0.147989
0.147985
0.16539
0.165409
0.165429
0.165439
0.165429
0.165394
)
;

boundaryField
{
    seabed_topleft_surface
    {
        type            fixedFluxPressure;
        gradient        uniform 0;
        value           nonuniform List<scalar> 
72
(
38833.9
38833.9
38833.9
38833.9
38833.9
38833.9
37769.6
37769.6
37769.6
37769.5
37769.5
37769.5
34655.7
34655.6
34655.6
34655.6
34655.6
34655.5
30482.7
30482.7
30482.7
30482.6
30482.6
30482.6
25159.2
25159.2
25159.2
25159.2
25159.2
25159.2
19514
19514
19514.1
19514.1
19514.1
19514.1
13252.9
13252.8
13252.8
13252.8
13252.8
13252.9
8961.61
8961.55
8961.57
8961.6
8961.61
8961.66
7235.45
7235.56
7235.6
7235.62
7235.61
7235.56
2378.18
2378.38
2378.38
2378.38
2378.37
2378.22
851.065
851.074
851.08
851.083
851.083
851.077
898.353
898.375
898.393
898.405
898.403
898.385
)
;
    }
    seabed_topright_surface
    {
        type            fixedFluxPressure;
        gradient        uniform 0;
        value           nonuniform List<scalar> 
72
(
0.00149681
0.00146738
0.00145401
0.00145195
0.00145622
0.00146049
0.00165003
0.00163362
0.00162762
0.00163397
0.00164624
0.00166132
0.00206357
0.00205999
0.00206195
0.00207438
0.00209071
0.00210768
0.00264479
0.00266063
0.00267429
0.00269061
0.00270749
0.00272248
0.00326444
0.00330259
0.00332401
0.00333844
0.00334835
0.00335362
0.00374909
0.00379922
0.00381631
0.00381743
0.00380894
0.00379445
0.00401673
0.00405766
0.00405546
0.00403223
0.00399728
0.00396064
0.00418313
0.00419535
0.00416966
0.00412323
0.00407004
0.00402002
0.00403274
0.00401632
0.00397656
0.00392834
0.00388135
0.00384281
0.00346206
0.00343818
0.0034098
0.00338442
0.00336616
0.00335612
0.000457774
0.000446206
0.000442413
0.000446129
0.000456251
0.000469569
-0.000377609
-0.000373478
-0.000366257
-0.000356032
-0.00034448
-0.000337708
)
;
    }
    breakwater_top_surface
    {
        type            fixedFluxPressure;
        gradient        uniform 0;
        value           nonuniform List<scalar> 
36
(
-0.350364
-0.350347
-0.350371
-0.35043
-0.350502
-0.35056
-0.838118
-0.838035
-0.838051
-0.838121
-0.838211
-0.838265
-1.78812
-1.78803
-1.78806
-1.78817
-1.78837
-1.7885
-3.10188
-3.10184
-3.102
-3.10225
-3.10258
-3.10292
-4.16446
-4.16453
-4.16458
-4.16472
-4.165
-4.16532
-20.6304
-20.6318
-20.6326
-20.6335
-20.6347
-20.6356
)
;
    }
    breakwater_left_surface
    {
        type            fixedFluxPressure;
        gradient        uniform 0;
        value           nonuniform List<scalar> 
24
(
898.353
898.375
898.393
898.405
898.403
898.385
500.558
500.599
500.595
500.6
500.621
500.567
101.998
102.001
101.993
101.99
101.997
101.992
-11.6429
-11.648
-11.6508
-11.6511
-11.6523
-11.6597
)
;
    }
    breakwater_right_surface
    {
        type            fixedFluxPressure;
        gradient        uniform 0;
        value           nonuniform List<scalar> 
24
(
-0.000377609
-0.000373478
-0.000366257
-0.000356032
-0.00034448
-0.000337708
-0.0232321
-0.0232177
-0.0232087
-0.0232039
-0.0232037
-0.0232096
0.0180947
0.0181014
0.0180932
0.0180726
0.0180436
0.018016
-0.115649
-0.115665
-0.115698
-0.115744
-0.115791
-0.11582
)
;
    }
    water_front_surface
    {
        type            fixedFluxPressure;
        gradient        uniform 0;
        value           nonuniform List<scalar> 
186
(
38833.9
37769.6
34655.7
30482.7
25159.2
19514
13252.9
8961.61
7235.45
2378.18
851.065
898.353
39014.5
37178.3
33271.8
27643
18501.1
10184.5
2076.68
-33.3728
-79.6031
-55.9582
232.14
500.558
39630.6
36918
29664.8
14326.3
1135.09
-32.6009
-31.1339
-40.4914
-78.7225
-115.108
-75.3009
101.998
42303.9
32575.6
7292.97
-2.9727
-14.7253
-20.175
-23.7907
-37.3615
-73.8436
-101.088
-75.9816
-11.6429
0.00149681
0.00165003
0.00206357
0.00264479
0.00326444
0.00374909
0.00401673
0.00418313
0.00403274
0.00346206
0.000457774
-0.000377609
0.00147308
0.00167024
0.00214959
0.00282804
0.00353161
0.00392185
0.00332453
0.000838044
-0.00381137
-0.00989749
-0.0170533
-0.0232321
0.00148818
0.00171998
0.00225306
0.00303935
0.00399199
0.00503888
0.00642971
0.00949169
0.0143523
0.0202457
0.0199981
0.0180947
0.00143497
0.00169152
0.00225723
0.00309816
0.00412448
0.00504509
0.0049523
0.00169018
-0.00672523
-0.0232977
-0.0459419
-0.115649
44112.4
21479.5
2475.28
3069.04
6.56654
-53.7825
-16.4248
-25.9003
-35.1031
-3.77222
-8.66072
-9.6916
-15.189
-10.5853
-6.73477
-17.3507
-10.6658
-5.04147
-18.9244
-11.5392
-4.17587
-26.5306
-13.6929
-3.43972
-39.2075
-14.7688
-2.80311
-43.5159
-10.2389
-0.669466
-18.8637
3.37292
3.3194
9.20352
15.498
7.53856
-0.350364
0.355736
0.368997
-0.838118
0.647601
0.655103
-1.78812
1.22362
1.15899
-3.10188
2.33342
2.02915
-4.16446
3.59331
3.38408
-20.6304
4.64041
5.21135
0.00121269
0.000807488
0.000348824
0.00145447
0.000981698
0.000424531
0.00198892
0.00136538
0.000593409
0.00285056
0.00200291
0.000888022
0.00412461
0.00299435
0.00138165
0.00608974
0.00457249
0.00224999
0.00963871
0.00723475
0.00391547
0.0163475
0.0117393
0.00731899
0.0276823
0.0197503
0.014894
0.0410361
0.0341241
0.0321393
0.0435008
0.0709922
0.0735295
-0.0534105
0.148
0.16539
)
;
    }
    water_back_surface
    {
        type            fixedFluxPressure;
        gradient        uniform 0;
        value           nonuniform List<scalar> 
186
(
38833.9
37769.5
34655.5
30482.6
25159.2
19514.1
13252.9
8961.66
7235.56
2378.22
851.077
898.385
39014.6
37178.3
33271.8
27643
18501.4
10184.6
2076.66
-33.3751
-79.6111
-55.9584
232.184
500.567
39630.6
36918
29665.2
14327
1135.35
-32.5968
-31.129
-40.4936
-78.734
-115.115
-75.2913
101.992
42303.8
32576
7293.69
-2.97324
-14.7252
-20.1743
-23.7905
-37.3625
-73.8458
-101.093
-75.9982
-11.6597
0.00146049
0.00166132
0.00210768
0.00272248
0.00335362
0.00379445
0.00396064
0.00402002
0.00384281
0.00335612
0.000469569
-0.000337708
0.00147966
0.00171477
0.00221687
0.00290719
0.00358442
0.00388621
0.0031661
0.000609509
-0.00398668
-0.00993592
-0.0169918
-0.0232096
0.00151086
0.00177211
0.00232004
0.0031033
0.00400917
0.00495658
0.00624834
0.00930988
0.014283
0.0202795
0.0200155
0.018016
0.00146302
0.00174003
0.00231291
0.00314047
0.00411421
0.00495265
0.00482036
0.00163511
-0.00666555
-0.0232646
-0.0460575
-0.11582
44112.7
21479.9
2475.44
3069.23
6.57125
-53.7809
-16.423
-25.8985
-35.1029
-3.77228
-8.65894
-9.69077
-15.1875
-10.5833
-6.73455
-17.3505
-10.6657
-5.0412
-18.9253
-11.5401
-4.17606
-26.5321
-13.6934
-3.43971
-39.2081
-14.7689
-2.80304
-43.5166
-10.2379
-0.668685
-18.8683
3.37536
3.32146
9.1973
15.5009
7.54101
-0.35056
0.355676
0.369014
-0.838265
0.647618
0.655079
-1.7885
1.22353
1.15899
-3.10292
2.33291
2.02899
-4.16532
3.59282
3.3839
-20.6356
4.64145
5.21184
0.00123849
0.000825306
0.000354856
0.001492
0.00100442
0.000431665
0.00202728
0.00138567
0.000599017
0.00287167
0.00200962
0.000888398
0.00410226
0.00297612
0.00137483
0.0060213
0.00454383
0.00224627
0.00959097
0.00725771
0.00394356
0.0164057
0.0118458
0.00737717
0.0277786
0.0198151
0.0149058
0.0409809
0.0340333
0.0320913
0.0433081
0.0709147
0.0735564
-0.0535811
0.147985
0.165394
)
;
    }
    water_left_surface
    {
        type            fixedFluxPressure;
        gradient        uniform 0;
        value           nonuniform List<scalar> 
42
(
38833.9
38833.9
38833.9
38833.9
38833.9
38833.9
39014.5
39014.5
39014.5
39014.6
39014.6
39014.6
39630.6
39630.6
39630.6
39630.6
39630.6
39630.6
42303.9
42303.9
42303.9
42303.9
42303.9
42303.8
44112.4
44112.6
44112.6
44112.6
44112.6
44112.7
21479.5
21479.6
21479.7
21479.6
21479.6
21479.9
2475.28
2475.34
2475.35
2475.32
2475.31
2475.44
)
;
    }
    water_right_surface
    {
        type            fixedFluxPressure;
        gradient        uniform 0;
        value           nonuniform List<scalar> 
42
(
0.00149681
0.00146738
0.00145401
0.00145195
0.00145622
0.00146049
0.00147308
0.00145595
0.00144881
0.00145422
0.00146555
0.00147966
0.00148818
0.00147852
0.00147615
0.00148406
0.00149659
0.00151086
0.00143497
0.00143125
0.00143202
0.0014399
0.00145099
0.00146302
0.00121269
0.00121274
0.00121531
0.00122152
0.00122979
0.00123849
0.000807488
0.000808856
0.00081126
0.000815149
0.00082015
0.000825306
0.000348824
0.000349348
0.000350207
0.00035143
0.000353092
0.000354856
)
;
    }
    water_top_surface
    {
        type            totalPressure;
        rho             rho;
        psi             none;
        gamma           1;
        p0              uniform 0;
        value           nonuniform List<scalar> 
180
(
0
0
0
0
0
0
-54.5438
-54.5472
-54.5454
-54.5438
-54.542
-54.5364
-18.7137
-18.7128
-18.7134
-18.7141
-18.7152
-18.7154
-6.10592
-6.10536
-6.10574
-6.10608
-6.10641
-6.10662
-5.06415
-5.06511
-5.06566
-5.06601
-5.0662
-5.06611
-2.92755
-2.92801
-2.92808
-2.92805
-2.92798
-2.92774
-2.11588
-2.11589
-2.11581
-2.1157
-2.11552
-2.11523
-0.443284
-0.443144
-0.443105
-0.443064
-0.442989
-0.442953
0
0
0
0
0
0
0
0
0
0
0
0
0
0
0
0
0
0
0
0
0
0
0
0
0
0
0
0
0
0
0
0
0
0
0
0
0
0
0
0
0
0
0
0
0
0
0
0
0
0
0
0
0
0
0
0
0
0
0
0
0
0
0
0
0
0
0
0
0
0
0
0
0
0
0
0
0
0
0
0
0
0
0
0
0
0
0
0
0
0
0
0
0
0
0
0
0
0
0
0
0
0
0
0
0
0
0
0
0
0
0
0
0
0
0
0
0
0
0
0
0
0
0
0
0
0
0
0
0
0
0
0
)
;
    }
}


// ************************************************************************* //
