/*--------------------------------*- C++ -*----------------------------------*\
| =========                 |                                                 |
| \\      /  F ield         | OpenFOAM: The Open Source CFD Toolbox           |
|  \\    /   O peration     | Version:  v1612+                                |
|   \\  /    A nd           | Web:      www.OpenFOAM.com                      |
|    \\/     M anipulation  |                                                 |
\*---------------------------------------------------------------------------*/
FoamFile
{
    version     2.0;
    format      ascii;
    class       volScalarField;
    location    "3";
    object      alpha.water;
}
// * * * * * * * * * * * * * * * * * * * * * * * * * * * * * * * * * * * * * //

dimensions      [0 0 0 0 0 0 0];

internalField   nonuniform List<scalar> 
1116
(
0.874782
0.874777
0.874778
0.874777
0.874774
0.874778
0.876307
0.876302
0.876303
0.876302
0.876299
0.876303
0.888441
0.888435
0.888437
0.888436
0.888433
0.888438
0.911492
0.911485
0.911488
0.911487
0.911484
0.911489
0.934583
0.934577
0.934578
0.934577
0.934575
0.93458
0.950731
0.950726
0.950726
0.950725
0.950724
0.950727
0.95922
0.959215
0.959214
0.959212
0.959212
0.959214
0.971104
0.9711
0.971099
0.971098
0.971098
0.9711
0.973115
0.973115
0.973115
0.973115
0.973115
0.973115
0.973116
0.973116
0.973116
0.973116
0.973116
0.973116
0.973116
0.973116
0.973116
0.973116
0.973116
0.973116
0.969129
0.96913
0.96913
0.96913
0.969132
0.969126
0.297286
0.297287
0.297285
0.297283
0.297283
0.297283
0.158255
0.158254
0.158254
0.158251
0.158249
0.158254
0.132911
0.132909
0.132909
0.132908
0.132906
0.13291
0.158466
0.158463
0.158463
0.158462
0.15846
0.158464
0.212536
0.212531
0.212532
0.212531
0.212529
0.212533
0.285781
0.285776
0.285778
0.285778
0.285775
0.285779
0.359651
0.359647
0.359648
0.359648
0.359647
0.359649
0.372882
0.37288
0.37288
0.372881
0.372881
0.372881
0.410391
0.410381
0.410384
0.410384
0.410383
0.410387
0.614637
0.614605
0.614615
0.614616
0.61461
0.614628
0.941244
0.941231
0.941234
0.941235
0.941231
0.941242
0.969081
0.969081
0.969081
0.969082
0.969084
0.969078
3.25953e-08
3.25952e-08
3.25959e-08
3.25976e-08
3.25997e-08
3.26008e-08
1.1797e-08
1.17966e-08
1.17968e-08
1.17956e-08
1.17944e-08
1.17959e-08
8.5847e-09
8.58458e-09
8.58467e-09
8.58386e-09
8.58293e-09
8.58352e-09
4.0856e-09
4.08568e-09
4.08569e-09
4.08553e-09
4.08531e-09
4.0849e-09
4.56875e-10
4.56881e-10
4.56878e-10
4.56856e-10
4.56829e-10
4.56776e-10
5.50257e-11
5.5026e-11
5.50248e-11
5.50217e-11
5.50184e-11
5.50119e-11
3.32875e-12
3.32912e-12
3.32843e-12
3.32792e-12
3.32776e-12
3.32645e-12
3.5178e-14
3.51907e-14
3.51877e-14
3.51855e-14
3.51863e-14
3.51823e-14
2.9214e-05
2.91766e-05
2.91864e-05
2.9188e-05
2.91869e-05
2.92013e-05
0.00161004
0.00160879
0.0016093
0.00160934
0.00160913
0.00160967
0.540215
0.540155
0.54017
0.540174
0.540166
0.540192
0.934172
0.934165
0.934172
0.934166
0.934157
0.93419
5.62439e-07
5.62457e-07
5.62553e-07
5.6266e-07
5.62676e-07
5.62631e-07
4.21887e-06
4.21863e-06
4.21871e-06
4.21872e-06
4.21856e-06
4.21901e-06
1.28487e-08
1.28489e-08
1.28476e-08
1.28471e-08
1.28484e-08
1.28475e-08
1.55415e-07
1.55395e-07
1.55397e-07
1.55367e-07
1.55334e-07
1.55401e-07
1.67536e-07
1.67528e-07
1.67528e-07
1.67523e-07
1.67517e-07
1.67509e-07
2.31214e-10
2.31666e-10
2.31436e-10
2.31335e-10
2.31316e-10
2.30333e-10
9.19169e-14
9.1911e-14
9.19083e-14
9.19084e-14
9.19024e-14
9.19132e-14
-1.16613e-16
-1.16407e-16
-1.16252e-16
-1.16041e-16
-1.16032e-16
-1.17141e-16
-2.71091e-06
-2.71173e-06
-2.71161e-06
-2.71159e-06
-2.71195e-06
-2.7112e-06
6.21077e-05
6.21149e-05
6.21149e-05
6.21135e-05
6.21143e-05
6.21141e-05
0.0311288
0.0311011
0.0311058
0.0311097
0.0311047
0.0311186
0.91819
0.918167
0.918168
0.91818
0.918196
0.918159
2.538e-60
2.54286e-60
2.54249e-60
2.54251e-60
2.54336e-60
2.53808e-60
6.35566e-56
6.36291e-56
6.3607e-56
6.3607e-56
6.36368e-56
6.35296e-56
8.40822e-52
8.40329e-52
8.39616e-52
8.39556e-52
8.40145e-52
8.39226e-52
7.78732e-48
7.76882e-48
7.75858e-48
7.7616e-48
7.78146e-48
7.76487e-48
4.33451e-42
4.32536e-42
4.31946e-42
4.35166e-42
4.46368e-42
4.28142e-42
2.20702e-37
2.22599e-37
2.23603e-37
2.2623e-37
2.32852e-37
2.23858e-37
1.11935e-33
1.15178e-33
1.16715e-33
1.1862e-33
1.22237e-33
1.17314e-33
1.0336e-30
1.09103e-30
1.11292e-30
1.12989e-30
1.15543e-30
1.09305e-30
1.0719e-28
1.16134e-28
1.17862e-28
1.17103e-28
1.15886e-28
1.04403e-28
6.32783e-31
6.77776e-31
6.86583e-31
6.84414e-31
6.81114e-31
6.19285e-31
3.96598e-30
3.97396e-30
3.97476e-30
3.97685e-30
3.9818e-30
3.98192e-30
1.91365e-27
1.91834e-27
1.91856e-27
1.91869e-27
1.91936e-27
1.91686e-27
2.00136e-57
2.00522e-57
2.00492e-57
2.00492e-57
2.00556e-57
2.0014e-57
4.96133e-53
4.96913e-53
4.96788e-53
4.96779e-53
4.96966e-53
4.9605e-53
6.32556e-49
6.33047e-49
6.32734e-49
6.32684e-49
6.32988e-49
6.32033e-49
8.17406e-45
8.16819e-45
8.15309e-45
8.16417e-45
8.23005e-45
8.08743e-45
1.2696e-38
1.27056e-38
1.26895e-38
1.27725e-38
1.30767e-38
1.25007e-38
4.78652e-34
4.81959e-34
4.82982e-34
4.87333e-34
4.99837e-34
4.78381e-34
2.05153e-30
2.0874e-30
2.10112e-30
2.12465e-30
2.17933e-30
2.08217e-30
1.78457e-27
1.83653e-27
1.85257e-27
1.87012e-27
1.90719e-27
1.80493e-27
2.10249e-25
2.18535e-25
2.19474e-25
2.18026e-25
2.17823e-25
1.99807e-25
1.96773e-27
2.03239e-27
2.03916e-27
2.03295e-27
2.04017e-27
1.8856e-27
5.83809e-27
5.84757e-27
5.84758e-27
5.84926e-27
5.85491e-27
5.85289e-27
1.79822e-24
1.80184e-24
1.80172e-24
1.80154e-24
1.80179e-24
1.79912e-24
6.0383e-55
6.05007e-55
6.04934e-55
6.04946e-55
6.05148e-55
6.039e-55
1.46778e-50
1.47043e-50
1.4702e-50
1.47022e-50
1.47075e-50
1.46793e-50
1.77619e-46
1.7788e-46
1.77835e-46
1.77832e-46
1.77904e-46
1.77594e-46
1.01013e-41
1.00969e-41
1.00649e-41
1.00971e-41
1.02756e-41
9.85562e-42
1.54058e-35
1.54332e-35
1.54142e-35
1.55096e-35
1.58625e-35
1.51379e-35
3.60928e-31
3.62766e-31
3.63015e-31
3.65785e-31
3.74473e-31
3.57566e-31
1.13661e-27
1.14819e-27
1.15139e-27
1.16139e-27
1.18869e-27
1.13371e-27
8.38952e-25
8.51095e-25
8.53675e-25
8.59914e-25
8.76759e-25
8.31925e-25
1.19188e-22
1.20412e-22
1.20577e-22
1.20091e-22
1.21594e-22
1.13969e-22
2.84966e-21
2.77126e-21
2.56493e-21
2.3701e-21
1.67643e-21
1.7223e-21
3.03953e-23
2.99461e-23
2.85298e-23
2.70875e-23
2.28698e-23
2.22453e-23
8.17285e-22
8.18626e-22
8.18457e-22
8.1826e-22
8.18219e-22
8.16907e-22
8.38756e-53
8.40391e-53
8.40303e-53
8.40329e-53
8.40617e-53
8.3889e-53
1.97778e-48
1.98155e-48
1.98134e-48
1.9814e-48
1.98209e-48
1.9782e-48
2.23415e-44
2.23815e-44
2.23783e-44
2.23786e-44
2.23862e-44
2.2344e-44
1.49574e-38
1.49565e-38
1.49051e-38
1.49579e-38
1.52532e-38
1.4537e-38
1.16876e-32
1.17094e-32
1.16922e-32
1.176e-32
1.20174e-32
1.14565e-32
1.76579e-28
1.77123e-28
1.76995e-28
1.78133e-28
1.82098e-28
1.73634e-28
4.26185e-25
4.2811e-25
4.28033e-25
4.30928e-25
4.4039e-25
4.19777e-25
2.68158e-22
2.69532e-22
2.69383e-22
2.71054e-22
2.7647e-22
2.63276e-22
4.08848e-20
4.06998e-20
4.09328e-20
4.0717e-20
4.17562e-20
3.9701e-20
5.75882e-18
5.71918e-18
5.58538e-18
5.64023e-18
3.85208e-18
5.45303e-18
1.84616e-19
1.5251e-19
1.17132e-19
1.5094e-19
7.73171e-20
1.4658e-19
8.17366e-22
8.18691e-22
8.18508e-22
8.18325e-22
8.18249e-22
8.16975e-22
4.81553e-07
4.815e-07
4.81642e-07
4.81802e-07
4.81828e-07
4.81813e-07
3.20016e-08
3.19864e-08
3.1996e-08
3.20074e-08
3.20123e-08
3.20253e-08
-2.35409e-15
-2.57839e-15
-2.64662e-15
-2.58777e-15
-2.57249e-15
-2.63409e-15
5.11487e-06
5.11489e-06
5.1149e-06
5.11494e-06
5.11497e-06
5.11497e-06
1.76771e-06
1.76686e-06
1.76729e-06
1.76719e-06
1.76627e-06
1.76792e-06
-1.28776e-14
-1.41039e-14
-1.4478e-14
-1.41559e-14
-1.40723e-14
-1.44106e-14
4.38651e-07
4.38638e-07
4.38621e-07
4.38695e-07
4.38777e-07
4.38721e-07
5.26626e-08
5.2648e-08
5.26507e-08
5.2658e-08
5.26589e-08
5.26772e-08
-8.6443e-14
-9.46773e-14
-9.71857e-14
-9.50238e-14
-9.44637e-14
-9.67269e-14
1.8753e-07
1.87378e-07
1.87411e-07
1.87277e-07
1.8723e-07
1.87681e-07
4.87976e-19
4.88227e-19
4.8817e-19
4.88651e-19
4.8885e-19
4.87805e-19
-6.34401e-14
-6.94788e-14
-7.13171e-14
-6.97269e-14
-6.93157e-14
-7.09744e-14
2.19759e-07
2.19759e-07
2.19757e-07
2.19755e-07
2.19752e-07
2.19749e-07
6.23789e-08
6.23275e-08
6.23295e-08
6.2309e-08
6.2279e-08
6.23187e-08
-2.17316e-15
-2.38177e-15
-2.44702e-15
-2.39184e-15
-2.37668e-15
-2.4103e-15
3.30957e-08
3.30931e-08
3.309e-08
3.30869e-08
3.30833e-08
3.30781e-08
3.82772e-18
3.82248e-18
3.82439e-18
3.82443e-18
3.82253e-18
3.8304e-18
-2.99903e-18
-3.266e-18
-3.35073e-18
-3.27958e-18
-3.25874e-18
-3.30453e-18
-1.41728e-15
-1.42159e-15
-1.41975e-15
-1.4188e-15
-1.42116e-15
-1.41656e-15
-1.55639e-14
-1.54912e-14
-1.55369e-14
-1.55707e-14
-1.55227e-14
-1.57493e-14
-7.81545e-18
-7.72581e-18
-7.78371e-18
-7.83153e-18
-7.7988e-18
-8.02754e-18
-8.90792e-14
-8.91126e-14
-8.9086e-14
-8.90749e-14
-8.9088e-14
-8.89679e-14
-3.28043e-13
-3.26445e-13
-3.27373e-13
-3.28033e-13
-3.26926e-13
-3.31897e-13
-2.79511e-15
-2.77913e-15
-2.79032e-15
-2.79833e-15
-2.79097e-15
-2.83432e-15
-1.29276e-07
-1.29281e-07
-1.2929e-07
-1.293e-07
-1.29324e-07
-1.29264e-07
-1.64187e-12
-1.63365e-12
-1.63822e-12
-1.64134e-12
-1.63557e-12
-1.66085e-12
-8.97914e-13
-8.93467e-13
-8.95949e-13
-8.97658e-13
-8.94669e-13
-9.07989e-13
5.49587e-06
5.49568e-06
5.4957e-06
5.4961e-06
5.49677e-06
5.49564e-06
-1.81464e-07
-1.81511e-07
-1.81497e-07
-1.81455e-07
-1.81466e-07
-1.81505e-07
-1.24451e-12
-2.00296e-12
-3.99987e-12
-1.42892e-12
-5.00715e-13
-1.45783e-11
6.74426e-05
6.74476e-05
6.74483e-05
6.74502e-05
6.74542e-05
6.74436e-05
5.90606e-06
5.90704e-06
5.90698e-06
5.90715e-06
5.90735e-06
5.90643e-06
3.0172e-07
3.01772e-07
3.01793e-07
3.01814e-07
3.01812e-07
3.01805e-07
0.566834
0.566812
0.566818
0.566788
0.566721
0.566875
0.0401824
0.0401595
0.0401626
0.0402121
0.040295
0.0400651
1.69482e-05
1.69474e-05
1.69471e-05
1.69485e-05
1.69519e-05
1.6945e-05
2.14356e-09
2.18457e-09
2.1412e-09
2.19854e-09
2.392e-09
1.6897e-09
1.06924e-17
1.07116e-17
-2.37113e-18
1.0469e-17
1.09018e-17
-5.44288e-18
1.62952e-35
1.65284e-35
1.61372e-35
1.66111e-35
1.31561e-36
1.34665e-35
3.06932e-06
3.05761e-06
3.0588e-06
3.06842e-06
3.10289e-06
3.03248e-06
8.57644e-08
8.5687e-08
8.54865e-08
8.62397e-08
8.84984e-08
8.34615e-08
0.00429386
0.00426484
0.0042506
0.00436468
0.00463683
0.00400754
0.00894503
0.00890793
0.00890617
0.00901961
0.00922999
0.00869373
0.0709831
0.0704588
0.0704159
0.071902
0.074905
0.0674719
0.10369
0.103649
0.10357
0.103949
0.104853
0.102719
0.042093
0.0420728
0.0420614
0.0421558
0.0422284
0.0420357
0.393928
0.394088
0.394102
0.393537
0.392397
0.395462
0.115642
0.115748
0.115709
0.115604
0.115394
0.115999
0.489255
0.48916
0.489098
0.489584
0.490607
0.488217
0.397068
0.397378
0.39744
0.396328
0.39388
0.399898
0.00404805
0.00404868
0.00404901
0.00404888
0.00404704
0.00405049
0.562893
0.562881
0.562879
0.562862
0.562851
0.562929
0.102058
0.102061
0.102072
0.102032
0.101866
0.102242
0.00184729
0.00184728
0.00184777
0.00184694
0.00184461
0.00185028
4.61e-51
4.61893e-51
4.61848e-51
4.61865e-51
4.62023e-51
4.61079e-51
7.93432e-53
7.95057e-53
7.95045e-53
7.95076e-53
7.95299e-53
7.93613e-53
3.17186e-56
3.17871e-56
3.17862e-56
3.17876e-56
3.17971e-56
3.1727e-56
1.0408e-46
1.04281e-46
1.04271e-46
1.04275e-46
1.04311e-46
1.04106e-46
3.62067e-48
3.62791e-48
3.6279e-48
3.62803e-48
3.62896e-48
3.62169e-48
1.66495e-51
1.66844e-51
1.6684e-51
1.66846e-51
1.66891e-51
1.6654e-51
1.07181e-42
1.07381e-42
1.0737e-42
1.07372e-42
1.07405e-42
1.07197e-42
7.77522e-44
7.79e-44
7.78992e-44
7.79003e-44
7.79172e-44
7.77679e-44
4.47322e-47
4.48219e-47
4.48208e-47
4.48216e-47
4.48323e-47
4.47413e-47
1.47387e-35
1.47392e-35
1.46876e-35
1.47378e-35
1.50279e-35
1.43119e-35
9.30608e-33
9.30501e-33
9.27102e-33
9.30088e-33
9.48226e-33
9.02962e-33
2.89006e-30
2.88888e-30
2.87754e-30
2.88582e-30
2.9413e-30
2.80065e-30
5.22349e-30
5.23265e-30
5.22385e-30
5.25296e-30
5.36531e-30
5.11323e-30
1.7379e-27
1.74076e-27
1.73765e-27
1.7472e-27
1.78417e-27
1.70043e-27
3.57464e-25
3.58025e-25
3.57363e-25
3.59324e-25
3.66878e-25
3.49711e-25
4.27532e-26
4.28428e-26
4.27817e-26
4.3032e-26
4.39567e-26
4.18966e-26
7.52494e-24
7.53819e-24
7.52537e-24
7.56808e-24
7.72802e-24
7.36649e-24
7.26787e-22
7.27988e-22
7.26677e-22
7.30797e-22
7.46093e-22
7.1137e-22
6.49248e-23
6.50769e-23
6.4985e-23
6.53715e-23
6.67588e-23
6.36353e-23
6.51653e-21
6.52802e-21
6.51629e-21
6.55373e-21
6.69058e-21
6.37912e-21
2.8254e-19
2.83007e-19
2.82471e-19
2.84103e-19
2.8997e-19
2.76578e-19
2.72744e-20
2.73366e-20
2.72893e-20
2.74481e-20
2.79858e-20
2.67026e-20
1.48608e-18
1.48859e-18
1.48561e-18
1.49422e-18
1.5209e-18
1.4544e-18
2.33901e-17
2.34278e-17
2.33797e-17
2.35168e-17
2.39908e-17
2.28992e-17
3.08017e-18
3.02416e-18
3.07874e-18
3.02576e-18
3.1487e-18
3.00696e-18
6.85142e-17
6.3928e-17
6.847e-17
6.37545e-17
7.00568e-17
6.69385e-17
1.67298e-17
1.67049e-17
1.673e-17
1.66982e-17
1.64677e-17
1.67297e-17
7.71835e-16
7.66073e-16
7.46586e-16
7.66293e-16
3.84852e-16
7.50177e-16
1.35479e-14
1.3595e-14
1.35756e-14
1.36357e-14
1.95419e-17
1.3068e-14
1.52393e-17
1.30727e-17
1.52392e-17
1.29933e-17
1.48872e-17
1.51353e-17
6.12552e-17
6.04161e-17
5.88577e-17
6.03626e-17
3.02463e-17
6.02771e-17
4.72243e-18
4.79913e-18
4.69151e-18
5.44557e-19
4.18153e-19
5.50149e-19
4.68458e-18
4.76162e-18
4.65317e-18
4.89377e-18
4.18142e-19
3.54304e-18
-1.22928e-11
-1.24498e-11
-1.23742e-11
-1.24974e-11
-1.36023e-11
-1.144e-11
-3.22286e-16
-1.42474e-17
-5.04191e-16
-9.56364e-17
-3.57676e-17
-2.58002e-15
4.95343e-23
4.88436e-23
4.82301e-23
4.93017e-23
3.4242e-24
4.53457e-23
)
;

boundaryField
{
    seabed_topleft_surface
    {
        type            zeroGradient;
    }
    seabed_topright_surface
    {
        type            zeroGradient;
    }
    breakwater_top_surface
    {
        type            zeroGradient;
    }
    breakwater_left_surface
    {
        type            zeroGradient;
    }
    breakwater_right_surface
    {
        type            zeroGradient;
    }
    water_front_surface
    {
        type            zeroGradient;
    }
    water_back_surface
    {
        type            zeroGradient;
    }
    water_left_surface
    {
        type            zeroGradient;
    }
    water_right_surface
    {
        type            zeroGradient;
    }
    water_top_surface
    {
        type            inletOutlet;
        inletValue      uniform 0;
        value           nonuniform List<scalar> 
180
(
0
0
0
0
0
0
0
0
0
0
0
0
0
0
0
0
0
0
0
0
0
0
0
0
0
0
0
0
0
0
0
0
0
0
0
0
0
0
0
0
0
0
0
0
0
0
0
0
0
0
0
0
0
0
-1.24451e-12
-2.00296e-12
-3.99987e-12
-1.42892e-12
-5.00715e-13
-1.45783e-11
3.0172e-07
3.01772e-07
3.01793e-07
3.01814e-07
3.01812e-07
3.01805e-07
1.69482e-05
1.69474e-05
1.69471e-05
1.69485e-05
1.69519e-05
1.6945e-05
0
0
0
0
0
0
0.00429386
0.00426484
0.0042506
0.00436468
0.00463683
0.00400754
0.10369
0.103649
0.10357
0.103949
0.104853
0.102719
0.115642
0.115748
0.115709
0.115604
0.115394
0.115999
0.00404805
0.00404868
0.00404901
0.00404888
0.00404704
0.00405049
0.00184729
0.00184728
0.00184777
0.00184694
0.00184461
0.00185028
0
0
0
0
0
0
0
0
0
0
0
0
0
0
0
0
0
0
0
0
0
0
0
0
0
0
0
0
0
0
0
0
0
0
0
0
0
0
0
0
0
0
0
0
0
0
0
0
0
0
0
0
0
0
0
0
0
0
0
0
0
0
0
0
0
0
0
0
0
0
0
0
)
;
    }
}


// ************************************************************************* //
