/*--------------------------------*- C++ -*----------------------------------*\
| =========                 |                                                 |
| \\      /  F ield         | OpenFOAM: The Open Source CFD Toolbox           |
|  \\    /   O peration     | Version:  v1612+                                |
|   \\  /    A nd           | Web:      www.OpenFOAM.com                      |
|    \\/     M anipulation  |                                                 |
\*---------------------------------------------------------------------------*/
FoamFile
{
    version     2.0;
    format      ascii;
    class       surfaceScalarField;
    location    "3";
    object      alphaPhi;
}
// * * * * * * * * * * * * * * * * * * * * * * * * * * * * * * * * * * * * * //

dimensions      [0 3 -1 0 0 0 0];

internalField   nonuniform List<scalar> 
2916
(
-3.79976e-06
0.40346
-0.24882
1.86594e-06
0.403457
-0.248824
-1.35198e-07
0.403458
-0.248819
-3.91378e-06
0.403461
-0.248818
3.27429e-08
0.40346
-0.248822
0.403453
-0.248817
-6.05366e-07
0.795155
-0.23597
8.56071e-07
0.795156
-0.235974
-2.50242e-06
0.795157
-0.235971
-3.34698e-06
0.795159
-0.23597
1.4749e-06
0.795158
-0.235973
0.79515
-0.235971
-1.29429e-06
1.07739
-0.143599
7.83643e-07
1.07739
-0.143603
-1.46885e-06
1.07739
-0.1436
-1.769e-06
1.07739
-0.143599
2.94705e-06
1.07739
-0.143601
1.07738
-0.143599
-3.16533e-06
1.30325
-0.112316
3.11417e-07
1.30326
-0.112322
-8.0133e-07
1.30326
-0.112319
-1.41835e-06
1.30326
-0.112318
3.20952e-06
1.30326
-0.11232
1.30325
-0.112316
-5.08903e-06
1.50052
-0.111294
-1.33982e-06
1.50053
-0.1113
-1.99534e-06
1.50053
-0.111298
-2.44176e-06
1.50053
-0.111297
2.82783e-06
1.50053
-0.111299
1.50052
-0.111294
-6.7722e-06
1.67659
-0.118811
-3.41372e-06
1.6766
-0.11882
-3.84468e-06
1.6766
-0.118817
-3.42843e-06
1.67659
-0.118817
3.16797e-06
1.67659
-0.11882
1.67658
-0.118812
-9.06166e-06
1.80867
-0.0998564
-5.02102e-06
1.80868
-0.0998655
-5.67431e-06
1.80867
-0.0998623
-4.71852e-06
1.80867
-0.0998625
3.88567e-06
1.80866
-0.099867
1.80865
-0.0998557
-8.04545e-06
1.83475
-0.0199591
-4.96402e-06
1.83476
-0.0199685
-5.52125e-06
1.83476
-0.0199655
-4.36127e-06
1.83475
-0.0199663
9.31864e-07
1.83475
-0.0199715
1.83473
-0.0199601
-6.05168e-06
1.57639
0.258371
-4.33773e-06
1.57642
0.258344
-6.2959e-06
1.57642
0.258349
-6.08874e-06
1.57641
0.258345
-3.70405e-06
1.57642
0.258332
1.57637
0.258356
-4.57955e-06
0.89276
0.683636
-1.63143e-06
0.892804
0.683617
-4.71809e-06
0.892802
0.683621
-6.56279e-06
0.892799
0.68362
-6.42587e-06
0.892816
0.683609
0.892746
0.683623
6.80835e-06
0.173403
0.719353
2.55298e-06
0.173443
0.719368
1.13812e-06
0.173444
0.719362
-1.21111e-06
0.173444
0.71936
-9.64891e-06
0.173465
0.719361
0.173393
0.719346
-2.69746e-05
0.167937
-2.12233e-05
0.167944
-1.2749e-05
0.167943
-2.06743e-06
0.16794
2.37762e-05
0.167947
0.167925
4.49802e-07
0.157595
-1.61806e-06
-7.73755e-07
0.157594
-1.6182e-06
-1.57869e-06
0.157596
-1.61849e-06
3.05158e-06
0.157592
-1.61879e-06
6.86779e-06
0.15759
-1.61882e-06
0.1576
-1.61861e-06
2.4692e-06
0.14886
-1.04315e-05
-1.34379e-06
0.14886
-1.04311e-05
1.14889e-07
0.148859
-1.04314e-05
2.71775e-06
0.148856
-1.04314e-05
-1.0452e-06
0.148855
-1.04308e-05
0.14886
-1.04317e-05
3.38278e-06
0.227047
-2.94834e-07
-3.38856e-07
0.227049
-2.94824e-07
1.2331e-06
0.227046
-2.94823e-07
2.16049e-06
0.227043
-2.94815e-07
-3.57638e-06
0.227044
-2.94806e-07
0.227044
-2.94833e-07
4.69006e-06
0.378783
-4.17498e-07
3.22133e-07
0.378787
-4.17617e-07
2.08306e-06
0.378782
-4.17593e-07
2.57424e-06
0.37878
-4.1762e-07
-4.63461e-06
0.378782
-4.17533e-07
0.378777
-4.17262e-07
6.22468e-06
0.619451
-4.7243e-07
6.13116e-07
0.619462
-4.72435e-07
3.2417e-06
0.619454
-4.72438e-07
4.24927e-06
0.619453
-4.7242e-07
-4.65647e-06
0.619459
-4.7239e-07
0.619448
-4.7232e-07
6.3512e-06
0.915408
-4.12275e-08
5.86912e-07
0.915431
-4.12279e-08
4.96949e-06
0.91542
-4.12279e-08
7.31599e-06
0.915421
-4.12262e-08
-2.09848e-06
0.915433
-4.12237e-08
0.915412
-4.12197e-08
7.86242e-06
1.13333
-5.36717e-09
2.45524e-06
1.13337
-5.36714e-09
7.79141e-06
1.13336
-5.36712e-09
1.04905e-05
1.13336
-5.36687e-09
1.24461e-06
1.13338
-5.36653e-09
1.13335
-5.36606e-09
1.0149e-05
1.30484
-4.58421e-09
6.69645e-06
1.30489
-4.58866e-09
1.10714e-05
1.30487
-4.58514e-09
1.19672e-05
1.30488
-4.57975e-09
3.54122e-06
1.30489
-4.575e-09
1.30486
-4.58854e-09
1.37672e-05
1.51634
0.0263981
9.85299e-06
1.51639
0.0263974
1.20608e-05
1.51637
0.0263973
1.09086e-05
1.51638
0.0263976
1.7754e-06
1.51639
0.0263978
1.51637
0.0263989
2.06493e-05
1.54616
0.306228
1.27197e-05
1.54625
0.306222
9.37212e-06
1.54623
0.30622
4.36954e-06
1.54623
0.306221
-1.14967e-05
1.54625
0.306218
1.5462
0.30623
3.87838e-05
0.827764
1.27443
1.26125e-05
0.827933
1.27442
5.3775e-06
0.827892
1.27441
-1.50704e-06
0.827891
1.27442
-2.84635e-05
0.827929
1.27441
0.827807
1.27443
-7.47234e-05
0.990046
-2.72918e-05
0.9901
-7.23563e-06
0.990086
8.08725e-06
0.990087
5.26669e-05
0.990101
0.990057
-4.50609e-12
4.11077e-08
-1.63451e-06
-2.86274e-12
4.11079e-08
-1.63465e-06
-5.55284e-13
4.11116e-08
-1.63495e-06
3.22884e-12
4.11143e-08
-1.63526e-06
6.58741e-12
4.11156e-08
-1.63529e-06
4.11197e-08
-1.63507e-06
-1.70218e-11
2.62014e-07
-1.06316e-05
-9.23692e-12
2.62002e-07
-1.06313e-05
-4.57229e-13
2.62004e-07
-1.06315e-05
7.81578e-12
2.61998e-07
-1.06316e-05
1.60693e-11
2.61986e-07
-1.06309e-05
2.62016e-07
-1.06318e-05
-1.35923e-12
3.68912e-08
-5.55617e-08
-5.57658e-13
3.6889e-08
-5.55656e-08
1.24896e-13
3.68891e-08
-5.55618e-08
6.52857e-13
3.68863e-08
-5.55611e-08
1.40088e-12
3.68834e-08
-5.5565e-08
3.68882e-08
-5.55586e-08
-1.03119e-12
3.98837e-08
-4.13964e-07
-2.57143e-13
3.9881e-08
-4.14084e-07
2.64921e-13
3.98816e-08
-4.1406e-07
6.90745e-13
3.9876e-08
-4.14084e-07
1.43411e-12
3.987e-08
-4.13995e-07
3.98793e-08
-4.13728e-07
-8.69196e-13
4.2475e-08
-4.74094e-07
-1.73966e-13
4.24748e-08
-4.74103e-07
2.95358e-13
4.24751e-08
-4.74105e-07
6.98729e-13
4.24735e-08
-4.74091e-07
1.31749e-12
4.24711e-08
-4.74065e-07
4.24683e-08
-4.73981e-07
-8.89508e-14
6.29066e-09
-4.92289e-09
-2.0244e-14
6.29062e-09
-4.92365e-09
3.3848e-14
6.29059e-09
-4.92331e-09
8.00682e-14
6.2903e-09
-4.92291e-09
1.37264e-13
6.28991e-09
-4.9225e-09
6.28935e-09
-4.92052e-09
-4.35379e-15
9.82567e-10
-6.758e-11
-2.99844e-15
9.82552e-10
-6.75821e-11
1.88404e-15
9.82543e-10
-6.75779e-11
6.17062e-15
9.82495e-10
-6.75707e-11
9.56987e-15
9.82432e-10
-6.7568e-11
9.82355e-10
-6.75595e-11
2.09824e-15
-3.61064e-09
9.21344e-12
4.49912e-16
-3.6151e-09
9.21221e-12
4.1986e-17
-3.61159e-09
9.21196e-12
-2.692e-16
-3.60625e-09
9.21198e-12
-4.77639e-16
-3.60156e-09
9.21122e-12
-3.61518e-09
9.21267e-12
3.323e-07
0.0236547
0.00253412
9.50591e-08
0.023655
0.00253399
1.49396e-09
0.0236548
0.00253396
-2.33289e-08
0.0236549
0.002534
-1.67857e-07
0.0236553
0.00253402
0.0236557
0.00253417
1.67044e-06
0.289715
0.0281856
6.60302e-07
0.289725
0.0281789
1.41354e-07
0.289721
0.0281798
-8.39216e-10
0.28972
0.0281806
-6.99022e-07
0.28972
0.0281795
0.289725
0.0281832
7.81445e-05
0.620966
0.459757
3.03313e-05
0.621156
0.459678
1.15679e-05
0.621093
0.459692
-1.98505e-06
0.621092
0.459701
-4.67409e-05
0.621128
0.459696
0.621018
0.459725
-9.24338e-05
1.50552
-1.51595e-05
1.50558
-5.93088e-06
1.50558
1.65935e-05
1.50556
9.71533e-05
1.50556
1.50559
-3.81979e-11
-9.1589e-07
-8.76871e-07
-1.15063e-11
-9.15958e-07
-8.76977e-07
4.17854e-12
-9.16008e-07
-8.77149e-07
1.07271e-11
-9.16034e-07
-8.77341e-07
2.59542e-11
-9.15982e-07
-8.77374e-07
-9.1599e-07
-8.77217e-07
-1.6968e-10
-7.5369e-07
-7.9819e-06
-1.65565e-11
-7.53686e-07
-7.98189e-06
5.17544e-11
-7.53665e-07
-7.98214e-06
3.55164e-11
-7.53689e-07
-7.98205e-06
1.09675e-10
-7.53721e-07
-7.98145e-06
-7.53766e-07
-7.98201e-06
2.7922e-13
-2.06899e-07
-5.92313e-07
8.52001e-13
-2.06849e-07
-5.92379e-07
5.35151e-13
-2.06855e-07
-5.92346e-07
1.18934e-13
-2.06789e-07
-5.92444e-07
4.89097e-13
-2.06714e-07
-5.92563e-07
-2.06891e-07
-5.92392e-07
-3.4091e-12
-1.75334e-07
-3.05751e-07
1.46562e-12
-1.75305e-07
-3.05887e-07
-1.18953e-12
-1.75302e-07
-3.05852e-07
-1.29421e-12
-1.75287e-07
-3.0593e-07
8.42716e-12
-1.75265e-07
-3.05922e-07
-1.753e-07
-3.05589e-07
-1.4958e-11
-6.61945e-08
-4.33503e-07
-8.12127e-12
-6.61866e-08
-4.33505e-07
-1.00117e-11
-6.61846e-08
-4.33504e-07
-7.75456e-12
-6.61802e-08
-4.33475e-07
1.05881e-11
-6.61746e-08
-4.33457e-07
-6.6176e-08
-4.33475e-07
-9.82531e-14
-1.80822e-10
-7.77425e-08
-5.26439e-14
-1.80931e-10
-7.77444e-08
-5.30374e-14
-1.80849e-10
-7.77374e-08
-4.78051e-14
-1.80805e-10
-7.77305e-08
2.54788e-14
-1.80795e-10
-7.7724e-08
-1.80532e-10
-7.7704e-08
-5.05153e-16
3.1574e-13
-2.48404e-10
-2.03498e-16
3.15886e-13
-2.48517e-10
-4.68263e-18
3.1572e-13
-2.4843e-10
6.91317e-17
3.15548e-13
-2.48378e-10
4.3622e-16
3.15533e-13
-2.48366e-10
3.15315e-13
-2.48093e-10
4.97021e-18
9.40936e-12
1.17007e-13
8.47597e-18
9.40834e-12
1.16946e-13
1.03467e-17
9.40789e-12
1.16978e-13
5.58095e-18
9.40771e-12
1.17004e-13
1.31173e-19
9.40697e-12
1.1696e-13
9.40804e-12
1.17121e-13
1.69024e-08
0.00238214
0.000148757
5.90091e-09
0.00238203
0.000148756
3.6129e-09
0.002382
0.00014876
-5.22699e-09
0.00238203
0.000148767
-5.34882e-08
0.00238207
0.000148785
0.00238216
0.000148748
2.81194e-07
0.0267626
0.0038072
1.33477e-07
0.0267565
0.00380704
6.62821e-08
0.0267572
0.00380709
5.51745e-08
0.0267578
0.00380719
-4.57831e-09
0.0267567
0.00380731
0.0267606
0.00380712
7.81008e-06
0.145353
0.140001
4.16644e-06
0.14537
0.13998
8.27209e-07
0.145366
0.139982
-4.1842e-08
0.145357
0.139994
-2.38789e-06
0.145361
0.139995
0.145358
0.139985
-1.55406e-06
1.50235
1.61763e-05
1.50241
5.1408e-05
1.50237
2.54547e-05
1.50242
-0.000142398
1.50258
1.50221
-6.33389e-66
7.25979e-63
-5.7198e-60
-7.22612e-66
7.27302e-63
-5.73089e-60
-7.60935e-66
7.27053e-63
-5.72993e-60
-6.7556e-66
7.26892e-63
-5.72982e-60
-4.27629e-66
7.26948e-63
-5.73157e-60
7.25197e-63
-5.71926e-60
-1.38297e-61
3.68014e-58
-1.45194e-55
-2.29571e-61
3.68341e-58
-1.45341e-55
-2.95474e-61
3.68099e-58
-1.4528e-55
-2.93066e-61
3.67977e-58
-1.45275e-55
-1.95778e-61
3.68021e-58
-1.45343e-55
3.67231e-58
-1.45096e-55
-2.19571e-57
7.42761e-54
-1.92284e-51
-5.50016e-57
7.41918e-54
-1.92092e-51
-7.91408e-57
7.40898e-54
-1.91899e-51
-8.34712e-57
7.40468e-54
-1.91878e-51
-5.97817e-57
7.40603e-54
-1.92026e-51
7.393e-54
-1.91841e-51
-4.94926e-53
9.37944e-50
-2.61863e-47
-1.16255e-52
9.34776e-50
-2.60908e-47
-1.5985e-52
9.32769e-50
-2.60248e-47
-1.66494e-52
9.32452e-50
-2.60657e-47
-1.2095e-52
9.34173e-50
-2.6299e-47
9.31324e-50
-2.58835e-47
-8.00557e-47
6.68972e-44
-4.27895e-41
-1.44879e-46
6.66497e-44
-4.27171e-41
-1.7936e-46
6.64845e-44
-4.26646e-41
-1.8047e-46
6.69209e-44
-4.29916e-41
-1.22956e-46
6.85876e-44
-4.41059e-41
6.57129e-44
-4.22964e-41
-9.58616e-42
4.17999e-39
-1.65761e-36
-1.40654e-41
4.20695e-39
-1.67311e-36
-1.5289e-41
4.22078e-39
-1.68113e-36
-1.41206e-41
4.26704e-39
-1.70135e-36
-9.09949e-42
4.38897e-39
-1.75135e-36
4.21467e-39
-1.68396e-36
-8.26656e-38
2.51934e-35
-7.17307e-33
-1.00084e-37
2.58623e-35
-7.39398e-33
-9.13576e-38
2.6185e-35
-7.49786e-33
-7.14038e-38
2.66071e-35
-7.62395e-33
-3.98511e-38
2.74166e-35
-7.85731e-33
2.62954e-35
-7.54074e-33
-8.21078e-35
2.65059e-32
-5.46482e-30
-6.62605e-35
2.7921e-32
-5.79176e-30
-2.5719e-35
2.84804e-32
-5.91521e-30
9.46671e-36
2.89375e-32
-6.00728e-30
2.29437e-35
2.96204e-32
-6.13886e-30
2.80339e-32
-5.79988e-30
-1.23214e-33
2.94211e-30
-3.77012e-28
6.94013e-33
3.18379e-30
-4.13972e-28
1.55656e-32
3.23391e-30
-4.2139e-28
1.95526e-32
3.21903e-30
-4.17118e-28
1.5733e-32
3.19268e-30
-4.1024e-28
2.88285e-30
-3.65495e-28
6.52599e-35
1.7246e-32
5.69982e-35
1.61874e-34
1.84753e-32
1.41669e-35
2.30545e-34
1.87385e-32
3.36137e-35
2.46968e-34
1.87158e-32
8.10151e-35
1.85016e-34
1.86747e-32
1.51297e-34
1.70424e-32
2.26249e-34
8.63069e-34
5.84457e-32
4.87815e-32
1.29085e-33
5.86104e-32
4.92917e-32
1.45104e-33
5.86916e-32
4.96314e-32
1.38621e-33
5.88241e-32
4.99952e-32
9.86185e-34
5.90792e-32
5.04989e-32
5.94318e-32
5.11357e-32
1.67107e-31
2.80343e-29
1.36917e-31
2.83242e-29
6.78787e-32
2.83993e-29
1.29181e-32
2.84372e-29
-6.69058e-33
2.85001e-29
2.86036e-29
-5.27056e-63
6.00075e-60
-3.53387e-57
-5.94852e-63
6.01013e-60
-3.54077e-57
-5.8338e-63
6.00729e-60
-3.54018e-57
-4.6418e-63
6.00552e-60
-3.54009e-57
-2.36707e-63
6.00592e-60
-3.54115e-57
5.99169e-60
-3.53357e-57
-1.90473e-58
3.04036e-55
-8.88083e-53
-2.46729e-58
3.04349e-55
-8.89408e-53
-2.54015e-58
3.04139e-55
-8.89138e-53
-2.11326e-58
3.04016e-55
-8.89094e-53
-1.16261e-58
3.04029e-55
-8.89428e-53
3.03348e-55
-8.87772e-53
-4.71514e-54
6.01065e-51
-1.13763e-48
-6.54661e-54
6.0101e-51
-1.13821e-48
-6.85107e-54
6.00331e-51
-1.13753e-48
-5.93363e-54
5.99969e-51
-1.13741e-48
-3.67712e-54
5.99979e-51
-1.138e-48
5.98745e-51
-1.13638e-48
-1.21035e-49
1.08716e-46
-7.0566e-44
-1.68106e-49
1.08488e-46
-7.04332e-44
-1.743e-49
1.08189e-46
-7.01807e-44
-1.52836e-49
1.08261e-46
-7.04062e-44
-9.74546e-50
1.0907e-46
-7.16834e-44
1.07102e-46
-6.88173e-44
-3.59048e-43
2.27532e-40
-1.22685e-37
-4.70454e-43
2.27233e-40
-1.22801e-37
-4.65005e-43
2.26677e-40
-1.22657e-37
-3.98503e-43
2.27979e-40
-1.23479e-37
-2.43794e-43
2.33259e-40
-1.26422e-37
2.22806e-40
-1.20861e-37
-2.29666e-38
1.14232e-35
-3.37835e-33
-2.66672e-38
1.14703e-35
-3.40288e-33
-2.34005e-38
1.14804e-35
-3.41071e-33
-1.7804e-38
1.15767e-35
-3.44225e-33
-9.89592e-39
1.18696e-35
-3.5308e-33
1.13541e-35
-3.37978e-33
-1.2914e-34
6.35559e-32
-1.19912e-29
-1.09909e-34
6.4462e-32
-1.22111e-29
-5.47597e-35
6.4826e-32
-1.22961e-29
-5.93928e-36
6.55519e-32
-1.24383e-29
1.56205e-35
6.72646e-32
-1.27594e-29
6.42828e-32
-1.21913e-29
-5.39987e-32
6.81233e-29
-8.58018e-27
5.05803e-32
6.99021e-29
-8.84443e-27
1.70383e-31
7.04934e-29
-8.92635e-27
2.34161e-31
7.12289e-29
-9.01284e-27
1.97214e-31
7.27509e-29
-9.18696e-27
6.89629e-29
-8.68952e-27
1.54977e-29
8.83396e-27
-6.80624e-25
4.4123e-29
9.16458e-27
-7.10074e-25
6.58043e-29
9.20896e-27
-7.14487e-25
7.19183e-29
9.1639e-27
-7.06918e-25
5.45055e-29
9.17765e-27
-7.04179e-25
8.44363e-27
-6.41616e-25
4.14226e-31
7.63727e-29
6.06776e-30
6.34961e-31
7.88372e-29
6.23008e-30
6.97844e-31
7.92349e-29
6.36641e-30
6.29607e-31
7.92243e-29
6.53039e-30
4.12788e-31
7.98261e-29
6.80717e-30
7.41599e-29
6.59459e-30
9.1428e-31
1.58825e-28
1.38663e-28
9.1811e-31
1.59401e-28
1.39962e-28
5.81072e-31
1.59929e-28
1.40646e-28
2.19526e-31
1.60617e-28
1.41233e-28
-5.1472e-32
1.61614e-28
1.42005e-28
1.62593e-28
1.42713e-28
-2.74719e-28
7.55395e-26
-5.37497e-28
7.59844e-26
-7.18479e-28
7.61276e-26
-7.4195e-28
7.61939e-26
-5.69744e-28
7.63181e-26
7.62559e-26
-1.1707e-60
1.81677e-57
-7.42986e-55
-1.20958e-60
1.81988e-57
-7.44457e-55
-1.07511e-60
1.81931e-57
-7.44356e-55
-7.2303e-61
1.81907e-57
-7.44357e-55
-2.31837e-61
1.81952e-57
-7.44597e-55
1.81563e-57
-7.43017e-55
-4.44392e-56
9.11162e-53
-1.82844e-50
-5.04972e-56
9.12489e-53
-1.83168e-50
-4.46695e-56
9.12117e-53
-1.83132e-50
-2.96505e-56
9.11965e-53
-1.83132e-50
-9.47916e-57
9.12203e-53
-1.83198e-50
9.10376e-53
-1.82843e-50
-1.05329e-51
1.73124e-48
-2.22005e-46
-1.21702e-51
1.73284e-48
-2.22302e-46
-1.04655e-51
1.73183e-48
-2.22232e-46
-6.97586e-52
1.73145e-48
-2.22227e-46
-2.79301e-52
1.73198e-48
-2.22325e-46
1.72887e-48
-2.21949e-46
-1.08185e-46
1.3835e-43
-1.6339e-40
-1.17879e-46
1.3817e-43
-1.63284e-40
-9.36658e-47
1.37678e-43
-1.62699e-40
-5.75655e-47
1.38092e-43
-1.6329e-40
-2.04001e-47
1.4053e-43
-1.66572e-40
1.34795e-43
-1.58844e-40
-2.46298e-40
2.73763e-37
-1.40506e-34
-2.17147e-40
2.73888e-37
-1.40773e-34
-1.18785e-40
2.73447e-37
-1.40608e-34
-2.04329e-41
2.75137e-37
-1.41497e-34
3.35792e-41
2.81464e-37
-1.44711e-34
2.68705e-37
-1.38117e-34
-4.10414e-36
7.72193e-33
-2.291e-30
3.85114e-37
7.74697e-33
-2.30308e-30
6.00125e-36
7.75038e-33
-2.30485e-30
9.33305e-36
7.8128e-33
-2.32279e-30
8.35765e-36
8.00481e-33
-2.37788e-30
7.65131e-33
-2.27082e-30
2.99943e-32
2.77356e-29
-5.78957e-27
7.44464e-32
2.79557e-29
-5.85098e-27
1.06037e-31
2.80389e-29
-5.86821e-27
1.13083e-31
2.83171e-29
-5.92043e-27
8.4518e-32
2.90354e-29
-6.05922e-27
2.77565e-29
-5.77928e-27
9.91204e-29
2.22443e-26
-3.34078e-24
1.63751e-28
2.25254e-26
-3.3922e-24
1.91751e-28
2.26196e-26
-3.4033e-24
1.81144e-28
2.28424e-26
-3.42865e-24
1.23756e-28
2.33692e-26
-3.49375e-24
2.22697e-26
-3.31468e-24
2.77923e-26
3.21714e-24
-2.62548e-22
3.70717e-26
3.25188e-24
-2.65034e-22
3.63871e-26
3.26619e-24
-2.6652e-22
2.87325e-26
3.26744e-24
-2.63394e-22
1.60754e-26
3.32632e-24
-2.66651e-22
3.13724e-24
-2.48386e-22
7.75868e-25
8.90538e-23
-8.33249e-21
9.90782e-25
8.69889e-23
-8.02399e-21
8.71924e-25
8.08921e-23
-7.31699e-21
6.11574e-25
7.51195e-23
-6.72153e-21
2.36104e-25
5.34011e-23
-4.02387e-21
5.51455e-23
-4.65148e-21
7.4379e-30
2.21671e-26
1.64964e-24
-3.41094e-27
2.66936e-26
1.63366e-24
-6.44742e-27
2.83875e-26
1.56094e-24
-6.57125e-27
2.92079e-26
1.4847e-24
-5.31207e-27
2.61726e-26
1.25588e-24
2.67189e-26
1.22263e-24
-1.75353e-25
3.51039e-23
-2.91841e-25
3.53686e-23
-3.38609e-25
3.54436e-23
-3.37547e-25
3.54886e-23
-1.29883e-25
3.53858e-23
3.5476e-23
-1.09731e-58
2.397e-55
-5.40008e-53
-8.70132e-59
2.40109e-55
-5.41076e-53
-5.40491e-59
2.40057e-55
-5.41013e-53
-1.36868e-59
2.40056e-55
-5.41024e-53
2.0712e-59
2.40149e-55
-5.41205e-53
2.39665e-55
-5.40065e-53
-4.24465e-54
1.18621e-50
-1.28865e-48
-3.32974e-54
1.18808e-50
-1.29111e-48
-1.51069e-54
1.18781e-50
-1.29094e-48
4.2295e-55
1.18784e-50
-1.29097e-48
1.62866e-54
1.18834e-50
-1.29143e-48
1.1861e-50
-1.28886e-48
-8.34575e-50
2.18058e-46
-1.46781e-44
-5.58444e-50
2.18355e-46
-1.47036e-44
-6.60956e-51
2.18303e-46
-1.47011e-44
3.56694e-50
2.18317e-46
-1.47014e-44
4.88316e-50
2.18425e-46
-1.47068e-44
2.18045e-46
-1.46792e-44
-5.84504e-44
2.19649e-40
-2.33523e-37
-8.07635e-45
2.19521e-40
-2.33498e-37
5.8745e-44
2.18758e-40
-2.32678e-37
1.02004e-43
2.19568e-40
-2.33495e-37
9.5183e-44
2.23969e-40
-2.38138e-37
2.13516e-40
-2.26845e-37
2.3055e-38
2.548e-34
-9.99787e-32
1.24762e-37
2.55136e-34
-1.00172e-31
2.16406e-37
2.54774e-34
-1.00027e-31
2.5378e-37
2.56337e-34
-1.00616e-31
2.0118e-37
2.62074e-34
-1.02812e-31
2.49976e-34
-9.8027e-32
3.7028e-33
5.7085e-30
-1.0057e-27
7.3023e-33
5.7234e-30
-1.00889e-27
9.48471e-33
5.72058e-30
-1.00819e-27
9.68943e-33
5.76055e-30
-1.01479e-27
7.07595e-33
5.89322e-30
-1.03731e-27
5.62427e-30
-9.89266e-28
2.61879e-29
2.00202e-26
-1.83698e-24
4.1926e-29
2.01082e-26
-1.84565e-24
4.84519e-29
2.01145e-26
-1.84545e-24
4.59107e-29
2.0267e-26
-1.85823e-24
3.1626e-29
2.07343e-26
-1.89888e-24
1.97897e-26
-1.81032e-24
3.12623e-26
1.77285e-23
-8.64926e-22
4.38758e-26
1.78294e-23
-8.69639e-22
4.54625e-26
1.78343e-23
-8.69211e-22
3.98084e-26
1.7963e-23
-8.74719e-22
2.54919e-26
1.83453e-23
-8.91546e-22
1.7497e-23
-8.49506e-22
5.36035e-24
3.50279e-21
-8.04403e-20
5.79468e-24
3.49216e-21
-7.91644e-20
4.27054e-24
3.51587e-21
-8.05506e-20
2.43836e-24
3.50031e-21
-7.90355e-20
5.03057e-25
3.59321e-21
-8.19765e-20
3.41936e-21
-7.7923e-20
7.13726e-23
5.74696e-19
-1.20243e-17
-4.43596e-22
5.71866e-19
-1.1874e-17
-1.0552e-21
5.58957e-19
-1.14856e-17
-8.80444e-22
5.64582e-19
-1.1711e-17
-1.17777e-21
3.85715e-19
-5.82571e-18
5.4569e-19
-1.12619e-17
-5.17391e-23
1.65036e-20
1.20023e-20
-5.98829e-23
1.36565e-20
9.93939e-21
-8.7632e-23
1.04925e-20
7.64627e-21
-3.87338e-23
1.35134e-20
9.85666e-21
-5.28901e-23
6.92115e-21
5.05571e-21
1.30962e-20
9.57546e-21
-3.44412e-25
1.6579e-20
-3.58633e-25
1.37313e-20
-3.22542e-25
1.05665e-20
-1.62401e-25
1.35883e-20
-3.04582e-25
6.99431e-21
1.31716e-20
8.49305e-12
-1.76241e-07
4.4094e-08
6.87627e-12
-1.76209e-07
4.41169e-08
-2.2513e-12
-1.76272e-07
4.41194e-08
-9.88702e-12
-1.76352e-07
4.41364e-08
-9.77787e-12
-1.76387e-07
4.41611e-08
-1.76386e-07
4.41085e-08
8.52585e-13
3.92731e-15
8.35405e-09
2.05078e-13
4.30182e-15
8.34744e-09
-2.10708e-13
4.41561e-15
8.35072e-09
-5.20208e-13
4.31742e-15
8.35046e-09
-9.77513e-13
4.29198e-15
8.34336e-09
4.39443e-15
8.3543e-09
-5.65149e-20
-6.14844e-17
-1.85452e-20
-6.73393e-17
2.71698e-21
-6.9122e-17
2.01153e-20
-6.75845e-17
6.2276e-20
-6.71837e-17
-6.87941e-17
9.5603e-11
-3.02047e-06
1.22732e-06
-1.57814e-13
-3.02029e-06
1.22737e-06
-7.76183e-11
-3.02058e-06
1.2274e-06
-1.01139e-10
-3.02048e-06
1.22737e-06
-1.2272e-10
-3.01979e-06
1.22732e-06
-3.02055e-06
1.22733e-06
4.03248e-11
2.25399e-14
1.07553e-07
5.02742e-12
2.46879e-14
1.07519e-07
-1.62708e-11
2.53424e-14
1.07539e-07
-3.23609e-11
2.47787e-14
1.07536e-07
-6.45647e-11
2.46325e-14
1.07492e-07
2.52228e-14
1.07558e-07
-3.11834e-19
-4.92833e-16
-9.77551e-20
-5.39732e-16
3.73238e-20
-5.54053e-16
1.69363e-19
-5.41729e-16
4.38269e-19
-5.38524e-16
-5.51495e-16
1.24726e-11
-1.88224e-07
-4.79656e-08
3.55686e-12
-1.88203e-07
-4.79943e-08
-3.01422e-12
-1.88203e-07
-4.79846e-08
-8.82188e-12
-1.88234e-07
-4.80207e-08
-1.70394e-11
-1.88255e-07
-4.80437e-08
-1.88272e-07
-4.79491e-08
1.48567e-12
1.47148e-13
7.98651e-09
4.66841e-13
1.61175e-13
7.98399e-09
-5.41947e-14
1.65444e-13
7.98458e-09
-7.24581e-13
1.61763e-13
7.98521e-09
-2.25302e-12
1.60812e-13
7.98529e-09
1.64653e-13
7.98943e-09
-1.89391e-18
-5.30407e-15
-4.69505e-19
-5.80921e-15
4.22029e-19
-5.96317e-15
1.20353e-18
-5.83054e-15
2.79595e-18
-5.79621e-15
-5.93527e-15
6.01801e-12
-7.96514e-09
2.47409e-08
1.72834e-12
-7.96263e-09
2.47062e-08
-2.02698e-12
-7.96322e-09
2.47158e-08
-6.00024e-12
-7.96385e-09
2.46715e-08
-1.15989e-11
-7.96395e-09
2.46503e-08
-7.96806e-09
2.47739e-08
6.22917e-15
1.21297e-13
2.12492e-11
3.48429e-15
1.32852e-13
2.12292e-11
1.62827e-15
1.36366e-13
2.12307e-11
-1.05442e-15
1.33325e-13
2.12269e-11
-6.77203e-15
1.3254e-13
2.12162e-11
1.35704e-13
2.12247e-11
-1.63833e-18
-2.5134e-15
-4.29408e-19
-2.75259e-15
1.44239e-19
-2.82539e-15
6.21823e-19
-2.76235e-15
1.81478e-18
-2.74605e-15
-2.81178e-15
7.43477e-12
-1.81194e-07
1.076e-07
2.7901e-12
-1.81208e-07
1.07589e-07
-1.43092e-12
-1.81194e-07
1.07587e-07
-6.25594e-12
-1.81198e-07
1.07576e-07
-1.28671e-11
-1.81187e-07
1.07566e-07
-1.81115e-07
1.07575e-07
2.98869e-12
4.22565e-15
1.75011e-09
1.88611e-12
4.63158e-15
1.74786e-09
9.90687e-13
4.75844e-15
1.7484e-09
-2.25625e-13
4.65115e-15
1.74822e-09
-2.50834e-12
4.62172e-15
1.74717e-09
4.68683e-15
1.74988e-09
-5.8454e-20
-2.77061e-17
-1.8107e-20
-3.03641e-17
1.05511e-21
-3.11895e-17
1.87124e-20
-3.04806e-17
6.33982e-20
-3.02851e-17
-3.07048e-17
1.17723e-12
-1.7501e-09
2.62091e-10
6.13507e-13
-1.74786e-09
2.62209e-10
9.48962e-14
-1.7484e-09
2.62119e-10
-3.84731e-13
-1.74822e-09
2.62069e-10
-1.24161e-12
-1.74717e-09
2.62061e-10
-1.74988e-09
2.61769e-10
1.2023e-15
6.2221e-18
1.34506e-15
5.75011e-16
6.77639e-18
1.33903e-15
2.19672e-16
6.95216e-18
1.34287e-15
-8.315e-17
6.80455e-18
1.34573e-15
-7.58554e-16
6.76136e-18
1.34169e-15
6.85596e-18
1.3609e-15
-5.98685e-23
2.1581e-19
-5.11516e-24
2.13337e-19
2.61403e-23
2.14949e-19
4.44235e-23
2.16296e-19
9.05861e-23
2.15384e-19
2.21755e-19
-2.63964e-15
3.44526e-14
1.36411e-11
-8.98676e-18
3.42936e-14
1.36421e-11
-4.25293e-16
3.43952e-14
1.36407e-11
1.22671e-15
3.44703e-14
1.36407e-11
8.32444e-15
3.43646e-14
1.36401e-11
3.48636e-14
1.36352e-11
-1.46993e-19
1.59401e-17
8.54543e-14
-1.37252e-19
1.5758e-17
8.50488e-14
-4.61278e-20
1.5876e-17
8.52966e-14
-5.23753e-20
1.59735e-17
8.54783e-14
3.7425e-20
1.59068e-17
8.51996e-14
1.63723e-17
8.64767e-14
-8.88063e-23
-1.36209e-19
1.87902e-23
-1.34702e-19
1.07876e-22
-1.35709e-19
1.65745e-22
-1.36506e-19
2.76272e-22
-1.35995e-19
-1.39847e-19
2.0901e-18
8.10016e-13
1.31316e-11
-4.51692e-18
8.06118e-13
1.31369e-11
-4.77922e-18
8.08416e-13
1.3133e-11
-4.29165e-19
8.10044e-13
1.31313e-11
1.33434e-17
8.07351e-13
1.31333e-11
8.19512e-13
1.31154e-11
2.99115e-18
5.45156e-15
1.28004e-12
1.06358e-17
5.42067e-15
1.27375e-12
1.99059e-17
5.44245e-15
1.27737e-12
1.25193e-17
5.45811e-15
1.27991e-12
1.90517e-17
5.44397e-15
1.27549e-12
5.52786e-15
1.29504e-12
-5.3224e-20
-1.44184e-16
1.01612e-20
-1.4334e-16
5.02139e-20
-1.43903e-16
3.44991e-20
-1.44229e-16
1.48303e-19
-1.43951e-16
-1.46159e-16
-3.10164e-11
3.59137e-14
0.000148996
1.90154e-09
3.62028e-14
0.000148993
2.28013e-09
3.59599e-14
0.000148998
8.75356e-10
3.55645e-14
0.000149007
-2.59589e-09
3.49196e-14
0.000149028
3.68621e-14
0.000148984
-2.85001e-17
1.55172e-12
-1.55332e-12
1.35555e-16
1.54416e-12
-1.54541e-12
2.02899e-16
1.54837e-12
-1.54976e-12
9.37338e-17
1.55125e-12
-1.55274e-12
-2.72301e-16
1.54611e-12
-1.5475e-12
1.56911e-12
-1.57085e-12
2.11096e-17
-4.83886e-13
4.98516e-17
-4.81376e-13
7.93751e-17
-4.8281e-13
3.39945e-17
-4.83684e-13
-5.29564e-17
-4.82107e-13
-4.89299e-13
6.69211e-09
0.000355416
0.00359217
1.90368e-08
0.000355425
0.00359199
2.53377e-08
0.000355424
0.00359206
1.49498e-08
0.000355451
0.00359215
1.6021e-08
0.000355496
0.00359224
0.000355396
0.00359212
1.92637e-10
1.57316e-05
0.000339826
2.25077e-09
1.57324e-05
0.000339833
3.20509e-09
1.5733e-05
0.000339833
1.98085e-09
1.5735e-05
0.000339858
-1.21005e-09
1.57394e-05
0.000339898
1.57288e-05
0.000339811
2.54623e-11
1.55309e-05
-3.81137e-11
1.55318e-05
-7.68967e-11
1.55322e-05
-8.43241e-11
1.55342e-05
-2.35618e-10
1.55387e-05
1.55278e-05
7.89783e-07
0.0135106
0.130072
7.10304e-07
0.0135089
0.130054
1.0097e-06
0.0135091
0.130055
4.00798e-07
0.0135118
0.130066
-1.61558e-06
0.0135125
0.130068
0.0135087
0.130058
1.00539e-07
0.000746658
0.0131041
9.39121e-08
0.000746808
0.0131024
1.16052e-07
0.000746796
0.0131026
4.15667e-08
0.000746799
0.0131054
-1.5379e-07
0.000746858
0.0131061
0.000746727
0.0131021
4.61487e-09
0.000687652
7.9694e-09
0.000687798
1.55057e-08
0.000687786
3.54253e-09
0.000687791
-5.40455e-08
0.00068785
0.000687716
3.41141e-05
0.43929
0.964196
3.17663e-05
0.439321
0.964245
-6.86931e-06
0.43933
0.964236
5.49058e-05
0.439236
0.964334
0.000162193
0.439006
0.964705
0.439524
0.963882
1.39821e-05
0.0151427
0.324259
2.42582e-06
0.0151475
0.324286
-2.17121e-05
0.0151487
0.324331
2.67935e-06
0.0151458
0.32422
8.17946e-05
0.0151386
0.323753
0.0151549
0.324761
4.03023e-07
0.010926
7.82789e-07
0.0109285
1.42929e-06
0.0109292
4.09627e-07
0.0109281
-4.99438e-06
0.0109241
0.0109325
2.12688e-09
6.0555e-06
-6.0968e-06
1.01009e-09
1.02689e-09
6.04984e-06
-6.08832e-06
1.026e-09
3.50101e-09
6.03607e-06
-6.07771e-06
1.01961e-09
4.06689e-10
6.08821e-06
-6.12521e-06
1.02987e-09
-3.01967e-08
6.24624e-06
-6.25779e-06
1.13536e-09
5.89455e-06
-5.95928e-06
9.38558e-10
1.56824e-10
-3.06067e-23
6.05672e-06
-1.3769e-09
-1.80672e-11
-3.08574e-23
6.0514e-06
-1.39444e-09
2.18175e-10
-3.0301e-23
6.03722e-06
-1.38602e-09
2.23144e-11
-3.11416e-23
6.0898e-06
-1.39974e-09
-1.29419e-09
-2.46774e-24
6.24907e-06
-1.52337e-09
-2.51761e-23
5.89437e-06
-1.28163e-09
-1.61526e-26
3.25813e-21
-3.28872e-21
-2.01139e-25
3.29585e-21
-3.32652e-21
-7.12714e-25
3.21804e-21
-3.24783e-21
-1.51348e-26
3.34543e-21
-3.37727e-21
2.03189e-25
2.72373e-22
-2.75059e-22
2.6088e-21
-2.63378e-21
-5.46425e-08
0.000230447
-0.000246872
-2.85888e-08
0.000229573
-0.000245954
-5.91722e-07
0.000229639
-0.00024536
-2.83202e-07
0.000230401
-0.000247107
1.42805e-06
0.000233161
-0.000251964
0.000227494
-0.000242002
1.10073e-08
1.43759e-05
0.00022162
-4.20962e-09
1.43112e-05
0.000220835
-1.58164e-08
1.43041e-05
0.000220893
-1.53519e-08
1.44176e-05
0.000221574
1.42667e-08
1.48027e-05
0.000224051
1.39724e-05
0.000218959
1.6767e-06
-0.0515782
8.73257e-06
-0.0512853
3.08446e-05
-0.0510616
-9.43455e-07
-0.0524425
-0.000110249
-0.0558973
-0.0480124
-6.57866e-06
-0.049152
0.00239603
4.72016e-06
-0.0487845
0.00239228
1.31489e-05
-0.0487686
0.00238586
1.1814e-05
-0.049815
0.00238613
-3.82541e-05
-0.0517779
0.00239091
-0.0467776
0.00240139
1.41553e-05
0.15567
-0.543111
2.08334e-05
0.155269
-0.536026
3.96901e-05
0.155125
-0.535314
-1.34112e-05
0.156692
-0.555828
-6.38803e-05
0.160192
-0.596544
0.151613
-0.492805
3.08218e-05
-0.398659
5.31589e-05
-0.398762
0.000418479
-0.39841
0.000186846
-0.399635
-0.00166221
-0.403065
-0.395205
-1.03075e-05
-0.0353163
-0.0308591
2.41895e-05
-0.0353985
-0.030818
7.49867e-05
-0.035351
-0.0307919
3.42493e-05
-0.0349475
-0.0309707
-0.000217817
-0.0341522
-0.0313813
-0.0362554
-0.0304216
-5.05882e-05
0.400693
-1.0356
0.000156024
0.398925
-1.03431
0.000801022
0.398637
-1.03414
0.000536405
0.404378
-1.03817
-0.00263995
0.41592
-1.04703
0.387015
-1.02596
9.12184e-05
-0.134957
7.00137e-07
-0.135211
-5.09304e-05
-0.135424
-1.94057e-06
-0.134048
0.000126909
-0.130891
-0.138774
5.3176e-05
0.171155
-0.365254
3.13553e-05
0.171155
-0.36516
2.85553e-05
0.171131
-0.365132
5.68571e-05
0.171332
-0.365478
2.06147e-05
0.171883
-0.366375
0.170677
-0.364299
4.64676e-05
0.102414
-0.712961
5.26218e-05
0.102638
-0.713313
-4.23831e-07
0.102531
-0.713463
7.32807e-05
0.102444
-0.712146
0.000228379
0.102442
-0.709099
0.10252
-0.716663
3.10113e-06
-0.02799
-1.45568e-07
-0.0280002
-5.6334e-06
-0.0279969
-2.27045e-06
-0.0280011
1.95331e-05
-0.027996
-0.0279723
2.87177e-06
0.457504
5.54133e-05
0.457599
0.000122766
0.457605
0.000106766
0.457459
-0.000131312
0.457131
0.457944
1.2045e-05
0.0226498
9.65375e-06
0.0226658
-7.17943e-07
0.0226661
1.88764e-05
0.0226446
3.68691e-05
0.0225968
0.0227193
6.73926e-07
6.86645e-07
7.16661e-07
8.59168e-07
-1.97637e-06
-1.75986e-57
-1.09823e-54
9.81333e-54
-4.21423e-58
-1.10055e-54
9.83264e-54
5.36417e-58
-1.10052e-54
9.83207e-54
1.39051e-57
-1.10056e-54
9.83296e-54
1.76907e-57
-1.10087e-54
9.83717e-54
-1.09847e-54
9.81727e-54
-4.98011e-60
-4.82872e-58
1.09702e-55
7.75433e-60
-4.83947e-58
1.09934e-55
1.44126e-59
-4.83933e-58
1.09937e-55
1.83334e-59
-4.83955e-58
1.09947e-55
1.86617e-59
-4.84101e-58
1.09985e-55
-4.83002e-58
1.09751e-55
5.5212e-64
1.18833e-59
1.93551e-63
1.191e-59
2.5961e-63
1.19102e-59
2.91865e-63
1.19115e-59
3.24575e-63
1.1916e-59
1.18898e-59
-5.2581e-53
-5.33386e-50
4.66324e-49
1.07525e-54
-5.34479e-50
4.67257e-49
6.0232e-53
-5.34474e-50
4.67246e-49
1.02657e-52
-5.34494e-50
4.6731e-49
1.09799e-52
-5.34636e-50
4.67521e-49
-5.33535e-50
4.66615e-49
2.48858e-56
-2.72003e-53
1.08203e-50
9.48971e-55
-2.7259e-53
1.0843e-50
1.65761e-54
-2.72584e-53
1.08436e-50
2.05845e-54
-2.72595e-53
1.08448e-50
2.02738e-54
-2.72671e-53
1.08483e-50
-2.72079e-53
1.08265e-50
7.53524e-59
1.10345e-54
2.06761e-58
1.1059e-54