/*--------------------------------*- C++ -*----------------------------------*\
| =========                 |                                                 |
| \\      /  F ield         | OpenFOAM: The Open Source CFD Toolbox           |
|  \\    /   O peration     | Version:  v1612+                                |
|   \\  /    A nd           | Web:      www.OpenFOAM.com                      |
|    \\/     M anipulation  |                                                 |
\*---------------------------------------------------------------------------*/
FoamFile
{
    version     2.0;
    format      ascii;
    class       volScalarField;
    location    "3";
    object      p;
}
// * * * * * * * * * * * * * * * * * * * * * * * * * * * * * * * * * * * * * //

dimensions      [1 -1 -2 0 0 0 0];

internalField   nonuniform List<scalar> 
1116
(
7718.3
7718.31
7718.3
7718.29
7718.28
7718.27
7204.76
7204.77
7204.76
7204.75
7204.74
7204.74
6641.63
6641.63
6641.63
6641.61
6641.6
6641.6
6687.52
6687.51
6687.51
6687.49
6687.49
6687.49
7227.79
7227.79
7227.78
7227.78
7227.77
7227.77
8049.48
8049.48
8049.47
8049.46
8049.46
8049.46
9048.33
9048.34
9048.33
9048.33
9048.33
9048.33
10475.9
10475.9
10475.9
10475.9
10475.9
10475.9
12695.1
12695.1
12695.1
12695.1
12695.1
12695.1
15911
15910.9
15910.9
15911
15911
15911
20133.6
20133.5
20133.5
20133.6
20133.6
20133.6
22739.7
22739.8
22739.8
22739.8
22739.8
22739.8
1446.27
1446.27
1446.27
1446.26
1446.25
1446.25
785.58
785.577
785.576
785.562
785.554
785.575
666.147
666.141
666.141
666.133
666.124
666.139
798.154
798.145
798.146
798.14
798.13
798.143
1064.51
1064.5
1064.5
1064.49
1064.48
1064.5
1427.96
1427.95
1427.95
1427.95
1427.94
1427.95
1783.13
1783.12
1783.12
1783.12
1783.12
1783.13
1840.59
1840.58
1840.59
1840.59
1840.59
1840.59
2227.7
2227.66
2227.67
2227.67
2227.67
2227.7
4861.77
4861.71
4861.71
4861.74
4861.75
4861.85
12037.4
12037.3
12037.3
12037.4
12037.4
12037.5
16562.2
16562.3
16562.3
16562.4
16562.4
16562.3
-20.1756
-20.1753
-20.1755
-20.1757
-20.1758
-20.1763
-16.204
-16.2037
-16.204
-16.2043
-16.2046
-16.2052
-15.7641
-15.7639
-15.764
-15.764
-15.7639
-15.7642
-16.3698
-16.3695
-16.3694
-16.3693
-16.3691
-16.3694
-21.1554
-21.1549
-21.1547
-21.1545
-21.1542
-21.1543
-28.2452
-28.2451
-28.2449
-28.2447
-28.2444
-28.2444
-35.504
-35.5054
-35.5054
-35.5052
-35.5047
-35.5042
31.7038
31.7013
31.7012
31.7012
31.7016
31.7028
201.729
201.726
201.727
201.729
201.731
201.735
595.995
595.975
595.979
595.983
595.982
595.999
2767.64
2767.49
2767.55
2767.59
2767.58
2767.63
9811.41
9811.73
9811.63
9811.66
9811.73
9811.59
-27.2988
-27.2989
-27.2992
-27.2996
-27.3
-27.3003
-25.2883
-25.2883
-25.2885
-25.2887
-25.289
-25.2893
-24.9807
-24.9807
-24.9808
-24.9808
-24.9807
-24.9808
-24.391
-24.3906
-24.3905
-24.3903
-24.3901
-24.3903
-25.7951
-25.7944
-25.7941
-25.7939
-25.7937
-25.7943
-30.9348
-30.9345
-30.9344
-30.9344
-30.9343
-30.935
-39.3473
-39.3476
-39.3479
-39.3483
-39.3481
-39.3487
-45.3751
-45.3758
-45.3758
-45.3756
-45.3751
-45.3757
-33.8758
-33.8762
-33.876
-33.8758
-33.876
-33.8733
-11.7738
-11.7768
-11.7757
-11.7753
-11.7768
-11.7785
234.926
234.926
234.925
234.929
234.932
234.931
2361.28
2361.24
2361.13
2361.2
2361.1
2361.29
-4.93346
-4.93351
-4.93351
-4.93348
-4.93344
-4.93342
-4.93212
-4.93213
-4.9321
-4.93205
-4.93201
-4.93197
-4.92942
-4.9294
-4.92937
-4.92934
-4.92932
-4.92929
-4.92601
-4.92598
-4.92598
-4.92599
-4.92601
-4.92603
-4.92238
-4.92238
-4.92244
-4.92254
-4.92265
-4.92275
-4.9181
-4.91817
-4.91832
-4.91852
-4.91873
-4.91889
-4.91231
-4.91243
-4.91263
-4.91284
-4.91303
-4.91315
-4.90243
-4.90252
-4.90263
-4.90269
-4.9027
-4.90268
-4.88469
-4.88469
-4.88466
-4.88456
-4.88443
-4.88434
-4.85511
-4.85511
-4.85509
-4.85507
-4.85507
-4.85511
-4.86383
-4.86387
-4.86386
-4.86385
-4.86383
-4.86385
-4.8061
-4.80597
-4.80568
-4.80536
-4.80504
-4.80482
-14.7443
-14.7443
-14.7443
-14.7442
-14.7442
-14.7441
-14.7439
-14.7439
-14.7439
-14.7438
-14.7438
-14.7437
-14.7432
-14.7432
-14.7432
-14.7432
-14.7432
-14.7431
-14.7428
-14.7428
-14.7428
-14.7428
-14.7428
-14.7428
-14.7438
-14.7439
-14.7439
-14.744
-14.7441
-14.7441
-14.7501
-14.7501
-14.7502
-14.7503
-14.7503
-14.7503
-14.7621
-14.762
-14.762
-14.762
-14.762
-14.7619
-14.7801
-14.78
-14.78
-14.7799
-14.7798
-14.7798
-14.8091
-14.809
-14.8091
-14.8092
-14.8095
-14.8097
-14.8324
-14.8325
-14.8329
-14.8333
-14.8338
-14.8341
-14.8464
-14.8465
-14.8468
-14.8472
-14.8475
-14.8476
-14.8859
-14.8855
-14.8848
-14.884
-14.8833
-14.8827
-24.5545
-24.5545
-24.5545
-24.5545
-24.5544
-24.5544
-24.5549
-24.5549
-24.5549
-24.5548
-24.5548
-24.5548
-24.5555
-24.5555
-24.5555
-24.5555
-24.5555
-24.5555
-24.5557
-24.5557
-24.5557
-24.5557
-24.5558
-24.5558
-24.5526
-24.5526
-24.5526
-24.5526
-24.5526
-24.5527
-24.5396
-24.5396
-24.5396
-24.5395
-24.5395
-24.5394
-24.513
-24.5129
-24.5128
-24.5127
-24.5125
-24.5124
-24.4695
-24.4694
-24.4693
-24.4693
-24.4693
-24.4693
-24.4156
-24.4158
-24.4159
-24.4161
-24.4164
-24.4166
-24.2164
-24.217
-24.2178
-24.2189
-24.2198
-24.2204
-24.3674
-24.3681
-24.3692
-24.3707
-24.3718
-24.3724
-23.9787
-23.9777
-23.9756
-23.9732
-23.9709
-23.97
-34.3636
-34.3636
-34.3636
-34.3636
-34.3635
-34.3635
-34.3647
-34.3647
-34.3646
-34.3646
-34.3646
-34.3646
-34.3667
-34.3667
-34.3667
-34.3667
-34.3667
-34.3667
-34.3701
-34.3701
-34.3701
-34.37
-34.37
-34.37
-34.3761
-34.3761
-34.3761
-34.376
-34.376
-34.3759
-34.3895
-34.3894
-34.3893
-34.3892
-34.3891
-34.389
-34.4127
-34.4126
-34.4125
-34.4123
-34.4122
-34.4121
-34.4507
-34.4507
-34.4506
-34.4506
-34.4506
-34.4507
-34.5281
-34.5282
-34.5283
-34.5284
-34.5286
-34.5287
-34.6466
-34.6466
-34.6467
-34.6468
-34.6468
-34.6467
-34.7725
-34.7726
-34.7729
-34.7732
-34.7735
-34.7735
-35.1704
-35.1704
-35.1707
-35.1708
-35.171
-35.1699
-41.9148
-41.9149
-41.9151
-41.9153
-41.9155
-41.9156
-54.0235
-54.0236
-54.0237
-54.0236
-54.0236
-54.0235
-67.1409
-67.141
-67.141
-67.1409
-67.1408
-67.1406
-41.3083
-41.3085
-41.3086
-41.3087
-41.3087
-41.3087
-53.8736
-53.8737
-53.8737
-53.8736
-53.8735
-53.8733
-67.4784
-67.4784
-67.4784
-67.4783
-67.4782
-67.4781
-41.8602
-41.8602
-41.8602
-41.8602
-41.8601
-41.86
-53.6535
-53.6535
-53.6535
-53.6535
-53.6535
-53.6534
-67.805
-67.8051
-67.8051
-67.8052
-67.8052
-67.8053
-42.7941
-42.7939
-42.7937
-42.7936
-42.7934
-42.7934
-54.2329
-54.2329
-54.2329
-54.2329
-54.233
-54.233
-68.6991
-68.6993
-68.6994
-68.6996
-68.6997
-68.6996
-44.2645
-44.264
-44.2637
-44.2635
-44.2635
-44.2639
-55.1649
-55.1647
-55.1645
-55.1645
-55.1647
-55.1648
-69.2881
-69.2883
-69.2883
-69.2884
-69.2884
-69.2881
-45.64
-45.6396
-45.6395
-45.6396
-45.64
-45.6407
-56.5492
-56.549
-56.5487
-56.5487
-56.5491
-56.5494
-69.7217
-69.7219
-69.7219
-69.7218
-69.7217
-69.7215
-46.8401
-46.8403
-46.8408
-46.8411
-46.8413
-46.8413
-57.9081
-57.9082
-57.9084
-57.9085
-57.9086
-57.9085
-69.8288
-69.8289
-69.8289
-69.8288
-69.8288
-69.8287
-49.6273
-49.6274
-49.628
-49.628
-49.6285
-49.6273
-58.4014
-58.4016
-58.402
-58.402
-58.402
-58.4011
-69.3508
-69.3508
-69.3508
-69.3509
-69.3512
-69.3514
-46.1085
-46.1081
-46.1083
-46.1081
-46.1084
-46.1107
-53.9664
-53.9661
-53.9665
-53.9673
-53.9674
-53.9664
-72.666
-72.6659
-72.6659
-72.666
-72.6661
-72.6659
-60.348
-60.3473
-60.3475
-60.3478
-60.3466
-60.3512
-49.5142
-49.5135
-49.5144
-49.5154
-49.515
-49.5153
-63.7256
-63.7244
-63.7249
-63.7242
-63.7232
-63.7268
-66.9072
-66.9072
-66.9108
-66.9283
-66.9359
-66.8919
-56.5442
-56.5469
-56.5457
-56.5422
-56.5415
-56.5475
-83.0973
-83.0959
-83.097
-83.0983
-83.1021
-83.0891
-71.5841
-71.6297
-71.6077
-71.9142
-72.1934
-71.1568
-69.4801
-69.5401
-69.5253
-69.4423
-69.2701
-69.7129
-129.644
-129.643
-129.647
-129.655
-129.66
-129.609
-43.2527
-43.2539
-43.2567
-43.2647
-43.2915
-43.2274
-65.3857
-65.3933
-65.3724
-65.3442
-65.3637
-65.4239
-50.513
-50.511
-50.4955
-50.4518
-50.274
-50.708
-49.636
-49.6434
-49.6417
-49.5981
-49.5738
-49.6782
-86.1091
-86.1437
-86.1
-85.8955
-85.6983
-86.491
-126.107
-126.143
-126.168
-125.923
-125.923
-126.179
-38.0334
-37.8647
-37.9639
-38.3913
-39.2462
-36.8621
-121.213
-121.438
-121.475
-120.599
-119.447
-122.745
-696.831
-695.99
-695.269
-702.412
-721.419
-676.268
-106.8
-106.075
-106.639
-108.92
-112.654
-101.105
-1872.78
-1866.17
-1868.56
-1889.01
-1927.03
-1818.36
-889.721
-890.943
-890.605
-890.663
-890.958
-888.823
-298.835
-298.691
-298.716
-298.973
-298.617
-297.758
15.8433
15.8236
15.7376
9.60293
1.26086
30.7746
-389.766
-389.979
-390.072
-390.847
-391.381
-388.103
-1895.39
-1895.35
-1895.66
-1896.92
-1899.28
-1891.85
-125.252
-125.452
-125.5
-125.688
-125.878
-124.47
-234.618
-234.649
-234.694
-234.712
-234.644
-234.525
-44.1554
-44.1554
-44.1554
-44.1554
-44.1553
-44.1553
-53.962
-53.962
-53.962
-53.962
-53.962
-53.962
-63.7678
-63.7678
-63.7678
-63.7678
-63.7678
-63.7678
-44.1563
-44.1563
-44.1563
-44.1563
-44.1563
-44.1563
-53.9628
-53.9628
-53.9628
-53.9628
-53.9628
-53.9628
-63.7677
-63.7677
-63.7677
-63.7677
-63.7677
-63.7677
-44.1579
-44.1579
-44.1579
-44.1579
-44.1579
-44.1579
-53.9648
-53.9648
-53.9648
-53.9648
-53.9648
-53.9648
-63.7673
-63.7673
-63.7673
-63.7673
-63.7673
-63.7673
-44.159
-44.159
-44.159
-44.1589
-44.1589
-44.1589
-53.9693
-53.9692
-53.9692
-53.9692
-53.9692
-53.9692
-63.7658
-63.7658
-63.7658
-63.7658
-63.7658
-63.7658
-44.1555
-44.1554
-44.1554
-44.1553
-44.1553
-44.1553
-53.9796
-53.9796
-53.9796
-53.9796
-53.9796
-53.9796
-63.7625
-63.7625
-63.7625
-63.7625
-63.7625
-63.7625
-44.1432
-44.1432
-44.1431
-44.1431
-44.143
-44.143
-54.0002
-54.0002
-54.0002
-54.0002
-54.0002
-54.0002
-63.7601
-63.7601
-63.7601
-63.7601
-63.7601
-63.7601
-44.1192
-44.1192
-44.1192
-44.1191
-44.1191
-44.1191
-54.0357
-54.0357
-54.0357
-54.0357
-54.0356
-54.0356
-63.7631
-63.7631
-63.763
-63.763
-63.763
-63.763
-44.0657
-44.0657
-44.0657
-44.0656
-44.0656
-44.0656
-54.098
-54.098
-54.0979
-54.0979
-54.0978
-54.0979
-63.8088
-63.8088
-63.8087
-63.8087
-63.8087
-63.8087
-44.0648
-44.0648
-44.0647
-44.0647
-44.0646
-44.0646
-54.2246
-54.2245
-54.2244
-54.2242
-54.2241
-54.2241
-63.7705
-63.7704
-63.77
-63.7698
-63.7694
-63.7702
-43.6141
-43.614
-43.6139
-43.6139
-43.6137
-43.6136
-54.5402
-54.54
-54.5396
-54.5391
-54.539
-54.5391
-64.6058
-64.6055
-64.6048
-64.6028
-64.603
-64.602
-43.6456
-43.6458
-43.6463
-43.6467
-43.647
-43.6459
-55.1712
-55.1708
-55.1697
-55.1691
-55.1694
-55.1708
-62.6489
-62.6486
-62.647
-62.6472
-62.6404
-62.6465
-42.2634
-42.2624
-42.2639
-42.2678
-42.2655
-42.2639
-57.3172
-57.3141
-57.3088
-57.2996
-57.3005
-57.3328
-75.1383
-75.1389
-75.1372
-75.1244
-75.17
-75.1255
)
;

boundaryField
{
    seabed_topleft_surface
    {
        type            calculated;
        value           nonuniform List<scalar> 
72
(
12024.5
12024.4
12024.4
12024.4
12024.4
12024.4
11518.4
11518.4
11518.4
11518.4
11518.4
11518.4
11015
11014.9
11014.9
11014.9
11014.9
11014.9
11174.2
11174.1
11174.2
11174.1
11174.1
11174.1
11828
11828
11828
11828
11827.9
11828
12729.1
12729.1
12729
12729
12729
12729
13769.7
13769.7
13769.6
13769.6
13769.6
13769.6
15255.7
15255.6
15255.6
15255.6
15255.6
15255.6
17484.8
17484.8
17484.8
17484.8
17484.8
17484.8
20700.6
20700.6
20700.6
20700.6
20700.6
20700.7
24923.3
24923.2
24923.2
24923.2
24923.2
24923.3
27509.8
27509.8
27509.8
27509.9
27509.9
27509.9
)
;
    }
    seabed_topright_surface
    {
        type            calculated;
        value           nonuniform List<scalar> 
72
(
-0.0116033
-0.0116589
-0.0116538
-0.0116231
-0.0115872
-0.0115601
-0.0102621
-0.01027
-0.0102404
-0.0101983
-0.0101538
-0.0101099
-0.00756595
-0.00754515
-0.00751555
-0.00748737
-0.00746188
-0.00743594
-0.00415281
-0.00412752
-0.00412358
-0.00413679
-0.00415907
-0.00417441
-0.00052652
-0.00052855
-0.00058761
-0.000684536
-0.000798495
-0.000889963
0.00375533
0.00368847
0.0035339
0.00333541
0.003127
0.00296979
0.00954234
0.00942188
0.0092235
0.00901431
0.00882734
0.00870862
0.019424
0.0193368
0.0192295
0.01917
0.0191588
0.0191785
0.0371676
0.0371617
0.0371964
0.0372939
0.0374209
0.0375157
0.0667441
0.0667438
0.0667647
0.0667848
0.0667889
0.0667469
0.0580255
0.0579816
0.0579953
0.0580051
0.0580291
0.0580101
0.115758
0.115885
0.116171
0.116495
0.116815
0.117035
)
;
    }
    breakwater_top_surface
    {
        type            calculated;
        value           nonuniform List<scalar> 
36
(
-38.3477
-38.3489
-38.3517
-38.3597
-38.3865
-38.3224
-44.7159
-44.7234
-44.7217
-44.6781
-44.6536
-44.7584
10.7031
10.69
10.5822
10.7107
10.8867
10.643
104.364
104.991
104.371
102.553
99.1739
109.779
2103.47
2103.14
2102.82
2104.94
2110.31
2099.46
867.746
867.727
867.407
866.064
863.645
871.459
)
;
    }
    breakwater_left_surface
    {
        type            calculated;
        value           nonuniform List<scalar> 
24
(
22756.1
22756.1
22756.1
22756.1
22756.2
22756.1
16578.2
16578.3
16578.3
16578.4
16578.4
16578.3
9826.54
9826.85
9826.76
9826.78
9826.85
9826.72
2375.86
2375.81
2375.7
2375.77
2375.68
2375.86
)
;
    }
    breakwater_right_surface
    {
        type            calculated;
        value           nonuniform List<scalar> 
24
(
-4.78924
-4.78912
-4.78883
-4.78851
-4.78819
-4.78796
-14.8694
-14.869
-14.8683
-14.8675
-14.8667
-14.8662
-23.9625
-23.9615
-23.9594
-23.957
-23.9547
-23.9539
-35.1545
-35.1546
-35.1548
-35.1549
-35.1551
-35.154
)
;
    }
    water_front_surface
    {
        type            calculated;
        value           nonuniform List<scalar> 
186
(
7718.3
7204.76
6641.63
6687.52
7227.79
8049.48
9048.33
10475.9
12695.1
15911
20133.6
22739.7
1446.27
785.58
666.147
798.154
1064.51
1427.96
1783.13
1840.59
2227.7
4861.77
12037.4
16562.2
-20.1756
-16.204
-15.7641
-16.3698
-21.1554
-28.2452
-35.504
31.7038
201.729
595.995
2767.64
9811.41
-27.2988
-25.2883
-24.9807
-24.391
-25.7951
-30.9348
-39.3473
-45.3751
-33.8758
-11.7738
234.926
2361.28
-4.93346
-4.93212
-4.92942
-4.92601
-4.92238
-4.9181
-4.91231
-4.90243
-4.88469
-4.85511
-4.86383
-4.8061
-14.7443
-14.7439
-14.7432
-14.7428
-14.7438
-14.7501
-14.7621
-14.7801
-14.8091
-14.8324
-14.8464
-14.8859
-24.5545
-24.5549
-24.5555
-24.5557
-24.5526
-24.5396
-24.513
-24.4695
-24.4156
-24.2164
-24.3674
-23.9787
-34.3636
-34.3647
-34.3667
-34.3701
-34.3761
-34.3895
-34.4127
-34.4507
-34.5281
-34.6466
-34.7725
-35.1704
-41.9148
-54.0235
-67.1409
-41.3083
-53.8736
-67.4784
-41.8602
-53.6535
-67.805
-42.7941
-54.2329
-68.6991
-44.2645
-55.1649
-69.2881
-45.64
-56.5492
-69.7217
-46.8401
-57.9081
-69.8288
-49.6273
-58.4014
-69.3508
-46.1085
-53.9664
-72.666
-60.348
-49.5142
-63.7256
-66.9072
-56.5442
-83.0973
-71.5841
-69.4801
-129.644
-43.2527
-65.3857
-50.513
-49.636
-86.1091
-126.107
-38.0334
-121.213
-696.831
-106.8
-1872.78
-889.721
-298.835
15.8433
-389.766
-1895.39
-125.252
-234.618
-44.1554
-53.962
-63.7678
-44.1563
-53.9628
-63.7677
-44.1579
-53.9648
-63.7673
-44.159
-53.9693
-63.7658
-44.1555
-53.9796
-63.7625
-44.1432
-54.0002
-63.7601
-44.1192
-54.0357
-63.7631
-44.0657
-54.098
-63.8088
-44.0648
-54.2246
-63.7705
-43.6141
-54.5402
-64.6058
-43.6456
-55.1712
-62.6489
-42.2634
-57.3172
-75.1383
)
;
    }
    water_back_surface
    {
        type            calculated;
        value           nonuniform List<scalar> 
186
(
7718.27
7204.74
6641.6
6687.49
7227.77
8049.46
9048.33
10475.9
12695.1
15911
20133.6
22739.8
1446.25
785.575
666.139
798.143
1064.5
1427.95
1783.13
1840.59
2227.7
4861.85
12037.5
16562.3
-20.1763
-16.2052
-15.7642
-16.3694
-21.1543
-28.2444
-35.5042
31.7028
201.735
595.999
2767.63
9811.59
-27.3003
-25.2893
-24.9808
-24.3903
-25.7943
-30.935
-39.3487
-45.3757
-33.8733
-11.7785
234.931
2361.29
-4.93342
-4.93197
-4.92929
-4.92603
-4.92275
-4.91889
-4.91315
-4.90268
-4.88434
-4.85511
-4.86385
-4.80482
-14.7441
-14.7437
-14.7431
-14.7428
-14.7441
-14.7503
-14.7619
-14.7798
-14.8097
-14.8341
-14.8476
-14.8827
-24.5544
-24.5548
-24.5555
-24.5558
-24.5527
-24.5394
-24.5124
-24.4693
-24.4166
-24.2204
-24.3724
-23.97
-34.3635
-34.3646
-34.3667
-34.37
-34.3759
-34.389
-34.4121
-34.4507
-34.5287
-34.6467
-34.7735
-35.1699
-41.9156
-54.0235
-67.1406
-41.3087
-53.8733
-67.4781
-41.86
-53.6534
-67.8053
-42.7934
-54.233
-68.6996
-44.2639
-55.1648
-69.2881
-45.6407
-56.5494
-69.7215
-46.8413
-57.9085
-69.8287
-49.6273
-58.4011
-69.3514
-46.1107
-53.9664
-72.6659
-60.3512
-49.5153
-63.7268
-66.8919
-56.5475
-83.0891
-71.1568
-69.7129
-129.609
-43.2274
-65.4239
-50.708
-49.6782
-86.491
-126.179
-36.8621
-122.745
-676.268
-101.105
-1818.36
-888.823
-297.758
30.7746
-388.103
-1891.85
-124.47
-234.525
-44.1553
-53.962
-63.7678
-44.1563
-53.9628
-63.7677
-44.1579
-53.9648
-63.7673
-44.1589
-53.9692
-63.7658
-44.1553
-53.9796
-63.7625
-44.143
-54.0002
-63.7601
-44.1191
-54.0356
-63.763
-44.0656
-54.0979
-63.8087
-44.0646
-54.2241
-63.7702
-43.6136
-54.5391
-64.602
-43.6459
-55.1708
-62.6465
-42.2639
-57.3328
-75.1255
)
;
    }
    water_left_surface
    {
        type            calculated;
        value           nonuniform List<scalar> 
42
(
7733.05
7733.06
7733.05
7733.03
7733.03
7733.02
1451.19
1451.2
1451.19
1451.18
1451.18
1451.17
-20.1594
-20.1591
-20.1593
-20.1595
-20.1596
-20.1601
-27.2829
-27.283
-27.2833
-27.2837
-27.2841
-27.2844
-41.9148
-41.9149
-41.9151
-41.9153
-41.9155
-41.9156
-54.0235
-54.0236
-54.0237
-54.0236
-54.0236
-54.0235
-67.1409
-67.141
-67.141
-67.1409
-67.1408
-67.1406
)
;
    }
    water_right_surface
    {
        type            calculated;
        value           nonuniform List<scalar> 
42
(
-4.9166
-4.91666
-4.91665
-4.91662
-4.91659
-4.91656
-14.7277
-14.7278
-14.7277
-14.7277
-14.7277
-14.7276
-24.5383
-24.5383
-24.5383
-24.5383
-24.5382
-24.5382
-34.3478
-34.3478
-34.3477
-34.3477
-34.3477
-34.3476
-44.1554
-44.1554
-44.1554
-44.1554
-44.1553
-44.1553
-53.962
-53.962
-53.962
-53.962
-53.962
-53.962
-63.7678
-63.7678
-63.7678
-63.7678
-63.7678
-63.7678
)
;
    }
    water_top_surface
    {
        type            calculated;
        value           nonuniform List<scalar> 
180
(
-73.4659
-73.4663
-73.4662
-73.4662
-73.4662
-73.4657
-73.8502
-73.8505
-73.8504
-73.8504
-73.8505
-73.8499
-73.6098
-73.6101
-73.6101
-73.6102
-73.6103
-73.61
-74.598
-74.5987
-74.5988
-74.599
-74.5993
-74.599
-74.7863
-74.7873
-74.7875
-74.7876
-74.7877
-74.787
-75.5999
-75.6009
-75.6009
-75.6007
-75.6004
-75.5993
-76.0108
-76.0112
-76.0109
-76.0107
-76.0106
-76.01
-75.3572
-75.357
-75.357
-75.3572
-75.358
-75.3575
-76.3936
-76.3932
-76.3934
-76.3937
-76.3947
-76.393
-68.67
-68.67
-68.67
-68.67
-68.67
-68.67
-68.6907
-68.6907
-68.6907
-68.6907
-68.6907
-68.6907
-69.8327
-69.8326
-69.8326
-69.8327
-69.8329
-69.8325
-70.1095
-70.1051
-70.1157
-70.085
-70.02
-70.1796
-363.235
-361.244
-360.267
-368.093
-386.763
-343.593
-7181.96
-7179.12
-7173.73
-7199.73
-7261.73
-7115.32
-8001.9
-8009.17
-8006.43
-7999.26
-7984.87
-8026.37
-346.371
-346.415
-346.437
-346.428
-346.302
-346.539
-195.397
-195.396
-195.429
-195.372
-195.213
-195.602
-68.6704
-68.6704
-68.6704
-68.6704
-68.6704
-68.6704
-68.6705
-68.6705
-68.6705
-68.6705
-68.6705
-68.6705
-68.6706
-68.6706
-68.6706
-68.6706
-68.6706
-68.6706
-68.6709
-68.6709
-68.6709
-68.6709
-68.6709
-68.6709
-68.6713
-68.6713
-68.6713
-68.6713
-68.6713
-68.6713
-68.6722
-68.6722
-68.6722
-68.6722
-68.6722
-68.6722
-68.674
-68.674
-68.674
-68.674
-68.674
-68.674
-68.6785
-68.6785
-68.6785
-68.6785
-68.6785
-68.6785
-68.6896
-68.6896
-68.6896
-68.6896
-68.6896
-68.6896
-68.7403
-68.7403
-68.7403
-68.7403
-68.7403
-68.7402
-68.9194
-68.9195
-68.9193
-68.9194
-68.92
-68.9186
-70.641
-70.642
-70.6425
-70.6429
-70.6548
-70.6299
)
;
    }
}


// ************************************************************************* //
