/*--------------------------------*- C++ -*----------------------------------*\
| =========                 |                                                 |
| \\      /  F ield         | OpenFOAM: The Open Source CFD Toolbox           |
|  \\    /   O peration     | Version:  v1612+                                |
|   \\  /    A nd           | Web:      www.OpenFOAM.com                      |
|    \\/     M anipulation  |                                                 |
\*---------------------------------------------------------------------------*/
FoamFile
{
    version     2.0;
    format      ascii;
    class       volScalarField;
    location    "3";
    object      p_rgh;
}
// * * * * * * * * * * * * * * * * * * * * * * * * * * * * * * * * * * * * * //

dimensions      [1 -1 -2 0 0 0 0];

internalField   nonuniform List<scalar> 
1116
(
12024.5
12024.4
12024.4
12024.4
12024.4
12024.4
11518.4
11518.4
11518.4
11518.4
11518.4
11518.4
11015
11014.9
11014.9
11014.9
11014.9
11014.9
11174.2
11174.1
11174.2
11174.1
11174.1
11174.1
11828
11828
11828
11828
11827.9
11828
12729.1
12729.1
12729
12729
12729
12729
13769.7
13769.7
13769.6
13769.6
13769.6
13769.6
15255.7
15255.6
15255.6
15255.6
15255.6
15255.6
17484.8
17484.8
17484.8
17484.8
17484.8
17484.8
20700.6
20700.6
20700.6
20700.6
20700.6
20700.7
24923.3
24923.2
24923.2
24923.2
24923.2
24923.3
27509.8
27509.8
27509.8
27509.9
27509.9
27509.9
5836.08
5836.11
5836.08
5836.04
5836.03
5836.03
3129.32
3129.3
3129.3
3129.24
3129.21
3129.3
2636.91
2636.87
2636.87
2636.84
2636.8
2636.87
3144.99
3144.94
3144.95
3144.92
3144.88
3144.95
4207.08
4207
4207.02
4207
4206.96
4207.03
5648.46
5648.38
5648.42
5648.41
5648.37
5648.43
7090.76
7090.69
7090.72
7090.72
7090.7
7090.74
7342.95
7342.9
7342.92
7342.93
7342.93
7342.93
8282.06
8281.88
8281.93
8281.93
8281.92
8282.01
13922
13921.5
13921.6
13921.6
13921.6
13921.9
25904.2
25903.9
25904
25904.1
25904
25904.3
30838.7
30838.8
30838.8
30838.9
30839
30838.8
4.36638
4.36672
4.3665
4.36631
4.3662
4.36571
8.33748
8.33776
8.33747
8.33713
8.33688
8.33624
8.77728
8.77746
8.77738
8.7774
8.77753
8.7772
8.17145
8.17183
8.17187
8.17198
8.17218
8.17185
3.3858
3.38629
3.38649
3.38673
3.38701
3.38685
-3.70398
-3.70392
-3.70375
-3.70347
-3.70321
-3.70321
-10.9628
-10.9642
-10.9643
-10.964
-10.9635
-10.9631
56.245
56.2425
56.2424
56.2424
56.2428
56.244
226.986
226.982
226.984
226.986
226.987
226.993
660.009
659.959
659.975
659.979
659.974
660.004
16036.4
16034.8
16035.2
16035.4
16035.2
16035.9
32738.7
32738.9
32738.9
32738.8
32738.7
32739.3
7.07137
7.07131
7.07099
7.0706
7.0702
7.06988
9.20734
9.20732
9.20712
9.2069
9.20669
9.2064
9.37062
9.37062
9.3705
9.37051
9.37062
9.37056
9.96518
9.96561
9.96572
9.9659
9.96614
9.96592
8.56154
8.56224
8.56251
8.56273
8.56291
8.56233
3.4161
3.41643
3.41646
3.4165
3.41657
3.41591
-4.99641
-4.99675
-4.99705
-4.99741
-4.99726
-4.99787
-11.0242
-11.0249
-11.0249
-11.0247
-11.0242
-11.0249
0.382004
0.381621
0.381827
0.382023
0.381806
0.384562
24.7084
24.7056
24.7068
24.7071
24.7057
24.7039
1337.51
1336.56
1336.72
1336.86
1336.69
1337.16
33904.7
33903.9
33903.8
33904.3
33904.7
33903.7
-0.0116033
-0.0116589
-0.0116538
-0.0116231
-0.0115872
-0.0115601
-0.0102621
-0.01027
-0.0102404
-0.0101983
-0.0101538
-0.0101099
-0.00756595
-0.00754515
-0.00751555
-0.00748737
-0.00746188
-0.00743594
-0.00415281
-0.00412752
-0.00412358
-0.00413679
-0.00415907
-0.00417441
-0.00052652
-0.00052855
-0.00058761
-0.000684536
-0.000798495
-0.000889963
0.00375533
0.00368847
0.0035339
0.00333541
0.003127
0.00296979
0.00954234
0.00942188
0.0092235
0.00901431
0.00882734
0.00870862
0.019424
0.0193368
0.0192295
0.01917
0.0191588
0.0191785
0.0371676
0.0371617
0.0371964
0.0372939
0.0374209
0.0375157
0.0667441
0.0667438
0.0667647
0.0667848
0.0667889
0.0667469
0.0580255
0.0579816
0.0579953
0.0580051
0.0580291
0.0580101
0.115758
0.115885
0.116171
0.116495
0.116815
0.117035
-0.0127399
-0.0127662
-0.0127432
-0.0127013
-0.0126535
-0.0126063
-0.0123815
-0.0123755
-0.012344
-0.012304
-0.012259
-0.0122081
-0.0117043
-0.0116948
-0.011684
-0.0116702
-0.0116514
-0.0116253
-0.0112383
-0.0112512
-0.011278
-0.011302
-0.011321
-0.0113331
-0.0123203
-0.0123644
-0.0124307
-0.012493
-0.0125524
-0.0126051
-0.0185641
-0.0186118
-0.0186808
-0.0187372
-0.018784
-0.0188197
-0.0305467
-0.0305313
-0.030523
-0.0304859
-0.030436
-0.0303978
-0.0486235
-0.048522
-0.0484459
-0.0483704
-0.0483197
-0.0483227
-0.0775552
-0.0775079
-0.0775709
-0.0777322
-0.0779704
-0.0782015
-0.100844
-0.101021
-0.101348
-0.1018
-0.102265
-0.102615
-0.114899
-0.115034
-0.115291
-0.115675
-0.11598
-0.116081
-0.154358
-0.154011
-0.153319
-0.152489
-0.151741
-0.151166
-0.0133342
-0.0133414
-0.0133119
-0.0132689
-0.013223
-0.0131813
-0.013725
-0.0137082
-0.0136782
-0.0136442
-0.0136082
-0.0135705
-0.014331
-0.0143177
-0.0143125
-0.0143059
-0.0142948
-0.0142791
-0.014517
-0.0145229
-0.0145432
-0.0145573
-0.0145653
-0.0145732
-0.0113728
-0.0113932
-0.0114233
-0.0114402
-0.0114508
-0.0114656
0.00161172
0.00160179
0.00160562
0.0016452
0.00170527
0.00175835
0.0282283
0.0282771
0.0283777
0.0285245
0.0286918
0.0288074
0.0717138
0.0717704
0.07184
0.0718962
0.0719207
0.0718896
0.125544
0.125432
0.12527
0.125039
0.124791
0.124626
0.324762
0.324233
0.323353
0.322267
0.321354
0.320809
0.17379
0.173093
0.171946
0.170502
0.169391
0.168833
0.56248
0.563484
0.565577
0.568013
0.570271
0.571144
-0.0127728
-0.012767
-0.012737
-0.0126988
-0.0126615
-0.0126306
-0.0138038
-0.0137846
-0.0137614
-0.0137379
-0.0137157
-0.0136954
-0.0158648
-0.0158554
-0.0158547
-0.0158518
-0.0158449
-0.0158368
-0.0191873
-0.0191844
-0.0191845
-0.0191724
-0.0191562
-0.0191495
-0.0252344
-0.0252131
-0.0251782
-0.0251281
-0.0250785
-0.0250506
-0.038607
-0.0385437
-0.038445
-0.0383231
-0.0381952
-0.0380967
-0.0618477
-0.0617488
-0.0616027
-0.0614359
-0.0612769
-0.0611901
-0.0998432
-0.0997972
-0.0997506
-0.0997277
-0.0997518
-0.0998163
-0.177215
-0.177278
-0.177396
-0.17757
-0.177758
-0.177839
-0.295698
-0.295729
-0.295797
-0.295891
-0.295927
-0.295816
-0.421579
-0.421714
-0.422029
-0.422355
-0.4226
-0.422646
-0.819538
-0.819574
-0.819796
-0.819906
-0.820144
-0.819014
2.25149
2.25132
2.25113
2.25096
2.25079
2.25068
-0.0667665
-0.0669051
-0.0669281
-0.0669018
-0.0668423
-0.0667297
-3.3759
-3.376
-3.37597
-3.37591
-3.37581
-3.37559
3.06225
3.06208
3.06194
3.06188
3.06187
3.0619
0.176645
0.176547
0.176586
0.176649
0.176707
0.176943
-3.71341
-3.71343
-3.71337
-3.7133
-3.71323
-3.71309
2.30418
2.30415
2.30412
2.30416
2.30426
2.30435
0.304356
0.304332
0.304317
0.304322
0.304356
0.304422
-4.04
-4.04007
-4.0401
-4.04016
-4.04024
-4.04026
1.35916
1.35936
1.35952
1.35968
1.35984
1.35991
-0.277864
-0.277852
-0.277881
-0.27794
-0.277971
-0.277955
-4.93411
-4.9343
-4.93441
-4.93456
-4.93468
-4.9346
-0.109827
-0.109352
-0.108972
-0.108803
-0.108841
-0.109178
-1.20658
-1.20638
-1.20619
-1.20616
-1.2063
-1.20644
-5.52313
-5.5233
-5.52334
-5.52337
-5.52337
-5.52313
-1.49352
-1.49318
-1.49304
-1.49318
-1.49358
-1.49421
-2.59418
-2.59395
-2.59371
-2.59373
-2.59409
-2.59437
-5.95673
-5.95691
-5.95688
-5.95681
-5.95674
-5.9565
-2.69509
-2.6953
-2.69577
-2.69613
-2.69628
-2.69629
-3.95313
-3.95325
-3.95337
-3.95346
-3.95364
-3.9535
-6.06382
-6.0639
-6.06385
-6.06382
-6.0638
-6.06374
-5.48226
-5.48236
-5.48302
-5.48297
-5.48351
-5.48231
-4.44641
-4.44663
-4.44703
-4.44698
-4.44699
-4.44615
-5.5858
-5.58578
-5.58585
-5.58591
-5.58617
-5.5864
-1.96915
-1.96878
-1.96898
-1.96877
-1.96914
-1.97144
-0.0113851
-0.0110998
-0.0114961
-0.0122531
-0.0124134
-0.0113556
-8.90104
-8.9009
-8.90088
-8.90104
-8.90109
-8.90095
-15.9606
-15.9599
-15.9601
-15.9604
-15.9592
-15.9638
4.43102
4.43172
4.43084
4.42984
4.43023
4.42996
0.0394325
0.040588
0.0400655
0.0408488
0.0417603
0.0382209
-19.7879
-19.7877
-19.7913
-19.8087
-19.8161
-19.7726
-2.27087
-2.2735
-2.27228
-2.26881
-2.26804
-2.27414
-19.313
-19.3117
-19.3127
-19.3141
-19.3179
-19.3049
24970.4
24969.4
24969.7
24968.1
24964.8
24972.7
2150.35
2149.06
2149.24
2151.99
2156.63
2143.79
-64.7991
-64.7982
-64.8026
-64.8101
-64.8148
-64.7643
0.892388
0.891161
0.888359
0.880367
0.853586
0.917704
-11.4307
-11.4383
-11.4174
-11.3892
-11.4087
-11.4689
13.252
13.254
13.2695
13.3132
13.491
13.057
-5.35562
-5.36355
-5.36184
-5.31782
-5.29195
-5.39951
-32.1495
-32.1841
-32.1404
-31.9358
-31.7386
-32.5315
211.183
209.298
208.365
215.877
233.214
192.871
400.595
399.128
398.951
403.526
411.949
390.684
3758.81
3730.32
3727.97
3808.95
3971.97
3568.02
5972.13
5970.33
5966.05
5983.05
6021.61
5930.81
1793.68
1793.52
1792.45
1794.33
1793.8
1796.85
19414.3
19429.6
19427.9
19377
19277.5
19551.4
6540.61
6546.14
6543.94
6537.22
6523.56
6564.23
21321.9
21317.8
21315.1
21336.2
21381.7
21277.2
21472.2
21488.9
21492.1
21426.1
21285.8
21639.6
-68.1354
-68.3086
-68.3806
-69.1631
-69.8152
-66.3166
22972.8
22972.3
22971.9
22969.9
22967.1
22978
5429.76
5429.67
5430.27
5427.9
5418.77
5440.43
-53.1777
-53.2102
-53.2239
-53.2948
-53.3745
-52.8952
-0.0104249
-0.0104113
-0.0103864
-0.010357
-0.0103312
-0.0103131
-0.00701349
-0.00700106
-0.00698415
-0.0069672
-0.00695502
-0.00695014
-0.00278835
-0.00278302
-0.00277671
-0.00277153
-0.00276929
-0.00277096
-0.0113436
-0.0113264
-0.0113116
-0.0112974
-0.0112862
-0.0112791
-0.00781917
-0.00780986
-0.00780376
-0.0077995
-0.00779768
-0.00779837
-0.00273057
-0.0027297
-0.00272945
-0.00273002
-0.00273125
-0.00273179
-0.0129446
-0.0129383
-0.0129368
-0.0129325
-0.0129249
-0.0129164
-0.00979035
-0.00979074
-0.00979198
-0.00978995
-0.00978372
-0.00977377
-0.00227122
-0.0022733
-0.00227418
-0.00227288
-0.00226844
-0.00226033
-0.0139902
-0.0139759
-0.0139576
-0.0139329
-0.0139096
-0.0138986
-0.0142516
-0.0142398
-0.014227
-0.0142125
-0.0142006
-0.0141976
-0.000795842
-0.000788789
-0.000782702
-0.00077659
-0.000772585
-0.000777127
-0.0104567
-0.0104189
-0.0103769
-0.0103375
-0.0103113
-0.0103054
-0.0246378
-0.0246175
-0.024608
-0.0246082
-0.0246188
-0.0246404
0.00251078
0.0025161
0.00251462
0.00250791
0.00249651
0.00247759
0.00180726
0.00184486
0.00188795
0.00192886
0.00196728
0.00199752
-0.0451895
-0.0451873
-0.045195
-0.0452058
-0.0452093
-0.0452058
0.00492603
0.00492214
0.00491605
0.00491026
0.00491273
0.0049237
0.0257573
0.0257811
0.0258209
0.0258671
0.0259104
0.025922
-0.0807191
-0.0807146
-0.0806976
-0.0806722
-0.0806466
-0.0806439
0.00193436
0.00194254
0.0019554
0.00197054
0.00198685
0.00199
0.0793134
0.0793179
0.0793462
0.079376
0.0793808
0.0793627
-0.142977
-0.142955
-0.142907
-0.142855
-0.142845
-0.142857
-0.0437603
-0.0437549
-0.043744
-0.0437355
-0.0437357
-0.0436965
0.0801664
0.0802022
0.0802668
0.0803463
0.0804061
0.0804422
-0.269575
-0.269495
-0.269353
-0.269223
-0.269142
-0.269138
-0.00552795
-0.00536512
-0.00503242
-0.00475842
-0.00435444
-0.00519301
0.530947
0.531024
0.531092
0.531136
0.531342
0.531394
-0.585244
-0.584983
-0.584587
-0.584128
-0.583993
-0.58407
-0.840833
-0.840515
-0.839755
-0.837845
-0.838017
-0.837045
0.499395
0.499242
0.498733
0.498296
0.498044
0.499093
-1.2162
-1.21581
-1.21468
-1.21409
-1.21439
-1.21581
1.1161
1.1164
1.11805
1.11779
1.12456
1.11847
1.88161
1.88261
1.88114
1.87719
1.87953
1.88112
-3.36222
-3.35914
-3.3538
-3.34458
-3.34545
-3.37784
-11.3733
-11.3739
-11.3722
-11.3594
-11.405
-11.3605
)
;

boundaryField
{
    seabed_topleft_surface
    {
        type            fixedFluxPressure;
        gradient        uniform 0;
        value           nonuniform List<scalar> 
72
(
12024.5
12024.4
12024.4
12024.4
12024.4
12024.4
11518.4
11518.4
11518.4
11518.4
11518.4
11518.4
11015
11014.9
11014.9
11014.9
11014.9
11014.9
11174.2
11174.1
11174.2
11174.1
11174.1
11174.1
11828
11828
11828
11828
11827.9
11828
12729.1
12729.1
12729
12729
12729
12729
13769.7
13769.7
13769.6
13769.6
13769.6
13769.6
15255.7
15255.6
15255.6
15255.6
15255.6
15255.6
17484.8
17484.8
17484.8
17484.8
17484.8
17484.8
20700.6
20700.6
20700.6
20700.6
20700.6
20700.7
24923.3
24923.2
24923.2
24923.2
24923.2
24923.3
27509.8
27509.8
27509.8
27509.9
27509.9
27509.9
)
;
    }
    seabed_topright_surface
    {
        type            fixedFluxPressure;
        gradient        uniform 0;
        value           nonuniform List<scalar> 
72
(
-0.0116033
-0.0116589
-0.0116538
-0.0116231
-0.0115872
-0.0115601
-0.0102621
-0.01027
-0.0102404
-0.0101983
-0.0101538
-0.0101099
-0.00756595
-0.00754515
-0.00751555
-0.00748737
-0.00746188
-0.00743594
-0.00415281
-0.00412752
-0.00412358
-0.00413679
-0.00415907
-0.00417441
-0.00052652
-0.00052855
-0.00058761
-0.000684536
-0.000798495
-0.000889963
0.00375533
0.00368847
0.0035339
0.00333541
0.003127
0.00296979
0.00954234
0.00942188
0.0092235
0.00901431
0.00882734
0.00870862
0.019424
0.0193368
0.0192295
0.01917
0.0191588
0.0191785
0.0371676
0.0371617
0.0371964
0.0372939
0.0374209
0.0375157
0.0667441
0.0667438
0.0667647
0.0667848
0.0667889
0.0667469
0.0580255
0.0579816
0.0579953
0.0580051
0.0580291
0.0580101
0.115758
0.115885
0.116171
0.116495
0.116815
0.117035
)
;
    }
    breakwater_top_surface
    {
        type            fixedFluxPressure;
        gradient        uniform 0;
        value           nonuniform List<scalar> 
36
(
0.892388
0.891161
0.888359
0.880367
0.853586
0.917704
-5.35562
-5.36355
-5.36184
-5.31782
-5.29195
-5.39951
400.595
399.128
398.951
403.526
411.949
390.684
1793.68
1793.52
1792.45
1794.33
1793.8
1796.85
21321.9
21317.8
21315.1
21336.2
21381.7
21277.2
22972.8
22972.3
22971.9
22969.9
22967.1
22978
)
;
    }
    breakwater_left_surface
    {
        type            fixedFluxPressure;
        gradient        uniform 0;
        value           nonuniform List<scalar> 
24
(
27509.8
27509.8
27509.8
27509.9
27509.9
27509.9
30838.7
30838.8
30838.8
30838.9
30839
30838.8
32738.7
32738.9
32738.9
32738.8
32738.7
32739.3
33904.7
33903.9
33903.8
33904.3
33904.7
33903.7
)
;
    }
    breakwater_right_surface
    {
        type            fixedFluxPressure;
        gradient        uniform 0;
        value           nonuniform List<scalar> 
24
(
0.115758
0.115885
0.116171
0.116495
0.116815
0.117035
-0.154358
-0.154011
-0.153319
-0.152489
-0.151741
-0.151166
0.56248
0.563484
0.565577
0.568013
0.570271
0.571144
-0.819538
-0.819574
-0.819796
-0.819906
-0.820144
-0.819014
)
;
    }
    water_front_surface
    {
        type            fixedFluxPressure;
        gradient        uniform 0;
        value           nonuniform List<scalar> 
186
(
12024.5
11518.4
11015
11174.2
11828
12729.1
13769.7
15255.7
17484.8
20700.6
24923.3
27509.8
5836.08
3129.32
2636.91
3144.99
4207.08
5648.46
7090.76
7342.95
8282.06
13922
25904.2
30838.7
4.36638
8.33748
8.77728
8.17145
3.3858
-3.70398
-10.9628
56.245
226.986
660.009
16036.4
32738.7
7.07137
9.20734
9.37062
9.96518
8.56154
3.4161
-4.99641
-11.0242
0.382004
24.7084
1337.51
33904.7
-0.0116033
-0.0102621
-0.00756595
-0.00415281
-0.00052652
0.00375533
0.00954234
0.019424
0.0371676
0.0667441
0.0580255
0.115758
-0.0127399
-0.0123815
-0.0117043
-0.0112383
-0.0123203
-0.0185641
-0.0305467
-0.0486235
-0.0775552
-0.100844
-0.114899
-0.154358
-0.0133342
-0.013725
-0.014331
-0.014517
-0.0113728
0.00161172
0.0282283
0.0717138
0.125544
0.324762
0.17379
0.56248
-0.0127728
-0.0138038
-0.0158648
-0.0191873
-0.0252344
-0.038607
-0.0618477
-0.0998432
-0.177215
-0.295698
-0.421579
-0.819538
2.25149
-0.0667665
-3.3759
3.06225
0.176645
-3.71341
2.30418
0.304356
-4.04
1.35916
-0.277864
-4.93411
-0.109827
-1.20658
-5.52313
-1.49352
-2.59418
-5.95673
-2.69509
-3.95313
-6.06382
-5.48226
-4.44641
-5.5858
-1.96915
-0.0113851
-8.90104
-15.9606
4.43102
0.0394325
-19.7879
-2.27087
-19.313
24970.4
2150.35
-64.7991
0.892388
-11.4307
13.252
-5.35562
-32.1495
211.183
400.595
3758.81
5972.13
1793.68
19414.3
6540.61
21321.9
21472.2
-68.1354
22972.8
5429.76
-53.1777
-0.0104249
-0.00701349
-0.00278835
-0.0113436
-0.00781917
-0.00273057
-0.0129446
-0.00979035
-0.00227122
-0.0139902
-0.0142516
-0.000795842
-0.0104567
-0.0246378
0.00251078
0.00180726
-0.0451895
0.00492603
0.0257573
-0.0807191
0.00193436
0.0793134
-0.142977
-0.0437603
0.0801664
-0.269575
-0.00552795
0.530947
-0.585244
-0.840833
0.499395
-1.2162
1.1161
1.88161
-3.36222
-11.3733
)
;
    }
    water_back_surface
    {
        type            fixedFluxPressure;
        gradient        uniform 0;
        value           nonuniform List<scalar> 
186
(
12024.4
11518.4
11014.9
11174.1
11828
12729
13769.6
15255.6
17484.8
20700.7
24923.3
27509.9
5836.03
3129.3
2636.87
3144.95
4207.03
5648.43
7090.74
7342.93
8282.01
13921.9
25904.3
30838.8
4.36571
8.33624
8.7772
8.17185
3.38685
-3.70321
-10.9631
56.244
226.993
660.004
16035.9
32739.3
7.06988
9.2064
9.37056
9.96592
8.56233
3.41591
-4.99787
-11.0249
0.384562
24.7039
1337.16
33903.7
-0.0115601
-0.0101099
-0.00743594
-0.00417441
-0.000889963
0.00296979
0.00870862
0.0191785
0.0375157
0.0667469
0.0580101
0.117035
-0.0126063
-0.0122081
-0.0116253
-0.0113331
-0.0126051
-0.0188197
-0.0303978
-0.0483227
-0.0782015
-0.102615
-0.116081
-0.151166
-0.0131813
-0.0135705
-0.0142791
-0.0145732
-0.0114656
0.00175835
0.0288074
0.0718896
0.124626
0.320809
0.168833
0.571144
-0.0126306
-0.0136954
-0.0158368
-0.0191495
-0.0250506
-0.0380967
-0.0611901
-0.0998163
-0.177839
-0.295816
-0.422646
-0.819014
2.25068
-0.0667297
-3.37559
3.0619
0.176943
-3.71309
2.30435
0.304422
-4.04026
1.35991
-0.277955
-4.9346
-0.109178
-1.20644
-5.52313
-1.49421
-2.59437
-5.9565
-2.69629
-3.9535
-6.06374
-5.48231
-4.44615
-5.5864
-1.97144
-0.0113556
-8.90095
-15.9638
4.42996
0.0382209
-19.7726
-2.27414
-19.3049
24972.7
2143.79
-64.7643
0.917704
-11.4689
13.057
-5.39951
-32.5315
192.871
390.684
3568.02
5930.81
1796.85
19551.4
6564.23
21277.2
21639.6
-66.3166
22978
5440.43
-52.8952
-0.0103131
-0.00695014
-0.00277096
-0.0112791
-0.00779837
-0.00273179
-0.0129164
-0.00977377
-0.00226033
-0.0138986
-0.0141976
-0.000777127
-0.0103054
-0.0246404
0.00247759
0.00199752
-0.0452058
0.0049237
0.025922
-0.0806439
0.00199
0.0793627
-0.142857
-0.0436965
0.0804422
-0.269138
-0.00519301
0.531394
-0.58407
-0.837045
0.499093
-1.21581
1.11847
1.88112
-3.37784
-11.3605
)
;
    }
    water_left_surface
    {
        type            fixedFluxPressure;
        gradient        uniform 0;
        value           nonuniform List<scalar> 
42
(
12024.5
12024.4
12024.4
12024.4
12024.4
12024.4
5836.08
5836.11
5836.08
5836.04
5836.03
5836.03
4.36638
4.36672
4.3665
4.36631
4.3662
4.36571
7.07137
7.07131
7.07099
7.0706
7.0702
7.06988
2.25149
2.25132
2.25113
2.25096
2.25079
2.25068
-0.0667665
-0.0669051
-0.0669281
-0.0669018
-0.0668423
-0.0667297
-3.3759
-3.376
-3.37597
-3.37591
-3.37581
-3.37559
)
;
    }
    water_right_surface
    {
        type            fixedFluxPressure;
        gradient        uniform 0;
        value           nonuniform List<scalar> 
42
(
-0.0116033
-0.0116589
-0.0116538
-0.0116231
-0.0115872
-0.0115601
-0.0127399
-0.0127662
-0.0127432
-0.0127013
-0.0126535
-0.0126063
-0.0133342
-0.0133414
-0.0133119
-0.0132689
-0.013223
-0.0131813
-0.0127728
-0.012767
-0.012737
-0.0126988
-0.0126615
-0.0126306
-0.0104249
-0.0104113
-0.0103864
-0.010357
-0.0103312
-0.0103131
-0.00701349
-0.00700106
-0.00698415
-0.0069672
-0.00695502
-0.00695014
-0.00278835
-0.00278302
-0.00277671
-0.00277153
-0.00276929
-0.00277096
)
;
    }
    water_top_surface
    {
        type            totalPressure;
        rho             rho;
        psi             none;
        gamma           1;
        p0              uniform 0;
        value           nonuniform List<scalar> 
180
(
-4.79586
-4.79629
-4.79625
-4.79623
-4.79625
-4.7957
-5.18023
-5.18054
-5.18043
-5.18041
-5.18047
-5.17994
-4.93982
-4.94015
-4.94012
-4.94019
-4.94034
-4.94005
-5.92804
-5.92871
-5.92883
-5.92901
-5.92927
-5.92901
-6.11627
-6.11726
-6.11748
-6.11758
-6.11766
-6.11702
-6.92994
-6.93087
-6.9309
-6.93072
-6.93042
-6.92932
-7.34083
-7.34116
-7.34088
-7.34066
-7.34061
-7.33996
-6.68715
-6.68705
-6.68697
-6.68722
-6.68798
-6.68749
-7.72361
-7.72324
-7.72339
-7.72373
-7.7247
-7.72297
0
0
0
0
0
0
0
0
0
0
0
0
0
0
0
0
0
0
-1.4395
-1.43513
-1.44573
-1.41502
-1.34996
-1.50959
0
0
0
0
0
0
0
0
0
0
0
0
0
0
0
0
0
0
0
0
0
0
0
0
0
0
0
0
0
0
-0.000424826
-0.000424883
-0.000424934
-0.000425012
-0.000425115
-0.000425183
-0.000484044
-0.000484163
-0.000484251
-0.000484361
-0.000484496
-0.000484592
-0.000617834
-0.000618048
-0.000618171
-0.000618298
-0.000618422
-0.000618447
-0.000868333
-0.000868619
-0.000868703
-0.000868747
-0.000868731
-0.000868497
-0.00132312
-0.00132327
-0.00132312
-0.0013229
-0.00132257
-0.00132194
-0.00220029
-0.00220006
-0.00219963
-0.00219924
-0.00219888
-0.00219832
-0.00400053
-0.00400051
-0.00400056
-0.00400093
-0.00400166
-0.00400222
-0.00846492
-0.00846666
-0.00846794
-0.00846872
-0.00847005
-0.00846893
-0.0195982
-0.019599
-0.0195972
-0.0195901
-0.0195824
-0.0195814
-0.0702897
-0.0702851
-0.0702847
-0.0702558
-0.0703094
-0.0701569
-0.249402
-0.249464
-0.249329
-0.249359
-0.250029
-0.24862
-1.971
-1.97198
-1.97247
-1.97293
-1.98482
-1.95992
)
;
    }
}


// ************************************************************************* //
