/*--------------------------------*- C++ -*----------------------------------*\
| =========                 |                                                 |
| \\      /  F ield         | OpenFOAM: The Open Source CFD Toolbox           |
|  \\    /   O peration     | Version:  v1612+                                |
|   \\  /    A nd           | Web:      www.OpenFOAM.com                      |
|    \\/     M anipulation  |                                                 |
\*---------------------------------------------------------------------------*/
FoamFile
{
    version     2.0;
    format      ascii;
    class       volVectorField;
    location    "3";
    object      U;
}
// * * * * * * * * * * * * * * * * * * * * * * * * * * * * * * * * * * * * * //

dimensions      [0 1 -1 0 0 0 0];

internalField   nonuniform List<vector> 
1116
(
(0.403947 -1.16667e-05 -0.41944)
(0.403938 5.00598e-06 -0.419459)
(0.403942 -1.26173e-06 -0.419445)
(0.403949 1.20684e-06 -0.419443)
(0.403948 -8.42567e-06 -0.419459)
(0.403932 8.53067e-06 -0.419441)
(1.36756 -6.72535e-06 -0.333832)
(1.36756 6.27481e-06 -0.33386)
(1.36756 -4.21865e-06 -0.333845)
(1.36757 -1.06474e-06 -0.333844)
(1.36757 -5.80487e-06 -0.333865)
(1.36755 8.81004e-06 -0.333843)
(2.10869 -5.79678e-06 -0.127863)
(2.10871 4.14475e-06 -0.127893)
(2.10871 -2.20003e-06 -0.12788)
(2.10871 -1.10799e-06 -0.12788)
(2.10872 -2.46982e-06 -0.127897)
(2.10869 8.7656e-06 -0.127873)
(2.61301 -6.8352e-06 -0.0104695)
(2.61304 1.45091e-06 -0.0104972)
(2.61304 -4.22708e-07 -0.0104858)
(2.61304 -1.23937e-06 -0.0104851)
(2.61304 -1.40213e-06 -0.0104979)
(2.61301 7.96854e-06 -0.010475)
(2.98463 -7.95738e-06 0.012146)
(2.98467 -1.16492e-06 0.0121244)
(2.98467 -1.70878e-06 0.0121336)
(2.98467 -2.47911e-06 0.012134)
(2.98467 -1.96344e-06 0.0121242)
(2.98464 7.19927e-06 0.012145)
(3.29524 -8.98066e-06 -0.00171712)
(3.29528 -3.21036e-06 -0.00173348)
(3.29528 -4.41804e-06 -0.00172671)
(3.29527 -3.74547e-06 -0.00172723)
(3.29527 -2.34863e-06 -0.00173599)
(3.29524 7.75973e-06 -0.00171506)
(3.572 -1.13505e-05 0.0254312)
(3.57205 -5.14897e-06 0.0254224)
(3.57204 -6.35747e-06 0.0254271)
(3.57204 -5.61321e-06 0.0254262)
(3.57203 -2.65158e-06 0.025418)
(3.57199 9.41859e-06 0.0254386)
(3.80958 -1.1627e-05 0.173657)
(3.80961 -4.43521e-06 0.173647)
(3.80961 -6.46615e-06 0.173651)
(3.8096 -4.87351e-06 0.173649)
(3.80959 -4.75349e-06 0.173638)
(3.80955 7.28195e-06 0.173663)
(3.77201 -1.01091e-05 0.573333)
(3.77206 -2.81326e-06 0.573321)
(3.77206 -6.87152e-06 0.573324)
(3.77205 -5.17907e-06 0.573323)
(3.77206 -8.8645e-06 0.573312)
(3.77198 2.76606e-06 0.573337)
(2.99047 -1.03805e-05 1.11885)
(2.99056 -1.08825e-08 1.11886)
(2.99055 -3.60426e-06 1.11886)
(2.99054 -5.39292e-06 1.11886)
(2.99057 -1.06198e-05 1.11885)
(2.99044 -4.18144e-07 1.11886)
(1.23978 1.85218e-06 0.955932)
(1.23988 8.67135e-06 0.955976)
(1.23988 -1.77728e-06 0.955963)
(1.23988 4.6942e-06 0.955959)
(1.23992 -8.88524e-06 0.955965)
(1.23975 -7.07746e-06 0.955925)
(-0.352079 -2.32131e-05 -0.254584)
(-0.351999 -2.95156e-05 -0.254594)
(-0.351997 -1.29003e-05 -0.254588)
(-0.351996 -1.62867e-05 -0.254595)
(-0.351941 1.28711e-05 -0.254596)
(-0.352091 2.99993e-05 -0.25461)
(0.263936 2.05514e-05 -1.5177)
(0.263911 -1.67872e-05 -1.51772)
(0.263941 1.03305e-05 -1.5177)
(0.263918 -2.09026e-05 -1.51771)
(0.263895 4.38669e-05 -1.51773)
(0.263987 -1.12569e-06 -1.51769)
(1.78141 5.40461e-05 -1.64732)
(1.78142 -2.84662e-05 -1.64733)
(1.78142 1.60459e-05 -1.64732)
(1.78141 -1.39496e-05 -1.64733)
(1.78141 4.28724e-05 -1.64735)
(1.78145 -4.90528e-05 -1.64732)
(2.72458 6.1427e-05 -1.19597)
(2.72463 -1.75572e-05 -1.19599)
(2.7246 1.49824e-05 -1.19597)
(2.72459 2.20953e-06 -1.19598)
(2.72463 2.4338e-05 -1.19599)
(2.72459 -6.56661e-05 -1.19597)
(3.33687 5.74962e-05 -0.927819)
(3.33696 -5.75935e-06 -0.927845)
(3.3369 1.1785e-05 -0.927832)
(3.33691 1.31645e-05 -0.92783)
(3.33697 1.35552e-05 -0.927842)
(3.33686 -6.10817e-05 -0.927819)
(3.88135 5.09309e-05 -0.800897)
(3.88148 6.43316e-08 -0.80093)
(3.8814 8.2361e-06 -0.800918)
(3.8814 2.05638e-05 -0.800914)
(3.88148 1.29778e-05 -0.800926)
(3.88134 -4.93575e-05 -0.800901)
(4.49396 4.02525e-05 -0.716607)
(4.49413 -1.39848e-06 -0.716649)
(4.49404 7.42421e-06 -0.716637)
(4.49404 2.46112e-05 -0.716635)
(4.49413 2.04031e-05 -0.716648)
(4.49398 -3.28784e-05 -0.716615)
(5.06842 3.45382e-05 -0.585496)
(5.06861 3.00902e-06 -0.58554)
(5.06852 1.2516e-05 -0.585525)
(5.06852 2.71412e-05 -0.585526)
(5.0686 2.64172e-05 -0.585542)
(5.06846 -1.91352e-05 -0.585502)
(5.47487 3.42921e-05 -0.32348)
(5.47514 1.34022e-05 -0.32353)
(5.47503 2.34669e-05 -0.323514)
(5.47505 3.11836e-05 -0.323518)
(5.47513 2.97739e-05 -0.323539)
(5.47497 -1.09216e-05 -0.323494)
(5.66233 3.45481e-05 0.246873)
(5.66264 2.28485e-05 0.246804)
(5.66253 2.7471e-05 0.246824)
(5.66254 2.83985e-05 0.246817)
(5.6626 2.11164e-05 0.246785)
(5.66247 -1.01941e-05 0.246838)
(5.07232 2.70478e-05 1.33609)
(5.07263 2.68551e-05 1.336)
(5.07253 1.95317e-05 1.33602)
(5.07254 1.31543e-05 1.33602)
(5.0726 -5.45047e-06 1.33599)
(5.07246 -2.12913e-05 1.33604)
(3.37285 3.60059e-05 2.08981)
(3.37325 3.20017e-05 2.08984)
(3.37315 3.69179e-08 2.08982)
(3.37314 1.2478e-05 2.08982)
(3.37323 -1.86177e-05 2.08982)
(3.37297 -3.16949e-05 2.08979)
(0.892476 -6.3448e-05 1.042)
(0.892847 -6.45399e-05 1.04204)
(0.892761 -9.74807e-07 1.04203)
(0.892755 -1.56285e-05 1.04202)
(0.892846 3.61732e-05 1.04205)
(0.892552 5.15829e-05 1.04197)
(0.599423 3.04225e-05 -2.79671)
(0.599431 -0.000168301 -2.79673)
(0.599454 4.95179e-05 -2.79677)
(0.599376 -5.57758e-05 -2.7968)
(0.599338 0.000210785 -2.79677)
(0.599524 -1.40981e-06 -2.7967)
(2.40308 2.18827e-06 -2.55964)
(2.40299 -0.000174298 -2.5596)
(2.40298 4.744e-05 -2.55966)
(2.4029 -4.96114e-05 -2.5597)
(2.40289 0.000169959 -2.55961)
(2.40314 -3.85362e-06 -2.55956)
(4.18547 -1.66289e-05 -1.8974)
(4.18529 -0.000138948 -1.89734)
(4.18525 5.02638e-05 -1.89741)
(4.18519 -2.91808e-05 -1.89741)
(4.1852 0.000143902 -1.8973)
(4.18547 1.97307e-05 -1.89735)
(6.56297 -4.03927e-05 -1.48651)
(6.56278 -0.000124321 -1.48642)
(6.56275 5.65581e-05 -1.48652)
(6.56272 -1.48761e-05 -1.48649)
(6.56272 0.000162514 -1.48635)
(6.56298 6.63524e-05 -1.48649)
(9.38522 -6.15877e-05 -1.5478)
(9.38499 -0.00012228 -1.5477)
(9.385 6.39379e-05 -1.54782)
(9.38499 2.03765e-06 -1.54779)
(9.38498 0.000188414 -1.54762)
(9.38529 0.000102357 -1.54778)
(13.0552 -6.93263e-05 -1.67868)
(13.0549 -0.000118976 -1.67862)
(13.055 5.88592e-05 -1.67875)
(13.055 1.46214e-06 -1.67871)
(13.055 0.00018266 -1.67854)
(13.0554 0.000103285 -1.67864)
(15.46 -3.74956e-05 -1.42253)
(15.4597 -9.46067e-05 -1.42252)
(15.4597 3.42134e-05 -1.42263)
(15.4597 -2.06567e-05 -1.4226)
(15.4597 0.000130218 -1.42247)
(15.4602 6.43251e-05 -1.42249)
(21.0273 0.000100322 0.114357)
(21.0271 1.471e-05 0.114366)
(21.0271 3.27969e-05 0.114315)
(21.0271 -6.24108e-05 0.114337)
(21.027 1.67597e-05 0.114425)
(21.0274 -3.52557e-05 0.114399)
(12.3517 0.000158257 2.35914)
(12.3525 0.000119084 2.3592)
(12.3523 4.13175e-05 2.35915)
(12.3522 -1.19857e-05 2.35918)
(12.3523 -3.1304e-05 2.35925)
(12.3521 -8.19703e-05 2.35922)
(6.46982 0.000112328 3.28959)
(6.47058 0.000106242 3.28959)
(6.47034 3.53926e-05 3.28959)
(6.47028 -1.82311e-06 3.2896)
(6.47037 -2.52842e-05 3.28962)
(6.47023 -5.71038e-05 3.28959)
(3.83217 0.000129624 3.96249)
(3.83286 0.000115409 3.96275)
(3.83262 7.32166e-06 3.96264)
(3.83262 3.69583e-05 3.96265)
(3.83276 -4.82031e-05 3.96272)
(3.83239 -9.63365e-05 3.96257)
(0.796375 -8.91192e-05 2.7567)
(0.796855 -6.76477e-05 2.75692)
(0.796711 2.27875e-05 2.75685)
(0.796703 -3.2805e-05 2.75686)
(0.796783 7.51628e-05 2.75689)
(0.796494 9.83694e-05 2.75679)
(-0.27425 -6.43693e-05 -3.4253)
(-0.274252 -3.70774e-05 -3.42564)
(-0.274248 3.34029e-06 -3.42566)
(-0.274257 1.44913e-05 -3.42565)
(-0.274255 2.17783e-05 -3.42562)
(-0.274254 5.54987e-05 -3.42532)
(-0.920806 -5.82399e-05 -3.52005)
(-0.920934 6.52743e-06 -3.5204)
(-0.920965 -7.96671e-06 -3.52034)
(-0.920959 3.54074e-05 -3.52032)
(-0.920917 -1.06264e-05 -3.52035)
(-0.920854 4.85465e-05 -3.51997)
(-1.86673 -1.61928e-05 -3.51023)
(-1.86676 5.13524e-05 -3.51064)
(-1.86678 1.92089e-05 -3.51061)
(-1.86676 2.59064e-05 -3.5106)
(-1.86671 -1.04772e-05 -3.51066)
(-1.86677 4.20511e-05 -3.51022)
(-2.01251 -3.71763e-05 -4.50856)
(-2.01234 7.69075e-06 -4.50907)
(-2.01232 -8.94742e-07 -4.50904)
(-2.0123 -1.57763e-05 -4.50905)
(-2.01223 6.15278e-06 -4.50915)
(-2.01241 6.25187e-05 -4.50853)
(-2.53901 -7.6544e-05 -5.32889)
(-2.53887 -5.65743e-05 -5.32944)
(-2.53883 -5.34746e-05 -5.3294)
(-2.53884 -6.56126e-05 -5.32941)
(-2.5388 1.81885e-06 -5.3295)
(-2.53888 7.54782e-05 -5.32884)
(-2.8889 -9.46226e-05 -6.1586)
(-2.88888 -7.81787e-05 -6.15914)
(-2.88881 -4.90285e-05 -6.15912)
(-2.88881 -6.27103e-05 -6.15912)
(-2.88882 -8.76341e-06 -6.15916)
(-2.88874 4.79668e-05 -6.15855)
(-2.88867 -0.000103054 -5.39436)
(-2.88883 -7.83226e-05 -5.39469)
(-2.88872 9.23375e-06 -5.39478)
(-2.88868 -5.60907e-06 -5.39485)
(-2.88867 6.62985e-05 -5.39488)
(-2.88853 9.13812e-05 -5.39438)
(0.901835 -1.99689e-06 1.11792)
(0.901368 5.04162e-05 1.1178)
(0.901551 6.22482e-05 1.11779)
(0.901913 4.61386e-05 1.11785)
(0.901946 3.93694e-05 1.11775)
(0.902506 -3.97302e-05 1.11818)
(9.828 0.000118562 10.5679)
(9.82838 6.76555e-05 10.5681)
(9.82829 1.68718e-05 10.568)
(9.82831 4.27497e-05 10.5679)
(9.82859 -0.000121353 10.568)
(9.82818 -0.000261743 10.5679)
(8.68905 0.000229065 12.1002)
(8.68966 0.000190903 12.1018)
(8.68939 4.81648e-05 12.1015)
(8.68932 4.88832e-05 12.1013)
(8.68935 5.04332e-06 12.1015)
(8.68943 -0.000100716 12.1009)
(3.79031 0.000182492 6.14533)
(3.79107 0.00016966 6.1463)
(3.79087 1.51223e-05 6.14602)
(3.7907 2.25246e-05 6.14592)
(3.79089 -2.71657e-05 6.14611)
(3.7906 -7.25929e-05 6.14568)
(0.831037 -1.68892e-05 3.20714)
(0.831348 1.01585e-05 3.2073)
(0.831286 2.07329e-05 3.20728)
(0.831237 0.000101641 3.20724)
(0.83122 -6.79299e-05 3.20721)
(0.831153 -0.000182901 3.20731)
(-0.0028165 -7.59348e-07 -0.00284492)
(-0.00281601 -2.28334e-06 -0.00284514)
(-0.00281533 -3.29389e-06 -0.00284521)
(-0.00281463 -3.53743e-06 -0.00284526)
(-0.00281386 -2.95139e-06 -0.00284531)
(-0.00281281 -1.18451e-06 -0.00284522)
(-0.00851964 -8.0391e-07 -0.00290504)
(-0.0085177 -3.07375e-06 -0.00290341)
(-0.00851532 -4.96256e-06 -0.00290302)
(-0.00851284 -5.61426e-06 -0.0029031)
(-0.00851018 -5.04776e-06 -0.00290351)
(-0.00850658 -2.22853e-06 -0.00290415)
(-0.0144062 -9.68758e-07 -0.00299746)
(-0.0144005 -4.79957e-06 -0.0029914)
(-0.0143945 -8.86876e-06 -0.00298979)
(-0.0143886 -1.04919e-05 -0.0029899)
(-0.0143824 -9.81699e-06 -0.00299103)
(-0.0143742 -4.46947e-06 -0.00299295)
(-0.0205688 -2.76586e-06 -0.00312135)
(-0.0205538 -1.0744e-05 -0.00311035)
(-0.0205403 -1.83103e-05 -0.00310797)
(-0.0205279 -2.11207e-05 -0.00310899)
(-0.0205155 -1.97526e-05 -0.00311229)
(-0.0204991 -9.07635e-06 -0.00311779)
(-0.0270741 -9.05649e-06 -0.00317228)
(-0.0270407 -2.59117e-05 -0.00316158)
(-0.0270151 -3.68224e-05 -0.0031616)
(-0.0269936 -3.94252e-05 -0.00316613)
(-0.026973 -3.52913e-05 -0.00317415)
(-0.026945 -1.59545e-05 -0.00318598)
(-0.0339407 -2.38193e-05 -0.00269556)
(-0.0338783 -5.43258e-05 -0.00270365)
(-0.0338385 -6.27663e-05 -0.00271586)
(-0.0338095 -6.0815e-05 -0.00273023)
(-0.0337832 -5.02036e-05 -0.00274737)
(-0.0337433 -2.1779e-05 -0.00276846)
(-0.0412512 -4.38964e-05 -0.000599817)
(-0.041153 -8.51186e-05 -0.000661902)
(-0.0411063 -7.79568e-05 -0.00070134)
(-0.0410821 -6.41286e-05 -0.000732546)
(-0.0410635 -4.46374e-05 -0.000759726)
(-0.0410237 -1.73722e-05 -0.000785676)
(-0.0487203 -5.39473e-05 0.00452055)
(-0.0485952 -8.12347e-05 0.00437887)
(-0.0485648 -3.80487e-05 0.00431279)
(-0.0485728 -4.78388e-06 0.00427613)
(-0.0485911 2.0547e-05 0.00425869)
(-0.0485859 1.44517e-05 0.00425665)
(-0.0561719 -2.68445e-05 0.013472)
(-0.0560513 8.30178e-06 0.0132835)
(-0.0560653 0.000101166 0.0132259)
(-0.0561395 0.000150945 0.0132277)
(-0.0562364 0.000167982 0.0132697)
(-0.0563254 8.30513e-05 0.013348)
(-0.0610228 3.82834e-05 0.0260152)
(-0.0609761 0.000163019 0.0258937)
(-0.0610426 0.00029498 0.0258978)
(-0.0611687 0.000354073 0.0259546)
(-0.0613313 0.000350942 0.0260544)
(-0.0615281 0.000167185 0.0262022)
(-0.0533721 0.000122414 0.0345236)
(-0.0534148 0.000286305 0.0345974)
(-0.0534849 0.000348046 0.0346703)
(-0.0535862 0.000359593 0.0347559)
(-0.0537452 0.000322614 0.0348777)
(-0.0540171 0.000147494 0.0350608)
(-0.0305426 6.18828e-05 0.0505567)
(-0.0305737 9.2122e-05 0.0506339)
(-0.0305892 4.46653e-05 0.0506345)
(-0.0306075 1.29755e-05 0.0506183)
(-0.0306647 -8.84639e-06 0.0506257)
(-0.0308073 -7.66996e-06 0.0506782)
(-0.00289504 -1.24741e-06 -0.00846515)
(-0.00289383 -2.95118e-06 -0.00846549)
(-0.00289284 -3.56603e-06 -0.00846533)
(-0.00289201 -3.50618e-06 -0.00846513)
(-0.00289128 -2.75622e-06 -0.00846498)
(-0.0028904 -1.01667e-06 -0.00846443)
(-0.00881368 -2.26213e-06 -0.00871709)
(-0.00880938 -5.08347e-06 -0.00871384)
(-0.00880592 -5.73007e-06 -0.00871265)
(-0.00880294 -5.53318e-06 -0.00871237)
(-0.00880032 -4.33957e-06 -0.00871285)
(-0.00879715 -1.71775e-06 -0.00871379)
(-0.0150939 -4.39969e-06 -0.00914971)
(-0.0150836 -9.62469e-06 -0.00913815)
(-0.0150757 -1.07437e-05 -0.00913449)
(-0.0150689 -1.03713e-05 -0.00913398)
(-0.0150629 -8.25524e-06 -0.00913582)
(-0.0150556 -3.40557e-06 -0.00913957)
(-0.0220212 -8.51325e-06 -0.00983203)
(-0.0219981 -1.84007e-05 -0.00981193)
(-0.0219815 -2.02506e-05 -0.0098068)
(-0.0219681 -1.93421e-05 -0.00980777)
(-0.0219561 -1.54212e-05 -0.00981381)
(-0.0219414 -6.44427e-06 -0.00982506)
(-0.0301364 -1.6553e-05 -0.0108835)
(-0.0300869 -3.40543e-05 -0.0108668)
(-0.0300555 -3.49044e-05 -0.0108666)
(-0.0300322 -3.17571e-05 -0.0108739)
(-0.0300118 -2.4325e-05 -0.0108889)
(-0.0299862 -9.97189e-06 -0.010913)
(-0.0402599 -2.94753e-05 -0.0127419)
(-0.0401606 -5.57325e-05 -0.0127664)
(-0.0401081 -4.9306e-05 -0.0127885)
(-0.0400756 -3.9915e-05 -0.0128126)
(-0.0400506 -2.71797e-05 -0.0128425)
(-0.0400169 -1.03221e-05 -0.0128826)
(-0.0527826 -4.34906e-05 -0.0160333)
(-0.0526076 -6.81973e-05 -0.0161605)
(-0.0525404 -3.73399e-05 -0.0162292)
(-0.0525166 -1.32951e-05 -0.0162787)
(-0.0525107 5.16911e-06 -0.0163213)
(-0.0524964 5.80315e-06 -0.0163627)
(-0.0663628 -3.58769e-05 -0.0203013)
(-0.0661144 -1.79578e-05 -0.0205633)
(-0.066059 6.3081e-05 -0.0206719)
(-0.0660867 0.000108522 -0.0207216)
(-0.0661526 0.000125571 -0.0207357)
(-0.0662228 6.21453e-05 -0.0207154)
(-0.0787027 2.30321e-05 -0.0242094)
(-0.0784533 0.000127044 -0.0245189)
(-0.0784511 0.00025503 -0.0245902)
(-0.0785604 0.000318576 -0.0245626)
(-0.0787308 0.000315944 -0.0244635)
(-0.07894 0.000148364 -0.0242827)
(-0.0768501 0.00011872 -0.0299887)
(-0.0767116 0.000278069 -0.0301349)
(-0.0768197 0.000333944 -0.030025)
(-0.0770486 0.000333632 -0.029806)
(-0.0773686 0.000272675 -0.0294961)
(-0.0777801 0.000113379 -0.0290788)
(-0.0723189 0.000105133 0.00216638)
(-0.072434 0.000184715 0.00245572)
(-0.0726624 0.000132401 0.0026759)
(-0.0729603 7.49827e-05 0.00288881)
(-0.0733558 6.55921e-06 0.00315483)
(-0.0738675 -1.58569e-05 0.00352971)
(-0.0309747 -7.05335e-05 -0.0132116)
(-0.0311228 -0.000228818 -0.0129189)
(-0.0312639 -0.00036523 -0.0128073)
(-0.0314126 -0.000417592 -0.0127408)
(-0.0316057 -0.000403555 -0.0126701)
(-0.0318626 -0.000194689 -0.0124811)
(-0.00284331 -1.00209e-06 -0.0140327)
(-0.00284251 -2.29113e-06 -0.0140332)
(-0.00284196 -2.59361e-06 -0.0140327)
(-0.00284156 -2.34625e-06 -0.0140322)
(-0.00284136 -1.65564e-06 -0.0140318)
(-0.00284117 -5.24057e-07 -0.0140307)
(-0.00870719 -1.94177e-06 -0.0145865)
(-0.00870448 -3.94279e-06 -0.0145838)
(-0.00870259 -3.80739e-06 -0.0145824)
(-0.00870124 -3.18596e-06 -0.0145817)
(-0.00870055 -1.98983e-06 -0.0145819)
(-0.00869992 -6.12905e-07 -0.0145823)
(-0.015058 -3.74286e-06 -0.0155686)
(-0.0150517 -7.104e-06 -0.015559)
(-0.0150476 -6.29925e-06 -0.0155553)
(-0.0150448 -4.94822e-06 -0.0155544)
(-0.0150434 -2.82722e-06 -0.0155561)
(-0.0150424 -8.1828e-07 -0.0155597)
(-0.0220755 -6.72321e-06 -0.0169821)
(-0.022061 -1.21291e-05 -0.0169671)
(-0.0220533 -9.77863e-06 -0.0169628)
(-0.022049 -6.97257e-06 -0.0169637)
(-0.0220474 -3.24131e-06 -0.01697)
(-0.0220469 -6.36996e-07 -0.0169818)
(-0.0295266 -1.07374e-05 -0.0185457)
(-0.029495 -1.69757e-05 -0.0185409)
(-0.0294831 -9.78809e-06 -0.0185445)
(-0.0294791 -3.93032e-06 -0.0185533)
(-0.0294805 1.8003e-06 -0.0185698)
(-0.0294838 2.19763e-06 -0.0185959)
(-0.0366505 -1.08634e-05 -0.0194017)
(-0.0365866 -8.73034e-06 -0.0194521)
(-0.0365705 9.79612e-06 -0.0194846)
(-0.0365732 1.98388e-05 -0.0195137)
(-0.0365866 2.5056e-05 -0.0195467)
(-0.0366049 1.29205e-05 -0.0195874)
(-0.0431927 7.64868e-06 -0.0177423)
(-0.0430782 3.98723e-05 -0.0179122)
(-0.0430639 7.55315e-05 -0.0179962)
(-0.0430903 8.9594e-05 -0.0180504)
(-0.0431396 8.52769e-05 -0.0180893)
(-0.043205 3.90973e-05 -0.0181139)
(-0.0489411 5.83079e-05 -0.00959049)
(-0.048789 0.000152657 -0.00988345)
(-0.0488002 0.000203218 -0.00999164)
(-0.0488819 0.000211741 -0.010024)
(-0.0490085 0.000180268 -0.00999963)
(-0.0491796 7.75458e-05 -0.00990945)
(-0.0511377 0.000132838 0.012009)
(-0.0510432 0.00028465 0.0117519)
(-0.0511667 0.000301371 0.011738)
(-0.0513994 0.000268989 0.0118319)
(-0.0517088 0.00018939 0.0120254)
(-0.0520939 7.01762e-05 0.0123357)
(-0.0823345 0.000162804 0.0516149)
(-0.0824557 0.000344651 0.0516626)
(-0.0827048 0.000358088 0.0518612)
(-0.0830319 0.000311096 0.0521293)
(-0.0834314 0.000204479 0.0524866)
(-0.0838941 6.99925e-05 0.0529325)
(-0.0502293 3.31278e-05 0.113371)
(-0.0507206 -1.73743e-05 0.113861)
(-0.0511141 -0.000152467 0.114144)
(-0.0514667 -0.000229378 0.114342)
(-0.0517693 -0.00026486 0.11455)
(-0.0520425 -0.000136807 0.114734)
(-0.0318046 -0.000118233 0.225121)
(-0.0321859 -0.000315751 0.225551)
(-0.0324673 -0.000424879 0.225796)
(-0.0326849 -0.000476475 0.225896)
(-0.0328586 -0.000319814 0.2261)
(-0.0329219 -7.12653e-05 0.226013)
(-0.00263053 -8.01186e-07 -0.019287)
(-0.00262978 -1.61443e-06 -0.0192879)
(-0.00262951 -1.51305e-06 -0.0192874)
(-0.00262948 -1.14245e-06 -0.0192869)
(-0.00262966 -5.88858e-07 -0.0192866)
(-0.00262982 -6.92889e-08 -0.0192851)
(-0.00813943 -1.56815e-06 -0.020279)
(-0.00813694 -2.59619e-06 -0.0202777)
(-0.00813607 -1.61388e-06 -0.0202766)
(-0.00813606 -7.21935e-07 -0.020276)
(-0.00813673 2.35095e-07 -0.0202762)
(-0.00813732 3.63807e-07 -0.020276)
(-0.014446 -2.72224e-06 -0.0221568)
(-0.0144406 -3.81699e-06 -0.0221513)
(-0.0144392 -1.23929e-06 -0.022149)
(-0.0144396 5.76163e-07 -0.0221487)
(-0.0144414 2.07429e-06 -0.0221504)
(-0.0144431 1.34121e-06 -0.0221528)
(-0.0223438 -3.44687e-06 -0.0250775)
(-0.0223333 -3.33869e-06 -0.0250699)
(-0.0223317 1.88026e-06 -0.0250684)
(-0.0223339 4.93665e-06 -0.0250708)
(-0.0223386 6.93268e-06 -0.025077)
(-0.0223432 3.74522e-06 -0.0250863)
(-0.0332806 -1.38555e-06 -0.0292786)
(-0.0332617 3.82524e-06 -0.0292837)
(-0.0332609 1.35951e-05 -0.0292919)
(-0.0332682 1.83066e-05 -0.0293037)
(-0.0332796 1.93105e-05 -0.0293207)
(-0.0332909 9.3443e-06 -0.0293421)
(-0.0493295 8.91706e-06 -0.0350164)
(-0.0492962 2.79019e-05 -0.0350736)
(-0.0492984 4.35157e-05 -0.0351119)
(-0.0493164 4.93309e-05 -0.0351466)
(-0.0493428 4.53265e-05 -0.0351817)
(-0.0493724 2.0435e-05 -0.0352149)
(-0.0726939 3.08392e-05 -0.0422866)
(-0.0726476 7.61008e-05 -0.0424468)
(-0.0726622 9.78894e-05 -0.0425324)
(-0.0727054 0.000101938 -0.0425934)
(-0.0727685 8.71192e-05 -0.0426343)
(-0.0728487 3.76379e-05 -0.0426465)
(-0.104463 6.42464e-05 -0.0492577)
(-0.104446 0.000140802 -0.0495035)
(-0.104502 0.000157021 -0.0496)
(-0.104597 0.000150674 -0.049636)
(-0.104732 0.000118864 -0.049612)
(-0.10491 4.83277e-05 -0.0495093)
(-0.146413 8.20399e-05 -0.0468117)
(-0.146546 0.00015024 -0.0469751)
(-0.146696 0.000119429 -0.04696)
(-0.146863 8.32169e-05 -0.0468615)
(-0.147076 3.12379e-05 -0.0466739)
(-0.147333 -1.03176e-06 -0.0463835)
(-0.172906 3.07745e-05 -0.0697406)
(-0.17327 -8.24657e-06 -0.0696184)
(-0.173494 -0.000132282 -0.0694584)
(-0.173652 -0.000197281 -0.0692727)
(-0.173822 -0.000239128 -0.0690703)
(-0.173931 -0.00013579 -0.0687873)
(-0.236535 -0.000174445 0.0454002)
(-0.237027 -0.000414004 0.0458619)
(-0.237196 -0.000526486 0.0461125)
(-0.237145 -0.000509142 0.0462339)
(-0.237192 -0.000435018 0.0463685)
(-0.236805 -0.000213353 0.0463249)
(-0.0713351 -0.000211233 -0.137695)
(-0.0715986 -0.000333578 -0.137399)
(-0.0716315 -0.000359975 -0.137348)
(-0.0715652 -0.000159492 -0.137228)
(-0.0713596 -0.000217435 -0.137855)
(-0.0712799 -0.000301357 -0.137163)
(0.179313 1.39026e-05 -2.70965)
(0.17931 3.25053e-05 -2.71001)
(0.179305 -8.08855e-07 -2.70996)
(0.179311 -2.03328e-06 -2.70994)
(0.179317 -3.13378e-05 -2.70998)
(0.179276 -9.56742e-06 -2.70966)
(0.0822196 2.71098e-05 -3.0641)
(0.0822141 2.12399e-05 -3.06434)
(0.082212 -7.17075e-06 -3.0643)
(0.0822149 -6.16909e-06 -3.0643)
(0.0822156 -2.88472e-05 -3.06435)
(0.082206 -2.93775e-05 -3.06409)
(0.0344752 1.86944e-05 -3.09674)
(0.0344743 1.77533e-05 -3.09689)
(0.0344746 -2.03361e-06 -3.09687)
(0.0344739 -1.69666e-06 -3.09687)
(0.0344725 -1.96714e-05 -3.09689)
(0.0344734 -1.92112e-05 -3.09674)
(0.236476 2.69891e-05 -2.66115)
(0.236495 1.38865e-05 -2.66148)
(0.236499 -1.38253e-05 -2.66142)
(0.236491 -1.48151e-05 -2.66141)
(0.23649 -2.26578e-05 -2.66146)
(0.236468 -3.02144e-05 -2.66108)
(0.0402358 2.261e-05 -3.27786)
(0.0402456 1.65818e-05 -3.27811)
(0.0402443 -1.05448e-05 -3.27807)
(0.0402459 -8.17022e-06 -3.27807)
(0.0402479 -3.4338e-05 -3.2781)
(0.0402237 -3.43359e-05 -3.27781)
(0.0597618 1.76935e-05 -3.21862)
(0.0597569 1.7174e-05 -3.21877)
(0.0597574 -3.00237e-06 -3.21875)
(0.0597577 -3.87891e-06 -3.21875)
(0.0597575 -2.48679e-05 -3.21876)
(0.0597614 -2.209e-05 -3.21861)
(0.687706 3.69924e-05 -2.15827)
(0.687784 2.066e-05 -2.15862)
(0.687777 -9.07303e-06 -2.15856)
(0.687766 -4.40931e-06 -2.15856)
(0.687773 -3.20076e-05 -2.15864)
(0.687691 -4.80221e-05 -2.1582)
(0.268857 2.20687e-05 -3.3359)
(0.26887 2.35188e-05 -3.33615)
(0.26887 -2.70397e-06 -3.33611)
(0.268875 3.83072e-06 -3.3361)
(0.268884 -3.12588e-05 -3.33614)
(0.268866 -3.61874e-05 -3.33586)
(0.108603 1.70933e-05 -3.14323)
(0.108601 1.56793e-05 -3.14337)
(0.108603 -2.47104e-06 -3.14335)
(0.108604 -4.09726e-06 -3.14335)
(0.108606 -2.14191e-05 -3.14337)
(0.10861 -1.97927e-05 -3.14323)
(1.11703 4.04724e-05 -2.81506)
(1.11712 2.72046e-05 -2.81548)
(1.1171 -1.24386e-05 -2.81542)
(1.11709 -1.16161e-06 -2.81545)
(1.1171 -4.98496e-05 -2.81557)
(1.11698 -7.16783e-05 -2.81507)
(0.313233 3.27906e-05 -3.81967)
(0.31322 4.10787e-05 -3.81995)
(0.313231 9.38144e-06 -3.8199)
(0.313238 1.97431e-05 -3.8199)
(0.313245 -2.72801e-05 -3.81995)
(0.313266 -4.07304e-05 -3.81969)
(0.110455 2.07938e-05 -3.44306)
(0.110453 1.9161e-05 -3.44321)
(0.110454 -7.81087e-07 -3.44319)
(0.110454 2.79847e-07 -3.44319)
(0.110454 -1.84218e-05 -3.44322)
(0.110455 -2.02135e-05 -3.44309)
(1.1295 4.11499e-05 -3.00227)
(1.12958 3.28889e-05 -3.0027)
(1.12954 -8.32969e-06 -3.00267)
(1.12952 3.78128e-06 -3.00269)
(1.12952 -4.62831e-05 -3.00282)
(1.12939 -7.07247e-05 -3.00235)
(0.156243 3.58151e-05 -3.92569)
(0.156221 4.5754e-05 -3.92598)
(0.156232 1.1952e-05 -3.92594)
(0.15624 2.02489e-05 -3.92595)
(0.156236 -2.66594e-05 -3.92601)
(0.156277 -3.97238e-05 -3.92574)
(0.0554594 2.06384e-05 -3.4966)
(0.0554574 1.85381e-05 -3.49675)
(0.055453 -1.19225e-06 -3.49674)
(0.0554499 9.83995e-07 -3.49675)
(0.0554481 -1.93141e-05 -3.49678)
(0.0554467 -2.27054e-05 -3.49664)
(0.99209 3.84845e-05 -3.64816)
(0.992166 3.46593e-05 -3.64853)
(0.992129 -8.46073e-08 -3.6485)
(0.992133 9.42231e-06 -3.64852)
(0.992153 -2.49748e-05 -3.6486)
(0.992051 -5.23078e-05 -3.64827)
(-0.0508999 2.83801e-05 -4.07625)
(-0.0509466 2.83374e-05 -4.07651)
(-0.0509276 -2.45435e-06 -4.07647)
(-0.0509182 6.22817e-06 -4.07646)
(-0.0509329 -2.06847e-05 -4.07649)
(-0.0508619 -2.31655e-05 -4.07624)
(-0.005236 1.75206e-05 -3.72156)
(-0.00523572 1.15313e-05 -3.72172)
(-0.00524112 -7.97358e-06 -3.72172)
(-0.00524658 -5.23634e-06 -3.72173)
(-0.00524731 -2.05165e-05 -3.72175)
(-0.00525857 -2.05053e-05 -3.72159)
(-0.0801606 -1.75227e-05 -4.79217)
(-0.0801309 -1.1618e-05 -4.79248)
(-0.080198 1.78883e-05 -4.79254)
(-0.0802758 -1.43793e-05 -4.79264)
(-0.0802397 4.29883e-05 -4.79275)
(-0.0803117 6.5556e-05 -4.7923)
(-0.319752 1.04242e-05 -3.66758)
(-0.319774 8.19954e-06 -3.66774)
(-0.319758 -2.37668e-07 -3.66773)
(-0.319747 3.09693e-06 -3.66772)
(-0.319757 -7.4843e-06 -3.66773)
(-0.319738 -8.41484e-06 -3.66751)
(-0.106516 1.09711e-05 -3.83061)
(-0.106514 8.12445e-06 -3.83076)
(-0.106515 -1.02814e-05 -3.83075)
(-0.106523 -1.05456e-05 -3.83075)
(-0.106514 -2.82553e-05 -3.83076)
(-0.10653 -2.60389e-05 -3.83058)
(-1.79484 -5.48208e-05 -6.1314)
(-1.79507 1.6243e-05 -6.13171)
(-1.79516 7.76196e-05 -6.13171)
(-1.79533 9.47408e-05 -6.13165)
(-1.79557 -0.000101719 -6.1319)
(-1.79484 -0.00016904 -6.13114)
(-0.816599 1.71111e-05 -3.43258)
(-0.816701 -2.36315e-05 -3.43286)
(-0.81679 -4.47773e-05 -3.43286)
(-0.816918 -3.94808e-05 -3.43289)
(-0.817052 -5.02387e-05 -3.43307)
(-0.816815 -1.69488e-05 -3.43257)
(0.223411 1.41439e-05 -3.65604)
(0.223441 1.55689e-05 -3.65613)
(0.223441 -2.09822e-05 -3.65612)
(0.223428 1.18547e-08 -3.65613)
(0.223451 -2.86226e-05 -3.65623)
(0.223386 -4.84595e-05 -3.65597)
(3.21768 -5.08783e-05 3.06229)
(3.21723 0.000103492 3.06182)
(3.21765 0.000187437 3.0622)
(3.21803 0.000237615 3.06285)
(3.2189 -9.13601e-05 3.06378)
(3.21681 -0.000351521 3.06152)
(-2.25736 5.35859e-05 -2.94804)
(-2.25756 -4.0383e-05 -2.9485)
(-2.25757 -0.000100317 -2.94816)
(-2.25773 -0.000118878 -2.94786)
(-2.25766 6.0639e-05 -2.94778)
(-2.25791 0.000174449 -2.94819)
(-0.127713 -1.29764e-05 -3.92871)
(-0.127769 -3.02546e-05 -3.92874)
(-0.127782 -6.98504e-05 -3.92877)
(-0.127865 -8.15839e-05 -3.92878)
(-0.127791 2.6485e-05 -3.92895)
(-0.127729 5.37362e-05 -3.92853)
(8.88652 6.49806e-05 13.1618)
(8.88652 0.000134421 13.1632)
(8.8866 0.000174021 13.163)
(8.88693 0.000164955 13.163)
(8.88737 0.000172531 13.1634)
(8.88622 -3.10442e-05 13.1627)
(6.43463 -5.52475e-05 8.73739)
(6.43448 8.50805e-05 8.73766)
(6.43458 0.000221076 8.73793)
(6.4348 0.000248431 8.73823)
(6.43531 6.83846e-05 8.73811)
(6.43416 -0.000192204 8.73833)
(2.63006 4.06991e-05 1.31888)
(2.6296 9.7302e-05 1.31878)
(2.63003 -0.000292627 1.31925)
(2.63001 7.58496e-05 1.31975)
(2.63022 -0.000284697 1.31948)
(2.62975 -0.000738155 1.31949)
(5.57477 0.000187688 9.82681)
(5.57553 0.000211086 9.82868)
(5.57534 0.00015732 9.82825)
(5.57589 0.000209471 9.82798)
(5.57693 -0.000176932 9.82821)
(5.57381 -0.00035845 9.82779)
(7.42204 0.000186206 12.3064)
(7.42354 0.00027814 12.3083)
(7.42308 0.00023029 12.3078)
(7.42221 0.000492071 12.3075)
(7.42101 -0.000232349 12.3085)
(7.42456 -0.000727517 12.3069)
(8.35004 8.53439e-05 8.36485)
(8.35077 0.000309798 8.36591)
(8.35056 0.000154301 8.36572)
(8.35005 0.00101335 8.36707)
(8.35109 -0.00100339 8.37089)
(8.34936 -0.00220035 8.36132)
(3.46235 5.20835e-05 5.21566)
(3.46281 6.36079e-05 5.21639)
(3.4628 6.69448e-05 5.21616)
(3.4629 -8.21769e-05 5.21618)
(3.46308 0.000208765 5.21685)
(3.46266 0.000308431 5.21543)
(5.59812 0.000207913 6.3553)
(5.59875 0.000213111 6.35658)
(5.59853 -0.000127348 6.35644)
(5.59968 -0.000629173 6.35626)
(5.60161 0.000871049 6.35529)
(5.59673 0.00129447 6.35739)
(9.52658 0.000120982 5.15108)
(9.52715 0.000323493 5.15384)
(9.52665 0.000293461 5.15381)
(9.52794 0.000468734 5.15126)
(9.53216 -0.0008072 5.14847)
(9.52144 -0.00127374 5.15724)
(0.524166 5.71845e-05 2.95989)
(0.525446 0.000574863 2.96143)
(0.525166 -6.06711e-05 2.96124)
(0.525119 0.00190488 2.96011)
(0.53109 -0.00275375 2.96764)
(0.519846 -0.00519833 2.95389)
(-3.34931 0.00102833 0.454161)
(-3.34942 0.00072427 0.456557)
(-3.35021 -0.00131712 0.453689)
(-3.34493 0.00570345 0.455269)
(-3.34534 -0.00522408 0.462542)
(-3.34988 -0.0117342 0.446757)
(-4.26091 1.34373e-05 -1.69378)
(-4.26034 -0.000854418 -1.69119)
(-4.25931 -0.00669233 -1.69733)
(-4.27391 -0.0201426 -1.67919)
(-4.32665 0.0212734 -1.6401)
(-4.20281 0.0359243 -1.73466)
(3.27234 -0.000520639 1.45373)
(3.27683 -6.23106e-05 1.45234)
(3.27416 -0.000739605 1.45332)
(3.26422 -0.00479088 1.44817)
(3.25265 0.00350827 1.44533)
(3.29059 0.00714708 1.46054)
(-6.52486 0.00207515 1.02105)
(-6.53524 0.00148169 1.02092)
(-6.53154 -0.00677247 1.02613)
(-6.52319 -0.00358081 1.00722)
(-6.51949 0.00453334 0.97226)
(-6.53167 0.00220877 1.05813)
(0.276912 0.000462508 12.5312)
(0.263606 0.000573392 12.5289)
(0.249408 0.00324678 12.5185)
(0.313342 0.0166562 12.5623)
(0.468735 -0.0178003 12.6887)
(0.107043 -0.0320338 12.3844)
(0.968278 -0.00113039 -5.363)
(0.963365 -0.000131194 -5.37191)
(0.961914 0.00205261 -5.36861)
(0.970765 0.00283756 -5.36341)
(0.991936 -0.00319405 -5.35292)
(0.947465 -0.00511795 -5.37385)
(2.53268 3.60554e-05 -0.444643)
(2.52104 0.000327362 -0.458759)
(2.51897 0.00057895 -0.457945)
(2.55161 0.00201758 -0.42622)
(2.61974 -0.00214472 -0.36286)
(2.44904 -0.00346653 -0.524036)
(6.65625 0.000748332 11.1993)
(6.65864 0.000237696 11.2097)
(6.65616 0.00232208 11.2059)
(6.66347 0.0122305 11.1955)
(6.6938 -0.0120529 11.1872)
(6.62637 -0.0217524 11.2116)
(-0.0102877 -0.000542213 -2.61236)
(-0.00952027 8.97309e-05 -2.61464)
(-0.010084 0.00233015 -2.61404)
(-0.01218 0.00448159 -2.60815)
(-0.0161116 -0.00527195 -2.59951)
(-0.00587991 -0.00808562 -2.62617)
(5.15439 -0.000294522 2.25353)
(5.15412 7.11962e-05 2.25294)
(5.15385 0.0019834 2.25268)
(5.15657 0.00558593 2.25627)
(5.16702 -0.00568956 2.26748)
(5.14321 -0.009736 2.24194)
(8.83891 0.000920851 6.04237)
(8.84166 0.00086564 6.05122)
(8.84032 -0.000691217 6.04912)
(8.84182 -2.70765e-05 6.03458)
(8.85209 0.000649879 6.00667)
(8.82964 3.11723e-05 6.07817)
(0.631393 7.04079e-05 0.723523)
(0.630515 0.000223483 0.722726)
(0.630471 -2.45885e-05 0.722917)
(0.632631 0.000134231 0.724622)
(0.637884 0.000187371 0.729251)
(0.625754 -0.000102277 0.718876)
(5.50513 4.27246e-05 3.37173)
(5.5054 0.000289507 3.37325)
(5.50555 0.000158465 3.37294)
(5.50649 0.000242147 3.37195)
(5.50992 0.000373878 3.37147)
(5.50199 -6.72721e-07 3.37396)
(9.79879 0.000297242 0.216741)
(9.79845 0.000624996 0.218601)