/*--------------------------------*- C++ -*----------------------------------*\
| =========                 |                                                 |
| \\      /  F ield         | OpenFOAM: The Open Source CFD Toolbox           |
|  \\    /   O peration     | Version:  v1612+                                |
|   \\  /    A nd           | Web:      www.OpenFOAM.com                      |
|    \\/     M anipulation  |                                                 |
\*---------------------------------------------------------------------------*/
FoamFile
{
    version     2.0;
    format      ascii;
    class       volScalarField;
    location    "5.1";
    object      alpha.water;
}
// * * * * * * * * * * * * * * * * * * * * * * * * * * * * * * * * * * * * * //

dimensions      [0 0 0 0 0 0 0];

internalField   nonuniform List<scalar> 
320
(
1
1
1
1
1.40452e-05
1.2319e-05
1.21476e-05
1.30819e-05
1.3697e-05
1.39134e-05
1.38103e-05
1.29438e-05
1.32594e-05
1.39055e-05
1.0847e-05
1.26984e-05
0.999987
0.999988
0.999987
0.999989
0.999983
0.999983
0.999983
0.999991
0.999985
0.999986
0.999993
0.999984
1
1
1
1
1
1
1
1
1
1
1
1
1
1
1
1
1
1
1
1
1
1
1
1
1
1
1
1
1.15707e-05
1.23292e-05
1.17688e-05
1.31373e-05
1.09397e-05
1.03831e-05
1.21529e-05
1.04941e-05
1.27762e-05
1.18874e-05
1.0872e-05
1.00346e-05
1.44202e-05
1.06395e-05
1.12977e-05
1.19557e-05
1.15169e-05
1.162e-05
1.15195e-05
1.07679e-05
0.999985
0.999985
0.999987
0.999987
0.999993
0.999997
0.999994
0.999996
0.999985
0.999988
0.999993
0.999993
0.999984
0.999993
0.999991
0.999995
0.999995
0.999983
0.999984
0.999992
1
1
1
1
1
1
1
1
1
1
1
1
1
1
1
1
1
1
1
1
1
1
1
1
1
1
1
1
1
1
1
1
1
1
1
1
1
1
1
1
1
1
1
1
1
1
1
1
1
1
1
1
1
1
1
1
1
1
1
1
1
1
1
1
1
1
1
1
1
1
1
1
1
1
1
1
1.39495e-05
1.1514e-05
1.18509e-05
1.1715e-05
1.32665e-05
1.25499e-05
1.33466e-05
1.36802e-05
1.27206e-05
1.59029e-05
1.40567e-05
1.33683e-05
1.30728e-05
1.1512e-05
1.14954e-05
1.26207e-05
1.40815e-05
1.42302e-05
1.25811e-05
1.25129e-05
1.32102e-05
1.30524e-05
1.26606e-05
1.28053e-05
1.12414e-05
1.11091e-05
1.22236e-05
1.49594e-05
0.999985
0.999984
0.999983
0.999992
0.999989
0.999989
0.999981
0.999986
0.999995
0.999982
0.999984
0.999988
0.999982
0.999986
0.999984
0.999986
0.999983
0.999986
0.999985
0.999981
0.999979
0.999988
0.999992
0.999985
0.99999
0.999985
0.999984
0.999987
1
1
1
1
1
1
1
1
1
1
1
1
1
1
1
1
1
1
1
1
1
1
1
1
1
1
1
1
1
1
1
1
1
1
1
1
1
1
1
1
1
1
1
1
1
1
1
1
1
1
1
1
1
1
1
1
1
1
1
1
1
1
1
1
1
1
1
1
1
1
1
1
1
1
1
1
1
1
1
1
1
1
1
1
1.52937e-05
1.26391e-05
1.25824e-05
1.18411e-05
0.999982
0.999995
0.999988
0.999994
)
;

boundaryField
{
    top_fluid_surface
    {
        type            inletOutlet;
        inletValue      uniform 0;
        value           nonuniform List<scalar> 
64
(
0
0
1.21476e-05
0
0
0
0
1.29438e-05
0
0
1.0847e-05
0
1.15707e-05
0
1.17688e-05
0
1.09397e-05
1.03831e-05
1.21529e-05
1.04941e-05
0
1.18874e-05
1.0872e-05
1.00346e-05
0
1.06395e-05
1.12977e-05
1.19557e-05
1.15169e-05
1.162e-05
1.15195e-05
1.07679e-05
0
1.1514e-05
1.18509e-05
1.1715e-05
0
1.25499e-05
0
0
0
0
0
0
1.30728e-05
1.1512e-05
1.14954e-05
0
0
0
1.25811e-05
1.25129e-05
0
0
0
0
1.12414e-05
1.11091e-05
1.22236e-05
0
0
1.26391e-05
1.25824e-05
1.18411e-05
)
;
    }
    bottom_fluid_surface
    {
        type            zeroGradient;
    }
    lateral_surface_1
    {
        type            zeroGradient;
    }
    lateral_surface_2
    {
        type            zeroGradient;
    }
    lateral_surface_3
    {
        type            zeroGradient;
    }
    lateral_surface_4
    {
        type            zeroGradient;
    }
}


// ************************************************************************* //
