/*--------------------------------*- C++ -*----------------------------------*\
| =========                 |                                                 |
| \\      /  F ield         | OpenFOAM: The Open Source CFD Toolbox           |
|  \\    /   O peration     | Version:  v1612+                                |
|   \\  /    A nd           | Web:      www.OpenFOAM.com                      |
|    \\/     M anipulation  |                                                 |
\*---------------------------------------------------------------------------*/
FoamFile
{
    version     2.0;
    format      ascii;
    class       volScalarField;
    location    "5.1";
    object      p;
}
// * * * * * * * * * * * * * * * * * * * * * * * * * * * * * * * * * * * * * //

dimensions      [1 -1 -2 0 0 0 0];

internalField   nonuniform List<scalar> 
320
(
14724.8
14724.8
14724.8
14724.8
4.96583
4.9654
4.96579
4.96519
4.96648
4.96688
4.96695
4.96784
4.96684
4.96632
4.96638
4.96572
4914.89
4914.87
4914.83
4914.88
4914.87
4914.87
4914.87
4914.86
4914.87
4914.88
4914.84
4914.86
14724.8
14724.8
14724.8
14724.8
14724.8
14724.8
14724.8
14724.8
14724.8
14724.8
14724.8
14724.8
24534.8
24534.8
24534.8
24534.8
24534.8
24534.8
24534.8
24534.8
24534.8
24534.8
24534.8
24534.8
24534.8
24534.8
24534.8
24534.8
4.96552
4.96508
4.96567
4.96994
4.96466
4.96529
4.96561
4.96518
4.96535
4.96601
4.96729
4.96689
4.96863
4.96787
4.96729
4.96736
4.96647
4.96599
4.96621
4.96653
4914.81
4914.86
4914.82
4914.89
4914.84
4914.85
4914.86
4914.85
4914.86
4914.83
4914.84
4914.83
4914.88
4914.83
4914.83
4914.86
4914.86
4914.8
4914.81
4914.83
14724.8
14724.8
14724.8
14724.8
14724.8
14724.8
14724.8
14724.8
14724.8
14724.8
14724.8
14724.8
14724.8
14724.8
14724.8
14724.8
14724.8
14724.8
14724.8
14724.8
24534.8
24534.8
24534.8
24534.8
24534.8
24534.8
24534.8
24534.8
24534.8
24534.8
24534.8
24534.8
24534.8
24534.8
24534.8
24534.8
24534.8
24534.8
24534.8
24534.8
34344.8
34344.8
34344.8
34344.8
34344.8
34344.8
34344.8
34344.8
34344.8
34344.8
34344.8
34344.8
34344.8
34344.8
34344.8
34344.8
34344.8
34344.8
34344.8
34344.8
34344.8
34344.8
34344.8
34344.8
34344.8
34344.8
34344.8
34344.8
34344.8
34344.8
34344.8
34344.8
34344.8
34344.8
34344.8
34344.8
4.96346
4.96546
4.96515
4.96555
4.96611
4.96675
4.96615
4.96627
4.96483
4.9665
4.96483
4.96669
4.95942
4.97015
4.96605
4.9661
4.9667
4.96811
4.96853
4.9683
4.9677
4.96669
4.96679
4.96585
4.96602
4.96522
4.96739
4.96861
4914.87
4914.81
4914.81
4914.84
4914.85
4914.84
4914.85
4914.88
4914.91
4914.9
4914.88
4914.89
4914.78
4914.83
4914.81
4914.87
4914.87
4914.89
4914.82
4914.8
4914.84
4914.88
4914.9
4914.86
4914.83
4914.8
4914.82
4914.91
14724.8
14724.8
14724.8
14724.8
14724.8
14724.8
14724.8
14724.8
14724.8
14724.8
14724.8
14724.8
14724.8
14724.8
14724.8
14724.8
14724.8
14724.8
14724.8
14724.8
14724.8
14724.8
14724.8
14724.8
14724.8
14724.8
14724.8
14724.8
24534.8
24534.8
24534.8
24534.8
24534.8
24534.8
24534.8
24534.8
24534.8
24534.8
24534.8
24534.8
24534.8
24534.8
24534.8
24534.8
24534.8
24534.8
24534.8
24534.8
24534.8
24534.8
24534.8
24534.8
24534.8
24534.8
24534.8
24534.8
34344.8
34344.8
34344.8
34344.8
34344.8
34344.8
34344.8
34344.8
34344.8
34344.8
34344.8
34344.8
34344.8
34344.8
34344.8
34344.8
34344.8
34344.8
34344.8
34344.8
34344.8
34344.8
34344.8
34344.8
34344.8
34344.8
34344.8
34344.8
4.967
4.96665
4.96691
4.96746
4914.88
4914.87
4914.84
4914.86
)
;

boundaryField
{
    top_fluid_surface
    {
        type            calculated;
        value           nonuniform List<scalar> 
64
(
-1.92212e-08
-1.57444e-09
0
-3.11168e-09
-4.77362e-09
-1.00615e-08
-7.19124e-09
-2.52771e-11
-5.72831e-09
-1.5743e-08
0
-5.01146e-10
0
-8.84482e-10
0
-9.03353e-10
0
0
0
0
-1.10566e-09
0
0
0
-1.14138e-08
0
0
0
0
0
0
0
-2.16541e-08
0
0
0
-1.97237e-08
0
-8.22738e-09
-9.51079e-09
-8.54308e-10
-6.79394e-08
-3.45062e-08
-3.60823e-09
-2.65761e-08
0
0
-4.53938e-10
-1.25775e-08
-9.89517e-09
0
0
-2.32802e-09
-2.19181e-09
0
-1.85888e-09
0
0
0
-2.1136e-08
-3.54571e-08
0
0
0
)
;
    }
    bottom_fluid_surface
    {
        type            calculated;
        value           nonuniform List<scalar> 
64
(
39249.8
39249.8
39249.8
39249.8
39249.8
39249.8
39249.8
39249.8
39249.8
39249.8
39249.8
39249.8
39249.8
39249.8
39249.8
39249.8
39249.8
39249.8
39249.8
39249.8
39249.8
39249.8
39249.8
39249.8
39249.8
39249.8
39249.8
39249.8
39249.8
39249.8
39249.8
39249.8
39249.8
39249.8
39249.8
39249.8
39249.8
39249.8
39249.8
39249.8
39249.8
39249.8
39249.8
39249.8
39249.8
39249.8
39249.8
39249.8
39249.8
39249.8
39249.8
39249.8
39249.8
39249.8
39249.8
39249.8
39249.8
39249.8
39249.8
39249.8
39249.8
39249.8
39249.8
39249.8
)
;
    }
    lateral_surface_1
    {
        type            calculated;
        value           nonuniform List<scalar> 
40
(
4.96346
4.96546
4.96515
4.96555
4.96611
4.96675
4.96615
4.96861
4914.87
4914.81
4914.81
4914.84
4914.85
4914.84
4914.85
4914.91
14724.8
14724.8
14724.8
14724.8
14724.8
14724.8
14724.8
14724.8
24534.8
24534.8
24534.8
24534.8
24534.8
24534.8
24534.8
24534.8
34344.8
34344.8
34344.8
34344.8
34344.8
34344.8
34344.8
34344.8
)
;
    }
    lateral_surface_2
    {
        type            calculated;
        value           nonuniform List<scalar> 
40
(
4.97015
4.96605
4.9661
4.9667
4.96811
4.96853
4.9683
4.9677
4914.83
4914.81
4914.87
4914.87
4914.89
4914.82
4914.8
4914.84
14724.8
14724.8
14724.8
14724.8
14724.8
14724.8
14724.8
14724.8
24534.8
24534.8
24534.8
24534.8
24534.8
24534.8
24534.8
24534.8
34344.8
34344.8
34344.8
34344.8
34344.8
34344.8
34344.8
34344.8
)
;
    }
    lateral_surface_3
    {
        type            calculated;
        value           nonuniform List<scalar> 
40
(
4.96615
4.96627
4.96483
4.9665
4.96483
4.96669
4.95942
4.97015
4914.85
4914.88
4914.91
4914.9
4914.88
4914.89
4914.78
4914.83
14724.8
14724.8
14724.8
14724.8
14724.8
14724.8
14724.8
14724.8
24534.8
24534.8
24534.8
24534.8
24534.8
24534.8
24534.8
24534.8
34344.8
34344.8
34344.8
34344.8
34344.8
34344.8
34344.8
34344.8
)
;
    }
    lateral_surface_4
    {
        type            calculated;
        value           nonuniform List<scalar> 
40
(
4.9677
4.96669
4.96679
4.96585
4.96602
4.96522
4.96739
4.96861
4914.84
4914.88
4914.9
4914.86
4914.83
4914.8
4914.82
4914.91
14724.8
14724.8
14724.8
14724.8
14724.8
14724.8
14724.8
14724.8
24534.8
24534.8
24534.8
24534.8
24534.8
24534.8
24534.8
24534.8
34344.8
34344.8
34344.8
34344.8
34344.8
34344.8
34344.8
34344.8
)
;
    }
}


// ************************************************************************* //
