/*--------------------------------*- C++ -*----------------------------------*\
| =========                 |                                                 |
| \\      /  F ield         | OpenFOAM: The Open Source CFD Toolbox           |
|  \\    /   O peration     | Version:  v1612+                                |
|   \\  /    A nd           | Web:      www.OpenFOAM.com                      |
|    \\/     M anipulation  |                                                 |
\*---------------------------------------------------------------------------*/
FoamFile
{
    version     2.0;
    format      ascii;
    class       surfaceScalarField;
    location    "3.05";
    object      alphaPhi;
}
// * * * * * * * * * * * * * * * * * * * * * * * * * * * * * * * * * * * * * //

dimensions      [0 3 -1 0 0 0 0];

internalField   nonuniform List<scalar> 
2916
(
-3.18302e-06
0.388493
-0.228906
2.69908e-06
0.38849
-0.22891
8.7129e-07
0.388492
-0.228905
-2.922e-06
0.388495
-0.228904
5.55407e-07
0.388493
-0.228908
0.388487
-0.228902
2.50366e-07
0.764235
-0.215148
1.77636e-06
0.764236
-0.215152
-9.3212e-07
0.764237
-0.215149
-2.43768e-06
0.764239
-0.215147
4.60872e-07
0.764238
-0.215149
0.764231
-0.215149
9.33727e-08
1.03427
-0.127789
1.6723e-06
1.03427
-0.127792
-3.04821e-07
1.03427
-0.12779
-9.62173e-07
1.03427
-0.127789
1.72328e-06
1.03427
-0.12779
1.03426
-0.127789
-1.57955e-06
1.25082
-0.0989988
1.25307e-06
1.25083
-0.0990027
1.98513e-07
1.25083
-0.0990004
-6.2428e-07
1.25083
-0.0989994
2.26588e-06
1.25083
-0.0990006
1.25082
-0.0989984
-3.4853e-06
1.43896
-0.0964414
-3.28381e-07
1.43897
-0.0964462
-8.99872e-07
1.43897
-0.096444
-1.6499e-06
1.43897
-0.0964429
2.1219e-06
1.43897
-0.0964444
1.43895
-0.0964409
-5.35016e-06
1.60747
-0.103387
-2.48122e-06
1.60749
-0.103394
-2.89937e-06
1.60748
-0.103392
-2.85192e-06
1.60748
-0.103391
2.50811e-06
1.60748
-0.103394
1.60746
-0.103387
-8.09931e-06
1.73706
-0.0910085
-4.26743e-06
1.73707
-0.0910164
-4.92064e-06
1.73707
-0.0910136
-4.2295e-06
1.73706
-0.0910136
3.71112e-06
1.73706
-0.0910174
1.73704
-0.0910079
-7.63408e-06
1.75721
-0.0129761
-4.4491e-06
1.75723
-0.0129847
-5.11378e-06
1.75722
-0.0129819
-4.11764e-06
1.75722
-0.0129826
1.05522e-06
1.75722
-0.0129874
1.75719
-0.012977
-6.16454e-06
1.48932
0.267898
-4.22471e-06
1.48936
0.267872
-6.15871e-06
1.48935
0.267876
-5.88643e-06
1.48935
0.267872
-3.32064e-06
1.48936
0.267859
1.48931
0.267885
-3.57741e-06
0.813563
0.675767
-1.66351e-06
0.813606
0.675752
-4.63859e-06
0.813606
0.675755
-6.16781e-06
0.813602
0.675753
-6.59012e-06
0.813619
0.675743
0.813549
0.675757
8.38148e-06
0.128566
0.684991
3.71873e-06
0.128605
0.685008
1.82803e-06
0.128607
0.685003
-9.11771e-07
0.128607
0.685001
-1.02091e-05
0.128628
0.685003
0.128557
0.684985
-2.56793e-05
0.124559
-1.99677e-05
0.124567
-1.16599e-05
0.124566
-1.34214e-06
0.124564
2.41158e-05
0.124571
0.124548
-1.12628e-07
0.141912
-1.59919e-06
-6.11556e-07
0.141912
-1.59932e-06
-6.47924e-07
0.141913
-1.59958e-06
3.36486e-06
0.14191
-1.59986e-06
6.44934e-06
0.141908
-1.59988e-06
0.141917
-1.59969e-06
1.64032e-06
0.128681
-9.42293e-06
-1.12503e-06
0.12868
-9.42261e-06
9.17909e-07
0.12868
-9.42288e-06
2.9538e-06
0.128677
-9.42288e-06
-7.44619e-07
0.128676
-9.4223e-06
0.128682
-9.4231e-06
2.83799e-06
0.190621
-2.4266e-07
-1.78463e-07
0.190622
-2.42657e-07
1.57038e-06
0.19062
-2.42658e-07
2.3065e-06
0.190617
-2.42654e-07
-3.1054e-06
0.190617
-2.42645e-07
0.190619
-2.42657e-07
4.17476e-06
0.316018
-3.77099e-07
3.87612e-07
0.316021
-3.77218e-07
2.25665e-06
0.316016
-3.77193e-07
2.65752e-06
0.316014
-3.77236e-07
-4.12314e-06
0.316016
-3.77181e-07
0.316013
-3.76892e-07
5.86382e-06
0.520701
-4.18085e-07
6.66488e-07
0.520708
-4.18085e-07
3.11606e-06
0.5207
-4.1809e-07
3.96061e-06
0.520699
-4.18071e-07
-4.40065e-06
0.520705
-4.18047e-07
0.520696
-4.18012e-07
6.48247e-06
0.799928
-3.46525e-08
4.74909e-07
0.799945
-3.46543e-08
4.31737e-06
0.799934
-3.46534e-08
6.44593e-06
0.799935
-3.46513e-08
-2.73712e-06
0.799945
-3.46492e-08
0.79993
-3.46434e-08
7.81444e-06
1.06145
-4.32093e-09
1.53359e-06
1.06148
-4.32103e-09
6.56581e-06
1.06147
-4.32093e-09
9.53477e-06
1.06147
-4.32065e-09
2.4149e-07
1.06149
-4.32038e-09
1.06146
-4.31981e-09
9.40535e-06
1.26505
-1.29493e-08
5.02562e-06
1.2651
-1.29399e-08
9.49426e-06
1.26508
-1.29467e-08
1.11468e-05
1.26509
-1.29588e-08
3.01699e-06
1.26511
-1.29723e-08
1.26508
-1.29399e-08
1.43411e-05
1.51347
0.0300928
8.45652e-06
1.51352
0.0300866
1.13042e-05
1.5135
0.0300881
1.12301e-05
1.5135
0.0300886
1.79694e-06
1.51352
0.030088
1.51349
0.0300914
2.66841e-05
1.53082
0.355212
1.21493e-05
1.53093
0.355168
9.71576e-06
1.5309
0.355179
5.12351e-06
1.53091
0.355181
-1.30559e-05
1.53093
0.355173
1.53087
0.355201
4.04461e-05
0.787823
1.28485
1.26231e-05
0.787993
1.28485
4.61676e-06
0.787952
1.28484
-2.68072e-06
0.787951
1.28484
-2.96064e-05
0.78799
1.28485
0.787866
1.28485
-7.3854e-05
0.908238
-2.77752e-05
0.908296
-7.84468e-06
0.908281
7.33184e-06
0.908282
5.06062e-05
0.9083
0.908247
-4.60067e-12
3.64112e-08
-1.61252e-06
-2.71764e-12
3.64114e-08
-1.61266e-06
-5.29933e-13
3.64146e-08
-1.61293e-06
2.93916e-12
3.64168e-08
-1.61321e-06
6.19768e-12
3.6418e-08
-1.61323e-06
3.64217e-08
-1.61304e-06
-1.48802e-11
2.10225e-07
-9.57924e-06
-7.35635e-12
2.10215e-07
-9.57893e-06
3.09404e-13
2.10217e-07
-9.5792e-06
7.96808e-12
2.10212e-07
-9.5792e-06
1.58525e-11
2.10203e-07
-9.5786e-06
2.10228e-07
-9.57941e-06
-1.15908e-12
2.84358e-08
-4.85666e-08
-5.17977e-13
2.84341e-08
-4.85708e-08
1.63257e-15
2.84342e-08
-4.85698e-08
4.44371e-13
2.84319e-08
-4.85685e-08
1.15711e-12
2.843e-08
-4.85689e-08
2.84343e-08
-4.8565e-08
-9.34736e-13
3.11667e-08
-3.74118e-07
-3.20959e-13
3.11636e-08
-3.74237e-07
1.04333e-13
3.11643e-08
-3.74212e-07
4.65834e-13
3.11594e-08
-3.74253e-07
1.14515e-12
3.11553e-08
-3.74195e-07
3.11652e-08
-3.73913e-07
-8.37556e-13
3.35734e-08
-4.19961e-07
-3.19942e-13
3.3573e-08
-4.19965e-07
3.15734e-14
3.35732e-08
-4.19969e-07
3.7194e-13
3.35717e-08
-4.19954e-07
9.51362e-13
3.35699e-08
-4.19932e-07
3.3569e-08
-4.19885e-07
-9.56434e-14
5.05561e-09
-6.07697e-09
-4.28921e-14
5.05573e-09
-6.07946e-09
7.20491e-16
5.05562e-09
-6.07816e-09
4.60563e-14
5.0553e-09
-6.07725e-09
1.03992e-13
5.05499e-09
-6.07663e-09
5.05429e-09
-6.07084e-09
-6.75268e-15
7.67281e-10
-5.78029e-11
-6.77779e-15
7.67288e-10
-5.77974e-11
-1.8826e-15
7.67267e-10
-5.77965e-11
3.73484e-15
7.67225e-10
-5.77904e-11
8.79815e-15
7.67176e-10
-5.77829e-11
7.67069e-10
-5.77938e-11
1.36499e-15
-1.17164e-08
3.79252e-12
9.69316e-17
-1.17056e-08
3.80244e-12
-6.01187e-17
-1.1713e-08
3.79725e-12
-1.46486e-16
-1.17247e-08
3.79623e-12
-5.38198e-17
-1.17373e-08
3.79748e-12
-1.17069e-08
3.79593e-12
3.25478e-07
0.0273609
0.00273194
3.96472e-08
0.0273554
0.00273177
-9.27171e-09
0.0273568
0.00273175
-2.45617e-08
0.0273572
0.00273177
-1.70657e-07
0.0273567
0.0027318
0.0273596
0.00273199
4.27706e-07
0.290398
0.0337459
4.3243e-07
0.290409
0.0337374
9.24548e-08
0.290405
0.0337391
-4.09693e-08
0.290404
0.0337397
-1.73626e-07
0.290405
0.033738
0.290408
0.0337436
8.81369e-05
0.609532
0.525971
2.92047e-05
0.609751
0.525899
1.06466e-05
0.609678
0.525913
-2.37796e-06
0.609676
0.525921
-4.74213e-05
0.609718
0.525914
0.609591
0.525946
-0.000101548
1.42706
-1.74559e-05
1.42713
-6.31902e-06
1.42712
1.66071e-05
1.42711
9.95674e-05
1.42711
1.42713
-3.25121e-11
-9.04721e-07
-8.08936e-07
-5.98977e-12
-9.04754e-07
-8.09003e-07
8.23928e-12
-9.04803e-07
-8.09182e-07
1.31663e-11
-9.04826e-07
-8.09382e-07
2.55076e-11
-9.04777e-07
-8.09415e-07
-9.04826e-07
-8.0929e-07
-1.3008e-10
-7.71459e-07
-6.74588e-06
-7.39873e-12
-7.71414e-07
-6.74589e-06
3.58276e-11
-7.71462e-07
-6.74612e-06
2.52637e-11
-7.71468e-07
-6.74605e-06
9.77314e-11
-7.71391e-07
-6.74553e-06
-7.71539e-07
-6.74603e-06
2.2968e-13
-1.79807e-07
-6.46211e-07
7.53528e-13
-1.79738e-07
-6.46295e-07
4.47588e-13
-1.79748e-07
-6.46265e-07
1.0513e-13
-1.79682e-07
-6.46351e-07
4.83598e-13
-1.79624e-07
-6.46456e-07
-1.79828e-07
-6.46279e-07
-4.16985e-12
-1.46852e-07
-2.7355e-07
3.74765e-13
-1.46819e-07
-2.73473e-07
-1.81488e-12
-1.46819e-07
-2.73492e-07
-1.75832e-12
-1.46804e-07
-2.73382e-07
7.29869e-12
-1.46787e-07
-2.73331e-07
-1.46835e-07
-2.73628e-07
-1.34056e-11
-5.69101e-08
-3.55865e-07
-6.12644e-12
-5.69023e-08
-3.55862e-07
-7.67326e-12
-5.69005e-08
-3.5586e-07
-5.63691e-12
-5.68958e-08
-3.55833e-07
1.00741e-11
-5.68908e-08
-3.55817e-07
-5.68952e-08
-3.55847e-07
-2.10321e-13
-3.61617e-10
-7.86637e-08
-8.79274e-14
-3.61642e-10
-7.86634e-08
-7.63968e-14
-3.61564e-10
-7.86578e-08
-4.77374e-14
-3.61482e-10
-7.86506e-08
1.2414e-13
-3.61434e-10
-7.86437e-08
-3.61363e-10
-7.86304e-08
-9.0224e-16
-9.89717e-14
-4.41187e-10
-3.14231e-16
-9.90685e-14
-4.41213e-10
3.85837e-17
-9.90911e-14
-4.41134e-10
2.14462e-16
-9.93759e-14
-4.41044e-10
1.1827e-15
-9.94495e-14
-4.40983e-10
-9.87053e-14
-4.40915e-10
6.39393e-17
-6.81191e-12
-1.30473e-11
7.69589e-17
-6.79758e-12
-1.30311e-11
8.94846e-17
-6.80424e-12
-1.30449e-11
3.36603e-17
-6.78049e-12
-1.30677e-11
1.33476e-17
-6.75136e-12
-1.3089e-11
-6.80097e-12
-1.30327e-11
3.60402e-08
0.00256061
0.000170131
2.20533e-08
0.0025605
0.000170115
9.74523e-09
0.00256048
0.00017012
-7.77297e-09
0.00256049
0.00017013
-6.38613e-08
0.00256054
0.000170146
0.00256064
0.000170116
3.54813e-07
0.0318819
0.00432918
1.54439e-07
0.0318746
0.00432854
7.52445e-08
0.0318759
0.00432871
3.42936e-08
0.0318764
0.00432884
-8.16476e-08
0.0318748
0.00432884
0.0318802
0.00432888
1.05647e-05
0.152947
0.158968
5.08476e-06
0.152977
0.158956
7.17257e-07
0.152966
0.158955
-4.35714e-07
0.152954
0.158968
-1.64038e-06
0.152953
0.158981
0.152965
0.158944
-1.42597e-05
1.4464
1.78769e-05
1.44647
4.67506e-05
1.44643
2.19755e-05
1.44646
-0.000122516
1.44659
1.44631
-4.01899e-66
7.47127e-63
-5.60944e-60
-8.8514e-66
7.48353e-63
-5.6212e-60
-1.04354e-65
7.48047e-63
-5.62054e-60
-9.64204e-66
7.4789e-63
-5.6206e-60
-6.4814e-66
7.47963e-63
-5.62254e-60
7.46091e-63
-5.61074e-60
-1.81651e-61
3.80283e-58
-1.43075e-55
-2.83762e-61
3.80643e-58
-1.43307e-55
-3.23537e-61
3.80425e-58
-1.43274e-55
-3.04738e-61
3.80348e-58
-1.43281e-55
-2.17802e-61
3.80442e-58
-1.43356e-55
3.79643e-58
-1.43115e-55
-2.57584e-57
7.68917e-54
-1.90085e-51
-4.26771e-57
7.68195e-54
-1.90077e-51
-5.41488e-57
7.67244e-54
-1.89911e-51
-5.39883e-57
7.66908e-54
-1.89874e-51
-3.79147e-57
7.67157e-54
-1.89972e-51
7.65862e-54
-1.89686e-51
-4.67763e-53
1.29048e-49
-6.92921e-47
-9.92616e-53
1.28587e-49
-6.90517e-47
-1.35226e-52
1.28213e-49
-6.87618e-47
-1.40306e-52
1.28277e-49
-6.89191e-47
-9.93021e-53
1.29111e-49
-7.00073e-47
1.27311e-49
-6.75232e-47
-1.34014e-46
1.47685e-43
-8.88943e-41
-2.44844e-46
1.47237e-43
-8.87515e-41
-3.04654e-46
1.46849e-43
-8.8555e-41
-3.06368e-46
1.47765e-43
-8.91221e-41
-2.07496e-46
1.51363e-43
-9.12824e-41
1.44892e-43
-8.7373e-41
-1.5286e-41
7.01878e-39
-2.54958e-36
-2.29265e-41
7.06484e-39
-2.57053e-36
-2.52274e-41
7.08599e-39
-2.58021e-36
-2.35854e-41
7.16128e-39
-2.60907e-36
-1.54507e-41
7.36279e-39
-2.68391e-36
7.06831e-39
-2.58033e-36
-1.35381e-37
3.70101e-35
-9.42366e-33
-1.69526e-37
3.8013e-35
-9.72354e-33
-1.60139e-37
3.84988e-35
-9.8728e-33
-1.30664e-37
3.91317e-35
-1.00541e-32
-7.74298e-38
4.03325e-35
-1.03813e-32
3.86961e-35
-9.9901e-33
-1.28267e-34
3.41841e-32
-6.16436e-30
-1.10865e-34
3.60885e-32
-6.58501e-30
-5.31941e-35
3.68582e-32
-6.75936e-30
-3.68481e-37
3.74859e-32
-6.89067e-30
2.35477e-35
3.83909e-32
-7.06199e-30
3.63432e-32
-6.68769e-30
-1.07506e-33
3.0998e-30
-3.01371e-28
9.35888e-33
3.37402e-30
-3.40015e-28
2.04512e-32
3.43455e-30
-3.49465e-28
2.55025e-32
3.41791e-30
-3.45914e-28
2.0499e-32
3.38581e-30
-3.38404e-28
3.0473e-30
-2.9731e-28
1.09003e-34
2.24289e-32
-1.46595e-30
2.70459e-34
2.44516e-32
-1.71411e-30
3.79696e-34
2.46488e-32
-1.62183e-30
3.96971e-34
2.42477e-32
-1.39043e-30
2.8978e-34
2.37367e-32
-1.07202e-30
2.1224e-32
-5.83894e-31
8.46967e-34
4.17173e-32
4.53322e-32
1.25379e-33
4.184e-32
4.5844e-32
1.39651e-33
4.19156e-32
4.6184e-32
1.31736e-33
4.20431e-32
4.65442e-32
9.18643e-34
4.2281e-32
4.70388e-32
4.26152e-32
4.76419e-32
1.31812e-31
2.00122e-29
7.52788e-32
2.02687e-29
-3.89702e-33
2.03251e-29
-5.03294e-32
2.03434e-29
-4.361e-32
2.0385e-29
2.04857e-29
-3.56405e-63
6.00952e-60
-3.33135e-57
-6.9032e-63
6.01829e-60
-3.3381e-57
-7.69077e-63
6.01548e-60
-3.33762e-57
-6.82703e-63
6.01398e-60
-3.33757e-57
-4.63285e-63
6.01457e-60
-3.3386e-57
5.99993e-60
-3.3314e-57
-1.552e-58
3.05322e-55
-8.39998e-53
-2.21188e-58
3.05663e-55
-8.41472e-53
-2.32854e-58
3.0548e-55
-8.41296e-53
-2.02093e-58
3.05383e-55
-8.41294e-53
-1.33699e-58
3.05416e-55
-8.41624e-53
3.04732e-55
-8.40019e-53
-3.31801e-54
6.04869e-51
-1.07913e-48
-4.6625e-54
6.0494e-51
-1.08006e-48
-5.02154e-54
6.04322e-51
-1.07946e-48
-4.4606e-54
6.03998e-51
-1.07928e-48
-2.88375e-54
6.0404e-51
-1.07967e-48
6.0281e-51
-1.07775e-48
-2.45392e-49
2.95436e-46
-2.65393e-43
-3.63493e-49
2.94681e-46
-2.64899e-43
-3.96114e-49
2.93467e-46
-2.63782e-43
-3.5979e-49
2.94042e-46
-2.64588e-43
-2.26502e-49
2.98501e-46
-2.69719e-43
2.8763e-46
-2.57483e-43
-7.49099e-43
5.01564e-40
-2.4636e-37
-1.0307e-42
5.01097e-40
-2.46548e-37
-1.05621e-42
4.9985e-40
-2.46131e-37
-9.2504e-43
5.02668e-40
-2.47636e-37
-5.66334e-43
5.14154e-40
-2.53339e-37
4.9098e-40
-2.4202e-37
-4.44546e-38
1.94717e-35
-5.18917e-33
-5.28287e-38
1.95563e-35
-5.22553e-33
-4.76385e-38
1.95731e-35
-5.23574e-33
-3.73605e-38
1.97372e-35
-5.28272e-33
-2.13485e-38
2.02344e-35
-5.41738e-33
1.93555e-35
-5.1864e-33
-2.43397e-34
9.73138e-32
-1.63899e-29
-2.12461e-34
9.87342e-32
-1.67028e-29
-1.14305e-34
9.93127e-32
-1.68273e-29
-2.63892e-35
1.00452e-31
-1.70306e-29
1.6803e-35
1.03096e-31
-1.74799e-29
9.85494e-32
-1.6716e-29
-1.01233e-31
9.58877e-29
-1.07503e-26
7.58975e-32
9.84572e-29
-1.11062e-26
2.80166e-31
9.9331e-29
-1.12222e-26
3.89736e-31
1.0041e-28
-1.13396e-26
3.31287e-31
1.02571e-28
-1.1562e-26
9.72506e-29
-1.09374e-26
2.05673e-29
1.05518e-26
-6.53395e-25
6.19799e-29
1.0964e-26
-6.87221e-25
9.3368e-29
1.10283e-26
-6.93187e-25
1.01864e-28
1.0964e-26
-6.83844e-25
7.68564e-29
1.09728e-26
-6.78405e-25
1.00743e-26
-6.12535e-25
6.44039e-31
1.03476e-28
6.81586e-30
1.01233e-30
1.07015e-28
6.99661e-30
1.09484e-30
1.07667e-28
7.26769e-30
9.4085e-31
1.07624e-28
7.56422e-30
5.88331e-31
1.08427e-28
7.92747e-30
1.00594e-28
7.72607e-30
7.76475e-31
1.49755e-28
1.20463e-28
7.29521e-31
1.50322e-28
1.21683e-28
3.74119e-31
1.50881e-28
1.22341e-28
5.61145e-33
1.51602e-28
1.22911e-28
-2.22515e-31
1.52612e-28
1.23642e-28
1.53502e-28
1.2425e-28
-3.24322e-28
6.51775e-26
-6.22529e-28
6.55758e-26
-8.11858e-28
6.56869e-26
-8.1545e-28
6.57173e-26
-6.04547e-28
6.58081e-26
6.57315e-26
-7.1459e-61
1.75709e-57
-6.70252e-55
-1.45952e-60
1.75998e-57
-6.71613e-55
-1.56901e-60
1.75949e-57
-6.71532e-55
-1.30175e-60
1.75938e-57
-6.7154e-55
-8.18561e-61
1.75994e-57
-6.7176e-55
1.75625e-57
-6.70322e-55
-3.46488e-56
8.81593e-53
-1.65211e-50
-4.39807e-56
8.82948e-53
-1.65525e-50
-4.16235e-56
8.82658e-53
-1.655e-50
-3.15956e-56
8.82567e-53
-1.65503e-50
-1.81424e-56
8.82842e-53
-1.65563e-50
8.81103e-53
-1.65234e-50
-7.459e-52
1.66991e-48
-2.00423e-46
-8.86275e-52
1.67174e-48
-2.00716e-46
-8.42668e-52
1.67088e-48
-2.00651e-46
-6.56986e-52
1.67054e-48
-2.00635e-46
-3.60689e-52
1.67103e-48
-2.007e-46
1.66797e-48
-2.00317e-46
-3.50718e-46
5.20812e-43
-4.90842e-40
-4.32146e-46
5.20161e-43
-4.90476e-40
-4.0887e-46
5.18093e-43
-4.8857e-40
-3.18943e-46
5.19724e-43
-4.90168e-40
-1.63544e-46
5.29766e-43
-4.99865e-40
5.05586e-43
-4.76274e-40
-5.52377e-40
5.31668e-37
-2.51404e-34
-5.81985e-40
5.32031e-37
-2.51835e-34
-4.46785e-40
5.31149e-37
-2.51462e-34
-2.6294e-40
5.34388e-37
-2.52977e-34
-8.38804e-41
5.46521e-37
-2.58621e-34
5.21613e-37
-2.46782e-34
-9.53955e-36
1.10817e-32
-3.10151e-30
-3.5373e-36
1.11186e-32
-3.11813e-30
5.38451e-36
1.11234e-32
-3.12041e-30
1.13522e-35
1.12136e-32
-3.14479e-30
1.11089e-35
1.14882e-32
-3.2195e-30
1.09805e-32
-3.07553e-30
4.08391e-32
3.36796e-29
-6.73447e-27
1.12342e-31
3.39482e-29
-6.81485e-27
1.65543e-31
3.40589e-29
-6.84018e-27
1.79678e-31
3.44137e-29
-6.90567e-27
1.36868e-31
3.53021e-29
-7.07138e-27
3.37655e-29
-6.74822e-27
1.48325e-28
2.28748e-26
-3.40882e-24
2.50174e-28
2.31713e-26
-3.47149e-24
2.95863e-28
2.32887e-26
-3.48741e-24
2.81093e-28
2.35472e-26
-3.51566e-24
1.92918e-28
2.41181e-26
-3.58161e-24
2.30186e-26
-3.39586e-24
3.46622e-26
2.56877e-24
-1.76868e-22
4.56752e-26
2.59872e-24
-1.79574e-22
4.40824e-26
2.6169e-24
-1.80856e-22
3.36842e-26
2.61982e-24
-1.77431e-22
1.73975e-26
2.67372e-24
-1.78436e-22
2.52443e-24
-1.64044e-22
1.01088e-24
7.45177e-23
-5.02742e-21
1.28468e-24
7.26698e-23
-4.63816e-21
1.14461e-24
6.72863e-23
-3.8514e-21
8.17861e-25
6.2247e-23
-3.06355e-21
3.02854e-25
4.26341e-23
-1.36144e-21
4.45145e-23
-8.59962e-22
1.27748e-27
-8.2865e-24
2.01649e-24
-2.62698e-27
-8.13728e-24
1.99213e-24
-6.44099e-27
-8.0105e-24
1.89268e-24
-6.84543e-27
-7.89837e-24
1.79118e-24
-5.57911e-27
-7.82263e-24
1.46219e-24
-7.73905e-24
1.44131e-24
-2.47976e-25
2.15855e-23
-4.05509e-25
2.18141e-23
-4.57584e-25
2.1882e-23
-4.3762e-25
2.19324e-23
-1.67007e-25
2.1794e-23
2.19428e-23
-7.32766e-59
2.23362e-55
-4.64645e-53
-1.37429e-58
2.23727e-55
-4.6558e-53
-1.33824e-58
2.23688e-55
-4.65528e-53
-9.81564e-59
2.23703e-55
-4.6554e-53
-5.5059e-59
2.23806e-55
-4.65697e-53
2.23368e-55
-4.64706e-53
-3.5499e-54
1.10674e-50
-1.11039e-48
-3.56339e-54
1.10855e-50
-1.11257e-48
-2.51515e-54
1.10835e-50
-1.11243e-48
-1.13362e-54
1.1084e-50
-1.11246e-48
-9.47493e-56
1.10889e-50
-1.11285e-48
1.10681e-50
-1.11059e-48
-6.80168e-50
2.04029e-46
-1.26642e-44
-5.97678e-50
2.04331e-46
-1.26866e-44
-3.69582e-50
2.04285e-46
-1.26843e-44
-1.24872e-50
2.0429e-46
-1.2684e-44
2.24926e-51
2.0438e-46
-1.26879e-44
2.04011e-46
-1.26629e-44
-2.26381e-43
6.93655e-40
-5.11352e-37
-1.88973e-43
6.93304e-40
-5.11235e-37
-7.96751e-44
6.90781e-40
-5.09339e-37
1.52261e-44
6.93195e-40
-5.10995e-37
6.13026e-44
7.06994e-40
-5.21022e-37
6.73578e-40
-4.96201e-37
-5.76522e-38
4.9284e-34
-1.64874e-31
5.61817e-38
4.93577e-34
-1.65183e-31
1.87491e-37
4.9285e-34
-1.64923e-31
2.64693e-37
4.95838e-34
-1.65877e-31
2.31384e-37
5.0681e-34
-1.69467e-31
4.83332e-34
-1.61579e-31
4.09829e-33
8.59736e-30
-1.31778e-27
9.08045e-33
8.62105e-30
-1.32207e-27
1.24615e-32
8.61643e-30
-1.32115e-27
1.32131e-32
8.67628e-30
-1.32985e-27
9.90986e-33
8.87459e-30
-1.35934e-27
8.4689e-30
-1.29657e-27
3.54408e-29
2.67279e-26
-2.11868e-24
5.88706e-29
2.68496e-26
-2.1295e-24
6.96621e-29
2.68581e-26
-2.12968e-24
6.73983e-29
2.70625e-26
-2.14485e-24
4.75453e-29
2.76848e-26
-2.19199e-24
2.64247e-26
-2.08999e-24
4.09344e-26
2.17217e-23
-9.13409e-22
5.90405e-26
2.1849e-23
-9.18832e-22
6.22426e-26
2.18554e-23
-9.18536e-22
5.53246e-26
2.20139e-23
-9.24441e-22
3.55889e-26
2.24777e-23
-9.41864e-22
2.14421e-23
-8.97557e-22
5.84623e-24
3.85667e-21
-7.49175e-20
6.4827e-24
3.83693e-21
-7.3435e-20
4.87959e-24
3.87134e-21
-7.50243e-20
2.88475e-24
3.84416e-21
-7.32447e-20
5.93456e-25
3.95445e-21
-7.62652e-20
3.76229e-21
-7.24327e-20
-5.06273e-23
6.40363e-19
-1.12354e-17
-6.56705e-22
6.36573e-19
-1.10891e-17
-1.34765e-21
6.21215e-19
-1.07197e-17
-1.01263e-21
6.28296e-19
-1.09141e-17
-1.35976e-21
4.09517e-19
-5.29325e-18
6.06553e-19
-1.04725e-17
-6.91482e-23
2.13365e-20
1.37764e-20
-8.50438e-23
1.85235e-20
1.19702e-20
-1.13443e-22
1.53035e-20
9.9006e-21
-5.28548e-23
1.8311e-20
1.18555e-20
-6.36729e-23
1.01446e-20
6.57686e-21
1.77197e-20
1.14978e-20
-3.45034e-25
2.13889e-20
-3.63006e-25
1.85759e-20
-3.10992e-25
1.53559e-20
-1.19322e-25
1.83633e-20
-3.26338e-25
1.01972e-20
1.77719e-20
9.6978e-12
-1.20325e-07
3.74604e-08
6.42287e-12
-1.20297e-07
3.74812e-08
-1.91302e-12
-1.2034e-07
3.74835e-08
-8.5472e-12
-1.20396e-07
3.74988e-08
-9.68312e-12
-1.20422e-07
3.75205e-08
-1.20427e-07
3.74736e-08
5.88318e-13
3.22271e-15
5.63143e-09
1.69682e-13
3.53001e-15
5.62609e-09
-9.22041e-14
3.62339e-15
5.62848e-09
-3.0176e-13
3.54282e-15
5.62808e-09
-6.28811e-13
3.52194e-15
5.62253e-09
3.60602e-15
5.63124e-09
-4.5959e-20
-5.17207e-17
-1.1561e-20
-5.66453e-17
7.9607e-21
-5.81454e-17
2.42599e-20
-5.68526e-17
6.09819e-20
-5.65161e-17
-5.78731e-17
1.07527e-10
-2.46372e-06
1.14393e-06
1.61331e-11
-2.46353e-06
1.14397e-06
-5.68926e-11
-2.4638e-06
1.144e-06
-8.6556e-11
-2.46372e-06
1.14398e-06
-1.24973e-10
-2.46309e-06
1.14393e-06
-2.4638e-06
1.14394e-06
3.86108e-11
1.83317e-14
8.21945e-08
7.35668e-12
2.00786e-14
8.21623e-08
-1.21743e-11
2.06109e-14
8.21804e-08
-2.93935e-11
2.01524e-14
8.21784e-08
-6.11095e-11
2.00336e-14
8.21415e-08
2.05137e-14
8.22023e-08
-2.51389e-19
-4.1457e-16
-6.88583e-20
-4.54023e-16
5.37384e-20
-4.66078e-16
1.68505e-19
-4.5572e-16
3.77763e-19
-4.53032e-16
-4.63959e-16
1.30768e-11
-1.70116e-07
-6.6262e-08
3.43685e-12
-1.70094e-07
-6.62891e-08
-2.7534e-12
-1.70098e-07
-6.62809e-08
-8.90433e-12
-1.70122e-07
-6.63114e-08
-1.90648e-11
-1.7013e-07
-6.63299e-08
-1.70154e-07
-6.6246e-08
1.31802e-12
1.20073e-13
5.97887e-09
5.07582e-13
1.31519e-13
5.97636e-09
4.93944e-14
1.35002e-13
5.97707e-09
-5.62784e-13
1.31999e-13
5.97718e-09
-1.83179e-12
1.31222e-13
5.97664e-09
1.34357e-13
5.98114e-09
-1.68459e-18
-4.32183e-15
-5.40468e-19
-4.73341e-15
2.29698e-19
-4.85888e-15
8.93426e-19
-4.75081e-15
2.17284e-18
-4.72282e-15
-4.8361e-15
5.07174e-12
-5.96547e-09
1.33452e-08
2.26901e-12
-5.96298e-09
1.33036e-08
-4.16919e-13
-5.96369e-09
1.33141e-08
-3.76346e-12
-5.9638e-09
1.32707e-08
-8.56839e-12
-5.96328e-09
1.32537e-08
-5.96775e-09
1.33881e-08
4.94173e-15
9.76603e-14
1.32923e-11
3.03436e-15
1.06963e-13
1.32739e-11
1.62936e-15
1.09792e-13
1.32753e-11
-4.78698e-16
1.07344e-13
1.32692e-11
-4.62958e-15
1.06712e-13
1.32598e-11
1.0926e-13
1.32738e-11
-1.44624e-18
-2.13734e-15
-4.7279e-19
-2.3407e-15
1.22714e-20
-2.40254e-15
4.5097e-19
-2.34889e-15
1.5917e-18
-2.33499e-15
-2.39084e-15
6.82334e-12
-1.44141e-07
9.67478e-08
3.42636e-12
-1.44154e-07
9.67328e-08
5.49936e-14
-1.44142e-07
9.67319e-08
-4.41336e-12
-1.44148e-07
9.67208e-08
-9.8176e-12
-1.44137e-07
9.67097e-08
-1.44068e-07
9.67263e-08
2.2167e-12
3.74814e-15
1.44931e-09
1.27235e-12
4.10788e-15
1.44698e-09
5.85947e-13
4.22002e-15
1.44746e-09
-2.8087e-13
4.12496e-15
1.44709e-09
-1.90379e-12
4.09903e-15
1.44604e-09
4.16056e-15
1.44866e-09
-4.87642e-20
-3.42045e-17
-1.2223e-20
-3.74848e-17
2.80592e-21
-3.85022e-17
1.6892e-20
-3.76306e-17
6.20497e-20
-3.73934e-17
-3.79504e-17
1.21037e-12
-1.44977e-09
4.57945e-10
5.85788e-13
-1.44744e-09
4.57986e-10
1.18918e-13
-1.44792e-09
4.57894e-10
-2.17148e-13
-1.44754e-09
4.57794e-10
-8.85014e-13
-1.44649e-09
4.57727e-10
-1.44912e-09
4.57671e-10
8.3959e-16
1.02556e-17
-4.55855e-13
2.59115e-16
1.1203e-17
-4.55051e-13
5.94959e-17
1.15002e-17
-4.55275e-13
-6.10361e-17
1.12482e-17
-4.55313e-13
-5.97172e-16
1.11769e-17
-4.55205e-13
1.13365e-17
-4.55375e-13
-9.58993e-23
1.11598e-19
-6.42563e-24
1.1031e-19
3.43109e-23
1.11141e-19
5.64567e-23
1.1184e-19
1.42627e-22
1.11362e-19
1.1467e-19
-1.50283e-15
-6.59326e-12
1.2504e-11
1.71732e-15
-6.58465e-12
1.25068e-11
7.73916e-16
-6.5924e-12
1.25035e-11
1.76546e-15
-6.6046e-12
1.24996e-11
9.04244e-15
-6.61587e-12
1.24972e-11
-6.58801e-12
1.24963e-11
2.02171e-17
1.27934e-17
-7.0505e-12
1.84859e-17
1.26472e-17
-7.04104e-12
1.39591e-17
1.2742e-17
-7.04903e-12
1.07474e-17
1.28202e-17
-7.06129e-12
-2.39269e-17
1.27667e-17
-7.07245e-12
1.31403e-17
-7.04477e-12
-9.10656e-23
-2.33628e-19
1.75674e-24
-2.30991e-19
6.92808e-23
-2.32724e-19
1.25628e-22
-2.34128e-19
2.2764e-22
-2.3319e-19
-2.39923e-19
-1.25249e-16
-5.80226e-10
6.18977e-10
6.5579e-16
-5.79246e-10
6.18007e-10
6.28675e-16
-5.80024e-10
6.18773e-10
-4.40824e-17
-5.81204e-10
6.19937e-10
-1.96689e-15
-5.82352e-10
6.21058e-10
-5.7952e-10
6.18316e-10
1.61212e-16
4.48278e-15
-5.86216e-10
-5.11147e-15
4.45737e-15
-5.85222e-10
-1.19925e-14
4.47529e-15
-5.86005e-10
-8.88984e-15
4.48817e-15
-5.87207e-10
-1.87956e-14
4.47652e-15
-5.88353e-10
4.54557e-15
-5.85523e-10
-4.96164e-20
-1.42997e-16
-2.24612e-21
-1.42161e-16
2.58799e-20
-1.42718e-16
1.92969e-20
-1.43061e-16
8.38142e-20
-1.42727e-16
-1.4497e-16
6.57892e-10
1.04208e-06
0.000169439
2.01576e-09
1.04067e-06
0.000169424
2.29983e-09
1.04165e-06
0.00016943
9.96326e-10
1.04319e-06
0.000169439
-1.73461e-09
1.04468e-06
0.000169456
1.04089e-06
0.000169425
6.16428e-14
1.22181e-12
1.04151e-06
-1.56902e-12
1.21585e-12
1.04009e-06
-2.21791e-12
1.21917e-12
1.04107e-06
-1.33992e-12
1.22145e-12
1.04261e-06
1.64218e-12
1.21739e-12
1.0441e-06
1.23551e-12
1.04031e-06
1.82868e-17
-4.30469e-13
4.02115e-17
-4.28239e-13
5.64715e-17
-4.29495e-13
2.95411e-17
-4.30312e-13
-1.85358e-17
-4.28907e-13
-4.35236e-13
2.04098e-08
0.000394546
0.00409821
1.81105e-08
0.00039453
0.00409759
1.69604e-08
0.000394535
0.00409776
8.43946e-09
0.000394561
0.00409788
1.46537e-08
0.0003946
0.00409785
0.000394499
0.00409798
8.68263e-11
1.80226e-05
0.000377537
1.87616e-09
1.80229e-05
0.000377517
2.38931e-09
1.80241e-05
0.000377523
1.10823e-09
1.8025e-05
0.000377552
4.34959e-10
1.80254e-05
0.00037759
1.80236e-05
0.000377488
-1.57599e-11
1.77426e-05
-6.09909e-11
1.77431e-05
-1.07401e-10
1.77442e-05
-1.00048e-10
1.77449e-05
-1.06506e-10
1.77454e-05
1.77435e-05
9.2325e-07
0.0155188
0.147436
6.59133e-07
0.0155177
0.147425
6.78476e-07
0.015517
0.147425
1.69809e-07
0.0155222
0.147433
-1.99775e-06
0.015531
0.147439
0.0155059
0.147423
1.04695e-07
0.000796328
0.0150917
5.02242e-08
0.000796571
0.0150905
3.38413e-08
0.00079652
0.0150898
-3.34481e-08
0.000796507
0.0150951
-1.41948e-07
0.0007966
0.015104
0.000796285
0.0150788
-5.93683e-10
0.000723894
-5.14528e-10
0.000724121
5.09148e-09
0.000724068
-7.05879e-09
0.000724057
-6.7911e-08
0.000724158
0.000723806
3.95436e-05
0.456069
0.918531
3.61288e-05
0.456115
0.918582
2.21749e-05
0.456107
0.918571
5.10381e-05
0.456034
0.918653
4.53518e-05
0.455886
0.91901
0.456219
0.918251
1.54133e-05
0.014706
0.33171
2.06044e-06
0.0147119
0.331732
-2.0108e-05
0.014711
0.331742
1.86662e-06
0.0147114
0.331754
7.12336e-05
0.0147144
0.331618
0.0147031
0.331805
-3.54723e-07
0.0108338
-1.26475e-06
0.0108367
-1.61886e-06
0.0108351
-2.61141e-06
0.0108361
-9.61494e-06
0.0108424
0.0108181
9.0728e-10
1.27997e-05
-1.31988e-05
2.04252e-08
-1.99368e-09
1.27645e-05
-1.31585e-05
2.04936e-08
1.09623e-08
1.27703e-05
-1.31801e-05
2.04588e-08
1.03894e-08
1.28492e-05
-1.32506e-05
2.07674e-08
-7.94362e-08
1.29106e-05
-1.32347e-05
2.15058e-08
1.26878e-05
-1.31584e-05
2.24858e-08
3.73393e-10
-3.28331e-27
1.14714e-05
-2.04568e-08
3.74632e-10
-3.34022e-27
1.14507e-05
-2.04787e-08
1.46813e-09
-3.3517e-27
1.14737e-05
-2.04583e-08
9.74505e-10
-3.14768e-27
1.14708e-05
-2.07589e-08
-2.53767e-09
-1.73314e-28
1.13082e-05
-2.14482e-08
-3.96355e-27
1.16145e-05
-1.97322e-08
-2.19322e-29
2.76712e-25
-2.79973e-25
1.48981e-29
2.8168e-25
-2.85057e-25
5.34585e-29
2.81443e-25
-2.84834e-25
9.92281e-29
2.69215e-25
-2.72408e-25
1.39588e-29
1.52832e-26
-1.53713e-26
3.26131e-25
-3.30081e-25
1.66287e-07
0.000280567
-0.00207644
-6.5498e-07
0.000279971
-0.00201779
-2.68626e-06
0.000281068
-0.00200434
-1.16591e-06
0.000279359
-0.00211298
8.43975e-06
0.000271084
-0.00240703
0.000287405
-0.00158547
1.11406e-08
2.30748e-05
0.000266193
-2.63865e-09
2.31122e-05
0.000265586
-1.06667e-08
2.32221e-05
0.00026662
2.46514e-08
2.28379e-05
0.000265096
1.07078e-07
2.26539e-05
0.000256432
2.24632e-05
0.000274314
1.13249e-05
-0.0939089
4.60156e-06
-0.0938095
3.4537e-05
-0.0935824
-7.06406e-05
-0.0949487
-0.000219949
-0.0984564
-0.0901996
-1.05788e-05
-0.109871
0.00154021
2.01534e-06
-0.109804
0.00154066
6.53331e-06
-0.109705
0.00154052
-3.65958e-06
-0.110003
0.00154835
-3.72643e-05
-0.110665
0.00152713
-0.109004
0.00158961
6.76106e-06
0.216466
-0.695103
3.288e-05
0.215963
-0.695741
0.000105315
0.21576
-0.695825
-4.56256e-05
0.216769
-0.696544
-0.000230195
0.219916
-0.697767
0.211712
-0.695393
0.000263181
-0.485129
-3.23574e-05
-0.484063
-0.000223738
-0.483059
-0.000509866
-0.488345
-0.00321149
-0.496642
-0.477832
-3.51091e-05
-0.0171077
-0.0420747
-4.37491e-06
-0.0171785
-0.0420554
4.54281e-05
-0.0172355
-0.0420454
-2.70501e-05
-0.0175343
-0.04215
-0.000332552
-0.0171089
-0.0424341
-0.0181978
-0.0418403
2.17175e-05
0.357061
-0.980178
6.72993e-05
0.358176
-0.980354
0.000196815
0.358251
-0.980533
-0.000223221
0.356465
-0.97889
-0.00113081
0.353593
-0.976032
0.36083
-0.984021
9.50704e-05
-0.0774799
-3.5528e-05
-0.0776912
-0.000228373
-0.0776922
-0.000108631
-0.0773076
-4.40165e-05
-0.0765775
-0.078423
6.29573e-05
0.159643
-0.355545
-6.45419e-06
0.15963
-0.355456
-0.0001009
0.159593
-0.35542
2.00365e-05
0.159768
-0.355702
0.000450578
0.160283
-0.356506
0.15908
-0.354732
5.45828e-05
0.052312
-0.649372
2.5808e-05
0.0524985
-0.649624
1.27043e-05
0.0524991
-0.649712
0.000100568
0.0521794
-0.649149
-1.34995e-05
0.0514549
-0.647626
0.0533465
-0.651352
2.50896e-06
-0.026386
-6.7997e-06
-0.0264059
-2.00609e-05
-0.0264026
-1.51374e-05
-0.0263638
-2.83278e-05
-0.0263374
-0.0263564
4.36589e-06
0.42662
5.9036e-05
0.426708
0.000157038
0.426691
9.90066e-05
0.426651
-0.000326471
0.426552
0.426754
1.77045e-05
0.0207925
5.84554e-06
0.0208104
-1.77194e-05
0.020808
-4.65257e-07
0.0207881
5.24847e-05
0.0207618
0.0208099
-9.29081e-08
-2.71496e-06
-5.24558e-06
-5.44667e-06
-1.69975e-05
-1.86288e-57
-9.4751e-55
8.59195e-54
-4.29449e-57
-9.4953e-55
8.60866e-54
-4.5113e-57
-9.49508e-55
8.60835e-54
-3.48814e-57
-9.49537e-55
8.60932e-54
-2.0065e-57
-9.49796e-55
8.61313e-54
-9.47696e-55
8.59569e-54
-2.70954e-59
-4.17417e-58
9.66378e-56
-4.96234e-59
-4.18354e-58
9.68434e-56
-4.89962e-59
-4.18339e-58
9.68505e-56
-3.52731e-59
-4.18353e-58
9.68638e-56
-1.57005e-59
-4.18476e-58
9.69011e-56
-4.17516e-58
9.66951e-56
-6.75548e-63
9.70058e-60
-8.45925e-63
9.72352e-60
-6.98195e-63
9.72512e-60
-3.58468e-63
9.72744e-60
2.26827e-64
9.73199e-60
9.70977e-60
-8.01701e-53
-4.60396e-50
4.07148e-49
-7.30292e-53
-4.61347e-50
4.07967e-49
-3.758e-53
-4.6134e-50
4.07952e-49
-3.82076e-55
-4.61354e-50
4.07995e-49
2.09946e-53
-4.61471e-50
4.08161e-49
-4.6051e-50
4.07349e-49
-1.09899e-54
-2.35555e-53
9.59003e-51
-8.44814e-55
-2.36067e-53
9.61039e-51
-2.53404e-55
-2.3606e-53
9.61097e-51
3.4452e-55