/*--------------------------------*- C++ -*----------------------------------*\
| =========                 |                                                 |
| \\      /  F ield         | OpenFOAM: The Open Source CFD Toolbox           |
|  \\    /   O peration     | Version:  v1612+                                |
|   \\  /    A nd           | Web:      www.OpenFOAM.com                      |
|    \\/     M anipulation  |                                                 |
\*---------------------------------------------------------------------------*/
FoamFile
{
    version     2.0;
    format      ascii;
    class       volScalarField;
    location    "3.05";
    object      p_rgh;
}
// * * * * * * * * * * * * * * * * * * * * * * * * * * * * * * * * * * * * * //

dimensions      [1 -1 -2 0 0 0 0];

internalField   nonuniform List<scalar> 
1116
(
11437.7
11437.7
11437.7
11437.7
11437.6
11437.7
10975.2
10975.2
10975.2
10975.2
10975.1
10975.2
10522.8
10522.7
10522.7
10522.7
10522.7
10522.7
10706.2
10706.2
10706.2
10706.2
10706.1
10706.2
11351.2
11351.2
11351.2
11351.2
11351.2
11351.2
12261.6
12261.6
12261.5
12261.5
12261.5
12261.5
13401.8
13401.8
13401.8
13401.7
13401.7
13401.7
15040
15040
15039.9
15039.9
15039.9
15040
17362.8
17362.8
17362.7
17362.7
17362.7
17362.8
20693.3
20693.2
20693.2
20693.2
20693.2
20693.2
24857.9
24857.8
24857.8
24857.8
24857.8
24857.8
27291.6
27291.6
27291.6
27291.6
27291.6
27291.6
5103.91
5103.94
5103.91
5103.86
5103.86
5103.87
2724.42
2724.41
2724.41
2724.35
2724.32
2724.42
2249.78
2249.74
2249.74
2249.71
2249.68
2249.75
2685.99
2685.94
2685.95
2685.92
2685.89
2685.95
3594.92
3594.84
3594.86
3594.84
3594.8
3594.87
4894.23
4894.13
4894.16
4894.16
4894.12
4894.19
6446.3
6446.19
6446.23
6446.23
6446.2
6446.27
6954.38
6954.32
6954.34
6954.34
6954.35
6954.37
8305.04
8304.84
8304.89
8304.9
8304.89
8304.98
14708.3
14707.6
14707.8
14707.8
14707.7
14708.1
26295.9
26295.6
26295.7
26295.8
26295.7
26295.9
30598.4
30598.5
30598.5
30598.5
30598.5
30598.4
4.69803
4.69854
4.69848
4.69832
4.69805
4.69727
8.22485
8.22505
8.2249
8.22484
8.2248
8.22429
8.97592
8.97629
8.97622
8.97604
8.97587
8.9752
9.35846
9.35888
9.35893
9.35892
9.35887
9.35828
6.30307
6.30337
6.3033
6.30324
6.30326
6.3029
0.806926
0.807034
0.807044
0.80716
0.807196
0.806986
-5.5408
-5.54212
-5.54169
-5.54103
-5.54044
-5.53993
57.2933
57.2889
57.2899
57.2903
57.2915
57.2937
223.972
223.965
223.967
223.968
223.968
223.973
734.398
734.238
734.3
734.31
734.282
734.349
17356
17354.3
17354.7
17354.9
17354.6
17355.3
32857
32857.2
32857.3
32857.1
32856.9
32857.5
6.91493
6.91495
6.9149
6.91485
6.91473
6.91455
8.81208
8.81205
8.81183
8.81169
8.8116
8.81137
9.20947
9.20965
9.20962
9.20956
9.20952
9.20925
10.3551
10.3554
10.3553
10.3553
10.3554
10.355
9.94982
9.9501
9.94985
9.94977
9.94991
9.9494
6.05172
6.05203
6.05185
6.05189
6.05217
6.05162
-1.18314
-1.18267
-1.18225
-1.18196
-1.18153
-1.18248
-6.26305
-6.26347
-6.2632
-6.26307
-6.2626
-6.26291
2.65921
2.65919
2.65886
2.65874
2.65814
2.66044
30.4077
30.4035
30.406
30.4093
30.4096
30.4071
2086.09
2084.91
2085.14
2085.3
2085.09
2085.69
34539.5
34538.7
34538.7
34539.2
34539.6
34538.5
1.02189
1.02189
1.02189
1.02188
1.02187
1.02187
1.07416
1.07416
1.07415
1.07413
1.0741
1.07409
1.17995
1.17994
1.17991
1.17985
1.17979
1.17974
1.34199
1.34195
1.34187
1.34175
1.34164
1.34155
1.56506
1.56499
1.56486
1.56471
1.56456
1.56446
1.85638
1.8563
1.85619
1.85608
1.85599
1.85595
2.22262
2.22258
2.22253
2.22252
2.22253
2.22256
2.66646
2.66641
2.66636
2.66634
2.66636
2.66638
3.179
3.17884
3.17867
3.17854
3.17843
3.17836
3.73978
3.73963
3.73937
3.73895
3.73843
3.73805
4.23676
4.2367
4.23666
4.23661
4.23657
4.23657
4.69952
4.69955
4.69977
4.70006
4.70028
4.70035
0.970887
0.970883
0.970875
0.970864
0.970854
0.970848
1.02244
1.02243
1.0224
1.02238
1.02235
1.02234
1.12761
1.12757
1.12752
1.12747
1.12743
1.1274
1.29037
1.29032
1.29025
1.29019
1.29013
1.2901
1.51508
1.51503
1.51499
1.51496
1.51493
1.51493
1.80473
1.80474
1.80477
1.80481
1.80485
1.80488
2.16504
2.16514
2.16523
2.1653
2.16534
2.16537
2.5975
2.59764
2.59765
2.59755
2.59738
2.59721
3.09361
3.0937
3.09345
3.0929
3.09218
3.09156
3.67457
3.6743
3.67363
3.67232
3.67034
3.66864
4.257
4.25732
4.25775
4.25815
4.25846
4.2587
4.7008
4.70107
4.7014
4.70174
4.70195
4.70204
0.872152
0.872147
0.872138
0.872128
0.872119
0.872114
0.921008
0.920992
0.920973
0.920955
0.920942
0.920935
1.02194
1.02191
1.02188
1.02186
1.02185
1.02185
1.18213
1.1821
1.18209
1.18209
1.18211
1.18213
1.41438
1.41438
1.41441
1.41447
1.41454
1.4146
1.73702
1.73707
1.73713
1.73721
1.73728
1.73732
2.1678
2.1678
2.16777
2.16771
2.16764
2.16756
2.72965
2.72947
2.72921
2.72892
2.72868
2.72853
3.41097
3.41071
3.41074
3.41109
3.41174
3.41241
4.41072
4.41089
4.41145
4.41267
4.41463
4.41637
5.17703
5.17722
5.17745
5.17777
5.17813
5.17837
6.41144
6.41111
6.41141
6.41209
6.41307
6.41274
0.73025
0.730246
0.73024
0.730234
0.730228
0.730225
0.773553
0.773542
0.773533
0.773529
0.773528
0.773531
0.863708
0.863698
0.863698
0.863713
0.863737
0.863766
1.00773
1.00774
1.00777
1.00783
1.00791
1.00797
1.21446
1.2145
1.21459
1.2147
1.21481
1.2149
1.49444
1.49451
1.4946
1.49469
1.49477
1.49481
1.8669
1.86693
1.86694
1.86692
1.86686
1.86679
2.35618
2.3562
2.35614
2.35603
2.35589
2.35579
2.97363
2.97371
2.97367
2.97353
2.97334
2.9732
3.79793
3.79787
3.79756
3.79728
3.79707
3.79701
4.85723
4.85694
4.85619
4.85516
4.85413
4.85325
5.5639
5.56377
5.56342
5.56337
5.56216
5.56159
2.53142
2.53127
2.5311
2.53099
2.53093
2.5309
0.298059
0.297976
0.297922
0.297884
0.297866
0.297894
-2.98657
-2.98663
-2.98658
-2.98655
-2.98654
-2.98645
3.34852
3.34847
3.34838
3.34831
3.34828
3.34826
0.541518
0.541418
0.541428
0.541426
0.5414
0.54157
-3.26745
-3.26753
-3.26751
-3.26751
-3.26751
-3.26742
2.88344
2.88353
2.88358
2.8836
2.88361
2.88357
0.774277
0.774284
0.774332
0.774361
0.774367
0.774433
-3.53862
-3.53874
-3.53877
-3.53879
-3.53881
-3.53872
2.35163
2.35185
2.35193
2.35196
2.3519
2.35172
0.472826
0.472892
0.472959
0.472954
0.472848
0.472766
-4.28101
-4.28117
-4.2812
-4.2812
-4.28118
-4.281
1.38253
1.3825
1.38238
1.38233
1.38227
1.38203
-0.150138
-0.150208
-0.150248
-0.150309
-0.150451
-0.150551
-4.78788
-4.78796
-4.78791
-4.78788
-4.78784
-4.78767
0.422086
0.421746
0.421477
0.421538
0.421811
0.421846
-1.25489
-1.25518
-1.25528
-1.25522
-1.25508
-1.25483
-5.18944
-5.18943
-5.18936
-5.18937
-5.18945
-5.18945
-0.350401
-0.350504
-0.350488
-0.350177
-0.349807
-0.349839
-2.36864
-2.3687
-2.36865
-2.36839
-2.36809
-2.36767
-5.41132
-5.41135
-5.41136
-5.41145
-5.41157
-5.41158
-3.27894
-3.27877
-3.27902
-3.27886
-3.27949
-3.27888
-3.3122
-3.31187
-3.31197
-3.31192
-3.31223
-3.31153
-5.39374
-5.39385
-5.39386
-5.39378
-5.39371
-5.39364
0.71929
0.718232
0.717932
0.718261
0.718631
0.718793
0.787571
0.787467
0.787581
0.787492
0.78763
0.787914
-9.26148
-9.2614
-9.26105
-9.26062
-9.26016
-9.25972
-15.2307
-15.2326
-15.2322
-15.2312
-15.2286
-15.2315
2.24302
2.24381
2.24419
2.24459
2.24627
2.24612
-1.01503
-1.01344
-1.0133
-1.01248
-1.01008
-1.01252
-17.6247
-17.6215
-17.6226
-17.6336
-17.6417
-17.5975
2.01355
2.0133
2.01604
2.02271
2.02864
2.02733
-20.9242
-20.92
-20.9193
-20.916
-20.9142
-20.8946
25915.5
25914.5
25914.8
25913.1
25909.5
25918.5
2788.11
2787.03
2787.16
2789.46
2794.29
2781.78
-67.9189
-67.9082
-67.8899
-67.8733
-67.8592
-67.7595
17.8347
17.8299
17.824
17.7968
17.7332
17.79
4.56566
4.55326
4.5679
4.59404
4.59052
4.86514
23.2349
23.2203
23.2713
23.2834
23.4523
23.472
28.5273
28.3031
28.2661
28.6261
29.5666
26.5449
-5.52719
-5.49789
-5.52573
-5.71624
-5.77649
-5.4166
731.147
737.982
738.632
720.105
752.697
645.919
1006.67
1002.99
1001.87
1010.89
1028.9
975.348
7052.87
7029.06
7025.82
7061.28
7162.31
6895.01
6643.65
6617.25
6599.66
6709.26
6797.55
6642.55
2136.14
2135.75
2135.09
2140.91
2140.1
2140.93
18990.3
18991.9
18995.1
19024.9
19048.2
19009.1
5238.21
5257.8
5262.58
5196.02
5099.51
5327.68
22469.1
22464.7
22461.7
22482.1
22528.9
22418
19421.8
19435.5
19439.4
19393.4
19280.1
19563
-19.2476
-19.38
-19.1448
-18.2947
-17.9262
-17.7327
24102.9
24102.3
24101.8
24099.6
24095.9
24107.7
6100.13
6098.35
6098.13
6102.13
6106.86
6091.44
-41.3296
-41.3374
-41.2335
-40.9876
-40.8852
-40.5514
0.552209
0.552207
0.552206
0.552204
0.552203
0.552202
0.344599
0.344599
0.344599
0.344598
0.344598
0.344598
0.118456
0.118456
0.118456
0.118456
0.118456
0.118455
0.586554
0.586553
0.586553
0.586557
0.586562
0.586566
0.366364
0.366365
0.366366
0.366369
0.366371
0.366372
0.126509
0.126509
0.12651
0.12651
0.12651
0.12651
0.65894
0.658945
0.658958
0.658978
0.659
0.659017
0.4118
0.411803
0.411809
0.411817
0.411824
0.411828
0.14388
0.14388
0.143882
0.143883
0.143884
0.143884
0.77837
0.778387
0.77842
0.778463
0.778506
0.778536
0.484324
0.484332
0.484344
0.484358
0.484371
0.484379
0.173072
0.173073
0.173076
0.173079
0.173081
0.173082
0.961452
0.961479
0.961524
0.961576
0.961623
0.961652
0.589587
0.589596
0.589611
0.589629
0.589645
0.589653
0.218848
0.21885
0.218853
0.218857
0.21886
0.218861
1.23303
1.23305
1.23308
1.2331
1.23312
1.23313
0.740488
0.740495
0.740508
0.740521
0.74053
0.740533
0.286003
0.286005
0.286008
0.28601
0.28601
0.286008
1.63339
1.63339
1.63339
1.63338
1.63338
1.63338
0.962118
0.962128
0.962145
0.962161
0.962167
0.962169
0.38574
0.385749
0.385762
0.385768
0.385765
0.385737
2.26185
2.26185
2.26189
2.26194
2.26199
2.26203
1.29564
1.2957
1.29579
1.29588
1.2959
1.29591
0.490638
0.490703
0.49079
0.490843
0.490773
0.490769
3.11098
3.111
3.11105
3.11112
3.11118
3.11123
1.8156
1.81583
1.81625
1.81667
1.81687
1.81673
1.01221
1.01267
1.01399
1.01503
1.0155
1.01295
5.00423
5.00409
5.00367
5.00311
5.00273
5.00273
2.4809
2.48137
2.48241
2.48409
2.48545
2.48512
-0.0320275
-0.0322795
-0.0288819
-0.0189225
-0.0155427
-0.0214103
7.26226
7.26099
7.25846
7.25548
7.25268
7.25251
4.5279
4.52638
4.52247
4.51645
4.51774
4.51981
5.79148
5.79259
5.77727
5.73652
5.73016
5.72262
12.2105
12.2112
12.211
12.2104
12.2077
12.2096
6.8025
6.80698
6.80589
6.80978
6.83441
6.83182
-11.8013
-11.7822
-11.7494
-11.5753
-11.5318
-11.5236
)
;

boundaryField
{
    seabed_topleft_surface
    {
        type            fixedFluxPressure;
        gradient        uniform 0;
        value           nonuniform List<scalar> 
72
(
11437.7
11437.7
11437.7
11437.7
11437.6
11437.7
10975.2
10975.2
10975.2
10975.2
10975.1
10975.2
10522.8
10522.7
10522.7
10522.7
10522.7
10522.7
10706.2
10706.2
10706.2
10706.2
10706.1
10706.2
11351.2
11351.2
11351.2
11351.2
11351.2
11351.2
12261.6
12261.6
12261.5
12261.5
12261.5
12261.5
13401.8
13401.8
13401.8
13401.7
13401.7
13401.7
15040
15040
15039.9
15039.9
15039.9
15040
17362.8
17362.8
17362.7
17362.7
17362.7
17362.8
20693.3
20693.2
20693.2
20693.2
20693.2
20693.2
24857.9
24857.8
24857.8
24857.8
24857.8
24857.8
27291.6
27291.6
27291.6
27291.6
27291.6
27291.6
)
;
    }
    seabed_topright_surface
    {
        type            fixedFluxPressure;
        gradient        uniform 0;
        value           nonuniform List<scalar> 
72
(
1.02189
1.02189
1.02189
1.02188
1.02187
1.02187
1.07416
1.07416
1.07415
1.07413
1.0741
1.07409
1.17995
1.17994
1.17991
1.17985
1.17979
1.17974
1.34199
1.34195
1.34187
1.34175
1.34164
1.34155
1.56506
1.56499
1.56486
1.56471
1.56456
1.56446
1.85638
1.8563
1.85619
1.85608
1.85599
1.85595
2.22262
2.22258
2.22253
2.22252
2.22253
2.22256
2.66646
2.66641
2.66636
2.66634
2.66636
2.66638
3.179
3.17884
3.17867
3.17854
3.17843
3.17836
3.73978
3.73963
3.73937
3.73895
3.73843
3.73805
4.23676
4.2367
4.23666
4.23661
4.23657
4.23657
4.69952
4.69955
4.69977
4.70006
4.70028
4.70035
)
;
    }
    breakwater_top_surface
    {
        type            fixedFluxPressure;
        gradient        uniform 0;
        value           nonuniform List<scalar> 
36
(
17.8347
17.8299
17.824
17.7968
17.7332
17.79
28.5273
28.3031
28.2661
28.6261
29.5666
26.5449
1006.67
1002.99
1001.87
1010.89
1028.9
975.348
2136.14
2135.75
2135.09
2140.91
2140.1
2140.93
22469.1
22464.7
22461.7
22482.1
22528.9
22418
24102.9
24102.3
24101.8
24099.6
24095.9
24107.7
)
;
    }
    breakwater_left_surface
    {
        type            fixedFluxPressure;
        gradient        uniform 0;
        value           nonuniform List<scalar> 
24
(
27291.6
27291.6
27291.6
27291.6
27291.6
27291.6
30598.4
30598.5
30598.5
30598.5
30598.5
30598.4
32857
32857.2
32857.3
32857.1
32856.9
32857.5
34539.5
34538.7
34538.7
34539.2
34539.6
34538.5
)
;
    }
    breakwater_right_surface
    {
        type            fixedFluxPressure;
        gradient        uniform 0;
        value           nonuniform List<scalar> 
24
(
4.69952
4.69955
4.69977
4.70006
4.70028
4.70035
4.7008
4.70107
4.7014
4.70174
4.70195
4.70204
6.41144
6.41111
6.41141
6.41209
6.41307
6.41274
5.5639
5.56377
5.56342
5.56337
5.56216
5.56159
)
;
    }
    water_front_surface
    {
        type            fixedFluxPressure;
        gradient        uniform 0;
        value           nonuniform List<scalar> 
186
(
11437.7
10975.2
10522.8
10706.2
11351.2
12261.6
13401.8
15040
17362.8
20693.3
24857.9
27291.6
5103.91
2724.42
2249.78
2685.99
3594.92
4894.23
6446.3
6954.38
8305.04
14708.3
26295.9
30598.4
4.69803
8.22485
8.97592
9.35846
6.30307
0.806926
-5.5408
57.2933
223.972
734.398
17356
32857
6.91493
8.81208
9.20947
10.3551
9.94982
6.05172
-1.18314
-6.26305
2.65921
30.4077
2086.09
34539.5
1.02189
1.07416
1.17995
1.34199
1.56506
1.85638
2.22262
2.66646
3.179
3.73978
4.23676
4.69952
0.970887
1.02244
1.12761
1.29037
1.51508
1.80473
2.16504
2.5975
3.09361
3.67457
4.257
4.7008
0.872152
0.921008
1.02194
1.18213
1.41438
1.73702
2.1678
2.72965
3.41097
4.41072
5.17703
6.41144
0.73025
0.773553
0.863708
1.00773
1.21446
1.49444
1.8669
2.35618
2.97363
3.79793
4.85723
5.5639
2.53142
0.298059
-2.98657
3.34852
0.541518
-3.26745
2.88344
0.774277
-3.53862
2.35163
0.472826
-4.28101
1.38253
-0.150138
-4.78788
0.422086
-1.25489
-5.18944
-0.350401
-2.36864
-5.41132
-3.27894
-3.3122
-5.39374
0.71929
0.787571
-9.26148
-15.2307
2.24302
-1.01503
-17.6247
2.01355
-20.9242
25915.5
2788.11
-67.9189
17.8347
4.56566
23.2349
28.5273
-5.52719
731.147
1006.67
7052.87
6643.65
2136.14
18990.3
5238.21
22469.1
19421.8
-19.2476
24102.9
6100.13
-41.3296
0.552209
0.344599
0.118456
0.586554
0.366364
0.126509
0.65894
0.4118
0.14388
0.77837
0.484324
0.173072
0.961452
0.589587
0.218848
1.23303
0.740488
0.286003
1.63339
0.962118
0.38574
2.26185
1.29564
0.490638
3.11098
1.8156
1.01221
5.00423
2.4809
-0.0320275
7.26226
4.5279
5.79148
12.2105
6.8025
-11.8013
)
;
    }
    water_back_surface
    {
        type            fixedFluxPressure;
        gradient        uniform 0;
        value           nonuniform List<scalar> 
186
(
11437.7
10975.2
10522.7
10706.2
11351.2
12261.5
13401.7
15040
17362.8
20693.2
24857.8
27291.6
5103.87
2724.42
2249.75
2685.95
3594.87
4894.19
6446.27
6954.37
8304.98
14708.1
26295.9
30598.4
4.69727
8.22429
8.9752
9.35828
6.3029
0.806986
-5.53993
57.2937
223.973
734.349
17355.3
32857.5
6.91455
8.81137
9.20925
10.355
9.9494
6.05162
-1.18248
-6.26291
2.66044
30.4071
2085.69
34538.5
1.02187
1.07409
1.17974
1.34155
1.56446
1.85595
2.22256
2.66638
3.17836
3.73805
4.23657
4.70035
0.970848
1.02234
1.1274
1.2901
1.51493
1.80488
2.16537
2.59721
3.09156
3.66864
4.2587
4.70204
0.872114
0.920935
1.02185
1.18213
1.4146
1.73732
2.16756
2.72853
3.41241
4.41637
5.17837
6.41274
0.730225
0.773531
0.863766
1.00797
1.2149
1.49481
1.86679
2.35579
2.9732
3.79701
4.85325
5.56159
2.5309
0.297894
-2.98645
3.34826
0.54157
-3.26742
2.88357
0.774433
-3.53872
2.35172
0.472766
-4.281
1.38203
-0.150551
-4.78767
0.421846
-1.25483
-5.18945
-0.349839
-2.36767
-5.41158
-3.27888
-3.31153
-5.39364
0.718793
0.787914
-9.25972
-15.2315
2.24612
-1.01252
-17.5975
2.02733
-20.8946
25918.5
2781.78
-67.7595
17.79
4.86514
23.472
26.5449
-5.4166
645.919
975.348
6895.01
6642.55
2140.93
19009.1
5327.68
22418
19563
-17.7327
24107.7
6091.44
-40.5514
0.552202
0.344598
0.118455
0.586566
0.366372
0.12651
0.659017
0.411828
0.143884
0.778536
0.484379
0.173082
0.961652
0.589653
0.218861
1.23313
0.740533
0.286008
1.63338
0.962169
0.385737
2.26203
1.29591
0.490769
3.11123
1.81673
1.01295
5.00273
2.48512
-0.0214103
7.25251
4.51981
5.72262
12.2096
6.83182
-11.5236
)
;
    }
    water_left_surface
    {
        type            fixedFluxPressure;
        gradient        uniform 0;
        value           nonuniform List<scalar> 
42
(
11437.7
11437.7
11437.7
11437.7
11437.6
11437.7
5103.91
5103.94
5103.91
5103.86
5103.86
5103.87
4.69803
4.69854
4.69848
4.69832
4.69805
4.69727
6.91493
6.91495
6.9149
6.91485
6.91473
6.91455
2.53142
2.53127
2.5311
2.53099
2.53093
2.5309
0.298059
0.297976
0.297922
0.297884
0.297866
0.297894
-2.98657
-2.98663
-2.98658
-2.98655
-2.98654
-2.98645
)
;
    }
    water_right_surface
    {
        type            fixedFluxPressure;
        gradient        uniform 0;
        value           nonuniform List<scalar> 
42
(
1.02189
1.02189
1.02189
1.02188
1.02187
1.02187
0.970887
0.970883
0.970875
0.970864
0.970854
0.970848
0.872152
0.872147
0.872138
0.872128
0.872119
0.872114
0.73025
0.730246
0.73024
0.730234
0.730228
0.730225
0.552209
0.552207
0.552206
0.552204
0.552203
0.552202
0.344599
0.344599
0.344599
0.344598
0.344598
0.344598
0.118456
0.118456
0.118456
0.118456
0.118456
0.118455
)
;
    }
    water_top_surface
    {
        type            totalPressure;
        rho             rho;
        psi             none;
        gamma           1;
        p0              uniform 0;
        value           nonuniform List<scalar> 
180
(
-4.35595
-4.35626
-4.3561
-4.35602
-4.35605
-4.35561
-4.69421
-4.69462
-4.69453
-4.69451
-4.69459
-4.69418
-4.47527
-4.47575
-4.47577
-4.47582
-4.47592
-4.47554
-5.34202
-5.34265
-5.34268
-5.34271
-5.34276
-5.34218
-5.58184
-5.58223
-5.58212
-5.58206
-5.58206
-5.58146
-6.36982
-6.36992
-6.3698
-6.36985
-6.37011
-6.36983
-6.88558
-6.88599
-6.88602
-6.88627
-6.88664
-6.88619
-6.39631
-6.39676
-6.3968
-6.39691
-6.39721
-6.39604
-7.50648
-7.50671
-7.50687
-7.50681
-7.50722
-7.5056
0
0
0
0
0
0
0
0
0
0
0
0
0
0
0
0
0
0
-1.47707
-1.4712
-1.48252
-1.46848
-1.40063
-1.58767
0
0
0
0
0
0
0
0
0
0
0
0
0
0
0
0
0
0
-2.30305
-2.28849
-2.28684
-2.28129
-2.31494
-2.19857
0
0
0
0
0
0
-0.000274723
-0.000274812
-0.000274889
-0.000274986
-0.000275092
-0.000275153
-0.000312965
-0.000313107
-0.000313189
-0.000313272
-0.000313354
-0.00031337
-0.000397799
-0.000397941
-0.000397951
-0.000397932
-0.000397882
-0.000397713
-0.000554502
-0.000554514
-0.000554342
-0.000554125
-0.000553868
-0.000553477
-0.000838195
-0.000838029
-0.000837722
-0.000837429
-0.000837173
-0.000836849
-0.00139993
-0.00140001
-0.00140002
-0.00140014
-0.00140036
-0.00140037
-0.00258549
-0.00258642
-0.00258693
-0.00258734
-0.00258745
-0.00258643
-0.00575633
-0.00575694
-0.00575613
-0.00575409
-0.00575182
-0.00574758
-0.0129153
-0.0129122
-0.0129071
-0.0129
-0.0128937
-0.0129035
-0.0618109
-0.0618134
-0.0618195
-0.061797
-0.0618734
-0.061732
-0.1515
-0.15157
-0.151522
-0.151745
-0.1523
-0.151424
-2.20518
-2.20631
-2.20594
-2.20353
-2.21855
-2.18403
)
;
    }
}


// ************************************************************************* //
