/*--------------------------------*- C++ -*----------------------------------*\
| =========                 |                                                 |
| \\      /  F ield         | OpenFOAM: The Open Source CFD Toolbox           |
|  \\    /   O peration     | Version:  v1612+                                |
|   \\  /    A nd           | Web:      www.OpenFOAM.com                      |
|    \\/     M anipulation  |                                                 |
\*---------------------------------------------------------------------------*/
FoamFile
{
    version     2.0;
    format      ascii;
    class       surfaceScalarField;
    location    "3.05";
    object      phi;
}
// * * * * * * * * * * * * * * * * * * * * * * * * * * * * * * * * * * * * * //

dimensions      [0 3 -1 0 0 0 0];

internalField   nonuniform List<scalar> 
2916
(
-3.5736e-06
0.449111
-0.449108
3.35079e-06
0.44911
-0.449117
1.26595e-06
0.449111
-0.449109
-3.18791e-06
0.449115
-0.449111
7.58197e-07
0.449116
-0.44912
0.449106
-0.449105
4.48492e-07
0.874627
-0.425516
2.25917e-06
0.874633
-0.425524
-7.40842e-07
0.874633
-0.425519
-2.62997e-06
0.874637
-0.42552
3.30604e-07
0.874639
-0.425526
0.874625
-0.425519
4.13e-07
1.14909
-0.274464
2.10175e-06
1.1491
-0.274471
-1.10799e-07
1.1491
-0.274467
-9.33025e-07
1.1491
-0.274466
1.68776e-06
1.14911
-0.27447
1.14909
-0.274465
-1.39298e-06
1.34564
-0.196549
1.60994e-06
1.34566
-0.196558
4.81439e-07
1.34566
-0.196554
-5.11285e-07
1.34566
-0.196552
2.29291e-06
1.34566
-0.196556
1.34564
-0.196549
-3.40616e-06
1.51165
-0.166003
-1.29896e-07
1.51167
-0.166013
-7.39586e-07
1.51167
-0.166008
-1.6137e-06
1.51166
-0.166007
2.12482e-06
1.51167
-0.16601
1.51165
-0.166003
-5.33709e-06
1.66365
-0.151997
-2.41565e-06
1.66367
-0.152009
-2.86145e-06
1.66367
-0.152005
-2.8934e-06
1.66367
-0.152004
2.50411e-06
1.66367
-0.152008
1.66365
-0.151998
-8.22808e-06
1.78032
-0.116663
-4.28646e-06
1.78034
-0.116674
-4.97304e-06
1.78034
-0.11667
-4.31436e-06
1.78034
-0.11667
3.80931e-06
1.78034
-0.116675
1.78031
-0.116662
-7.73154e-06
1.79489
-0.0145594
-4.44157e-06
1.79491
-0.01457
-5.14833e-06
1.79491
-0.0145665
-4.17048e-06
1.7949
-0.0145674
1.08498e-06
1.7949
-0.0145732
1.79488
-0.0145605
-6.31783e-06
1.51248
0.282412
-4.25248e-06
1.51252
0.28239
-6.25685e-06
1.51252
0.282396
-5.99161e-06
1.51251
0.282393
-3.33698e-06
1.51252
0.28238
1.51247
0.282403
-3.45905e-06
0.81982
0.692667
-1.65434e-06
0.819864
0.692652
-4.69171e-06
0.819864
0.692655
-6.23389e-06
0.81986
0.692653
-6.76063e-06
0.819878
0.692643
0.819806
0.692657
9.00593e-06
0.123025
0.696786
4.08125e-06
0.123065
0.696804
2.06742e-06
0.123068
0.696798
-8.47161e-07
0.123067
0.696796
-1.05697e-05
0.123089
0.696798
0.123015
0.69678
-2.61611e-05
0.123051
-2.02765e-05
0.12306
-1.17086e-05
0.123059
-1.13625e-06
0.123057
2.49548e-05
0.123063
0.12304
-9.03944e-07
0.592146
-1.04125
-2.29685e-06
0.592142
-1.04126
-1.98715e-06
0.592151
-1.04126
1.33755e-05
0.592142
-1.04127
2.48807e-05
0.592136
-1.04127
0.592171
-1.04125
1.10292e-05
1.12935
-0.962732
-8.0101e-06
1.12936
-0.962726
7.77993e-06
1.12936
-0.962741
2.20579e-05
1.12935
-0.962743
-5.13975e-06
1.12936
-0.962721
1.12937
-0.962721
2.4629e-05
1.51657
-0.661703
-1.34046e-06
1.5166
-0.661683
1.45892e-05
1.51658
-0.661703
2.08232e-05
1.51658
-0.661698
-2.723e-05
1.5166
-0.661664
1.51657
-0.661692
3.08112e-05
1.79958
-0.47959
3.01492e-06
1.79963
-0.479564
1.72268e-05
1.7996
-0.479589
2.00882e-05
1.7996
-0.479577
-3.04901e-05
1.79963
-0.479539
1.79957
-0.479585
3.26477e-05
2.08022
-0.446683
3.80661e-06
2.0803
-0.44665
1.74002e-05
2.08026
-0.446681
2.19615e-05
2.08026
-0.446671
-2.45933e-05
2.0803
-0.446628
2.08023
-0.44668
2.68832e-05
2.37687
-0.44867
1.92466e-06
2.37696
-0.448645
1.73576e-05
2.37692
-0.448679
2.59225e-05
2.37692
-0.448672
-1.18194e-05
2.37696
-0.44863
2.37688
-0.448668
2.44719e-05
2.64434
-0.38416
4.36154e-06
2.64446
-0.384151
1.97722e-05
2.64441
-0.384176
2.90977e-05
2.64441
-0.384173
2.48729e-07
2.64445
-0.384142
2.64438
-0.384153
2.66043e-05
2.79108
-0.161328
1.3509e-05
2.79124
-0.161333
2.63109e-05
2.79118
-0.16135
3.13752e-05
2.79118
-0.161345
8.13491e-06
2.79122
-0.161321
2.79114
-0.161319
3.55862e-05
2.56015
0.513308
1.99185e-05
2.56032
0.513318
2.71083e-05
2.56027
0.5133
2.7477e-05
2.56027
0.513305
4.20973e-06
2.56031
0.51332
2.56022
0.513328
4.40238e-05
1.72782
1.52495
1.90408e-05
1.728
1.525
1.506e-05
1.72795
1.52498
8.16412e-06
1.72795
1.52498
-2.09655e-05
1.72799
1.52499
1.72789
1.52497
4.30491e-05
0.804875
1.61969
1.33691e-05
0.805054
1.61978
4.74248e-06
0.80501
1.61974
-3.02441e-06
0.805009
1.61975
-3.13448e-05
0.805049
1.61977
0.804922
1.61971
-7.5911e-05
0.928002
-2.86522e-05
0.928066
-8.11395e-06
0.928049
7.4888e-06
0.92805
5.18203e-05
0.928069
0.928014
-9.44648e-05
0.730876
-1.77203
-5.60329e-05
0.73086
-1.77215
-1.21221e-05
0.730864
-1.77216
5.78682e-05
0.730835
-1.77217
0.000124973
0.730825
-1.77215
0.730917
-1.77204
-0.000108637
1.50318
-1.73493
-5.32512e-05
1.50312
-1.73504
2.63582e-06
1.50311
-1.73504
5.8906e-05
1.50307
-1.73503
0.000117383
1.50307
-1.73503
1.5032
-1.73489
-9.97182e-05
2.38931
-1.54772
-4.56933e-05
2.38922
-1.54784
-2.53783e-06
2.3892
-1.54784
3.54745e-05
2.38917
-1.54784
9.79826e-05
2.38917
-1.54783
2.38931
-1.5477
-0.000112787
3.64625
-1.73642
-4.06277e-05
3.64614
-1.73656
9.64022e-06
3.64613
-1.73657
5.27975e-05
3.64612
-1.73657
0.000134815
3.64611
-1.73656
3.64626
-1.7364
-0.000135618
5.21981
-2.02011
-5.61571e-05
5.21966
-2.02025
-1.8752e-06
5.21967
-2.02027
5.24741e-05
5.21966
-2.02027
0.000145833
5.21965
-2.02026
5.21983
-2.0201
-0.000141612
7.11512
-2.34385
-6.75567e-05
7.11494
-2.344
-5.86476e-06
7.11496
-2.34404
6.04859e-05
7.11495
-2.34404
0.000145677
7.11494
-2.34401
7.11516
-2.34386
-8.36407e-05
8.82575
-2.0947
-8.5587e-05
8.82561
-2.09482
-2.76904e-05
8.82562
-2.09489
4.07915e-05
8.82562
-2.0949
0.000104026
8.8256
-2.09486
8.82582
-2.0947
0.000119042
8.00168
0.662617
8.24438e-06
8.00185
0.662533
-5.95565e-06
8.00178
0.662502
-1.33684e-05
8.00176
0.66252
-4.52476e-07
8.00177
0.662502
8.00177
0.662724
0.000183287
4.25795
4.25686
2.19972e-05
4.25837
4.25696
-3.61379e-06
4.25822
4.25689
-1.2e-05
4.2582
4.25688
-9.31306e-05
4.25826
4.25691
4.25812
4.25688
2.67053e-05
1.56632
4.21655
3.18662e-05
1.56658
4.21679
8.00221e-06
1.56649
4.21673
-1.56929e-06
1.56648
4.2167
-1.11988e-05
1.56652
4.21675
1.56644
4.21665
0.000156102
0.632595
2.55326
4.9564e-05
0.632849
2.55362
1.7555e-05
0.632766
2.5535
-4.40189e-06
0.632763
2.55349
-8.2307e-05
0.632812
2.55355
0.632663
2.55341
-0.000109239
1.56071
-1.88925e-05
1.56082
-6.72524e-06
1.5608
1.76306e-05
1.56079
0.000105951
1.56079
1.56078
-5.44504e-05
-0.311247
-1.46073
-9.27228e-06
-0.311269
-1.46092
1.47073e-05
-0.311276
-1.46091
2.27414e-05
-0.311276
-1.4609
4.32527e-05
-0.311266
-1.46091
-0.311264
-1.46073
-3.20957e-05
-0.593406
-1.45273
-2.27255e-06
-0.593416
-1.45292
7.48762e-06
-0.593431
-1.45289
5.31775e-06
-0.593428
-1.45288
2.4167e-05
-0.593403
-1.45291
-0.593437
-1.4527
1.14181e-05
-0.822858
-1.31828
3.85225e-05
-0.82279
-1.31849
2.25712e-05
-0.822795
-1.31846
5.33188e-06
-0.822788
-1.31846
2.59067e-05
-0.822754
-1.3185
-0.822854
-1.31826
-2.98432e-05
-0.861344
-1.6979
1.33581e-06
-0.861234
-1.69815
-1.35014e-05
-0.861229
-1.69812
-1.2807e-05
-0.861224
-1.69813
5.03284e-05
-0.861192
-1.69819
-0.861304
-1.6979
-8.6435e-05
-0.938785
-1.94258
-3.81133e-05
-0.9387
-1.94283
-4.77745e-05
-0.938681
-1.94281
-3.45497e-05
-0.938682
-1.94282
6.65077e-05
-0.938668
-1.94288
-0.938732
-1.9426
-0.000104901
-0.911726
-2.3708
-4.18783e-05
-0.911724
-2.37104
-3.47052e-05
-0.911696
-2.37103
-1.84524e-05
-0.91169
-2.37104
6.80273e-05
-0.91168
-2.37108
-0.911672
-2.37085
-0.000104271
-0.227953
-2.77837
-3.5965e-05
-0.22808
-2.77854
4.22816e-06
-0.228045
-2.77858
2.54664e-05
-0.22798
-2.77863
0.000142412
-0.227985
-2.77868
-0.227798
-2.77843
4.52943e-05
2.13824
-1.70362
5.37809e-05
2.13822
-1.70377
6.43834e-05
2.13823
-1.70378
2.37376e-05
2.13833
-1.70375
1.23547e-05
2.13841
-1.70387
2.1384
-1.70346
0.000169966
3.38314
3.01179
0.000112423
3.38348
3.01174
5.11739e-05
3.38338
3.01179
-3.60139e-05
3.38337
3.01192
-0.000298047
3.38345
3.01212
3.38329
3.01169
0.000241543
1.96591
5.63354
0.000103602
1.96627
5.63414
5.30369e-05
1.96616
5.63401
2.18758e-05
1.96609
5.63401
-5.71726e-05
1.96611
5.63417
1.9661
5.63377
0.000173459
0.440017
4.07898
8.12609e-05
0.440188
4.07979
1.16712e-05
0.44014
4.07959
-5.86727e-06
0.440094
4.0795
-2.63868e-05
0.440106
4.07957
0.440099
4.07938
-1.85688e-05
2.00074
1.8677e-05
2.00098
4.89015e-05
2.00091
2.33411e-05
2.00091
-0.00012589
2.00105
2.00076
-1.3406e-06
0.00213359
-0.00213225
-2.75294e-06
0.00213288
-0.00213266
-3.1873e-06
0.00213226
-0.00213274
-2.93014e-06
0.0021318
-0.00213277
-1.98478e-06
0.00213128
-0.00213284
0.00213029
-0.0021328
-2.30574e-06
0.00432402
-0.00218912
-3.37947e-06
0.00432302
-0.00218958
-3.71829e-06
0.00432207
-0.00218973
-3.43435e-06
0.00432126
-0.00218993
-2.4464e-06
0.00432037
-0.00219028
0.00431848
-0.00219066
-2.20518e-06
0.00660174
-0.00227566
-3.33948e-06
0.00659944
-0.00227425
-4.07554e-06
0.00659705
-0.00227342
-3.95829e-06
0.00659482
-0.00227307
-2.71593e-06
0.00659249
-0.00227296
0.00658864
-0.00227261
-2.86682e-06
0.00898208
-0.00237673
-6.08105e-06
0.00897536
-0.00237204
-8.31741e-06
0.00896916
-0.00236955
-8.56103e-06
0.00896342
-0.00236826
-6.09624e-06
0.00895785
-0.00236775
0.00895027
-0.00236761
-1.01804e-05
0.0114118
-0.0024191
-1.88195e-05
0.0113951
-0.0024122
-2.33758e-05
0.011382
-0.00240926
-2.30149e-05
0.0113707
-0.00240835
-1.63199e-05
0.0113601
-0.00240931
0.0113464
-0.00241241
-3.2148e-05
0.0138135
-0.00237014
-4.82608e-05
0.0137813
-0.00237238
-5.27496e-05
0.0137612
-0.0023762
-4.82308e-05
0.0137467
-0.00238149
-3.31396e-05
0.0137339
-0.00238936
0.0137144
-0.0024015
-6.43733e-05
0.0161502
-0.00227347
-7.99438e-05
0.0161035
-0.00230868
-7.4781e-05
0.0160862
-0.0023315
-5.97741e-05
0.0160813
-0.00235046
-3.73061e-05
0.0160795
-0.00236893
0.0160659
-0.00238931
-7.21756e-05
0.0180777
-0.00185634
-6.13208e-05
0.0180285
-0.00193687
-2.9129e-05
0.0180298
-0.00197653
-4.4266e-07
0.0180518
-0.00199969
1.22309e-05
0.0180787
-0.00201242
0.0180933
-0.00201527
-3.68968e-06
0.0189246
-0.00084357
6.35159e-05
0.0188919
-0.000930448
0.000132494
0.0189178
-0.000956823
0.000165139
0.0189742
-0.000954907
0.00013376
0.019043
-0.000932438
0.0191146
-0.000887303
0.000110858
0.019519
-0.000705307
0.000250701
0.0195216
-0.000768915
0.000350839
0.0195553
-0.000737009
0.000375449
0.0196105
-0.000660476
0.000280554
0.0196854
-0.000546893
0.0197911
-0.000395993
0.000214619
0.00850934
0.0107953
0.000316832
0.00851838
0.0109013
0.000352936
0.00853496
0.0109848
0.000332866
0.00856104
0.01107
0.000231033
0.00860717
0.0111811
0.00869002
0.011333
6.78832e-05
0.00844185
3.55733e-05
0.00855133
-6.90683e-06
0.00857781
-3.03529e-05
0.00858423
-2.41527e-05
0.00859964
0.00866585
-1.45765e-06
0.00230882
-0.00444045
-2.75447e-06
0.00230766
-0.00444086
-3.05027e-06
0.00230691
-0.00444076
-2.70341e-06
0.00230634
-0.00444062
-1.83857e-06
0.00230582
-0.00444051
0.00230493
-0.00444007
-2.2893e-06
0.00472307
-0.00460215
-3.27636e-06
0.0047209
-0.00460222
-3.45737e-06
0.00471927
-0.00460209
-2.99421e-06
0.00471787
-0.00460205
-1.97746e-06
0.00471657
-0.00460221
0.00471461
-0.00460222
-3.64614e-06
0.00733545
-0.00488382
-5.24268e-06
0.00733083
-0.0048811
-5.7275e-06
0.00732703
-0.00487959
-5.10832e-06
0.00732365
-0.00487867
-3.29786e-06
0.00732057
-0.00487822
0.00731663
-0.00487755
-8.36802e-06
0.0103369
-0.00536879
-1.27634e-05
0.0103257
-0.00536182
-1.4062e-05
0.0103172
-0.00535806
-1.26619e-05
0.01031
-0.00535573
-8.28997e-06
0.0103037
-0.00535483
0.0102963
-0.00535503
-2.23917e-05
0.0141788
-0.00623906
-3.11608e-05
0.0141527
-0.00623156
-3.19632e-05
0.014136
-0.00622805
-2.7528e-05
0.0141238
-0.00622679
-1.77463e-05
0.0141139
-0.0062288
0.0141016
-0.00623506
-4.79738e-05
0.0192758
-0.00742072
-5.71589e-05
0.0192222
-0.00743456
-5.13741e-05
0.019197
-0.00744409
-3.96011e-05
0.0191841
-0.00745394
-2.38685e-05
0.0191764
-0.00746778
0.0191645
-0.00748854
-6.97689e-05
0.0255774
-0.00850698
-6.08836e-05
0.0254882
-0.00858488
-3.2884e-05
0.0254635
-0.00862699
-8.15444e-06
0.0254656
-0.00865749
3.80154e-06
0.0254792
-0.00868448
0.0254889
-0.00871023
-3.77228e-05
0.0322457
-0.00848784
2.61263e-05
0.0321378
-0.00865093
9.92598e-05
0.032132
-0.00871891
0.000137452
0.0321757
-0.00874865
0.000114752
0.0322416
-0.00875245
0.0323135
-0.00872587
7.30038e-05
0.0354285
-0.0040996
0.000219915
0.0353548
-0.00429475
0.000333563
0.0353899
-0.00432863
0.000369194
0.0354782
-0.00429311
0.000279963
0.0355972
-0.00419908
0.0357379
-0.00403194
0.000223917
0.0326073
0.00189258
0.000345554
0.0325893
0.00187488
0.00038445
0.0326609
0.00195371
0.000349469
0.0327808
0.00207245
0.000227523
0.0329424
0.00222961
0.0331397
0.00242972
0.000126823
0.0241573
0.0191193
0.00011676
0.024212
0.019289
5.62888e-05
0.0243099
0.019397
-4.98361e-06
0.0244286
0.019483
-4.18622e-05
0.0245782
0.0195812
0.0247416
0.0196887
-0.000185832
0.0327848
-0.000353308
0.0329316
-0.000458581
0.0329946
-0.000458504
0.0330134
-0.000338413
0.0330569
0.0330691
-9.84692e-07
0.00237391
-0.00681433
-1.98025e-06
0.00237314
-0.00681498
-2.11586e-06
0.00237279
-0.00681489
-1.74202e-06
0.00237261
-0.00681477
-1.08552e-06
0.0023726
-0.00681468
0.00237255
-0.00681406
-1.77812e-06
0.00489376
-0.00712134
-2.27275e-06
0.00489248
-0.00712153
-2.16896e-06
0.00489168
-0.00712131
-1.64961e-06
0.00489112
-0.00712121
-9.4625e-07
0.00489088
-0.00712131
0.00489064
-0.00712104
-3.16138e-06
0.00764944
-0.00763574
-3.89061e-06
0.00764685
-0.00763337
-3.84803e-06
0.00764488
-0.00763182
-3.12646e-06
0.00764335
-0.00763089
-1.81152e-06
0.00764243
-0.0076305
0.00764161
-0.00762986
-7.31705e-06
0.0105999
-0.00831102
-9.45305e-06
0.0105936
-0.00830558
-9.29042e-06
0.0105897
-0.00830244
-7.46228e-06
0.0105872
-0.00830073
-4.27023e-06
0.0105858
-0.00830055
0.0105845
-0.00830151
-1.54842e-05
0.0133185
-0.00894232
-1.69491e-05
0.0133033
-0.00894003
-1.36145e-05
0.0132981
-0.00893953
-8.58251e-06
0.0132969
-0.00894081
-3.55143e-06
0.0132982
-0.0089451
0.0132993
-0.00895298
-1.57563e-05
0.015293
-0.00938023
-6.92187e-06
0.0152628
-0.00940323
6.77724e-06
0.0152587
-0.00941819
1.60776e-05
0.0152659
-0.009432
1.58351e-05
0.0152786
-0.00944801
0.0152932
-0.00946692
2.30532e-05
0.0162526
-0.00949036
6.33876e-05
0.0162063
-0.00956922
9.34863e-05
0.0162129
-0.00961175
0.000100871
0.0162422
-0.00964214
7.53103e-05
0.0162838
-0.00966502
0.0163355
-0.00967782
0.000129813
0.0159041
-0.00826933
0.000214992
0.0158647
-0.00839462
0.000252818
0.0159002
-0.00844467
0.00023789
0.0159706
-0.00846298
0.000159764
0.0160625
-0.00845362
0.0161778
-0.00840941
0.000250651
0.014152
-0.00259816
0.000320648
0.0141743
-0.0026741
0.000301738
0.0142611
-0.0026705
0.000224083
0.0143841
-0.00262888
0.000107497
0.0145302
-0.002551
0.0146906
-0.00243662
0.00028081
0.0161264
-0.000362649
0.000362346
0.0162756
-0.000308068
0.000337179
0.0164446
-0.000203969
0.000241244
0.0166261
-7.39966e-05
0.000117001
0.0168023
8.17274e-05
0.01697
0.000267546
2.86388e-05
-0.0150659
0.0502833
-7.68452e-05
-0.0148761
0.0505466
-0.000194428
-0.0147248
0.0506851
-0.000252908
-0.0145924
0.0507595
-0.000207694
-0.0145049
0.0508438
-0.0144187
0.0508692
-0.000296297
0.0180148
-0.000503178
0.0182614
-0.000575842
0.0183418
-0.000553645
0.0183988
-0.000202348
0.0182011
0.0184479
-7.66689e-07
0.00231012
-0.00912481
-1.41734e-06
0.00230935
-0.00912561
-1.36727e-06
0.0023092
-0.0091255
-9.84551e-07
0.00230931
-0.00912541
-5.34658e-07
0.00230961
-0.00912538
0.00230987
-0.00912453
-1.47451e-06
0.00485658
-0.00966741
-1.5076e-06
0.00485525
-0.0096678
-1.09776e-06
0.0048549
-0.00966756
-5.23591e-07
0.00485497
-0.00966746
-6.25998e-08
0.0048554
-0.0096675
0.00485581
-0.0096668
-2.64541e-06
0.00794032
-0.0107162
-2.55272e-06
0.00793803
-0.0107151
-1.87115e-06
0.00793732
-0.0107142
-1.01814e-06
0.00793733
-0.0107136
-3.02721e-07
0.00793795
-0.0107134
0.00793847
-0.0107126
-4.4062e-06
0.0120998
-0.0124652
-4.3278e-06
0.0120958
-0.0124627
-2.73836e-06
0.012095
-0.0124612
-1.06754e-06
0.0120959
-0.0124604
3.19551e-08
0.0120978
-0.0124607
0.0120989
-0.0124614
-3.20643e-06
0.0183388
-0.015178
3.95818e-07
0.018332
-0.0151794
5.07901e-06
0.0183323
-0.0151808
8.04736e-06
0.0183365
-0.0151833
7.21726e-06
0.0183423
-0.0151877
0.0183468
-0.0151936
1.27141e-05
0.027683
-0.0187372
2.90752e-05
0.027673
-0.01876
4.06026e-05
0.0276781
-0.0187748
4.32792e-05
0.0276911
-0.0187889
3.2075e-05
0.0277087
-0.0188035
0.0277283
-0.0188166
5.6607e-05
0.0408274
-0.0226915
9.45996e-05
0.0408248
-0.0227589
0.000112783
0.040844
-0.0227962
0.000109073
0.0408767
-0.0228247
7.57131e-05
0.0409208
-0.0228443
0.0409756
-0.0228495
0.000115766
0.0585491
-0.0261072
0.000167749
0.0585876
-0.0262097
0.000178114
0.0586382
-0.0262499
0.000158129
0.0587003
-0.0262669
0.00010006
0.0587811
-0.0262557
0.0588774
-0.0262107
0.000119932
0.0763951
-0.0205645
0.00013704
0.0765212
-0.0206245
0.000104558
0.0766064
-0.020606
6.44362e-05
0.0766703
-0.0205583
1.55109e-05
0.0767464
-0.0204673
0.0768027
-0.0203445
-5.03237e-06
0.0896055
-0.0135678
-9.25362e-05
0.0897803
-0.0134785
-0.000195443
0.0898522
-0.0133458
-0.000228556
0.0898608
-0.0132313
-0.000209215
0.0898851
-0.0130751
0.0898105
-0.0129499
-0.000324443
0.0866718
0.053542
-0.000478044
0.0868008
0.0536801
-0.000528434
0.086819
0.0537691
-0.000441672
0.0867472
0.0537875
-0.000300158
0.0867275
0.0538608
0.0865651
0.0538158
-0.000293661
0.104981
-0.000324829
0.105093
-0.000266055
0.1051
-0.000102074
0.104982
-0.000269575
0.105094
0.104743
2.36669e-05
-1.55039
0.0896434
1.48501e-05
-1.55056
0.08965
-5.38803e-06
-1.55054
0.0896502
-2.11682e-05
-1.55053
0.0896508
-2.40312e-05
-1.55056
0.0896523
-1.5504
0.0896365
3.10831e-05
-1.57467
0.0242425
9.24035e-06
-1.57479
0.0242433
-4.35255e-06
-1.57477
0.0242424
-1.52858e-05
-1.57477
0.0242431
-3.26857e-05
-1.57479
0.0242433
-1.57467
0.0242359
2.24117e-05
0.025353
4.88976e-06
0.0253517
-3.84697e-06
0.0253523
-1.11617e-05
0.0253523
-2.70345e-05
0.0253521
0.0253536
2.40133e-05
-1.61307
0.249956
4.10649e-06
-1.61323
0.249982
-1.1838e-05
-1.6132
0.249981
-1.84838e-05
-1.6132
0.249976
-2.72976e-05
-1.61323
0.249978
-1.61304
0.24995
2.59854e-05
-1.64963
0.0607745
5.25241e-06
-1.64975
0.0607785
-7.57409e-06
-1.64973
0.0607781
-1.90705e-05
-1.64973
0.0607795
-4.04842e-05
-1.64975
0.0607818
-1.64961
0.0607733
2.28466e-05
0.0374776
5.66404e-06
0.0374759
-4.50068e-06
0.037477
-1.40598e-05
0.0374778
-3.07166e-05
0.0374783
0.037481
2.5141e-05
-1.52917
0.460817
6.47391e-06
-1.52934
0.460851
-5.15178e-06
-1.52931
0.460844
-1.68323e-05
-1.52931
0.46084
-3.68472e-05
-1.52935
0.460844
-1.52914
0.4608
2.96795e-05
-1.60619
0.137761
1.1627e-05
-1.6063
0.137757
1.34297e-06
-1.60628
0.13776
-1.22992e-05
-1.60628
0.137763
-4.05785e-05
-1.6063
0.137767
-1.60618
0.13777
2.3004e-05
0.0577394
6.86149e-06
0.0577386
-2.6445e-06
0.0577392
-1.09317e-05
0.0577394
-2.62231e-05
0.0577395
0.0577406
3.27701e-05
-1.82792
0.590797
1.55782e-05
-1.82811
0.590833
-1.35582e-06
-1.82808
0.590822
-2.28816e-05
-1.82809
0.590817
-5.38592e-05
-1.82813
0.59082
-1.82792
0.59077
4.26946e-05
-1.79491
0.10471
2.61398e-05
-1.79503
0.104698
1.38004e-05
-1.79501
0.104704
-4.40243e-06
-1.79502
0.104709
-3.96885e-05
-1.79504
0.10471
-1.79493
0.10473
2.6982e-05
0.0396236
8.04682e-06
0.0396226
-2.21783e-07
0.0396208
-7.7333e-06
0.0396193
-2.64857e-05
0.0396186
0.0396178
3.57173e-05
-1.91355
0.561729
1.85045e-05
-1.91374
0.561765
1.02968e-06
-1.91372
0.56175
-2.25382e-05
-1.91373
0.561745
-5.07048e-05
-1.91378
0.561745
-1.91358
0.561694
4.59835e-05
-1.83913
0.0302496
2.58571e-05
-1.83925
0.0302301
1.13281e-05
-1.83924
0.030239
-6.72983e-06
-1.83924
0.0302433
-4.00486e-05
-1.83927
0.0302381
-1.83916
0.0302683
2.39259e-05
0.0176719
5.30771e-06
0.0176718
-1.41823e-06
0.0176691
-7.66361e-06
0.0176673
-2.75458e-05
0.0176673
0.0176644
3.35473e-05
-2.06925
0.260145
1.55682e-05
-2.06942
0.26017
2.98943e-06
-2.0694
0.260141
-5.4373e-06
-2.0694
0.260119
-2.34938e-05
-2.06943
0.260119
-2.06928
0.260098
3.13408e-05
-1.96995
-0.069079
9.50533e-06
-1.97007
-0.0690969
2.41697e-06
-1.97006
-0.0690892
-1.83002e-06
-1.97006
-0.069086
-2.21041e-05
-1.97008
-0.0690924
-1.96996
-0.0690741
1.83298e-05
-0.0151206
1.06791e-06
-0.0151193
-6.02228e-06
-0.0151201
-9.95895e-06
-0.0151225
-2.4798e-05
-0.0151208
-0.0151268
-7.68693e-06
-2.13493
-0.383285
1.18825e-05
-2.13506
-0.383322
5.32836e-06
-2.13507
-0.383357
1.05808e-05
-2.1351
-0.383423
5.64591e-05
-2.13514
-0.383472
-2.13495
-0.383325
1.28132e-05
-1.95487
-0.249147
1.21654e-05
-1.95498
-0.249178
9.86814e-06
-1.95496
-0.249192
7.70172e-06
-1.95496
-0.249219
-1.56963e-05
-1.95496
-0.24924
-1.95482
-0.249215
1.40163e-05
0.0401095
-4.11293e-07
0.0401164
-1.08831e-05
0.0401164
-1.97551e-05
0.0401125
-3.45489e-05
0.0401182
0.0401021
-9.39682e-06
-2.46674
0.379838
7.22304e-05
-2.4669
0.379729
6.85703e-05
-2.46691
0.379778
-6.44778e-06
-2.4669
0.379805
-0.000217046
-2.46704
0.379906
-2.46669
0.379683
2.16175e-06
-1.91283
-0.803056
-2.09401e-05
-1.91293
-0.803127
-5.07123e-05
-1.91293
-0.803151
-3.84192e-05
-1.91294
-0.803201
-8.43612e-05
-1.91301
-0.803224
-1.91278
-0.803208
2.13347e-05
0.0642435
4.7999e-07
0.0642356
-1.1583e-05
0.0642284
-8.95976e-06
0.0641993
-3.36562e-05
0.0642132
0.064226
6.72862e-05
0.149228
3.24234
0.000190872
0.149014
3.24233
0.000219207
0.149166
3.24237
9.68745e-05
0.149393
3.24246
-0.000159343
0.149594
3.24269
0.149083
3.24213
4.33051e-06
-1.6546
1.00077
-6.59064e-05
-1.65473
1.00069
-9.26016e-05
-1.65466
1.00071
-5.99471e-05
-1.65459
1.00075
5.87594e-05
-1.65461
1.00086
-1.65458
1.00051
-2.54772e-05
0.540839
-5.82528e-05
0.540715
-8.00343e-05
0.540792
-4.5263e-05
0.540793
1.66706e-05
0.540828
0.540728
0.000166924
5.39261
3.48309
0.000139704
5.39317
3.48332
0.000124012
5.39314
3.48325
5.7411e-05
5.39325
3.48329
0.000101571
5.39337
3.48344
5.393
3.48301
1.13586e-05
3.06733
3.32603
0.000151271
3.06752
3.32619
0.000185063
3.0677
3.32611
8.16048e-05
3.0679
3.32621
5.44373e-05
3.06769
3.32656
3.06799
3.32557
-5.17101e-05
2.73549
-0.000128763
2.73556
-0.000221223
2.73558
-0.00020275
2.73537
-0.000173442
2.73546
2.73516
0.000191422
5.47282
2.08906
0.000138472
5.47377
2.0894
0.000134353
5.47352
2.08932
3.78294e-05
5.47329
2.08959
-0.000415089
5.47329
2.09019
5.47347
2.08851
0.000247005
5.85573
2.94288
9.99781e-05
5.85654
2.94357
4.04348e-05
5.85641
2.94329
-0.000117788
5.85659
2.94306
-0.000347731
5.85743
2.94264
5.85532
2.94337
-7.19851e-05
4.14819
-0.000102405
4.14835
7.34183e-05
4.14808
-0.000294669
4.148
-0.00225975
4.14885
4.14602
6.88691e-05
2.57559
1.51414
6.29326e-05
2.57608
1.5143
4.67484e-05
2.57596
1.51428
8.43049e-05
2.57608
1.51438
5.31008e-05
2.57638
1.51489
2.57555
1.51377
0.000249347
3.04024
2.47798
2.9846e-05
3.04157
2.4783
-0.000318131
3.04138
2.47822
2.31427e-05
3.04033
2.47847
0.0010918
3.03893
2.47902
3.04241
2.4776
-0.000212236
4.69995
-0.00056325
4.6999
-0.000652443
4.69915
-0.000938386
4.69876
-0.00344094
4.70036
4.69328
0.000117542
0.73411
-0.93243
0.198203
-3.34383e-05
0.734925
-0.933688
0.198916
0.000747222
0.734448
-0.934144
0.198915
0.000832382
0.735695
-0.934755
0.198976
-0.00388419
0.739235
-0.934006
0.199489
0.731882
-0.933925
0.198159
0.00103279
-0.389783
2.3675
-1.24464
0.000815282
-0.38892
2.36882
-1.24475
0.00336678
-0.390964
2.36828
-1.24542
0.00199596
-0.385758
2.36767
-1.24485
-0.00937194
-0.374324
2.37077
-1.24584
-0.402664
2.36894
-1.24377
-0.00166525
1.00651
-0.92956
0.00199158
1.00148
-0.930066
0.00412659
1.00335
-0.930491
0.00994879
0.999242
-0.927551
0.0296961
0.98961
-0.934425
1.02964
-0.917184
0.000805151
0.265848
-1.19908
-0.0014106
0.267548
-1.19902
-0.0069117
0.269935
-1.19858
-0.00197279
0.261473
-1.20117
0.0285168
0.234283
-1.19878
0.301444
-1.20685
0.00105314
2.01569
0.616611
4.53029e-05
2.0154
0.621981
0.000218059
2.01595
0.622102
0.00396745
2.01413
0.611266
0.00823562
2.00544
0.595347
2.03763
0.640996
0.000874832
-1.76697
-8.20083e-05
-1.77238
0.00197485
-1.77085
-0.00542515
-1.76981
-0.0182654
-1.81617
-1.68976
-0.000373793
-0.97617
-0.222538
0.000143457
-0.978109
-0.22143
0.000258525
-0.977528
-0.221165
-3.09208e-05
-0.976489
-0.224388
-0.000130807
-0.971006
-0.227673
-0.988437
-0.218547
3.59932e-05
1.48651
-1.8461
0.000214627
1.48835
-1.84466
0.000782731
1.48838
-1.84437
-0.000272362
1.48452
-1.84868
-0.00165783
1.48358
-1.85785
1.48578
-1.83488
0.00204666
-3.93161
-0.000774656
-3.93348
-0.00148404
-3.93298
-0.00387629
-3.9321
-0.0253008
-3.95304
-3.89629
-0.000617125
-0.0473687
-0.174552
-0.000119603
-0.0473642
-0.174563
0.000739992
-0.0474461
-0.174579
-0.000510155
-0.0485791
-0.174559
-0.00540906
-0.0480867
-0.174687
-0.0492203
-0.174736
0.000117908
0.888373
-2.78196
9.46112e-05
0.890065
-2.78207
0.000188442
0.890161
-2.78207
-0.000719208
0.885436
-2.78179
-0.00154555
0.87904
-2.78415
0.893572
-2.77922
0.00100804
-4.87516
-0.000465355
-4.87695
-0.00276122
-4.87613
-0.00137307
-4.87101
0.000339866
-4.87973
-4.85013
0.000132722
0.51401
-0.688695
-8.93233e-07
0.514136
-0.688566
-0.000189704
0.514129
-0.688519
6.00481e-05
0.514141
-0.688949
0.000992757
0.514569
-0.690189
0.513768
-0.687511
0.00017319
0.177563
-2.44569
8.08322e-05
0.17812
-2.44596
1.76728e-05
0.178089
-2.44597
0.000284494
0.178051
-2.44597
6.87579e-05
0.177098
-2.44647
0.180102
-2.44548
0.000351139
-4.67337
-0.00137675
-4.67358
-0.00370976
-4.67256
-0.00287733
-4.67106
-0.00464911
-4.67513
-4.65999
1.02472e-05
0.825436
0.000109804
0.825634
0.000293128
0.825582
0.000173772
0.825553
-0.000638752
0.825511
0.825616
0.000163939
0.857564
5.13479e-05
0.858089
-0.000183765
0.85807
-2.0204e-05
0.857889
0.00054733
0.857497
0.858278
-8.13337e-05
-0.000799088
-0.00150901
-0.00144937
-0.00409293
-3.859e-07
-0.010833
0.00170743
-8.84832e-07
-0.010834
0.00170745
-9.35703e-07
-0.0108339
0.00170755
-7.25822e-07
-0.0108338
0.00170767
-4.11297e-07
-0.0108337
0.00170782
-0.0108326
0.00170783
-3.39157e-07
-0.0119527
0.00111925
-6.12073e-07
-0.0119539
0.00111935
-6.05978e-07
-0.0119537
0.00111945
-4.36841e-07
-0.0119536
0.00111955
-1.90695e-07
-0.0119536
0.00111967
-0.0119524
0.00111965
-2.08254e-07
0.000268426
-2.61243e-07
0.000268487
-2.174e-07
0.000268542
-1.12192e-07
0.000268598
8.61773e-09
0.000268646
0.000268621
-7.39391e-07
-0.0115432
0.00358317
-7.13578e-07
-0.0115441
0.00358347
-4.28036e-07
-0.0115439
0.00358363
-9.53308e-08
-0.0115438
0.0035838
1.25401e-07
-0.0115438
0.003584
-0.0115427
0.00358384
-3.19525e-07
-0.0128679
0.0024438
-2.62011e-07
-0.012869
0.00244412
-1.10788e-07
-0.0128689
0.00244426
5.39085e-08
-0.0128689
0.00244441
1.57699e-07
-0.0128689
0.00244453
-0.0128677
0.00244435
-5.41161e-08
0.000428415
-8.69198e-09
0.000428513
5.58029e-08
0.000428563
1.07795e-07
0.000428607
8.24531e-08
0.00042863
0.000428528
-8.64319e-07
-0.0128883
0.00575661
-4.94352e-07
-0.012889
0.00575747
2.9242e-08
-0.0128887
0.00575792
4.07905e-07
-0.0128886
0.00575847
4.79449e-07
-0.0128886
0.00575902
-0.0128876
0.005759
1.1686e-07
-0.0148165
0.00437211
3.20963e-07
-0.0148177
0.00437261
4.5585e-07
-0.0148178
0.00437284
4.44674e-07
-0.0148178
0.00437313
2.04513e-07
-0.0148179
0.00437341
-0.0148167
0.00437329
1.35107e-07
0.000277514
2.06688e-07
0.000277582
2.17435e-07
0.000277636
1.19346e-07
0.000277713
-8.28851e-08
0.000277782
0.000277827
-5.6853e-08
-0.0148154
0.00810736
1.047e-06
-0.0148161
0.00810989
2.07289e-06
-0.0148159
0.00811177
2.62653e-06
-0.0148161
0.00811384
2.21699e-06
-0.0148166
0.00811567
-0.0148161
0.00811617
4.45096e-07
-0.0181552
0.00771143
1.03576e-06
-0.0181569
0.00771264
1.4276e-06
-0.0181571
0.00771348
1.45326e-06
-0.0181574
0.00771442
9.60883e-07
-0.0181578
0.00771528
-0.0181565
0.00771529
6.42259e-08
-0.000557148
2.9075e-07
-0.000556976
3.86473e-07
-0.000556774
3.2485e-07
-0.000556513
2.0863e-07
-0.000556306
-0.000556154
5.52698e-06
-0.0174313
0.0103553
9.39054e-06
-0.017434
0.0103612
1.13943e-05
-0.0174355
0.0103654
1.12807e-05
-0.0174374
0.0103692
8.08219e-06
-0.0174398
0.0103718
-0.0174409
0.0103718
2.59501e-06
-0.0234348
0.0137124
4.72519e-06
-0.0234376
0.0137149
5.80229e-06
-0.0234386
0.0137165
5.65091e-06
-0.0234398
0.0137178
3.8843e-06
-0.023441
0.0137189
-0.0234399
0.0137182
5.90892e-07
-0.00264619
1.36523e-06
-0.00264598
1.77576e-06
-0.00264578
1.70516e-06
-0.00264545
1.37898e-06
-0.00264541
-0.00264527
2.24642e-05
-0.0208685
0.0124647
3.04697e-05
-0.0208789
0.012473
3.10923e-05
-0.0208853
0.012476
2.62845e-05
-0.0208918
0.0124771
1.59857e-05
-0.0208979
0.0124761
-0.0209007
0.0124718
9.21265e-06
-0.031382
0.0242173
1.32949e-05
-0.0313873
0.0242204
1.38708e-05
-0.0313902
0.0242213
1.18861e-05
-0.0313932
0.0242209
6.62794e-06
-0.0313958
0.0242213
-0.0313947
0.0242181
1.91125e-06
-0.00632942
2.92838e-06
-0.00632961
3.29367e-06
-0.00633
2.52707e-06
-0.00632982
1.38035e-06
-0.00633029
-0.00632975
4.55672e-05
-0.0250101
0.0147383
5.15433e-05
-0.0250334
0.0147416
4.28595e-05
-0.0250464
0.0147345
2.78073e-05
-0.0250572
0.014724
1.15248e-05
-0.0250643
0.0147122
-0.0250638
0.0146981
1.63343e-05
-0.0431596
0.0423506
2.02851e-05
-0.0431687
0.0423518
1.72082e-05
-0.0431732
0.042351
1.2978e-05
-0.0431771
0.0423446
4.66503e-06
-0.0431798
0.0423452
-0.0431765
0.0423359
2.32457e-06
-0.0117008
2.94384e-06
-0.011702
3.14438e-06
-0.0117038
2.07369e-06
-0.0117035
2.46402e-06
-0.0117056
-0.011701
4.2129e-05
-0.0281573
0.0167464
2.66895e-05
-0.0281874
0.0167347
-1.72686e-06
-0.0281978
0.0167106
-2.60156e-05
-0.0282023
0.0166841
-3.03856e-05
-0.028197
0.0166585
-0.0281805
0.0166379
1.39034e-05
-0.0603425
0.0745218
1.27519e-05
-0.0603529
0.0745184
3.31213e-06
-0.0603551
0.0745187
-1.01848e-06
-0.0603537
0.074502
-1.00332e-05
-0.0603517
0.0745108
-0.0603428
0.0744892
1.09289e-06
-0.0150429
8.62107e-07
-0.0150472
4.95932e-07
-0.0150495
2.63345e-07
-0.0150488
-4.64952e-06
-0.0150424
-0.0150471
-1.44368e-05
-0.0324557
0.0286523
-6.63942e-05
-0.0324701
0.0286334
-0.000113991
-0.0324603
0.0286137
-0.000131526
-0.0324427
0.0285875
-0.000106628
-0.0324159