/*--------------------------------*- C++ -*----------------------------------*\
| =========                 |                                                 |
| \\      /  F ield         | OpenFOAM: The Open Source CFD Toolbox           |
|  \\    /   O peration     | Version:  v1612+                                |
|   \\  /    A nd           | Web:      www.OpenFOAM.com                      |
|    \\/     M anipulation  |                                                 |
\*---------------------------------------------------------------------------*/
FoamFile
{
    version     2.0;
    format      ascii;
    class       volScalarField;
    location    "3.9";
    object      p;
}
// * * * * * * * * * * * * * * * * * * * * * * * * * * * * * * * * * * * * * //

dimensions      [1 -1 -2 0 0 0 0];

internalField   nonuniform List<scalar> 
1116
(
2800.56
2800.55
2800.55
2800.57
2800.57
2800.55
2828.09
2828.09
2828.09
2828.1
2828.11
2828.08
2990.14
2990.14
2990.15
2990.16
2990.16
2990.14
3268.52
3268.52
3268.53
3268.53
3268.54
3268.53
3660.46
3660.46
3660.47
3660.47
3660.47
3660.47
4136.89
4136.91
4136.92
4136.92
4136.93
4136.93
5162.63
5162.65
5162.66
5162.67
5162.68
5162.67
7411.45
7411.47
7411.48
7411.49
7411.5
7411.52
10806.9
10806.9
10806.9
10806.9
10806.9
10807
14491.9
14491.8
14491.8
14491.8
14491.8
14491.9
17661.6
17661.3
17661.3
17661.2
17661.3
17661.5
20432.8
20432.7
20432.7
20432.7
20432.7
20432.8
-56.0472
-56.0472
-56.0476
-56.047
-56.0472
-56.0471
-65.3486
-65.3477
-65.3478
-65.3478
-65.3476
-65.3479
-83.1788
-83.1787
-83.179
-83.1788
-83.1781
-83.1786
-72.8257
-72.8253
-72.8254
-72.8249
-72.8238
-72.8243
23.6277
23.6283
23.6289
23.6293
23.6298
23.63
187.569
187.569
187.571
187.572
187.572
187.574
311.639
311.638
311.642
311.642
311.64
311.649
817.078
817.058
817.079
817.086
817.081
817.11
2619.02
2618.82
2618.92
2618.92
2618.88
2618.97
6162.83
6162.53
6162.67
6162.63
6162.58
6162.68
9351.71
9351.63
9351.75
9351.67
9351.63
9351.61
12797.7
12797.8
12797.8
12797.8
12797.8
12797.8
-40.5244
-40.5242
-40.5238
-40.5237
-40.5234
-40.5229
-41.5508
-41.5508
-41.5508
-41.5506
-41.5503
-41.5501
-50.2238
-50.2237
-50.2239
-50.2238
-50.2234
-50.2235
-55.1288
-55.1279
-55.128
-55.1276
-55.1268
-55.128
-24.0678
-24.0664
-24.0661
-24.0651
-24.0643
-24.0657
18.659
18.6592
18.6607
18.6613
18.6608
18.6608
27.0335
27.0322
27.0346
27.0358
27.0353
27.0363
42.1637
42.1563
42.1582
42.1591
42.1597
42.1629
148.771
148.709
148.733
148.73
148.728
148.734
1292.28
1291.56
1291.92
1291.89
1291.74
1292.12
5400.26
5399.4
5399.87
5399.88
5399.67
5400.04
7694.55
7694.69
7694.62
7694.61
7694.68
7694.62
-49.0791
-49.0791
-49.0789
-49.0786
-49.0782
-49.0778
-49.3076
-49.3075
-49.3072
-49.3069
-49.3065
-49.3062
-47.8506
-47.8504
-47.8503
-47.8502
-47.8499
-47.8502
-38.0507
-38.0505
-38.0505
-38.0503
-38.0502
-38.0508
-10.0088
-10.0088
-10.0082
-10.0081
-10.0081
-10.0081
15.6493
15.6495
15.6503
15.6506
15.6504
15.6508
14.636
14.6353
14.6358
14.6361
14.6365
14.6385
30.0906
30.1026
30.0984
30.0995
30.1027
30.1044
40.714
40.7034
40.7155
40.7156
40.7152
40.7131
285.167
285.282
285.251
285.233
285.288
285.179
3153.32
3153.93
3153.82
3153.61
3154.17
3153.18
4627.94
4628.43
4628.16
4628.09
4628.3
4627.9
1.51496
1.51494
1.515
1.5151
1.5152
1.51527
1.82218
1.82217
1.82226
1.82239
1.82252
1.8226
2.45057
2.45059
2.45071
2.45086
2.45101
2.45111
3.42767
3.42776
3.4279
3.42805
3.42817
3.42823
4.79435
4.79449
4.79457
4.79459
4.79455
4.79449
6.6022
6.60226
6.60214
6.60193
6.60169
6.60153
8.91052
8.91039
8.91006
8.90965
8.90934
8.90918
11.7771
11.7769
11.7765
11.7761
11.7759
11.7759
15.1509
15.1507
15.151
15.1508
15.1518
15.1528
18.7692
18.7691
18.7729
18.7693
18.7762
18.7833
22.236
22.2331
22.2422
22.2319
22.2456
22.2691
18.7335
18.7275
18.73
18.7311
18.7376
18.7884
-8.60892
-8.6089
-8.60881
-8.6087
-8.60859
-8.60854
-8.30463
-8.3046
-8.30448
-8.30435
-8.30422
-8.30415
-7.68297
-7.68291
-7.68277
-7.68261
-7.68246
-7.68237
-6.71851
-6.7184
-6.71827
-6.71815
-6.71807
-6.71804
-5.37023
-5.37016
-5.37017
-5.37025
-5.37036
-5.37046
-3.57397
-3.57406
-3.5743
-3.57459
-3.57483
-3.57494
-1.22899
-1.22926
-1.2296
-1.22998
-1.2301
-1.23014
1.8102
1.8099
1.81001
1.80952
1.81018
1.81066
5.5975
5.5972
5.60089
5.59784
5.60268
5.60676
9.4028
9.39976
9.41517
9.38419
9.40304
9.43718
12.0172
12.0068
12.0395
11.9657
11.982
12.105
-13.3671
-13.3827
-13.3975
-13.3935
-13.4666
-13.2911
-19.0424
-19.0423
-19.0423
-19.0422
-19.0421
-19.042
-18.7551
-18.755
-18.7549
-18.7548
-18.7547
-18.7546
-18.1638
-18.1637
-18.1636
-18.1634
-18.1633
-18.1633
-17.2327
-17.2326
-17.2325
-17.2324
-17.2324
-17.2324
-15.902
-15.902
-15.902
-15.9021
-15.9023
-15.9024
-14.0848
-14.0849
-14.0851
-14.0854
-14.0855
-14.0855
-11.6446
-11.6448
-11.6448
-11.6452
-11.6448
-11.6444
-8.26195
-8.26218
-8.26013
-8.26167
-8.25924
-8.25698
-3.121
-3.12207
-3.1081
-3.12707
-3.11104
-3.09498
7.5849
7.56846
7.65092
7.47016
7.52653
7.71054
16.1478
16.107
16.1718
16.0856
16.0646
16.2237
-0.584615
-0.593146
-0.672979
-0.388386
-0.5314
-0.780391
-29.7549
-29.7549
-29.7548
-29.7548
-29.7547
-29.7547
-29.5063
-29.5063
-29.5062
-29.5061
-29.506
-29.506
-28.9985
-28.9984
-28.9983
-28.9982
-28.9981
-28.9981
-28.2121
-28.212
-28.212
-28.212
-28.212
-28.212
-27.1128
-27.1128
-27.1128
-27.1129
-27.113
-27.1131
-25.6195
-25.6196
-25.6195
-25.6197
-25.6196
-25.6195
-23.507
-23.5075
-23.5064
-23.5074
-23.5062
-23.5056
-20.2524
-20.2553
-20.2502
-20.2552
-20.2511
-20.2487
-13.0441
-13.0611
-13.035
-13.0725
-13.0567
-13.0352
3.45632
3.39469
3.42159
3.48349
3.45243
3.41362
-23.0171
-23.0942
-23.3247
-22.6948
-22.855
-23.4121
-224.789
-224.774
-225.758
-223.925
-224.853
-225.95
-53.7145
-53.7145
-53.7142
-53.7138
-53.7134
-53.7132
-59.9994
-59.9993
-59.9991
-59.999
-59.9989
-59.9989
-67.17
-67.1701
-67.1701
-67.1701
-67.1703
-67.1704
-53.1774
-53.1773
-53.177
-53.1768
-53.1765
-53.1765
-59.1185
-59.1185
-59.1184
-59.1184
-59.1184
-59.1185
-66.6502
-66.6502
-66.6502
-66.6503
-66.6504
-66.6503
-51.0894
-51.0893
-51.0893
-51.0892
-51.0892
-51.0894
-56.7052
-56.7052
-56.7051
-56.7051
-56.7052
-56.7051
-65.4884
-65.4884
-65.4884
-65.4883
-65.4884
-65.4882
-45.7781
-45.7781
-45.7782
-45.7783
-45.7783
-45.7783
-51.6907
-51.6907
-51.6907
-51.6906
-51.6906
-51.6904
-63.7452
-63.7453
-63.7452
-63.7452
-63.7452
-63.7451
-35.9658
-35.9658
-35.966
-35.9661
-35.966
-35.9657
-43.2086
-43.2089
-43.209
-43.2091
-43.209
-43.2086
-61.858
-61.858
-61.8579
-61.8579
-61.8579
-61.8581
-22.6275
-22.6302
-22.6314
-22.6318
-22.6311
-22.6278
-36.456
-36.4552
-36.4549
-36.4548
-36.4548
-36.4557
-60.6165
-60.6154
-60.6152
-60.615
-60.6151
-60.6163
-12.4683
-12.467
-12.4674
-12.4672
-12.4664
-12.4661
-33.9533
-33.9528
-33.9524
-33.952
-33.9513
-33.9514
-59.353
-59.3527
-59.3524
-59.3522
-59.352
-59.3524
2.68976
2.68865
2.69247
2.6932
2.6946
2.69605
-31.8568
-31.8597
-31.8567
-31.8558
-31.8544
-31.8509
-60.7989
-60.7995
-60.7992
-60.799
-60.799
-60.798
-4.21191
-4.17849
-4.17888
-4.17636
-4.16467
-4.17481
-47.1443
-47.1359
-47.1359
-47.1294
-47.1244
-47.1044
-69.0468
-69.044
-69.0465
-69.0465
-69.0444
-69.0478
8.24468
8.24605
8.24996
8.24463
8.24887
8.28058
-81.6047
-81.5815
-81.5948
-81.596
-81.5848
-81.6034
-82.728
-82.7201
-82.7302
-82.7353
-82.7284
-82.7632
262.254
262.211
262.197
262.089
262.013
262.209
-179.495
-179.538
-179.543
-179.555
-179.56
-179.583
-118.548
-118.562
-118.568
-118.567
-118.574
-118.584
2001.58
2003.02
2002.42
2002.38
2002.25
2002.49
-85.4665
-85.4672
-85.4848
-85.4873
-85.4897
-85.4873
-77.3225
-77.3247
-77.3255
-77.3238
-77.3296
-77.3194
1607.81
1607.02
1609.81
1606.53
1602.55
1620.25
-85.7514
-85.1489
-85.0697
-85.8765
-85.629
-85.0632
-109.24
-100.594
-100.523
-109.488
-109.431
-100.256
2021.96
2021.61
2021.54
2025.86
2028.43
2021.15
-56.8372
-57.1907
-57.1624
-56.8292
-56.8805
-57.1766
-98.3207
-96.9832
-96.9382
-98.3519
-98.3167
-96.7971
2714.08
2714.94
2715.51
2715.81
2719.46
2709.85
-17.6631
-17.6369
-17.5661
-17.6552
-17.6023
-17.4065
-78.6371
-78.4399
-78.4383
-78.6109
-78.5842
-78.3744
3487.19
3486.94
3487.89
3486.09
3484.98
3486.04
134.832
135.048
135.258
134.908
135.56
134.851
-71.7881
-71.7546
-71.7543
-71.7705
-71.7561
-71.749
3629.89
3629.69
3629.97
3629.73
3629.55
3630.42
448.703
449.161
449.146
449.23
450.415
447.739
-67.5735
-67.5606
-67.5609
-67.5616
-67.5467
-67.5703
3437.13
3436.91
3437.01
3436.99
3436.45
3437.79
273.883
274.322
274.078
274.291
274.538
273.688
-66.6113
-66.5983
-66.6018
-66.599
-66.5917
-66.6036
-40.6816
-40.6816
-40.6815
-40.6815
-40.6814
-40.6814
-51.8039
-51.8039
-51.8039
-51.8038
-51.8038
-51.8038
-63.0261
-63.0261
-63.0261
-63.0261
-63.0261
-63.026
-40.4898
-40.4897
-40.4896
-40.4896
-40.4895
-40.4895
-51.6871
-51.687
-51.687
-51.6869
-51.6869
-51.6869
-62.9875
-62.9875
-62.9874
-62.9874
-62.9874
-62.9874
-40.0981
-40.098
-40.098
-40.0979
-40.0979
-40.0979
-51.4517
-51.4517
-51.4516
-51.4516
-51.4516
-51.4516
-62.9126
-62.9125
-62.9125
-62.9125
-62.9125
-62.9126
-39.4892
-39.4891
-39.4891
-39.4891
-39.4891
-39.4892
-51.101
-51.1009
-51.1009
-51.1009
-51.101
-51.101
-62.81
-62.81
-62.81
-62.81
-62.81
-62.81
-38.6439
-38.6439
-38.6439
-38.644
-38.644
-38.6441
-50.656
-50.656
-50.656
-50.6561
-50.6561
-50.6561
-62.7044
-62.7044
-62.7044
-62.7044
-62.7043
-62.7043
-37.6002
-37.6001
-37.6002
-37.6001
-37.6001
-37.6001
-50.1843
-50.1843
-50.1844
-50.1843
-50.1843
-50.1842
-62.6461
-62.646
-62.6458
-62.6457
-62.6455
-62.6455
-36.715
-36.7145
-36.715
-36.7143
-36.716
-36.713
-50.0098
-50.0093
-50.0099
-50.0099
-50.0108
-50.0093
-62.4961
-62.4956
-62.495
-62.4947
-62.4947
-62.4939
-36.8562
-36.8542
-36.8593
-36.8508
-36.8637
-36.8493
-51.565
-51.5606
-51.5622
-51.5642
-51.5699
-51.5477
-64.3809
-64.3775
-64.3734
-64.3693
-64.3644
-64.3646
-40.2246
-40.2197
-40.2435
-40.1956
-40.2193
-40.2439
-50.9742
-50.9576
-50.9685
-50.9771
-50.9961
-50.9775
-61.9887
-61.9887
-61.9928
-62.0067
-62.0174
-61.9994
-58.9726
-58.977
-59.0333
-58.8504
-58.8878
-59.0668
-69.9105
-69.7176
-69.7015
-70.02
-70.0861
-69.5402
-72.2921
-72.2865
-72.2896
-72.2936
-72.2969
-72.3173
-96.8787
-96.8576
-96.8825
-96.9137
-96.9346
-96.9038
-67.8502
-67.7242
-67.6165
-68.3061
-68.6539
-67.2624
-62.8066
-62.8274
-62.8285
-62.83
-62.8503
-62.8471
-181.046
-180.663
-179.969
-182.432
-181.997
-179.446
-122.104
-120.059
-120.123
-121.544
-120.362
-121.61
-96.0436
-95.937
-95.9261
-95.8312
-95.6978
-96.232
)
;

boundaryField
{
    seabed_topleft_surface
    {
        type            calculated;
        value           nonuniform List<scalar> 
72
(
5623.04
5623.03
5623.02
5623.06
5623.08
5623.02
5656.62
5656.62
5656.62
5656.65
5656.66
5656.6
6001.8
6001.81
6001.81
6001.83
6001.84
6001.8
6599.62
6599.63
6599.64
6599.65
6599.66
6599.64
7358.49
7358.49
7358.51
7358.51
7358.52
7358.52
8181.92
8181.94
8181.95
8181.96
8181.96
8181.96
9603.46
9603.46
9603.47
9603.48
9603.48
9603.5
12200.6
12200.6
12200.6
12200.6
12200.6
12200.6
15596.1
15596
15596
15596.1
15596
15596.1
19281.1
19281
19281
19281
19280.9
19281
22450.4
22450.1
22450.1
22450.1
22450.1
22450.4
25213.3
25213.2
25213.2
25213.2
25213.2
25213.3
)
;
    }
    seabed_topright_surface
    {
        type            calculated;
        value           nonuniform List<scalar> 
72
(
6.43682
6.43679
6.43685
6.43696
6.43706
6.43712
6.74404
6.74403
6.74412
6.74425
6.74437
6.74445
7.37243
7.37245
7.37256
7.37272
7.37286
7.37297
8.34952
8.34962
8.34976
8.34991
8.35002
8.35009
9.71621
9.71635
9.71643
9.71645
9.71641
9.71635
11.5241
11.5241
11.524
11.5238
11.5235
11.5234
13.8324
13.8322
13.8319
13.8315
13.8312
13.831
16.699
16.6987
16.6983
16.6979
16.6978
16.6977
20.0727
20.0726
20.0729
20.0726
20.0737
20.0747
23.6911
23.691
23.6947
23.6911
23.6981
23.7052
27.1578
27.155
27.1641
27.1537
27.1674
27.1909
23.6554
23.6493
23.6519
23.6529
23.6594
23.7103
)
;
    }
    breakwater_top_surface
    {
        type            calculated;
        value           nonuniform List<scalar> 
36
(
3282
3278.92
3284.43
3280.01
3271.3
3305.09
4026.35
4026.03
4025.63
4034.41
4040.59
4024.25
5281.08
5282.89
5283
5285.72
5294.52
5270.68
6595.97
6595.99
6596.97
6595.38
6595.12
6593.54
6741.11
6741.02
6741.42
6741.24
6741.07
6741.93
6548.23
6548.13
6548.35
6548.44
6547.97
6549.15
)
;
    }
    breakwater_left_surface
    {
        type            calculated;
        value           nonuniform List<scalar> 
24
(
20449.2
20449.1
20449.1
20449.1
20449.1
20449.1
12813.8
12813.8
12813.9
12813.8
12813.8
12813.8
7710.3
7710.44
7710.37
7710.36
7710.43
7710.37
4643.26
4643.75
4643.49
4643.42
4643.63
4643.23
)
;
    }
    breakwater_right_surface
    {
        type            calculated;
        value           nonuniform List<scalar> 
24
(
18.7504
18.7443
18.7469
18.7479
18.7544
18.8053
-13.3505
-13.3661
-13.381
-13.377
-13.4501
-13.2746
-0.568426
-0.576958
-0.656791
-0.372197
-0.515212
-0.764203
-224.561
-224.546
-225.527
-223.701
-224.63
-225.715
)
;
    }
    water_front_surface
    {
        type            calculated;
        value           nonuniform List<scalar> 
186
(
2800.56
2828.09
2990.14
3268.52
3660.46
4136.89
5162.63
7411.45
10806.9
14491.9
17661.6
20432.8
-56.0472
-65.3486
-83.1788
-72.8257
23.6277
187.569
311.639
817.078
2619.02
6162.83
9351.71
12797.7
-40.5244
-41.5508
-50.2238
-55.1288
-24.0678
18.659
27.0335
42.1637
148.771
1292.28
5400.26
7694.55
-49.0791
-49.3076
-47.8506
-38.0507
-10.0088
15.6493
14.636
30.0906
40.714
285.167
3153.32
4627.94
1.51496
1.82218
2.45057
3.42767
4.79435
6.6022
8.91052
11.7771
15.1509
18.7692
22.236
18.7335
-8.60892
-8.30463
-7.68297
-6.71851
-5.37023
-3.57397
-1.22899
1.8102
5.5975
9.4028
12.0172
-13.3671
-19.0424
-18.7551
-18.1638
-17.2327
-15.902
-14.0848
-11.6446
-8.26195
-3.121
7.5849
16.1478
-0.584615
-29.7549
-29.5063
-28.9985
-28.2121
-27.1128
-25.6195
-23.507
-20.2524
-13.0441
3.45632
-23.0171
-224.789
-53.7145
-59.9994
-67.17
-53.1774
-59.1185
-66.6502
-51.0894
-56.7052
-65.4884
-45.7781
-51.6907
-63.7452
-35.9658
-43.2086
-61.858
-22.6275
-36.456
-60.6165
-12.4683
-33.9533
-59.353
2.68976
-31.8568
-60.7989
-4.21191
-47.1443
-69.0468
8.24468
-81.6047
-82.728
262.254
-179.495
-118.548
2001.58
-85.4665
-77.3225
1607.81
-85.7514
-109.24
2021.96
-56.8372
-98.3207
2714.08
-17.6631
-78.6371
3487.19
134.832
-71.7881
3629.89
448.703
-67.5735
3437.13
273.883
-66.6113
-40.6816
-51.8039
-63.0261
-40.4898
-51.6871
-62.9875
-40.0981
-51.4517
-62.9126
-39.4892
-51.101
-62.81
-38.6439
-50.656
-62.7044
-37.6002
-50.1843
-62.6461
-36.715
-50.0098
-62.4961
-36.8562
-51.565
-64.3809
-40.2246
-50.9742
-61.9887
-58.9726
-69.9105
-72.2921
-96.8787
-67.8502
-62.8066
-181.046
-122.104
-96.0436
)
;
    }
    water_back_surface
    {
        type            calculated;
        value           nonuniform List<scalar> 
186
(
2800.55
2828.08
2990.14
3268.53
3660.47
4136.93
5162.67
7411.52
10807
14491.9
17661.5
20432.8
-56.0471
-65.3479
-83.1786
-72.8243
23.63
187.574
311.649
817.11
2618.97
6162.68
9351.61
12797.8
-40.5229
-41.5501
-50.2235
-55.128
-24.0657
18.6608
27.0363
42.1629
148.734
1292.12
5400.04
7694.62
-49.0778
-49.3062
-47.8502
-38.0508
-10.0081
15.6508
14.6385
30.1044
40.7131
285.179
3153.18
4627.9
1.51527
1.8226
2.45111
3.42823
4.79449
6.60153
8.90918
11.7759
15.1528
18.7833
22.2691
18.7884
-8.60854
-8.30415
-7.68237
-6.71804
-5.37046
-3.57494
-1.23014
1.81066
5.60676
9.43718
12.105
-13.2911
-19.042
-18.7546
-18.1633
-17.2324
-15.9024
-14.0855
-11.6444
-8.25698
-3.09498
7.71054
16.2237
-0.780391
-29.7547
-29.506
-28.9981
-28.212
-27.1131
-25.6195
-23.5056
-20.2487
-13.0352
3.41362
-23.4121
-225.95
-53.7132
-59.9989
-67.1704
-53.1765
-59.1185
-66.6503
-51.0894
-56.7051
-65.4882
-45.7783
-51.6904
-63.7451
-35.9657
-43.2086
-61.8581
-22.6278
-36.4557
-60.6163
-12.4661
-33.9514
-59.3524
2.69605
-31.8509
-60.798
-4.17481
-47.1044
-69.0478
8.28058
-81.6034
-82.7632
262.209
-179.583
-118.584
2002.49
-85.4873
-77.3194
1620.25
-85.0632
-100.256
2021.15
-57.1766
-96.7971
2709.85
-17.4065
-78.3744
3486.04
134.851
-71.749
3630.42
447.739
-67.5703
3437.79
273.688
-66.6036
-40.6814
-51.8038
-63.026
-40.4895
-51.6869
-62.9874
-40.0979
-51.4516
-62.9126
-39.4892
-51.101
-62.81
-38.6441
-50.6561
-62.7043
-37.6001
-50.1842
-62.6455
-36.713
-50.0093
-62.4939
-36.8493
-51.5477
-64.3646
-40.2439
-50.9775
-61.9994
-59.0668
-69.5402
-72.3173
-96.9038
-67.2624
-62.8471
-179.446
-121.61
-96.232
)
;
    }
    water_left_surface
    {
        type            calculated;
        value           nonuniform List<scalar> 
42
(
2810.22
2810.22
2810.21
2810.24
2810.24
2810.21
-56.0307
-56.0307
-56.0311
-56.0305
-56.0307
-56.0306
-40.5082
-40.508
-40.5076
-40.5076
-40.5072
-40.5067
-49.0633
-49.0632
-49.063
-49.0628
-49.0623
-49.0619
-53.7145
-53.7145
-53.7142
-53.7138
-53.7134
-53.7132
-59.9994
-59.9993
-59.9991
-59.999
-59.9989
-59.9989
-67.17
-67.1701
-67.1701
-67.1701
-67.1703
-67.1704
)
;
    }
    water_right_surface
    {
        type            calculated;
        value           nonuniform List<scalar> 
42
(
1.53182
1.53179
1.53185
1.53196
1.53206
1.53212
-8.5924
-8.59238
-8.5923
-8.59218
-8.59208
-8.59202
-19.0262
-19.0261
-19.0261
-19.026
-19.0259
-19.0258
-29.7391
-29.739
-29.739
-29.7389
-29.7388
-29.7388
-40.6816
-40.6816
-40.6815
-40.6815
-40.6814
-40.6814
-51.8039
-51.8039
-51.8039
-51.8038
-51.8038
-51.8038
-63.0261
-63.0261
-63.0261
-63.0261
-63.0261
-63.026
)
;
    }
    water_top_surface
    {
        type            calculated;
        value           nonuniform List<scalar> 
180
(
-70.8689
-70.8692
-70.8692
-70.8693
-70.8695
-70.8693
-70.6346
-70.635
-70.635
-70.6351
-70.6353
-70.6351
-69.9239
-69.9242
-69.9242
-69.9242
-69.9243
-69.924
-69.238
-69.2382
-69.2382
-69.2381
-69.2381
-69.238
-68.7445
-68.7445
-68.7445
-68.7445
-68.7445
-68.7444
-68.67
-68.67
-68.67
-68.67
-68.67
-68.67
-68.67
-68.67
-68.67
-68.67
-68.67
-68.67
-68.67
-68.67
-68.67
-68.67
-68.67
-68.67
-68.67
-68.67
-68.67
-68.67
-68.67
-68.67
-68.9454
-68.9583
-68.9435
-68.9516
-68.9653
-68.9322
-120.55
-120.562
-120.576
-120.586
-120.588
-120.583
-91.9277
-91.9967
-91.9658
-91.9562
-91.9834
-91.9348
-133.964
-69.2073
-69.253
-135.046
-134.311
-69.4062
-116.249
-116.204
-116.062
-116.539
-116.488
-115.594
-80.6637
-80.6618
-80.6218
-80.7354
-80.7638
-80.5441
-83.664
-83.7014
-83.6909
-83.6974
-83.8059
-83.5678
-83.2682
-83.2928
-83.2737
-83.2932
-83.3396
-83.2394
-94.8199
-94.8702
-94.843
-94.8381
-94.8379
-94.8377
-68.67
-68.67
-68.67
-68.67
-68.67
-68.67
-68.67
-68.67
-68.67
-68.67
-68.67
-68.67
-68.67
-68.67
-68.67
-68.67
-68.67
-68.67
-68.67
-68.67
-68.67
-68.67
-68.67
-68.67
-68.67
-68.67
-68.67
-68.67
-68.67
-68.67
-68.67
-68.67
-68.67
-68.67
-68.67
-68.67
-68.67
-68.67
-68.67
-68.67
-68.67
-68.67
-68.67
-68.67
-68.67
-68.67
-68.67
-68.67
-68.6721
-68.6721
-68.6721
-68.6721
-68.672
-68.6721
-68.818
-68.8191
-68.8192
-68.8174
-68.8137
-68.8265
-68.9185
-68.9135
-68.9093
-68.9268
-68.9397
-68.8894
-267.743
-272.746
-275.614
-261.568
-254.429
-279.431
)
;
    }
}


// ************************************************************************* //
