/*--------------------------------*- C++ -*----------------------------------*\
| =========                 |                                                 |
| \\      /  F ield         | OpenFOAM: The Open Source CFD Toolbox           |
|  \\    /   O peration     | Version:  v1612+                                |
|   \\  /    A nd           | Web:      www.OpenFOAM.com                      |
|    \\/     M anipulation  |                                                 |
\*---------------------------------------------------------------------------*/
FoamFile
{
    version     2.0;
    format      ascii;
    class       surfaceScalarField;
    location    "3.9";
    object      phi;
}
// * * * * * * * * * * * * * * * * * * * * * * * * * * * * * * * * * * * * * //

dimensions      [0 3 -1 0 0 0 0];

internalField   nonuniform List<scalar> 
2916
(
2.09792e-05
0.304408
-0.304429
1.48308e-05
0.304407
-0.304401
6.07655e-06
0.304407
-0.304399
4.83474e-07
0.304408
-0.304402
-1.15011e-05
0.304407
-0.304395
0.304408
-0.304419
2.05008e-05
0.554806
-0.250418
1.37553e-05
0.554813
-0.250399
6.50281e-06
0.55481
-0.250395
2.58455e-06
0.554811
-0.250399
-6.85093e-06
0.554812
-0.250396
0.554806
-0.250405
1.78772e-05
0.732217
-0.17743
9.76935e-06
0.732235
-0.177415
4.3483e-06
0.732229
-0.177414
3.47023e-06
0.732231
-0.177419
-3.07692e-06
0.732234
-0.177416
0.73222
-0.177417
1.52406e-05
0.872787
-0.140585
7.4887e-06
0.872815
-0.140572
3.51323e-06
0.872806
-0.140573
3.38649e-06
0.872808
-0.140577
-1.71187e-06
0.872813
-0.140574
0.872792
-0.140574
1.31644e-05
0.96158
-0.088806
6.55043e-06
0.961613
-0.0887918
2.64522e-06
0.961603
-0.0887928
2.78124e-06
0.961604
-0.0887966
-1.79562e-06
0.96161
-0.0887921
0.961583
-0.0887928
9.77325e-06
0.959749
0.00182144
6.41052e-06
0.959785
0.0018318
1.18015e-06
0.959775
0.00183348
-4.73101e-07
0.959775
0.00183058
-2.76485e-06
0.959781
0.00183083
0.95975
0.00183011
7.76532e-06
0.798919
0.160822
5.54199e-06
0.798954
0.160833
-2.49513e-07
0.798947
0.160833
-3.96604e-06
0.798946
0.160833
-5.92764e-06
0.798952
0.160831
0.798916
0.160828
3.41183e-06
0.412851
0.386065
3.17754e-06
0.412883
0.386072
-2.53932e-06
0.412882
0.38607
-6.49412e-06
0.41288
0.38607
-9.9868e-06
0.412886
0.386069
0.41284
0.386067
1.18039e-05
-0.169824
0.582663
2.90172e-06
-0.169803
0.582694
-2.81093e-06
-0.169791
0.582679
-8.39387e-06
-0.169795
0.58268
-2.30489e-05
-0.169785
0.582686
-0.169858
0.582674
3.1588e-05
-0.652292
0.482437
8.59611e-06
-0.652274
0.482494
3.40356e-06
-0.652261
0.482475
-3.59e-06
-0.652263
0.482475
-2.81081e-05
-0.652247
0.482487
-0.652333
0.482447
4.57515e-05
-0.620746
-0.0315923
8.10398e-06
-0.620719
-0.0315175
1.39111e-06
-0.620714
-0.0315408
-2.71586e-06
-0.620716
-0.0315431
-2.63952e-05
-0.620701
-0.0315228
-0.620762
-0.0315978
3.52767e-06
-0.620749
-1.5186e-05
-0.6207
-1.15021e-05
-0.620717
-4.68991e-06
-0.620723
2.05275e-06
-0.620708
-0.62076
0.000274365
1.819
-2.1237
0.000231784
1.8193
-2.12366
1.06919e-05
1.8195
-2.12368
3.79265e-05
1.81926
-2.12369
1.52467e-05
1.81927
-2.12364
1.81932
-2.12373
-3.64766e-05
3.87917
-2.31055
-6.45918e-06
3.87947
-2.3106
4.6768e-05
3.87963
-2.31058
5.40509e-05
3.87943
-2.31058
3.12982e-05
3.87946
-2.31057
3.87945
-2.3105
-0.000201778
5.7473
-2.04536
-0.000133096
5.74742
-2.04543
-5.96084e-05
5.74753
-2.04539
-1.02478e-05
5.74738
-2.04541
0.000123986
5.74734
-2.04543
5.74743
-2.04527
-0.000350703
6.27772
-0.670644
-0.000248571
6.27748
-0.670733
-0.000261037
6.27764
-0.670676
-0.000162738
6.27742
-0.670715
0.000214735
6.27714
-0.670754
6.27761
-0.670538
-0.000252628
4.79882
1.39034
-0.000223159
4.79843
1.39022
-0.000213921
4.79855
1.3903
-0.000129526
4.79832
1.39022
0.000103479
4.79799
1.39013
4.79854
1.39038
-1.62503e-05
2.90981
1.89085
-2.00924e-05
2.90967
1.8906
8.65052e-06
2.90966
1.89068
2.84907e-05
2.90957
1.89056
1.3769e-05
2.90945
1.89038
2.90965
1.89073
1.23071e-06
1.86622
1.20441
-6.93747e-06
1.86631
1.2042
2.08e-06
1.86625
1.20424
1.20245e-05
1.86623
1.20416
1.10086e-06
1.86626
1.20403
1.86619
1.20428
2.32027e-05
1.07785
1.17441
-1.21896e-05
1.07799
1.17442
-1.21075e-05
1.07793
1.17439
-8.71227e-06
1.07793
1.17437
-3.4012e-05
1.07798
1.17437
1.07786
1.17436
6.97686e-05
0.486636
1.17381
2.98804e-06
0.486763
1.17399
-3.42039e-06
0.486719
1.1739
-8.21634e-06
0.48672
1.1739
-6.08731e-05
0.486764
1.17395
0.486649
1.17382
9.60861e-05
0.146923
0.822053
1.79277e-05
0.147049
0.822287
9.67051e-06
0.147015
0.822188
3.57112e-07
0.147017
0.822187
-5.04814e-05
0.147059
0.822243
0.146943
0.822104
0.000118637
-0.0390947
0.154307
2.99087e-05
-0.0388957
0.154516
2.06389e-05
-0.0389427
0.154426
6.53342e-06
-0.0389428
0.154431
-5.14195e-05
-0.03888
0.154474
-0.0390571
0.15435
-4.17818e-05
-0.659803
-2.22303e-05
-0.659616
-6.43883e-06
-0.659676
5.43503e-06
-0.659678
3.81723e-05
-0.659621
-0.659779
-0.000115462
-0.390055
-1.73353
-4.40057e-05
-0.390071
-1.73366
1.59229e-05
-0.390105
-1.73364
5.43076e-05
-0.390078
-1.73365
0.00011786
-0.39005
-1.73366
-0.390094
-1.73352
-0.000105206
-0.813043
-1.88745
-3.16696e-05
-0.813066
-1.88767
1.12159e-05
-0.813082
-1.88764
5.48365e-05
-0.813064
-1.88764
0.000133338
-0.813035
-1.88767
-0.81303
-1.88743
-0.00011941
-1.00494
-1.85335
-3.27046e-05
-1.00502
-1.85356
-8.50719e-06
-1.00498
-1.85352
3.99514e-05
-1.00501
-1.85352
0.000166913
-1.00503
-1.85356
-1.00484
-1.85329
-0.000193022
-0.486235
-1.18915
-8.11622e-05
-0.486469
-1.18939
-7.85044e-05
-0.486344
-1.18931
-2.1747e-06
-0.486457
-1.18934
0.000212534
-0.486585
-1.18941
-0.486124
-1.18904
-6.4266e-05
0.615522
0.288646
-5.14516e-05
0.615303
0.288432
-3.31596e-05
0.615406
0.288524
-2.93844e-05
0.615292
0.288464
-2.85564e-06
0.615167
0.288347
0.615557
0.288698
4.36481e-05
1.89289
0.613437
-3.293e-05
1.89282
0.613152
1.12251e-05
1.89282
0.613225
3.54957e-06
1.89274
0.613124
-0.000121369
1.8927
0.612976
1.89283
0.613336
4.43183e-05
2.74192
0.355329
-2.91867e-05
2.74207
0.355027
-1.16688e-05
2.74196
0.355076
-2.5376e-05
2.74192
0.354984
-0.00010636
2.74195
0.354858
2.74189
0.355111
0.000261259
2.22412
1.69194
1.43219e-06
2.22506
1.69169
-2.79849e-05
2.2246
1.69177
-4.47334e-05
2.22461
1.6917
-0.000133802
2.22479
1.69163
2.2245
1.69162
0.000335317
0.298048
3.09955
-6.72363e-06
0.298695
3.1007
4.58063e-06
0.29839
3.1001
2.73757e-06
0.298403
3.1001
-3.5374e-05
0.298542
3.10024
0.298238
3.10005
0.000419777
0.226709
0.892973
3.46173e-05
0.227128
0.894239
1.10834e-05
0.226943
0.893659
3.07578e-05
0.226947
0.893623
-0.000190586
0.227052
0.893953
0.226826
0.893325
0.000410622
0.0137631
0.366843
4.3551e-05
0.0140854
0.367925
-2.33487e-06
0.013982
0.367433
7.17675e-06
0.0139862
0.367382
-0.000191672
0.0140703
0.367655
0.0138358
0.367148
-0.000133355
-0.645906
-3.00545e-05
-0.645633
-5.42849e-06
-0.645718
1.81031e-05
-0.645715
0.000106894
-0.645639
-0.645836
-1.19204e-05
-0.371047
-1.36247
-6.88637e-06
-0.370949
-1.36272
-3.36575e-06
-0.370965
-1.36268
-1.38396e-05
-0.370963
-1.36268
-5.17092e-06
-0.370936
-1.36273
-0.371059
-1.36246
2.2406e-05
-0.865923
-1.3926
1.16809e-05
-0.865748
-1.39286
2.37238e-06
-0.865776
-1.39282
-8.25894e-06
-0.865768
-1.39282
-1.71498e-05
-0.865723
-1.39287
-0.865927
-1.39258
-1.78703e-06
-1.51734
-1.20193
-9.77437e-06
-1.51713
-1.20217
-1.837e-06
-1.51717
-1.20213
-5.05879e-06
-1.51716
-1.20213
-9.7418e-06
-1.51711
-1.20217
-1.51733
-1.2019
-3.64383e-05
-1.90399
-0.80246
-4.72493e-05
-1.90382
-0.802683
-2.3243e-05
-1.90386
-0.80264
-2.14174e-05
-1.90386
-0.802637
-2.34092e-05
-1.90383
-0.802681
-1.90397
-0.802427
-5.5631e-05
-1.43512
-0.180164
-6.02982e-05
-1.43501
-0.180373
-1.51243e-05
-1.43505
-0.180326
8.22267e-06
-1.43508
-0.180344
-1.19729e-05
-1.43507
-0.180402
-1.43514
-0.180151
-1.621e-05
-0.718248
-0.103424
-1.54112e-05
-0.718231
-0.103631
4.27262e-05
-0.718279
-0.10361
4.57824e-05
-0.718318
-0.10364
-1.38476e-05
-0.718345
-0.103689
-0.718334
-0.103481
-7.05512e-05
0.0641756
-0.427026
5.77221e-05
0.0640033
-0.427337
0.000142198
0.0639891
-0.427277
0.000142339
0.0639859
-0.42732
0.000149008
0.063897
-0.427393
0.0641333
-0.427208
0.000301678
-0.233151
1.98897
0.000321501
-0.232644
1.98832
0.000290318
-0.232891
1.98869
0.000200791
-0.232833
1.98862
4.2363e-05
-0.232746
1.98843
-0.23287
1.98867
0.00091401
-1.94342
4.80891
-7.22641e-06
-1.94121
4.81019
0.000144467
-1.94243
4.80949
0.00012846
-1.94225
4.80953
1.34356e-05
-1.9417
4.80931
-1.94255
4.80975
0.00159632
-0.742433
-0.30961
0.000167063
-0.741282
-0.304257
-7.23502e-05
-0.741828
-0.306699
5.85021e-05
-0.741985
-0.306769
-0.000750758
-0.741592
-0.30535
-0.742138
-0.307833
0.00084192
-0.0273717
-0.34906
5.69616e-05
-0.026747
-0.345825
-0.000104573
-0.0270027
-0.347231
3.24134e-05
-0.0270601
-0.347679
-0.000234926
-0.026946
-0.346724
-0.0271503
-0.348074
-0.000143038
-0.673135
1.20944e-05
-0.672535
3.74813e-05
-0.672746
4.06955e-05
-0.672778
0.00011866
-0.672663
-0.672868
-1.73155e-06
-0.0505041
0.0505058
-4.09441e-06
-0.0505066
0.0505069
-5.04604e-06
-0.0505075
0.0505069
-4.69813e-06
-0.0505082
0.0505069
-2.98902e-06
-0.050509
0.050507
-0.0505085
0.0505056
-2.65011e-06
-0.102854
0.0523513
-5.71361e-06
-0.102859
0.0523527
-6.84167e-06
-0.102861
0.0523528
-6.36327e-06
-0.102863
0.0523528
-4.12917e-06
-0.102865
0.0523527
-0.102864
0.0523507
-4.82194e-06
-0.158941
0.0560905
-8.43004e-06
-0.158951
0.0560917
-9.51131e-06
-0.158955
0.0560915
-8.64816e-06
-0.158957
0.0560909
-5.7877e-06
-0.158959
0.05609
-0.158957
0.0560869
-1.03919e-05
-0.220351
0.0614183
-1.22713e-05
-0.220367
0.0614144
-1.09756e-05
-0.220369
0.0614113
-8.20679e-06
-0.220368
0.0614082
-4.86121e-06
-0.220367
0.0614051
-0.220361
0.0614003
-1.43809e-05
-0.287647
0.067309
-7.66521e-06
-0.287665
0.0672913
1.65129e-06
-0.287659
0.067282
8.3348e-06
-0.28765
0.0672761
8.52959e-06
-0.287639
0.0672723
-0.287623
0.0672693
-5.98517e-06
-0.358939
0.0712987
2.17791e-05
-0.358949
0.0712575
4.69914e-05
-0.358926
0.071242
5.73421e-05
-0.358899
0.0712377
4.45925e-05
-0.358869
0.0712408
-0.358831
0.0712503
2.45261e-05
-0.427542
0.0685795
8.98909e-05
-0.42753
0.0685161
0.000136388
-0.42748
0.0685052
0.000145574
-0.427429
0.0685183
0.000106152
-0.42738
0.0685459
-0.427312
0.0685864
7.1911e-05
-0.476383
0.0487684
0.000174967
-0.47634
0.0487074
0.000238334
-0.47627
0.0487279
0.000226316
-0.476207
0.0487914
0.000154212
-0.476173
0.048867
-0.476107
0.0489503
0.000125706
-0.472687
-0.00382298
0.000211119
-0.472608
-0.00381967
0.000290546
-0.472552
-0.00379793
0.000160583
-0.472441
-0.00363639
7.54351e-05
-0.472486
-0.00360005
-0.472482
-0.00354939
0.00014273
-0.38203
-0.0907981
0.000128537
-0.381908
-0.0906857
0.000458636
-0.381882
-0.0910003
-0.000111288
-0.381875
-0.0899949
-0.000271987
-0.381861
-0.0904651
-0.381898
-0.0908566
4.99365e-05
-0.0883713
-0.293708
-0.00011581
-0.0882834
-0.293455
0.000586688
-0.0881444
-0.294437
-0.000660288
-0.0884018
-0.292226
-0.00116718
-0.088232
-0.293125
-0.0881522
-0.294915
8.2611e-05
-0.0884554
-0.000122491
-0.0880828
0.000220773
-0.0884892
-0.000365405
-0.087818
-0.00153789
-0.0870624
-0.0896929
-2.64896e-06
-0.0511557
0.101663
-4.64859e-06
-0.0511587
0.101666
-5.16774e-06
-0.0511597
0.101666
-4.46555e-06
-0.0511605
0.101666
-2.65213e-06
-0.0511613
0.101667
-0.0511607
0.101664
-3.63504e-06
-0.103742
0.104939
-5.98747e-06
-0.103749
0.104942
-6.43294e-06
-0.103751
0.104942
-5.48389e-06
-0.103752
0.104943
-3.33534e-06
-0.103753
0.104943
-0.103752
0.104939
-5.04832e-06
-0.1585
0.11085
-6.94575e-06
-0.158512
0.110853
-6.71347e-06
-0.158514
0.110852
-5.44674e-06
-0.158515
0.110851
-3.52181e-06
-0.158515
0.11085
-0.158512
0.110844
-3.17e-06
-0.215123
0.118041
-6.57797e-07
-0.215138
0.118036
2.56092e-06
-0.215138
0.118031
4.09998e-06
-0.215134
0.118027
3.28514e-06
-0.21513
0.118022
-0.215123
0.118015
1.15178e-05
-0.272088
0.124262
2.61108e-05
-0.2721
0.12424
3.44103e-05
-0.27209
0.124228
3.39679e-05
-0.272077
0.12422
2.3056e-05
-0.272064
0.124216
-0.272046
0.124213
3.93774e-05
-0.326977
0.12615
6.99087e-05
-0.326977
0.126106
8.26234e-05
-0.326948
0.126087
7.50986e-05
-0.326918
0.126085
4.8294e-05
-0.326891
0.126091
-0.326856
0.126108
8.14043e-05
-0.377796
0.119318
0.00011859
-0.377755
0.119256
0.000129333
-0.377698
0.119243
0.000100774
-0.377637
0.119263
6.38086e-05
-0.377609
0.119299
-0.377556
0.11935
0.000101367
-0.423525
0.0943944
0.000114336
-0.423421
0.0943576
0.000148436
-0.42337
0.0943625
3.91698e-05
-0.423191
0.0944547
8.46787e-06
-0.423237
0.0945276
-0.423191
0.0945937
0.000122651
-0.430678
0.0032092
7.32711e-05
-0.430464
0.0032765
0.000303302
-0.430493
0.00309841
-0.000222501
-0.430056
0.00375867
-0.000250645
-0.430301
0.00349316
-0.430399
0.00340963
3.46839e-05
-0.134737
-0.386774
-2.5472e-05
-0.134461
-0.386625
0.00156469
-0.134301
-0.388782
-0.00099351
-0.134453
-0.38304
-0.00178161
-0.134167
-0.385814
-0.134433
-0.388606
-0.000367052
0.55128
-0.97936
-0.000443907
0.551395
-0.979237
0.00436193
0.55227
-0.985815
-0.00199276
0.550572
-0.9709
-0.00778949
0.55184
-0.973335
0.55211
-0.989251
0.000414417
0.462413
-2.81818e-05
0.463747
9.52551e-05
0.463646
0.000896425
0.461948
-0.00679209
0.472462
0.455622
-1.90497e-06
-0.0498313
0.151496
-2.99134e-06
-0.0498337
0.1515
-3.10696e-06
-0.0498342
0.1515
-2.34383e-06
-0.0498344
0.151501
-1.043e-06
-0.0498345
0.151501
-0.0498331
0.151497
-2.58127e-06
-0.103216
0.158325
-3.4515e-06
-0.103222
0.158329
-3.06143e-06
-0.103222
0.158329
-1.98538e-06
-0.103222
0.158329
-6.61299e-07
-0.103222
0.158329
-0.103218
0.158324
-3.06414e-06
-0.164502
0.172138
-2.06862e-06
-0.164512
0.172141
-8.24775e-08
-0.164512
0.172139
1.47924e-06
-0.164511
0.172138
1.85552e-06
-0.164508
0.172136
-0.164499
0.172129
1.68386e-06
-0.23929
0.192826
9.36637e-06
-0.239306
0.192823
1.49966e-05
-0.239302
0.192816
1.65331e-05
-0.239294
0.192811
1.26331e-05
-0.239285
0.192806
-0.239268
0.192798
1.9641e-05
-0.333789
0.218742
3.94795e-05
-0.333809
0.218726
4.87236e-05
-0.333794
0.218713
4.60055e-05
-0.333776
0.218706
3.02691e-05
-0.333756
0.218703
-0.333726
0.218701
4.71541e-05
-0.452111
0.244426
7.52549e-05
-0.452126
0.244396
8.17492e-05
-0.452093
0.244379
6.40864e-05
-0.452058
0.244383
3.40367e-05
-0.452027
0.24439
-0.451992
0.244408
5.39445e-05
-0.591047
0.2582
5.80921e-05
-0.59104
0.258164
6.9564e-05
-0.591013
0.25815
2.99571e-07
-0.590921
0.258194
-3.66313e-05
-0.590917
0.258226
-0.590933
0.258254
4.83777e-05
-0.718553
0.221852
-3.22138e-05
-0.718462
0.221862
1.05138e-05
-0.718593
0.221901
-0.000230061
-0.718227
0.222004
-0.000306617
-0.718478
0.222166
-0.718623
0.221978
-0.00012595
-0.766729
0.0515098
-0.000242611
-0.766643
0.0515757
0.000960069
-0.768591
0.0518948
-0.00109187
-0.76393
0.0515148
-0.00151083
-0.766546
0.0519777
-0.768577
0.0518534
-0.00117541
-0.784267
-0.368058
-0.000888085
-0.785106
-0.368447
0.0106191
-0.79563
-0.373248
-0.0047899
-0.769846
-0.361716
-0.0127953
-0.779553
-0.364797
-0.796045
-0.373934
-0.00125533
-0.262906
-1.49947
0.000704613
-0.264259
-1.50205
0.0154082
-0.272708
-1.52345
-0.00264978
-0.252308
-1.47038
-0.0211091
-0.260955
-1.47348
-0.26993
-1.53648
0.00120712
0.1983
0.0032548
0.19745
0.0010703
0.193118
0.00266639
0.20804
-0.0100756
0.224245
0.175618
-1.00317e-06
-0.0451194
0.196616
-1.36364e-06
-0.0451215
0.196622
-1.11215e-06
-0.0451215
0.196622
-4.85589e-07
-0.0451214
0.196622
1.75913e-07
-0.045121
0.196622
-0.0451194
0.196616
-9.14282e-07
-0.0929407
0.206147
-5.92464e-07
-0.092945
0.206152
1.22175e-07
-0.0929447
0.206152
8.35969e-07
-0.0929438
0.206152
1.02093e-06
-0.0929426
0.206151
-0.0929386
0.206145
9.20364e-07
-0.145302
0.224497
3.53283e-06
-0.145308
0.224501
5.35736e-06
-0.145306
0.2245
5.88792e-06
-0.145303
0.224498
4.47687e-06
-0.145299
0.224496
-0.14529
0.224488
9.56202e-06
-0.203259
0.250774
1.76009e-05
-0.203266
0.250775
2.08937e-05
-0.20326
0.25077
1.96415e-05
-0.203252
0.250765
1.36415e-05
-0.203244
0.250762
-0.203229
0.250753
2.6343e-05
-0.267731
0.28319
3.66144e-05
-0.267732
0.283186
3.76088e-05
-0.267722
0.283178
2.73811e-05
-0.267708
0.283174
1.51035e-05
-0.267701
0.283174
-0.267682
0.283168
3.44852e-05
-0.341922
0.318584
2.29258e-05
-0.341896
0.318573
2.28864e-05
-0.341915
0.318572
-1.82957e-05
-0.341865
0.31858
-2.03386e-05
-0.341903
0.318593
-0.341895
0.318603
4.94176e-06
-0.4452
0.361473
-8.93552e-05
-0.445092
0.361454
-4.82803e-05
-0.445316
0.36151
-0.000203221
-0.444985
0.361469
-0.000154739
-0.445308
0.361584
-0.445323
0.361526
-7.58738e-05
-0.666569
0.443297
-0.000355905
-0.666249
0.4433
7.81617e-05
-0.667568
0.443721
-0.000702126
-0.665077
0.442877
-0.000683224
-0.666936
0.443775
-0.667267
0.44324
-0.000602728
-1.28729
0.672833
-0.000334324
-1.28724
0.672303
0.00447891
-1.29426
0.673782
-0.00290308
-1.2774
0.671223
-0.00528009
-1.28604
0.673457
-1.29348
0.672792
-0.000799509
-2.53139
0.876846
0.00077959
-2.53009
0.872829
0.00922551
-2.54517
0.869212
-0.00351661
-2.50969
0.883313
-0.0113153
-2.52605
0.88302
-2.54563
0.866894
0.00101108
-2.89639
-1.13548
0.00197374
-2.89289
-1.14022
-0.00633209
-2.90347
-1.15685
0.00753794
-2.88329
-1.11066
0.0196905
-2.89653
-1.11515
-2.90064
-1.16178
-0.0023694
-2.69573
0.00222166
-2.70003
-0.00202607
-2.7061
0.00698148
-2.68426
0.0127727
-2.67808
-2.71225
3.26724e-05
-1.27746
-0.0850463
9.68846e-06
-1.27765
-0.0850487
-3.12169e-06
-1.27762
-0.0850475
-1.83082e-05
-1.27762
-0.0850493
-4.31228e-05
-1.27765
-0.0850517
-1.27746
-0.0850471
3.85187e-05
-1.16206
-0.115446
1.16461e-05
-1.16218
-0.115448
-2.10099e-06
-1.16216
-0.115448
-1.47666e-05
-1.16216
-0.115449
-4.0633e-05
-1.16218
-0.115448
-1.16205
-0.115447
2.58311e-05
-0.0251294
9.17363e-06
-0.0251288
1.24387e-06
-0.0251293
-6.91277e-06
-0.0251295
-2.44897e-05
-0.0251294
-0.0251308
3.2438e-05
-1.25766
-0.220028
8.00889e-06
-1.25785
-0.22004
-6.8777e-06
-1.25782
-0.220037
-2.26695e-05
-1.25781
-0.22004
-4.27917e-05
-1.25785
-0.220045
-1.25764
-0.220031
4.10644e-05
-1.10521
-0.267929
1.21842e-05
-1.10533
-0.267935
-3.65995e-06
-1.10531
-0.267935
-1.85e-05
-1.10531
-0.267934
-4.72148e-05
-1.10534
-0.267935
-1.10521
-0.26793
2.45876e-05
-0.0563283
7.60048e-06
-0.0563269
4.65914e-07
-0.056328
-7.0405e-06
-0.0563286
-2.82374e-05
-0.0563286
-0.0563304
1.66458e-05
-1.05374
-0.368232
8.93568e-07
-1.05393
-0.36826
-1.03832e-05
-1.0539
-0.368256
-1.95983e-05
-1.0539
-0.368259
-2.8091e-05
-1.05394
-0.368266
-1.05372
-0.368243
4.12021e-05
-0.892995
-0.428717
7.79758e-06
-0.893112
-0.428725
-9.62731e-06
-0.893094
-0.428722
-2.48102e-05
-0.893095
-0.42872
-5.74887e-05
-0.893121
-0.428722
-0.893
-0.428711
2.15418e-05
-0.0906171
3.92031e-06
-0.0906132
-3.14948e-06
-0.0906145
-9.61487e-06
-0.0906147
-2.97063e-05
-0.0906143
-0.0906169
-2.99128e-06
-0.715806
-0.45488
-7.74932e-06
-0.716007
-0.45493
-1.21955e-05
-0.715969
-0.454923
-1.66693e-05
-0.71597
-0.454922
-2.20686e-05
-0.716015
-0.454931
-0.715803
-0.454894
4.59093e-05
-0.615234
-0.529335
7.46896e-06
-0.615349
-0.529345
-7.56237e-06
-0.615333
-0.52934
-2.15459e-05
-0.615335
-0.529337
-6.04011e-05
-0.615357
-0.529339
-0.615241
-0.529322
1.88082e-05
-0.124724
1.31109e-06
-0.124719
-5.40544e-06
-0.124721
-1.04227e-05
-0.12472
-2.31532e-05
-0.124719
-0.124724
-1.95073e-05
-0.146916
-0.488108
-3.08519e-06
-0.14718
-0.488139
8.19789e-06
-0.147134
-0.488125
3.6899e-06
-0.147141
-0.48812
-7.81074e-06
-0.147201
-0.488124
-0.146942
-0.488107
7.93143e-05
-0.255433
-0.420897
2.49347e-05
-0.255546
-0.420922
7.59883e-06
-0.255533
-0.420924
-1.48752e-05
-0.255535
-0.420923
-7.572e-05
-0.255553
-0.420928
-0.255438
-0.4209
1.34189e-05
-0.157215
7.23846e-07
-0.157214
-3.50709e-06
-0.157219
-7.64933e-06
-0.157219
-1.23218e-05
-0.157219
-0.15722
-1.09313e-05
0.122333
-0.713858
-1.34558e-06
0.122254
-0.714035
9.35748e-06
0.122256
-0.714001
7.56411e-06
0.122252
-0.714009
-3.22537e-05
0.122239
-0.714011
0.122319
-0.713931
2.69272e-05
0.00106861
-0.299657
2.10986e-06
0.00104069
-0.299683
-1.32409e-06
0.00104286
-0.299713
-2.02436e-05
0.00104315
-0.299702
-4.18944e-05
0.00103847
-0.299706
0.00107391
-0.299704
-1.74188e-05
-0.201999
-6.15229e-06
-0.201989
-6.27931e-06
-0.201999
-6.49858e-06
-0.201995
1.41577e-05
-0.202004
-0.202014
-3.03783e-05
-0.0889624
-1.05189
4.28016e-05
-0.0891526
-1.05229
6.23062e-05
-0.0891169
-1.05218
4.95905e-05
-0.0891305
-1.05219
6.77166e-05
-0.0891647
-1.05225
-0.0890438
-1.05202
-3.01255e-06
0.219453
-0.608067
-4.12158e-05
0.219349
-0.608143
-2.87036e-05
0.219362
-0.608202
-1.95423e-05
0.219352
-0.60819
7.41417e-06
0.219337
-0.608229
0.219411
-0.60815
-1.5753e-05
-0.156466
-3.7235e-05
-0.156482
-2.59316e-05
-0.156529
-3.35622e-05
-0.156497
-2.23095e-06
-0.156537
-0.156528
0.000700193
1.22265
-0.286276
0.000167622
1.22193
-0.285373
0.000289265
1.22235
-0.285969
0.000238944
1.22229
-0.285812
5.85017e-06
1.22219
-0.285784
1.22234
-0.285696
0.000443415
0.398953
0.215188
5.81682e-06
0.398788
0.215441
3.15058e-05
0.398948
0.215176
1.3908e-05
0.398883
0.215237
-0.000179915
0.398956
0.215202
0.398925
0.215094
-1.28016e-05
0.215404
-3.64681e-05
0.21533
-1.30792e-06
0.215308
-3.64951e-05
0.21542
-9.77598e-05
0.215439
0.215172
-0.000243175
5.83137
-1.30849
0.000217943
5.83158
-1.30722
1.33603e-05
5.83165
-1.30793
-6.86671e-05
5.83165
-1.30785
0.000499907
5.83131
-1.30835
5.83184
-1.30728
-0.000561045
4.56274
1.48437
-7.54948e-05
4.56304
1.48349
-6.39638e-05
4.56336
1.48346
5.10208e-05
4.56352
1.48326
0.000202442
4.56368
1.48269
4.56342
1.48371
-0.000505006
1.74699
-5.43927e-05
1.74561
-1.47199e-05
1.74613
7.23236e-05
1.74618
0.000834626
1.74509
1.74749
0.000434814
1.71504
-3.33357
-0.000173649
1.72289
-3.33375
-0.000400164
1.71936
-3.33375
5.38404e-05
1.71889
-3.33396
0.00104268
1.72048
-3.33517
1.71814
-3.33222
-0.00343097
3.14365
0.0591981
-0.00031554
3.14656
0.0567079
-0.000249515
3.14546
0.0572921
3.96658e-06
3.14507
0.0568277
0.00350079
3.14511
0.0545613
3.14576
0.0595924
-0.00192037
1.46475
-7.10451e-05
1.46022
2.6108e-05
1.46223
0.000150846
1.46206
0.00306886
1.458
1.46721
-0.000498652
-2.70042
-0.981715
6.77262e-05
-2.69988
-0.980266
-6.62714e-05
-2.69989
-0.980958
-8.80093e-06
-2.70049
-0.981209
0.00106028
-2.70203
-0.980924
-2.69807
-0.981164
0.000565226
-0.7156
-1.92619
0.000535149
-0.716184
-1.92695
0.000830991
-0.715988
-1.92691
0.000229175
-0.716223
-1.92684
0.00109614
-0.719927
-1.92841
-0.711813
-1.92557
0.000273776
-0.982951
0.000550059
-0.985676
0.000570599
-0.984326
0.000311111
-0.984589
-0.000847187
-0.987595
-0.98076
-0.000810967
-1.85835
0.204312
8.16931e-05
-1.8584
0.204706
0.000238421
-1.85845
0.204593
3.70048e-05
-1.85822
0.20443
-6.38031e-05
-1.85815
0.20466
-1.85831
0.204215
-0.000896183
-3.05418
-0.729457
0.000315888
-3.05749
-0.729073
0.000567995
-3.05621
-0.729401
0.000182104
-3.05533
-0.72933
-0.000543147
-3.05575
-0.730087
-3.05573
-0.728696
0.000527367
-0.428107
0.000132028
-0.428024
3.82096e-05
-0.42804
4.4197e-05
-0.428269
-0.00100965
-0.428545
-0.427515
-0.00187392
-1.03373
-3.08214
4.11774
-0.00109971
-1.03833
-3.08245
4.12001
-0.00128908
-1.03526
-3.0802
4.11565
-0.00116596
-1.03984
-3.08427
4.12399
0.00580731
-1.05242
-3.08369
4.12913
-1.02426
-3.07367
4.10374
-0.0117121
-0.467622
-4.41424
3.85985
-0.00564301
-0.516369
-4.42231
3.89428
0.00253543
-0.521071
-4.41692
3.89455
-0.0143434
-0.454099
-4.41615
3.84728
-0.000355942
-0.482491
-4.41969
3.83577
-0.531877
-4.41547
3.92273
-0.0528459
-2.43385
2.20699
-0.00511512
-2.39176
2.23659
0.0425243
-2.38976
2.24424
-0.0109927
-2.43054
2.18066
-0.0504242
-2.42597
2.15511
-2.39641
2.28189
-0.000237058
-1.11465
-1.96725
-0.000573881
-1.11436
-1.96775
-0.00222308
-1.11152
-1.96704
-0.000481332
-1.11935
-1.96667
0.00372824
-1.12238
-1.96552
-1.10382
-1.96612
0.00261545
-2.46583
-3.06568
6.33031e-05
-2.46971
-3.06441
0.00114832
-2.46473
-3.06479
0.00536914
-2.47598
-3.06374
0.00126335
-2.47774
-3.06022
-2.44818
-3.06984
-0.0126281
-1.62808
-0.000616473
-1.62148
0.0147575
-1.6225
0.00106949
-1.62464
-0.0144605
-1.62182
-1.62718
-0.000122079
-0.692384
-1.27475
-0.000205476
-0.692787
-1.27488
-0.000857298
-0.691488
-1.2749
-0.000273825
-0.693785
-1.27346
0.00211718
-0.695774
-1.27213
-0.688763
-1.27524
-0.00137721
-1.27518
-2.48151
-0.00119151
-1.27568
-2.4817
-0.00154029
-1.27372
-2.48221
0.00031981
-1.27824
-2.48114
0.00551331
-1.28015
-2.48104
-1.26875
-2.48434
-0.00236096
-1.18816
-0.000687236
-1.18703
0.000152196
-1.18776
0.000678764
-1.18615
0.00191376
-1.18415
-1.18989
1.08008e-05
-0.540513
-0.734245
9.33307e-07
-0.540678
-0.734192
-3.22075e-05
-0.540699
-0.734163
0.000182764
-0.539835
-0.733843
0.000763906
-0.539494
-0.733222
-0.540156
-0.734321
-0.000985286
-1.29447
-1.72657
-0.000570172
-1.29621
-1.72659
-0.00115111
-1.29593
-1.7264
0.000164054
-1.29582
-1.72647
0.00577145
-1.30074
-1.72541
-1.29011
-1.72862
-0.000598013
-0.656131
-0.000367913
-0.655655
-0.000960908
-0.655866
-0.00041445
-0.654928
0.0014907
-0.653392
-0.658472
0.00014101
-0.259774
-0.474612
2.71848e-05
-0.259515
-0.474563
0.000185617
-0.259745
-0.474577
-0.000109258
-0.259023
-0.474525
-0.00100292
-0.257541
-0.474787
-0.261113
-0.474211
-0.000804306
-1.22495
-0.760594
-0.000204169
-1.22579
-0.760915
-0.000655851
-1.22515
-0.76055
0.000126507
-1.22574
-0.760544
0.00360782
-1.22731
-0.759117
-1.22409
-0.762037
-0.000461074
-0.126887
-0.000117639
-0.126793
-0.000218056
-0.126946
0.00039373
-0.126277
0.00261064
-0.12556
-0.127609
8.33945e-06
-0.270309
5.89431e-05
-0.269908
0.000219716
-0.270145
3.01825e-05
-0.269906
-0.000771021
-0.269326
-0.270768
-0.000857585
-1.7595
-9.08045e-06
-1.76074
3.48627e-05
-1.76014
9.64508e-05
-1.75984
0.000834193
-1.75927
-1.76067
-0.000484758
-0.000129023
-0.000381761
-0.000172625
0.00093804
3.71287e-08
0.230969
-0.0343535
-2.03438e-07
0.230976
-0.0343546
-1.60107e-07
0.230976
-0.0343544
5.83845e-08
0.230976
-0.0343542
2.20168e-07
0.230976
-0.034354
0.230969
-0.0343529
9.09136e-08
0.25307
-0.0221011
-2.02999e-07
0.253077
-0.0221018
-2.31874e-07
0.253077
-0.0221018
-2.00444e-07
0.253077
-0.0221017
-2.13896e-07
0.253077
-0.0221017
0.25307
-0.022101
-8.43936e-08
-0.00867428
-1.58518e-07
-0.00867463
-1.75665e-07
-0.00867465
-2.02487e-07
-0.00867463
-2.18911e-07
-0.00867461
-0.00867425
2.99979e-08
0.244547
-0.0727543
3.86451e-07
0.244554
-0.0727565
7.4166e-07
0.244554
-0.0727561
9.02288e-07
0.244554
-0.0727556
7.06111e-07
0.244553
-0.0727552
0.244546
-0.0727526
-3.07621e-07
0.268491
-0.046045
-6.28322e-08
0.268498
-0.0460463
1.07706e-07
0.268498
-0.0460461
1.30236e-07
0.268498
-0.0460459
1.05503e-07
0.268498
-0.0460457
0.268491
-0.0460442
-3.89471e-07
-0.0187251
-2.19936e-07
-0.0187258
-1.47067e-07
-0.0187258
-1.00643e-07
-0.0187258
7.48909e-08
-0.0187257
-0.0187249
8.51078e-07
0.272977
-0.121236
2.52727e-06
0.272984
-0.121239
3.13736e-06
0.272984
-0.121239
2.95465e-06
0.272983
-0.121238
2.32571e-06
0.272982
-0.121237
0.272974
-0.121233
-1.85232e-07
0.300702
-0.0737688
7.83967e-07
0.30071
-0.0737706
1.12143e-06
0.30071
-0.0737702
1.17159e-06
0.30071
-0.07377
1.25388e-06
0.300709
-0.07377
0.300701
-0.073768
-3.4016e-07
-0.0317102
-2.57236e-08
-0.0317114
1.97649e-07
-0.0317116
3.7949e-07
-0.0317115
6.8605e-07
-0.0317117
-0.0317104
3.93166e-06
0.319132
-0.189596
7.1752e-06
0.319139
-0.189602
7.4734e-06
0.319136
-0.189602
5.51652e-06
0.319134
-0.1896
3.56161e-06
0.319132
-0.189602
0.319122
-0.189598
1.80255e-06
0.353085
-0.107721
3.07184e-06
0.353095
-0.107724
2.74115e-06
0.353094
-0.107724
1.95666e-06
0.353094
-0.107725
1.33549e-06
0.353093
-0.107727
0.353083
-0.107726
1.81922e-07
-0.0488134
2.44232e-07
-0.0488155
3.91654e-07
-0.0488165
3.02799e-07
-0.0488164
5.49685e-07
-0.048818
-0.0488161
8.29679e-06
0.387799
-0.294211
1.0906e-05
0.387804
-0.29422
6.71953e-06
0.387799
-0.294216
5.32601e-07
0.387796
-0.294214
-4.43213e-06
0.387794
-0.294216
0.387785
-0.294219
3.60622e-06
0.431787
-0.15171
3.16749e-06
0.431798
-0.151715
-1.06887e-06
0.431796
-0.151715
-5.21452e-06
0.431795
-0.151718
-8.01376e-06
0.431795
-0.151724
0.431784
-0.151732
-3.04186e-07
-0.0696779
-1.92063e-06
-0.069682
-2.5617e-06
-0.069686
-4.55412e-06
-0.0696855
-2.68286e-06
-0.0696923
-0.0696891
9.15152e-06
0.487251
-0.462885
9.01978e-06
0.487254
-0.462899
-2.74071e-05
0.48725
-0.462857
-1.94065e-05
0.487261
-0.462902
1.67906e-05
0.487262
-0.46292
0.487256
-0.462854
2.2512e-06
0.547293
-0.211753
8.35383e-07
0.547306
-0.211766
-1.57421e-05
0.547301
-0.21175
-2.40574e-05
0.547301
-0.211751
-3.61031e-05
0.547302
-0.211751
0.547292
-0.211804
-5.56416e-06
-0.0872813
-9.77398e-06
-0.0872912
-8.40616e-06
-0.0873068
-1.92855e-05
-0.0872923
-1.47017e-05
-0.0873191
-0.0873265
-1.31428e-05
0.629795
-0.731194
0.000121192
0.629812
-0.731391
0.000115049
0.629833
-0.731173
-0.000100634
0.629814
-0.73103
-0.000616601
0.629851
-0.73067
0.629879
-0.731824
-4.0956e-05
0.703032
-0.284948
6.81078e-06
0.703061
-0.285063
-2.02637e-05
0.703058
-0.284948
-0.000102463
0.703082
-0.284936
-0.000287849
0.703101
-0.284815
0.703114
-0.285327
-8.71369e-06
-0.0951928
1.29599e-05
-0.0952347
4.24669e-05
-0.0952624
-2.77896e-05
-0.0951118
-0.000111885
-0.0951232
-0.0953488
0.000124044
0.911511
-1.19953
0.000924507
0.911634
-1.20052
0.00122014
0.91171
-1.19946
-0.000104512
0.911153
-1.19798
-0.00590606
0.911238
-1.19233
0.911527
-1.20602
-0.000265765
0.984005
-0.357176
0.000311405
0.98416
-0.358164
0.000625164
0.984087
-0.357636
-0.000341105
0.983916
-0.35673
-0.00302506
0.983887
-0.354779
0.984463
-0.361286
-0.000215705
0.0351579
-0.000289027
0.0349787
-0.000361931
0.0348256
-0.000366839
0.0346739
-0.000100893
0.0341741
0.0345821
0.00110843
1.26931
-1.79712
0.00126545
1.26929
-1.79767
7.01577e-05
1.26873
-1.79321
0.00124455
1.26995
-1.79788
-0.0065467
1.26922
-1.7803
1.26915
-1.80892
0.000287097
1.32045
-0.408602
0.00150388
1.32075
-0.410832
0.00194153
1.32021
-0.409556
0.000599583
1.32021
-0.405646
-0.00672599
1.31955
-0.397784
1.32041
-0.419268
-0.000328344
0.0774425
0.000829029
0.0758572
0.00279046
0.0747539
0.000169022
0.0797751
-0.00341195
0.07993
0.0734497
0.00147299
1.54853
-2.47027
-0.000394948
1.54344
-2.46641
-0.0114753
1.5402
-2.45312
0.00355954
1.55564
-2.48524
0.0168595
1.55576
-2.46633
1.53413
-2.4593
-0.00757215
1.13886
0.00864136
-0.00347481
1.14079
-0.0122827
0.00550198
1.13964
-0.0179663
-0.0053556
1.13976
0.0210963
-0.0327567
1.1374