/*--------------------------------*- C++ -*----------------------------------*\
| =========                 |                                                 |
| \\      /  F ield         | OpenFOAM: The Open Source CFD Toolbox           |
|  \\    /   O peration     | Version:  v1612+                                |
|   \\  /    A nd           | Web:      www.OpenFOAM.com                      |
|    \\/     M anipulation  |                                                 |
\*---------------------------------------------------------------------------*/
FoamFile
{
    version     2.0;
    format      ascii;
    class       volVectorField;
    location    "3.9";
    object      U;
}
// * * * * * * * * * * * * * * * * * * * * * * * * * * * * * * * * * * * * * //

dimensions      [0 1 -1 0 0 0 0];

internalField   nonuniform List<vector> 
1116
(
(0.280184 1.59839e-05 -0.268888)
(0.280179 2.07417e-05 -0.268896)
(0.280183 3.96246e-06 -0.268883)
(0.280183 1.0983e-05 -0.268881)
(0.28018 -9.90271e-06 -0.268894)
(0.280183 -1.6337e-05 -0.26888)
(0.87784 1.84008e-05 -0.376459)
(0.877843 1.96586e-05 -0.376474)
(0.877841 5.42076e-06 -0.376456)
(0.877842 1.01066e-05 -0.376451)
(0.877841 -3.63943e-06 -0.376469)
(0.877839 -1.40153e-05 -0.376458)
(1.30495 1.74603e-05 -0.302973)
(1.30497 1.60455e-05 -0.302993)
(1.30497 3.13731e-06 -0.302976)
(1.30497 6.95578e-06 -0.302971)
(1.30497 1.08469e-06 -0.30299)
(1.30495 -9.27411e-06 -0.30298)
(1.61872 1.53343e-05 -0.181807)
(1.61877 1.36461e-05 -0.18183)
(1.61875 1.7447e-06 -0.181816)
(1.61876 5.61141e-06 -0.181813)
(1.61876 1.93696e-06 -0.18183)
(1.61873 -6.28549e-06 -0.181818)
(1.8528 1.31227e-05 -0.073727)
(1.85286 1.26005e-05 -0.0737472)
(1.85284 1.0904e-06 -0.0737364)
(1.85285 3.92748e-06 -0.0737352)
(1.85286 1.14672e-06 -0.0737488)
(1.85281 -4.1284e-06 -0.0737358)
(1.95047 1.02e-05 0.0209199)
(1.95054 1.15679e-05 0.0209057)
(1.95052 -9.8895e-08 0.0209145)
(1.95052 2.22952e-06 0.0209152)
(1.95053 -2.72548e-06 0.0209049)
(1.95047 -3.98645e-06 0.0209179)
(1.83187 7.01629e-06 0.126581)
(1.83194 1.08724e-05 0.126571)
(1.83192 -1.1895e-06 0.126579)
(1.83192 7.67298e-07 0.12658)
(1.83193 -7.92842e-06 0.126571)
(1.83186 -5.02399e-06 0.126584)
(1.40067 2.16459e-07 0.324331)
(1.40074 7.84596e-06 0.324324)
(1.40073 -2.29904e-06 0.324329)
(1.40073 -1.96969e-06 0.324329)
(1.40074 -1.26971e-05 0.324321)
(1.40066 -4.6195e-06 0.324337)
(0.460646 3.85989e-06 0.706824)
(0.460698 1.3969e-05 0.706837)
(0.460707 -5.56865e-06 0.706826)
(0.460701 9.33787e-07 0.706827)
(0.460713 -2.22085e-05 0.706828)
(0.460617 -1.49481e-05 0.706839)
(-0.855832 2.37531e-05 0.632539)
(-0.855787 2.91368e-05 0.632613)
(-0.855759 -7.4013e-06 0.632594)
(-0.855767 1.30761e-05 0.632593)
(-0.855736 -2.27747e-05 0.632619)
(-0.855924 -2.55626e-05 0.632539)
(-1.73368 4.80258e-05 -0.441764)
(-1.73363 3.23769e-05 -0.441695)
(-1.7336 -1.55421e-05 -0.441695)
(-1.73361 1.6958e-05 -0.441705)
(-1.73357 -2.25182e-05 -0.441672)
(-1.73377 -2.64504e-05 -0.441831)
(-1.0045 1.04907e-05 -1.20056)
(-1.00442 -6.44708e-06 -1.20059)
(-1.00443 -1.71662e-05 -1.20059)
(-1.00443 -8.33904e-06 -1.2006)
(-1.0044 -3.5735e-06 -1.20061)
(-1.00448 9.05895e-06 -1.20061)
(1.43481 0.000194286 -1.58065)
(1.43522 0.000297675 -1.5805)
(1.43547 5.99527e-05 -1.5805)
(1.43516 -2.31045e-05 -1.58052)
(1.43517 7.09601e-05 -1.58046)
(1.43524 -3.82507e-05 -1.58062)
(5.53063 1.39237e-05 -1.32603)
(5.53129 -4.76837e-05 -1.32592)
(5.53165 3.0737e-05 -1.32591)
(5.53119 4.35352e-05 -1.32594)
(5.53124 8.11223e-05 -1.3259)
(5.53125 -3.71461e-05 -1.32596)
(9.25324 -0.000101004 -1.00987)
(9.25366 -0.00023819 -1.00977)
(9.25388 -3.56016e-05 -1.00978)
(9.25359 -0.000101592 -1.00982)
(9.25363 0.000109373 -1.00978)
(9.25362 7.41981e-05 -1.00978)
(13.1387 -0.000211307 -0.739276)
(13.1388 -0.000396593 -0.739187)
(13.139 -0.000138801 -0.739205)
(13.1387 -0.000373244 -0.739226)
(13.1385 0.000126115 -0.739189)
(13.1389 0.000206374 -0.739193)
(12.4952 -0.000159338 0.066038)
(12.4942 -0.000335883 0.0661193)
(12.4946 -9.29334e-05 0.0661003)
(12.494 -0.000336599 0.0660854)
(12.493 8.80354e-05 0.066123)
(12.4945 0.000130421 0.0660998)
(6.8416 4.07855e-05 0.104482)
(6.84108 -7.54442e-05 0.104502)
(6.84116 4.38023e-05 0.104502)
(6.84084 -3.39719e-05 0.10448)
(6.84042 7.33125e-05 0.104471)
(6.84115 -3.72441e-05 0.104484)
(4.41223 3.40152e-05 0.375495)
(4.41229 -3.3084e-05 0.375537)
(4.41219 2.18005e-05 0.375534)
(4.41213 -1.86754e-05 0.375529)
(4.41214 3.77694e-05 0.375529)
(4.41212 -3.00023e-05 0.375509)
(3.11151 3.88827e-05 0.93174)
(3.11179 -6.7492e-06 0.931765)
(3.11166 -8.48215e-06 0.931759)
(3.11164 -1.52805e-05 0.93176)
(3.11174 -8.4204e-06 0.931761)
(3.11151 -4.31385e-05 0.931741)
(1.79102 6.8871e-05 1.35694)
(1.7913 3.28525e-05 1.35703)
(1.7912 -1.94195e-05 1.35699)
(1.7912 1.0535e-05 1.357)
(1.79129 -3.31681e-05 1.35701)
(1.79105 -6.33214e-05 1.35696)
(0.869175 8.66886e-05 1.24401)
(0.86948 6.36406e-05 1.24417)
(0.869377 -1.3891e-05 1.24411)
(0.869379 2.72865e-05 1.24411)
(0.869479 -2.86069e-05 1.24414)
(0.869207 -5.36112e-05 1.24404)
(0.0446737 0.000106857 0.285491)
(0.0449781 8.34853e-05 0.285785)
(0.0448973 -8.40553e-06 0.285673)
(0.044899 3.93598e-05 0.285671)
(0.0449979 -3.05109e-05 0.285735)
(0.0447307 -5.00733e-05 0.285531)
(-0.399347 -3.47398e-05 -1.29759)
(-0.398844 -3.80271e-05 -1.29738)
(-0.398964 -1.90829e-06 -1.29744)
(-0.398968 -1.33487e-05 -1.29746)
(-0.398823 2.60808e-05 -1.29739)
(-0.399264 4.27454e-05 -1.29759)
(-0.281399 -0.000114663 -4.85757)
(-0.281415 -8.17151e-05 -4.85754)
(-0.281477 1.79165e-05 -4.85753)
(-0.281441 -2.48817e-06 -4.85759)
(-0.281403 0.000100226 -4.85749)
(-0.2815 0.000130356 -4.85756)
(-1.42173 -0.00010068 -5.3461)
(-1.42179 -7.48113e-05 -5.34641)
(-1.42187 8.97015e-06 -5.34636)
(-1.4218 9.89721e-06 -5.34633)
(-1.42173 0.000104209 -5.34635)
(-1.42181 0.000127815 -5.34604)
(-2.59615 -0.000103042 -4.8172)
(-2.5962 -8.84582e-05 -4.81752)
(-2.59619 5.84819e-06 -4.81738)
(-2.59618 -2.11118e-05 -4.81744)
(-2.59614 0.000120015 -4.81752)
(-2.59601 0.000145041 -4.817)
(-2.36003 -0.000134612 -1.25543)
(-2.36031 -0.000161521 -1.25584)
(-2.36014 -3.27769e-05 -1.25563)
(-2.36025 -0.000108196 -1.25575)
(-2.36036 0.000125706 -1.25594)
(-2.35972 0.00017514 -1.25518)
(1.01328 -6.45175e-06 3.51322)
(1.01267 -9.29036e-05 3.51276)
(1.01298 -1.68721e-05 3.51302)
(1.01267 -3.93945e-05 3.51278)
(1.01228 4.99653e-06 3.51244)
(1.01339 -3.21667e-05 3.5133)
(3.03359 6.96966e-05 5.16648)
(3.03314 -2.73599e-05 5.16569)
(3.03332 -1.39054e-05 5.16597)
(3.03307 2.98047e-05 5.1656)
(3.03282 -3.80975e-05 5.16505)
(3.03355 -0.000122812 5.16615)
(5.02947 3.54886e-05 3.35072)
(5.0295 -1.79387e-05 3.35)
(5.02934 7.22879e-06 3.35014)
(5.02919 -3.00094e-05 3.34986)
(5.02917 -4.74243e-05 3.34946)
(5.02926 -8.06559e-05 3.35029)
(6.52133 0.000176651 2.88044)
(6.52192 0.000102258 2.88039)
(6.52157 -2.29629e-05 2.88027)
(6.52152 -3.67493e-05 2.88019)
(6.52158 -7.2072e-05 2.88017)
(6.52162 -9.7475e-05 2.8802)
(1.68269 0.000227831 2.73794)
(1.68515 0.0001438 2.73827)
(1.68399 -3.49777e-05 2.73808)
(1.68403 1.16699e-05 2.73807)
(1.68457 -1.32488e-05 2.7382)
(1.68339 -4.67157e-05 2.73791)
(1.07008 0.000380556 1.79923)
(1.07133 0.00022474 1.79986)
(1.07073 -0.000102298 1.7996)
(1.07074 0.000109167 1.7996)
(1.07104 -8.42462e-05 1.79976)
(1.07044 -0.00018713 1.7994)
(0.525724 0.000402086 0.422645)
(0.526563 0.000242479 0.423138)
(0.526234 -0.000118648 0.422916)
(0.526254 0.000111299 0.42295)
(0.526477 -0.000108493 0.423031)
(0.525932 -0.000195848 0.422772)
(-0.651124 -0.000124624 -1.17549)
(-0.650324 -9.4576e-05 -1.17502)
(-0.650545 2.38869e-05 -1.17518)
(-0.650535 -3.52883e-05 -1.17517)
(-0.650346 7.84115e-05 -1.17502)
(-0.650949 0.00010221 -1.17539)
(-0.379382 -1.58116e-05 -2.39634)
(-0.379286 -2.24759e-06 -2.39687)
(-0.379307 -6.13588e-06 -2.39679)
(-0.379302 -2.07101e-06 -2.39681)
(-0.379274 -1.7371e-05 -2.39693)
(-0.379405 1.00619e-05 -2.39632)
(-1.30726 2.00287e-05 -2.65568)
(-1.30698 2.80536e-05 -2.65622)
(-1.30702 -6.82847e-06 -2.65613)
(-1.30701 9.12518e-06 -2.65614)
(-1.30694 -2.17807e-05 -2.65624)
(-1.30728 -1.21358e-05 -2.65564)
(-2.61618 3.40582e-06 -2.76014)
(-2.61577 -3.98422e-06 -2.76061)
(-2.61584 -1.77725e-05 -2.76055)
(-2.61582 1.31088e-05 -2.76053)
(-2.61571 -1.57345e-05 -2.7606)
(-2.61617 -1.22513e-05 -2.76009)
(-3.79672 -1.42654e-05 -2.58941)
(-3.79635 -4.21367e-05 -2.58986)
(-3.79642 -4.92036e-05 -2.58978)
(-3.79641 9.20021e-06 -2.58976)
(-3.79632 -3.57837e-05 -2.58983)
(-3.79665 -3.17543e-05 -2.58929)
(-3.52684 -2.71686e-05 -1.70521)
(-3.52661 -6.36127e-05 -1.70572)
(-3.52666 -5.03921e-05 -1.70561)
(-3.5267 2.08408e-05 -1.70567)
(-3.52668 -8.73407e-06 -1.70581)
(-3.5268 -1.12633e-05 -1.70509)
(-2.25137 -8.83868e-06 -1.66974)
(-2.25134 -2.29058e-05 -1.67028)
(-2.25142 4.22804e-06 -1.67024)
(-2.25153 6.81872e-05 -1.67034)
(-2.2516 4.14307e-06 -1.67048)
(-2.25156 -2.06037e-05 -1.66992)
(-1.6959 -8.52641e-05 -1.41845)
(-1.69603 -3.39264e-05 -1.41909)
(-1.69613 0.000139959 -1.41904)
(-1.69622 0.000110381 -1.41919)
(-1.69631 0.000156474 -1.41935)
(-1.69619 0.000151653 -1.41901)
(2.5679 0.000369377 4.55093)
(2.56724 0.000280654 4.55028)
(2.56722 0.000187445 4.55063)
(2.56729 0.000299378 4.55046)
(2.56691 7.88665e-05 4.55026)
(2.56804 4.21425e-07 4.55017)
(-1.97471 0.000697514 8.23889)
(-1.96795 0.000453295 8.24348)
(-1.97164 -9.41469e-05 8.24105)
(-1.97087 0.000193118 8.24109)
(-1.96958 4.68708e-05 8.24143)
(-1.97168 -5.81109e-05 8.24102)
(-2.35851 0.00170609 1.94709)
(-2.3558 0.0010269 1.95162)
(-2.35713 -0.000668535 1.94951)
(-2.35753 0.000499747 1.94937)
(-2.35652 -0.000390781 1.95053)
(-2.35789 -0.000915528 1.94836)
(0.66314 0.00102563 1.18254)
(0.66641 0.000564457 1.18645)
(0.664951 -0.00048817 1.18468)
(0.664718 0.000243778 1.18443)
(0.665625 -0.000136011 1.18548)
(0.664115 -0.000430324 1.18364)
(-0.777497 -0.000147627 -1.09273)
(-0.777061 -5.8995e-05 -1.09227)
(-0.777151 6.71172e-05 -1.09239)
(-0.777219 7.11127e-07 -1.09239)
(-0.777371 0.000101279 -1.09224)
(-0.777237 7.07557e-05 -1.09264)
(0.0498767 -9.63691e-07 0.0505241)
(0.0498791 -3.03055e-06 0.050525)
(0.04988 -4.65747e-06 0.0505249)
(0.0498807 -4.96386e-06 0.0505248)
(0.0498815 -4.06946e-06 0.0505248)
(0.049881 -1.66296e-06 0.0505233)
(0.151369 -1.68693e-06 0.0524277)
(0.151377 -4.26184e-06 0.0524291)
(0.15138 -6.42423e-06 0.052429)
(0.151382 -6.71406e-06 0.0524289)
(0.151384 -5.792e-06 0.0524286)
(0.151383 -2.17488e-06 0.0524262)
(0.258237 -2.85448e-06 0.0567515)
(0.258252 -6.87954e-06 0.0567535)
(0.258257 -9.32318e-06 0.0567533)
(0.258261 -9.24478e-06 0.0567526)
(0.258264 -8.04223e-06 0.0567514)
(0.258261 -3.24825e-06 0.0567478)
(0.373759 -6.44189e-06 0.065253)
(0.373784 -1.24432e-05 0.0652497)
(0.37379 -1.22494e-05 0.0652467)
(0.373793 -9.62723e-06 0.0652432)
(0.373795 -7.38395e-06 0.0652396)
(0.373788 -2.94537e-06 0.0652332)
(0.499682 -1.10659e-05 0.0813062)
(0.499717 -1.37378e-05 0.081286)
(0.499716 -2.76195e-06 0.0812756)
(0.499709 5.85612e-06 0.0812682)
(0.4997 9.5442e-06 0.0812629)
(0.499682 5.07854e-06 0.0812571)
(0.634033 -1.22285e-05 0.109303)
(0.634066 3.10344e-06 0.109253)
(0.634045 3.72293e-05 0.109233)
(0.634012 5.35961e-05 0.109225)
(0.633975 5.65838e-05 0.109226)
(0.633924 2.71432e-05 0.109231)
(0.767705 -3.71688e-06 0.151976)
(0.767717 5.03328e-05 0.151903)
(0.767652 0.000120488 0.151886)
(0.767576 0.000144222 0.151897)
(0.767493 0.000139535 0.151924)
(0.767385 6.52944e-05 0.151961)
(0.877261 1.59793e-05 0.202688)
(0.87722 0.000119005 0.202627)
(0.877095 0.000220864 0.20264)
(0.876971 0.000238374 0.202709)
(0.876864 0.000210459 0.202788)
(0.876708 9.53266e-05 0.202878)
(0.930538 5.26384e-05 0.228221)
(0.930412 0.000173356 0.228242)
(0.930274 0.000274421 0.228282)
(0.930046 0.000235986 0.228516)
(0.930055 0.000130018 0.228585)
(0.929964 5.49503e-05 0.228714)
(0.887081 9.11407e-05 0.164529)
(0.886833 9.74698e-05 0.164757)
(0.886845 0.000350856 0.164648)
(0.88645 0.000180814 0.16538)
(0.886654 -0.000297827 0.165126)
(0.88677 -0.000126729 0.165029)
(0.450598 0.00017511 -0.0139917)
(0.450268 -0.000223175 -0.0136371)
(0.450166 0.000305985 -0.0142995)
(0.450304 0.000166955 -0.012766)
(0.450077 -0.00114023 -0.013337)
(0.450275 -0.00059805 -0.0148618)
(-0.137663 0.000203123 0.673708)
(-0.137827 -0.000185608 0.67397)
(-0.138003 9.79466e-05 0.673863)
(-0.137732 0.000170156 0.673972)
(-0.138191 -0.00119462 0.674859)
(-0.137823 -0.000867163 0.672564)
(0.0495469 -1.40259e-06 0.148074)
(0.0495497 -3.93269e-06 0.148078)
(0.0495507 -4.78082e-06 0.148078)
(0.0495514 -4.8331e-06 0.148079)
(0.0495522 -3.431e-06 0.148079)
(0.0495517 -1.47836e-06 0.148075)
(0.149955 -2.20643e-06 0.153017)
(0.149964 -5.13614e-06 0.153021)
(0.149967 -6.12381e-06 0.153021)
(0.149969 -5.94702e-06 0.153021)
(0.149971 -4.54907e-06 0.153021)
(0.149969 -1.80256e-06 0.153015)
(0.25372 -3.19599e-06 0.161593)
(0.253737 -6.5882e-06 0.161597)
(0.253741 -6.76373e-06 0.161596)
(0.253743 -6.00022e-06 0.161595)
(0.253745 -4.63613e-06 0.161593)
(0.253741 -2.10032e-06 0.161584)
(0.361363 -2.72693e-06 0.170219)
(0.36139 -2.49188e-06 0.17021)
(0.361393 1.40187e-06 0.170202)
(0.361391 3.63672e-06 0.170194)
(0.361389 4.0111e-06 0.170185)
(0.36138 1.29783e-06 0.170173)
(0.471888 4.25681e-06 0.171589)
(0.471921 1.83555e-05 0.171544)
(0.471916 3.07959e-05 0.17152)
(0.471903 3.42637e-05 0.171504)
(0.471889 2.99218e-05 0.171494)
(0.471867 1.18844e-05 0.171488)
(0.583211 1.81718e-05 0.152695)
(0.583232 5.51649e-05 0.152592)
(0.583201 7.76488e-05 0.152554)
(0.583162 7.89324e-05 0.152545)
(0.583124 6.50615e-05 0.152556)
(0.583072 2.6025e-05 0.152585)
(0.693713 4.39894e-05 0.0947259)
(0.693698 0.000105859 0.0945638)
(0.69362 0.000125549 0.0945396)
(0.693535 0.000115292 0.0945791)
(0.693471 8.80376e-05 0.0946533)
(0.693377 3.54072e-05 0.0947631)
(0.804346 5.93262e-05 -0.0325947)
(0.804236 0.000118544 -0.0327564)
(0.804128 0.000140609 -0.0327037)
(0.803894 9.14929e-05 -0.0325352)
(0.803897 1.90865e-05 -0.0323415)
(0.803789 7.89847e-06 -0.0321388)
(0.913196 9.90635e-05 -0.253074)
(0.912867 4.37686e-05 -0.253093)
(0.912811 0.000248078 -0.253038)
(0.912036 5.56162e-05 -0.252508)
(0.912307 -0.00033546 -0.252419)
(0.912359 -8.86124e-05 -0.252312)
(0.931831 0.000237913 -0.618656)
(0.931281 -0.000383381 -0.618374)
(0.93162 0.000976054 -0.619943)
(0.929993 0.000545974 -0.615582)
(0.930488 -0.00182279 -0.617522)
(0.931698 -0.000780824 -0.619869)
(-0.254351 0.000405941 -1.39823)
(-0.254845 -0.00176831 -1.39742)
(-0.254796 0.0023772 -1.40128)
(-0.255076 0.00269478 -1.39288)
(-0.255658 -0.00636131 -1.39612)
(-0.254333 -0.00456038 -1.40237)
(-0.655499 0.000374789 -1.36371)
(-0.655947 0.00026645 -1.36252)
(-0.656964 -0.000499262 -1.36454)
(-0.654577 0.00163269 -1.36177)
(-0.657 -0.00294655 -1.36124)
(-0.656544 -0.00499798 -1.3643)
(0.0470369 -8.84911e-07 0.241301)
(0.0470392 -2.50959e-06 0.241308)
(0.0470396 -2.83649e-06 0.241309)
(0.0470399 -2.67528e-06 0.24131)
(0.04704 -1.51293e-06 0.24131)
(0.0470387 -6.15121e-07 0.241304)
(0.144182 -1.65179e-06 0.25103)
(0.14419 -3.12664e-06 0.251037)
(0.144191 -3.01163e-06 0.251038)
(0.144191 -2.42551e-06 0.251038)
(0.144191 -1.14356e-06 0.251038)
(0.144187 -1.77912e-07 0.251029)
(0.251556 -2.383e-06 0.269778)
(0.251571 -2.93292e-06 0.269783)
(0.251572 -7.33571e-07 0.269781)
(0.251571 7.79602e-07 0.269779)
(0.251569 2.04322e-06 0.269776)
(0.251559 1.25434e-06 0.269764)
(0.378462 -5.67123e-07 0.296492)
(0.378488 4.88572e-06 0.296483)
(0.378486 1.23873e-05 0.296472)
(0.378479 1.55552e-05 0.296462)
(0.378469 1.5223e-05 0.296453)
(0.378447 6.99729e-06 0.296438)
(0.536676 8.34492e-06 0.330217)
(0.536713 2.92145e-05 0.330178)
(0.5367 4.4022e-05 0.330152)
(0.536679 4.65069e-05 0.330137)
(0.536654 3.90364e-05 0.33013)
(0.536609 1.64562e-05 0.330125)
(0.737141 2.27263e-05 0.369413)
(0.737189 6.26505e-05 0.369338)
(0.737154 7.897e-05 0.369301)
(0.737107 7.1551e-05 0.3693)
(0.737062 5.02081e-05 0.369314)
(0.736995 1.90301e-05 0.36935)
(0.985877 2.754e-05 0.411404)
(0.985907 6.39005e-05 0.411318)
(0.985847 6.53127e-05 0.411281)
(0.985738 3.68783e-05 0.411327)
(0.985686 -2.56089e-05 0.411393)
(0.985647 -3.15236e-05 0.411496)
(1.25452 4.20419e-05 0.446541)
(1.25443 1.50654e-06 0.446561)
(1.25449 -5.17601e-06 0.446522)
(1.254 -4.90839e-05 0.446737)
(1.25414 -0.000290041 0.446834)
(1.25436 -0.000202606 0.446931)
(1.50233 0.000149511 0.28463)
(1.50197 -0.00054789 0.285011)
(1.50354 0.000560003 0.284142)
(1.49965 0.000273314 0.286704)
(1.50151 -0.00170346 0.285467)
(1.50396 -0.000725002 0.284986)
(1.67132 0.000506341 -0.821911)
(1.67105 -0.00429565 -0.821097)
(1.67726 0.00614112 -0.826774)
(1.663 0.00535035 -0.813382)
(1.671 -0.011774 -0.820697)
(1.6761 -0.00621067 -0.825117)
(1.7719 0.00153405 -1.81054)
(1.7754 -0.00565977 -1.81113)
(1.81378 0.00921805 -1.83023)
(1.72076 0.0115727 -1.78727)
(1.75337 -0.0173448 -1.79307)
(1.81565 -0.0118253 -1.84121)
(-1.12921 0.00308189 4.4367)
(-1.12884 -0.000635512 4.43987)
(-1.1261 0.00135973 4.4427)
(-1.13266 0.00853957 4.43764)
(-1.13969 -0.00666488 4.47683)
(-1.12042 -0.0100588 4.40732)
(0.0415325 -5.43835e-07 0.325206)
(0.0415344 -1.30718e-06 0.325215)
(0.0415345 -1.0506e-06 0.325216)
(0.0415344 -7.83757e-07 0.325216)
(0.0415342 1.98661e-08 0.325217)
(0.0415327 1.1589e-08 0.325208)
(0.126928 -6.4935e-07 0.340503)
(0.126934 -8.00751e-07 0.340513)
(0.126934 -1.02748e-07 0.340512)
(0.126934 4.81282e-07 0.340512)
(0.126932 1.13184e-06 0.340511)
(0.126927 6.74164e-07 0.3405)
(0.218382 1.50157e-07 0.370617)
(0.218392 2.04449e-06 0.370624)
(0.21839 4.48699e-06 0.37062)
(0.218387 5.46352e-06 0.370617)
(0.218383 5.52671e-06 0.370613)
(0.218372 2.49958e-06 0.370598)
(0.317985 4.92341e-06 0.412877)
(0.317998 1.35637e-05 0.412874)
(0.317992 1.87713e-05 0.412861)
(0.317983 1.95308e-05 0.412852)
(0.317973 1.69032e-05 0.412843)
(0.317951 7.06376e-06 0.412826)
(0.427701 1.52001e-05 0.460658)
(0.427713 3.28758e-05 0.460639)
(0.4277 3.60249e-05 0.460617)
(0.427679 3.12025e-05 0.460607)
(0.427665 2.12555e-05 0.460604)
(0.427632 7.45767e-06 0.460598)
(0.55422 2.41926e-05 0.498502)
(0.554207 3.1815e-05 0.498467)
(0.554209 2.41174e-05 0.498452)
(0.554147 2.37778e-06 0.498458)
(0.554165 -2.54129e-05 0.498481)
(0.554134 -1.298e-05 0.498512)
(0.715175 3.45003e-05 0.503312)
(0.715078 -4.47241e-05 0.503246)
(0.715239 -5.08371e-05 0.503282)
(0.71496 -9.29884e-05 0.503342)
(0.715194 -0.0001995 0.503458)
(0.715227 -8.0409e-05 0.503404)
(1.009 0.000113333 0.377617)
(1.00856 -0.000371386 0.377497)
(1.00974 3.42646e-05 0.377956)
(1.00775 -7.60264e-05 0.377732)
(1.00911 -0.000891809 0.378723)
(1.00977 -0.000307238 0.377531)
(1.80585 0.000693881 0.00106853)
(1.8047 -0.00264836 0.000904255)
(1.80846 0.00306622 0.00370834)
(1.80153 0.00240763 -0.00103305)
(1.80646 -0.00630391 0.00304265)
(1.80795 -0.00235251 0.00222674)
(2.58281 0.0025616 0.0305547)
(2.58489 -0.00562646 0.0278713)
(2.60569 0.00759133 0.0175437)
(2.5515 0.00694698 0.0436635)
(2.57765 -0.0134914 0.0402596)
(2.60364 -0.00407183 0.0129425)
(7.20014 0.000100522 -3.50927)
(7.19549 0.00212967 -3.51843)
(7.25779 -0.00166008 -3.58226)
(7.11319 -0.0037671 -3.41914)
(7.15597 0.0141801 -3.42603)
(7.27384 0.0165855 -3.62184)
(8.08724 -0.0020623 -4.70349)
(8.08031 -0.000903606 -4.71015)
(8.07449 0.00186714 -4.72832)
(8.10176 -0.00150772 -4.67219)
(8.11133 0.00926957 -4.6549)
(8.05636 0.0130818 -4.75172)
(-0.0449213 3.97139e-05 -2.44283)
(-0.0449211 2.538e-05 -2.44324)
(-0.0449198 -7.61171e-06 -2.44317)
(-0.0449207 2.05275e-06 -2.44317)
(-0.044922 -3.53408e-05 -2.44324)
(-0.0449212 -4.62924e-05 -2.44282)
(-0.102117 3.6202e-05 -2.2746)
(-0.10212 3.18242e-05 -2.27488)
(-0.102119 -7.79093e-06 -2.27483)
(-0.10212 4.15986e-06 -2.27483)
(-0.10212 -3.37516e-05 -2.27488)
(-0.102118 -3.86831e-05 -2.27459)
(-0.0256651 2.06947e-05 -2.10007)
(-0.0256645 2.01684e-05 -2.10021)
(-0.0256648 1.9225e-07 -2.10019)
(-0.0256651 2.13855e-06 -2.10019)
(-0.0256649 -1.838e-05 -2.10021)
(-0.0256666 -2.089e-05 -2.10006)
(-0.328226 4.24429e-05 -2.43026)
(-0.328234 2.47476e-05 -2.4307)
(-0.328229 -1.13002e-05 -2.43062)
(-0.328235 -1.33429e-06 -2.43062)
(-0.328244 -3.74591e-05 -2.43071)
(-0.328229 -5.23926e-05 -2.43022)
(-0.383152 3.73835e-05 -2.19696)
(-0.383158 3.50089e-05 -2.19723)
(-0.38316 -9.50523e-06 -2.19718)
(-0.38316 3.80512e-06 -2.19718)
(-0.38316 -4.17602e-05 -2.19724)
(-0.383161 -4.4342e-05 -2.19694)
(-0.0783415 2.02555e-05 -1.98492)
(-0.0783399 1.84883e-05 -1.98507)
(-0.0783413 -9.44141e-07 -1.98505)
(-0.0783421 1.78056e-06 -1.98505)
(-0.0783418 -1.97984e-05 -1.98507)
(-0.0783444 -2.30852e-05 -1.98492)
(-0.597757 2.56209e-05 -1.92686)
(-0.597797 1.20325e-05 -1.92729)
(-0.597792 -1.17937e-05 -1.92721)
(-0.5978 -4.44535e-06 -1.92721)
(-0.597815 -2.58491e-05 -1.92731)
(-0.597776 -4.0006e-05 -1.9268)
(-0.700749 3.80944e-05 -1.86842)
(-0.700766 3.2676e-05 -1.86869)
(-0.700765 -1.52815e-05 -1.86864)
(-0.700763 -7.76321e-07 -1.86864)
(-0.700765 -5.08903e-05 -1.8687)
(-0.700749 -5.09788e-05 -1.86841)
(-0.143315 1.93011e-05 -1.58577)
(-0.14331 1.46901e-05 -1.58592)
(-0.143313 -4.48181e-06 -1.5859)
(-0.143314 -1.06117e-06 -1.5859)
(-0.143314 -2.13642e-05 -1.58593)
(-0.143317 -2.38937e-05 -1.58578)
(-0.849551 3.72495e-06 -0.924113)
(-0.849625 -7.08756e-06 -0.924561)
(-0.849616 -1.19848e-05 -0.92447)
(-0.849616 -7.60921e-06 -0.924476)
(-0.84963 -1.80617e-05 -0.924581)
(-0.849571 -3.01624e-05 -0.924101)
(-0.974442 4.13541e-05 -1.42268)
(-0.974457 3.32869e-05 -1.42294)
(-0.974449 -1.60185e-05 -1.4229)
(-0.974442 2.35523e-06 -1.42289)
(-0.974444 -4.86444e-05 -1.42294)
(-0.974415 -4.97219e-05 -1.42267)
(-0.20536 1.82484e-05 -1.0677)
(-0.20535 1.10813e-05 -1.06785)
(-0.205353 -7.22247e-06 -1.06784)
(-0.205353 -2.68681e-06 -1.06785)
(-0.205352 -1.82851e-05 -1.06788)
(-0.205359 -2.0056e-05 -1.06773)
(-0.879266 -1.001e-05 0.602106)
(-0.879358 -1.41205e-05 0.60163)
(-0.879339 6.36551e-06 0.601718)
(-0.879335 5.98676e-06 0.6017)
(-0.879355 2.75271e-06 0.60158)
(-0.879293 -1.25435e-05 0.602041)
(-0.993786 6.22593e-05 -0.82296)
(-0.993825 5.9237e-05 -0.823232)
(-0.993818 -3.91399e-06 -0.823188)
(-0.993813 1.74236e-05 -0.823189)
(-0.993822 -5.30719e-05 -0.82324)
(-0.99377 -6.10716e-05 -0.822966)
(-0.279278 1.63928e-05 -0.387587)
(-0.27927 8.05618e-06 -0.387752)
(-0.279275 -6.67867e-06 -0.387739)
(-0.279274 -3.56088e-07 -0.387745)
(-0.279271 -1.18353e-05 -0.387766)
(-0.27928 -1.48889e-05 -0.387598)
(-0.984964 -2.28583e-05 0.888154)
(-0.985043 -1.47924e-05 0.887727)
(-0.985019 1.11326e-05 0.887781)
(-0.984999 3.59339e-06 0.887759)
(-0.984994 1.88254e-06 0.887672)
(-0.984946 -1.51949e-05 0.888076)
(-0.712232 3.73651e-05 -0.220722)
(-0.712282 1.80627e-05 -0.220966)
(-0.712292 -1.60798e-05 -0.220952)
(-0.712294 1.17356e-05 -0.220951)
(-0.712307 -4.17234e-05 -0.220996)
(-0.71225 -4.45072e-05 -0.220714)
(-0.313887 1.41423e-07 0.124807)
(-0.313876 -1.05722e-05 0.124675)
(-0.31389 -9.35993e-06 0.124707)
(-0.31389 -1.7182e-06 0.124703)
(-0.3139 -3.3414e-07 0.124679)
(-0.313908 -1.15913e-07 0.124833)
(-1.84339 -1.46722e-05 -0.600912)
(-1.84382 -1.71702e-06 -0.601509)
(-1.84375 4.34018e-05 -0.601338)
(-1.84379 6.57368e-05 -0.601371)
(-1.84379 5.74593e-05 -0.601509)
(-1.8436 3.74203e-05 -0.601121)
(-0.401052 2.6885e-05 0.350052)
(-0.401042 -2.52989e-05 0.349864)
(-0.401169 -5.15468e-05 0.349864)
(-0.40112 -1.28221e-05 0.349854)
(-0.401103 -8.46223e-06 0.349856)
(-0.40118 7.24401e-06 0.349927)
(-0.528319 4.08393e-06 0.354735)
(-0.528292 -2.87153e-05 0.354601)
(-0.528319 -3.09106e-05 0.354634)
(-0.528296 -2.55753e-05 0.354609)
(-0.528308 -2.02453e-05 0.354559)
(-0.528351 6.76705e-06 0.354724)
(-2.26174 0.000588911 2.73114)
(-2.2635 0.000416464 2.72907)
(-2.26297 5.50691e-05 2.73012)
(-2.26301 0.000359796 2.73005)
(-2.26345 8.57289e-05 2.72949)
(-2.26238 -5.8172e-05 2.73034)
(-2.12052 0.000386525 1.37017)
(-2.12117 0.000188903 1.36978)
(-2.12118 -9.81407e-05 1.37019)
(-2.12122 0.000105017 1.37005)
(-2.1215 -0.000108099 1.37025)
(-2.12103 -0.000127415 1.36996)
(0.0275072 -5.37147e-06 0.115573)
(0.0273759 -4.28708e-05 0.115388)
(0.0272512 -6.00017e-07 0.115543)
(0.0273447 -3.93792e-06 0.115406)
(0.0271781 -8.83431e-05 0.115484)
(0.0273382 -3.84767e-05 0.115646)
(0.776004 0.00021841 10.9162)
(0.782305 3.72177e-05 10.9174)
(0.779013 -1.85398e-05 10.9169)
(0.779814 -2.27971e-05 10.917)
(0.780525 0.000174686 10.9163)
(0.779515 0.000288888 10.9175)
(3.075 -0.000295039 10.696)
(3.07684 -0.000357981 10.6955)
(3.07571 8.32368e-05 10.6963)
(3.07614 -0.000137551 10.6964)
(3.07628 0.000106395 10.6958)
(3.07566 0.000323297 10.697)
(0.795729 -0.000361506 5.70135)
(0.795638 -0.000352776 5.70256)
(0.795681 0.000170245 5.70294)
(0.796033 -0.000193667 5.70329)
(0.796302 0.000435949 5.70438)
(0.795185 0.000755806 5.70207)
(-7.67476 0.000648653 -2.08012)
(-7.6769 0.000164306 -2.06449)
(-7.67613 -0.000427124 -2.07139)
(-7.67635 -0.000612847 -2.07149)
(-7.67959 0.000571263 -2.06724)
(-7.67277 0.00130485 -2.07446)
(3.88663 -0.00261104 5.41999)
(3.88139 -0.00195035 5.4249)
(3.88227 0.000779835 5.42232)
(3.881 -0.00131223 5.42102)
(3.87838 0.00171437 5.42094)
(3.88319 0.00311166 5.42232)
(6.60735 -0.00180931 6.45887)
(6.60196 -0.00122572 6.46294)
(6.60386 0.000843247 6.46163)
(6.6037 -0.000858738 6.46127)
(6.59939 0.00162707 6.46148)
(6.60894 0.0026925 6.46191)
(-3.26986 -0.000585796 -2.43354)
(-3.26537 -0.000294638 -2.4263)
(-3.26757 0.000388207 -2.42938)
(-3.26831 -0.000548544 -2.43066)
(-3.26742 0.000529977 -2.42835)
(-3.26816 0.0011535 -2.43128)
(-4.7044 -9.65217e-05 -6.13025)
(-4.70979 0.000412357 -6.13233)
(-4.70822 0.00114312 -6.13128)
(-4.70886 7.33192e-05 -6.13216)
(-4.71533 0.000621344 -6.14034)
(-4.7005 0.0010539 -6.12274)
(-1.72619 0.000165982 3.02978)
(-1.73814 0.000270041 3.02531)
(-1.73223 0.000523785 3.02735)
(-1.73274 0.000780372 3.02752)
(-1.74432 -0.000369242 3.02044)
(-1.71778 -0.000821439 3.03613)
(-0.162584 -0.000804286 -1.14733)
(-0.161368 -0.000386604 -1.14564)
(-0.16184 0.000446072 -1.14627)
(-0.162051 5.8475e-05 -1.14638)
(-0.161851 -1.34957e-05 -1.14616)
(-0.162065 -7.26319e-05 -1.1464)
(-3.36043 -0.00105273 -4.92097)
(-3.35928 -0.000341933 -4.92231)
(-3.35994 0.000696 -4.9222)
(-3.35962 0.000499893 -4.9209)
(-3.35905 -0.000189717 -4.91951)
(-3.36106 -0.000745879 -4.92335)
(-1.35907 0.000644489 -6.8216)
(-1.35775 0.000394835 -6.83171)
(-1.35835 -0.000225468 -6.8272)
(-1.35883 0.000379982 -6.82579)
(-1.35859 -0.000494774 -6.82979)
(-1.35907 -0.000853302 -6.82257)
(7.03216 -0.00154758 -3.69957)
(7.03382 -0.00419387 -3.70118)
(7.02902 0.00162718 -3.69836)
(7.03853 -0.00630594 -3.70024)
(7.042 0.00263099 -3.6964)
(7.01091 0.0140751 -3.69956)
(9.76053 -0.00956489 -2.09645)
(9.82887 -0.0143196 -2.16266)
(9.81693 0.00378143 -2.14832)
(9.76148 -0.0149444 -2.12574)
(9.78427 -0.0130401 -2.21787)
(9.8358 0.0141918 -2.08685)
(6.50335 -0.0387694 -0.61274)
(6.47378 -0.0410447 -1.03727)
(6.46573 0.031127 -1.08038)
(6.49199 0.00695235 -0.504062)
(6.48014 -0.0452313 -0.565566)
(6.49827 -0.0216304 -1.21403)
(4.87468 -9.11084e-05 -2.44665)
(4.87511 -0.000745135 -2.44675)
(4.87305 -0.00130136 -2.44537)
(4.87402 -0.00453591 -2.44713)
(4.87077 0.00350426 -2.44086)
(4.86779 0.00681636 -2.4514)
(7.47483 0.00245534 -4.7988)
(7.45836 8.69202e-05 -4.80345)
(7.4572 0.000644611 -4.78921)
(7.468 0.00805077 -4.82481)
(7.44726 0.00380428 -4.84354)
(7.46748 -0.00160484 -4.74228)
(2.88946 -0.00835944 -9.75559)
(2.83744 -0.0100032 -9.75087)
(2.83977 0.00962255 -9.73628)
(2.87924 0.0120385 -9.78504)
(2.86796 -0.00980145 -9.77979)
(2.85187 -0.0108009 -9.68793)
(3.12047 -0.000209562 -1.63841)
(3.12119 -8.18942e-05 -1.63897)
(3.12064 -0.00059221 -1.63866)
(3.11793 -0.00224335 -1.6375)
(3.11492 0.00195075 -1.63433)
(3.12208 0.00286548 -1.63875)
(5.31359 -0.00179948 -2.91497)
(5.31538 -0.00232096 -2.91648)
(5.31697 -0.000380439 -2.91167)
(5.31272 -0.0054565 -2.92022)
(5.31315 0.00631969 -2.93)
(5.32233 0.0119365 -2.89752)
(3.20623 -0.00189748 -4.89703)
(3.19985 -0.00174442 -4.89665)
(3.20177 -0.000823868 -4.88843)
(3.20305 -0.00143239 -4.91157)
(3.19999 0.00403618 -4.91733)
(3.19982 0.00431482 -4.87239)
(1.8771 -2.98642e-06 -0.889253)
(1.87728 3.3409e-06 -0.890074)
(1.87739 6.02709e-05 -0.890017)
(1.87551 -0.000239883 -0.887743)
(1.87359 0.000863934 -0.88477)
(1.87708 0.00111973 -0.891984)
(4.04427 -0.00135405 -2.31074)
(4.04413 -0.00137886 -2.31032)
(4.04412 3.51574e-05 -2.31089)
(4.04399 -0.0044028 -2.30744)
(4.04238 0.00547633 -2.30688)
(4.05001 0.00989248 -2.30681)
(1.81661 -0.000570418 -5.47482)
(1.81409 -0.000530445 -5.48162)
(1.81445 -0.000912152 -5.47972)
(1.81388 -0.00200652 -5.48088)
(1.80891 0.00132047 -5.50062)
(1.8253 0.00220874 -5.45723)
(1.04679 0.000155697 0.0329122)
(1.04643 0.000203348 0.0316581)
(1.04639 -8.6594e-05 0.0319567)
(1.04653 0.000626567 0.0334596)
(1.04658 -0.00103345 0.0365629)
(1.04659 -0.00170319 0.0299417)
(2.49875 -0.00120374 -1.41681)
(2.49906 -0.000829127 -1.41392)
(2.49864 5.87619e-05 -1.41558)
(2.49837 -0.00240516 -1.41289)
(2.49599 0.00322515 -1.40719)
(2.50121 0.00537289 -1.42182)
(0.861895 -0.000515917 -5.40365)
(0.861572 -0.000429162 -5.40819)
(0.862018 -0.000103572 -5.4047)
(0.859914 -0.000768181 -5.4083)
(0.858209 0.00269168 -5.41688)
(0.862078 0.00335798 -5.39833)
(0.816567 -9.49429e-05 0.517537)
(0.81678 0.000110211 0.516488)
(0.816827 5.71547e-05 0.517075)
(0.816473 0.000661562 0.517165)
(0.81705 -0.000628281 0.516459)
(0.815793 -0.00146775 0.517778)
(0.65907 -0.00136751 -1.98729)
(0.65991 -0.000700581 -1.98379)
(0.659086 0.00052768 -1.98581)
(0.659384 -0.000336711 -1.98442)
(0.656917 0.000830689 -1.98018)
(0.661517 0.00101106 -1.99038)
(-0.473662 -0.00048988 -7.23228)
(-0.473966 -0.000455515 -7.23928)
(-0.473777 -0.00019577 -7.23553)
(-0.474196 -0.000931461 -7.23486)
(-0.475134 0.000702793 -7.23491)
(-0.47179 0.00140341 -7.23501)
(0.0339224 1.22955e-07 0.395807)
(0.0339235 -1.62911e-07 0.395819)
(0.0339233 -1.76762e-07 0.395819)
(0.0339231 -4.57533e-08 0.395819)
(0.0339229 2.42421e-07 0.395819)
(0.0339218 2.45849e-08 0.395808)
(0.0219068 1.68433e-07 0.447558)
(0.0219075 -8.38929e-08 0.447571)
(0.0219075 -1.97638e-07 0.447571)
(0.0219074 -1.92776e-07 0.447571)