/*--------------------------------*- C++ -*----------------------------------*\
| =========                 |                                                 |
| \\      /  F ield         | OpenFOAM: The Open Source CFD Toolbox           |
|  \\    /   O peration     | Version:  v1612+                                |
|   \\  /    A nd           | Web:      www.OpenFOAM.com                      |
|    \\/     M anipulation  |                                                 |
\*---------------------------------------------------------------------------*/
FoamFile
{
    version     2.0;
    format      ascii;
    class       surfaceScalarField;
    location    "1.45";
    object      alphaPhi;
}
// * * * * * * * * * * * * * * * * * * * * * * * * * * * * * * * * * * * * * //

dimensions      [0 3 -1 0 0 0 0];

internalField   nonuniform List<scalar> 
2916
(
3.83657e-07
0.396097
-0.396097
5.88193e-07
0.396099
-0.396098
8.00503e-07
0.396098
-0.396098
1.11782e-06
0.396099
-0.396099
1.0243e-06
0.396099
-0.396099
0.396098
-0.396097
1.25225e-06
0.898975
-0.502879
1.68207e-06
0.898979
-0.502881
1.79224e-06
0.898978
-0.502879
1.4159e-06
0.898977
-0.502878
9.66911e-07
0.898977
-0.502878
0.898974
-0.502875
2.1506e-06
1.43471
-0.535735
3.81088e-06
1.43472
-0.535736
2.25684e-06
1.43471
-0.535732
7.02399e-07
1.43471
-0.535731
5.21077e-07
1.43471
-0.535731
1.4347
-0.535728
-2.09691e-06
2.05201
-0.617264
1.02027e-06
2.05202
-0.617268
-1.53191e-06
2.05201
-0.617261
-3.58966e-06
2.05201
-0.617261
-2.34229e-06
2.05201
-0.617264
2.052
-0.617265
-1.69484e-05
2.70529
-0.652988
-9.63088e-06
2.7053
-0.653011
-7.8542e-06
2.7053
-0.653006
-7.45163e-06
2.70529
-0.653006
-3.75177e-06
2.70529
-0.65301
2.70529
-0.653013
-3.03868e-05
3.31649
-0.647476
-1.69441e-05
3.3165
-0.647526
-8.86145e-06
3.31651
-0.647526
-5.69585e-06
3.31651
-0.647524
-6.81441e-07
3.31651
-0.647526
3.31651
-0.647525
-3.0488e-05
3.5236
-0.235579
-1.99487e-05
3.52359
-0.235602
-6.60179e-06
3.5236
-0.235606
-4.98499e-07
3.52361
-0.235606
1.45714e-06
3.52361
-0.235605
3.52362
-0.235607
-1.48602e-05
3.57691
-0.143619
-1.0289e-05
3.57693
-0.14362
-2.69643e-06
3.57694
-0.143622
-6.84719e-07
3.57695
-0.143622
-2.50909e-06
3.57695
-0.143622
3.57695
-0.143623
-1.70423e-05
2.31944
-0.0380226
-9.52185e-06
2.31962
-0.0380237
-8.82818e-06
2.31963
-0.038024
-9.3162e-06
2.31964
-0.0380244
-9.59643e-07
2.31962
-0.0380253
2.31951
-0.0380242
-1.00003e-05
0.0934205
-0.00565057
-5.42259e-06
0.0934232
-0.0056583
-4.23416e-06
0.0934327
-0.0056583
-4.32085e-06
0.0934331
-0.00565838
2.92071e-06
0.0934207
-0.00565879
0.0934195
-0.0056527
-1.52295e-06
0.0356268
0.027338
-1.13976e-06
0.0356316
0.0273392
-1.08166e-06
0.0356336
0.0273392
-9.49664e-07
0.0356338
0.0273389
3.47851e-07
0.035631
0.0273387
0.0356246
0.027339
-1.64378e-06
0.0113161
-3.25347e-07
0.0113169
6.63233e-07
0.0113175
1.70732e-06
0.0113175
2.9193e-06
0.0113169
0.0113164
1.58162e-06
0.426414
-0.822512
1.5436e-06
0.426417
-0.822516
1.31221e-06
0.426416
-0.822514
9.06374e-07
0.426415
-0.822513
4.32518e-07
0.426415
-0.822513
0.426413
-0.822509
4.6435e-06
0.85673
-0.933198
4.7731e-06
0.85674
-0.933201
3.10309e-06
0.856738
-0.933197
1.19341e-06
0.856737
-0.933196
1.26545e-06
0.856736
-0.933196
0.856732
-0.93319
9.09653e-06
1.35126
-1.03023
8.99962e-06
1.35127
-1.03023
3.38283e-06
1.35127
-1.03022
-2.51885e-08
1.35127
-1.03022
1.13833e-06
1.35127
-1.03023
1.35126
-1.03022
-3.36699e-06
1.91416
-1.13441
4.87761e-07
1.91419
-1.13443
-1.14909e-07
1.91418
-1.13442
6.63649e-07
1.91418
-1.13442
2.876e-06
1.91418
-1.13443
1.91417
-1.13443
-9.99948e-06
1.69618
-0.416412
-6.06269e-06
1.69618
-0.416432
-4.17831e-07
1.69619
-0.416438
2.04718e-06
1.6962
-0.416439
1.13026e-06
1.69619
-0.416442
1.6962
-0.416454
-1.62623e-06
0.867783
-0.100927
1.50218e-06
0.867761
-0.100934
5.82869e-06
0.867777
-0.100937
6.35559e-06
0.867785
-0.100938
3.33434e-06
0.867785
-0.100938
0.867794
-0.100943
-3.05623e-07
0.185573
-0.00747365
-1.03911e-06
0.185574
-0.00747446
1.43709e-07
0.185576
-0.00747484
6.59801e-08
0.185577
-0.0074749
-8.85564e-07
0.185578
-0.00747501
0.185578
-0.0074753
6.05914e-07
0.042384
-0.000425804
-1.22108e-07
0.0423847
-0.000425861
-3.6503e-07
0.0423851
-0.000425873
-2.79827e-07
0.0423857
-0.000425875
-3.9646e-07
0.0423865
-0.000425896
0.0423862
-0.000425896
-8.68927e-08
0.004393
-5.64076e-06
-9.83759e-08
0.00439249
-5.64038e-06
-9.54847e-08
0.00439259
-5.64076e-06
-9.58466e-08
0.00439266
-5.63886e-06
-1.15803e-07
0.00439268
-5.64288e-06
0.00439335
-5.64179e-06
-7.4451e-07
0.0501195
-0.000491785
-6.02941e-07
0.0501065
-0.000491245
-8.43816e-07
0.0501081
-0.000491364
-1.17338e-06
0.0501086
-0.000491379
-1.13974e-06
0.0501067
-0.000491103
0.050118
-0.000491695
2.49288e-07
0.0262718
0.00561658
-1.08368e-06
0.0262777
0.00561519
-1.78709e-06
0.0262768
0.00561535
-2.83542e-06
0.026277
0.00561532
-3.82047e-06
0.0262791
0.00561495
0.0262684
0.00561624
-6.32965e-07
0.0124486
-5.43263e-08
0.0124504
6.76893e-08
0.0124499
2.65365e-07
0.0124499
1.53675e-06
0.0124506
0.0124479
6.46166e-06
0.372669
-1.19518
5.45952e-06
0.372678
-1.19519
4.03787e-06
0.372677
-1.19519
2.55742e-06
0.372677
-1.19519
1.92525e-06
0.372676
-1.19519
0.372677
-1.19518
1.1842e-05
0.705253
-1.26561
1.03156e-05
0.705277
-1.26562
5.12541e-06
0.705278
-1.26561
1.32763e-06
0.705277
-1.26561
2.82541e-06
0.705274
-1.26562
0.705271
-1.2656
8.0729e-06
0.926622
-0.878466
5.04371e-06
0.926664
-0.878486
4.23476e-06
0.926668
-0.878486
4.10777e-06
0.926667
-0.878487
3.94497e-06
0.926665
-0.878491
0.926676
-0.878501
6.12146e-06
0.385736
-0.17837
6.0284e-06
0.385765
-0.178379
8.53007e-06
0.385772
-0.178381
9.30622e-06
0.385772
-0.178381
4.04857e-06
0.385773
-0.178382
0.385786
-0.178386
2.31217e-06
0.108633
-0.00779921
2.44875e-06
0.108641
-0.00780048
2.98701e-06
0.108644
-0.00780071
2.89374e-06
0.108645
-0.0078008
1.32743e-06
0.108646
-0.00780094
0.108651
-0.00780141
3.81445e-08
0.00791369
-0.000203499
1.68471e-07
0.00791456
-0.000203586
2.17493e-07
0.00791494
-0.000203599
1.86961e-07
0.007915
-0.000203603
9.1334e-08
0.00791513
-0.000203609
0.00791544
-0.000203618
1.08108e-10
0.00044838
-1.43575e-06
-1.02358e-09
0.000448439
-1.437e-06
-4.69496e-09
0.000448452
-1.43726e-06
-9.89855e-09
0.000448454
-1.43742e-06
-1.89473e-08
0.000448479
-1.43789e-06
0.000448477
-1.43825e-06
6.1874e-10
2.46438e-05
-1.46491e-06
-9.67571e-10
2.46482e-05
-1.46453e-06
-1.16463e-09
2.46471e-05
-1.46425e-06
-5.02457e-10
2.46467e-05
-1.46405e-06
-8.33918e-10
2.46507e-05
-1.46363e-06
2.4649e-05
-1.46441e-06
1.87809e-10
4.20698e-05
-9.35388e-06
1.25311e-11
4.20686e-05
-9.35354e-06
-2.77832e-11
4.20674e-05
-9.35267e-06
4.71372e-11
4.20667e-05
-9.35186e-06
-7.94638e-11
4.20699e-05
-9.35351e-06
4.20695e-05
-9.35438e-06
-1.70837e-09
0.00297156
-0.000208084
-1.66681e-08
0.00297182
-0.000207951
-5.98739e-08
0.00297137
-0.000207967
-1.49934e-07
0.00297135
-0.000207974
-1.59609e-07
0.00297203
-0.000207907
0.00297079
-0.000208048
9.67524e-07
0.00145208
0.00018778
-7.66367e-08
0.00145446
0.000187448
-6.67074e-07
0.00145363
0.000187463
-1.29776e-06
0.00145359
0.000187457
-1.86997e-06
0.00145491
0.000187336
0.00145101
0.00018765
-9.46565e-09
-0.000234086
1.17714e-07
-0.000234456
1.43936e-07
-0.000234534
1.70198e-07
-0.000234521
3.81739e-07
-0.000234448
-0.000233998
1.04108e-05
0.156283
-1.35129
9.58118e-06
0.156292
-1.3513
7.15366e-06
0.156293
-1.35129
4.28507e-06
0.156293
-1.35129
4.41051e-06
0.156291
-1.35129
0.156301
-1.35129
7.24773e-06
0.372874
-0.590812
5.08687e-06
0.372895
-0.590822
3.34681e-06
0.372896
-0.59082
-4.47169e-07
0.372896
-0.590821
-3.86354e-06
0.372894
-0.590822
0.372901
-0.590827
-1.13396e-06
0.18631
-0.0219742
-1.30878e-06
0.186321
-0.0219742
7.62931e-08
0.186323
-0.0219739
-6.34751e-07
0.186323
-0.0219742
-4.62269e-06
0.186324
-0.0219744
0.186329
-0.0219758
1.14369e-07
0.00796201
-2.16418e-05
2.18138e-07
0.00796333
-2.16436e-05
3.83732e-07
0.00796356
-2.16446e-05
4.48268e-07
0.00796366
-2.16443e-05
3.53163e-07
0.0079638
-2.16438e-05
0.00796428
-2.16425e-05
3.23358e-08
0.000204884
-4.17497e-05
3.7718e-08
0.000204973
-4.17504e-05
2.80172e-08
0.000204986
-4.17499e-05
1.89684e-08
0.00020499
-4.17489e-05
1.23919e-08
0.000204997
-4.17492e-05
0.000205006
-4.17496e-05
-3.17517e-10
1.39611e-06
-1.06341e-08
-1.50777e-10
1.39735e-06
-1.06424e-08
-6.60408e-12
1.39762e-06
-1.06388e-08
2.1569e-11
1.39778e-06
-1.06338e-08
-1.06171e-10
1.39827e-06
-1.06248e-08
1.39863e-06
-1.06098e-08
-3.19231e-12
-7.97972e-09
-2.12433e-08
-2.0687e-12
-7.9827e-09
-2.12594e-08
5.01787e-13
-7.98375e-09
-2.12561e-08
2.79635e-12
-7.98197e-09
-2.12505e-08
1.14836e-12
-7.9708e-09
-2.12445e-08
-7.9708e-09
-2.12353e-08
2.21365e-12
-8.9492e-07
-1.81506e-07
4.4202e-13
-8.94867e-07
-1.81523e-07
1.05919e-12
-8.94801e-07
-1.81505e-07
1.02887e-12
-8.94487e-07
-1.81494e-07
-4.27866e-12
-8.93906e-07
-1.815e-07
-8.93682e-07
-1.81466e-07
4.27822e-10
-3.95238e-07
-7.15882e-07
1.28579e-10
-3.97075e-07
-7.15571e-07
2.70641e-10
-3.96508e-07
-7.15576e-07
3.2016e-10
-3.9577e-07
-7.15554e-07
-5.93536e-10
-3.96095e-07
-7.15716e-07
-3.9453e-07
-7.16113e-07
6.55718e-09
-0.00027841
-1.24345e-05
4.32204e-09
-0.000278268
-1.24307e-05
3.66888e-09
-0.000278284
-1.24306e-05
2.52363e-09
-0.000278287
-1.24311e-05
-3.24963e-09
-0.000278211
-1.24283e-05
-0.00027836
-1.24315e-05
1.05025e-07
-0.000153821
2.30932e-05
8.86372e-08
-0.000153858
2.30878e-05
6.47955e-08
-0.000153848
2.30859e-05
3.25324e-08
-0.000153846
2.30863e-05
-2.0695e-08
-0.000153852
2.30834e-05
-0.0001538
2.30909e-05
4.59692e-09
1.82725e-05
1.43051e-08
1.82838e-05
1.6183e-08
1.82817e-05
7.91121e-09
1.8281e-05
3.51414e-09
1.82843e-05
1.82724e-05
-4.48896e-75
-1.56002e-67
7.0375e-72
-1.45612e-75
-1.5624e-67
7.0492e-72
-2.23194e-76
-1.56232e-67
7.04935e-72
3.53166e-76
-1.56249e-67
7.05041e-72
4.69886e-76
-1.56303e-67
7.05317e-72
-1.56093e-67
7.04407e-72
-8.84845e-71
-3.38787e-63
1.61992e-67
-1.92394e-71
-3.39289e-63
1.62247e-67
6.2148e-72
-3.39274e-63
1.62249e-67
2.45222e-71
-3.39316e-63
1.62271e-67
3.94904e-71
-3.39447e-63
1.62337e-67
-3.39013e-63
1.62132e-67
-8.6646e-67
-3.53303e-59
1.84664e-63
-6.42764e-68
-3.53805e-59
1.84942e-63
2.63104e-67
-3.53791e-59
1.84941e-63
4.65859e-67
-3.53837e-59
1.84968e-63
5.90605e-67
-3.53984e-59
1.85048e-63
-3.53544e-59
1.84823e-63
-3.82581e-63
-2.33122e-55
1.35747e-59
1.30455e-63
-2.33444e-55
1.35944e-59
3.4566e-63
-2.33437e-55
1.35944e-59
4.60802e-63
-2.33472e-55
1.35966e-59
5.0459e-63
-2.33576e-55
1.36028e-59
-2.33296e-55
1.35869e-59
-8.09901e-61
-1.08499e-51
7.06186e-56
1.59178e-59
-1.08647e-51
7.07213e-56
2.31137e-59
-1.08646e-51
7.07217e-56
2.50699e-59
-1.08664e-51
7.07347e-56
2.44141e-59
-1.08716e-51
7.07687e-56
-1.0859e-51
7.06879e-56
6.73177e-56
-3.77867e-48
2.70742e-52
8.21109e-56
-3.78386e-48
2.71152e-52
7.64846e-56
-3.78387e-48
2.71161e-52
6.3416e-56
-3.78455e-48
2.71214e-52
5.05283e-56
-3.78647e-48
2.71347e-52
-3.78222e-48
2.71039e-52
2.7306e-52
-1.0251e-44
7.82276e-49
1.58709e-52
-1.02652e-44
7.83547e-49
4.94163e-53
-1.02653e-44
7.83586e-49
-4.4257e-53
-1.02672e-44
7.83738e-49
-7.33432e-53
-1.02726e-44
7.84108e-49
-1.02614e-44
7.83184e-49
4.79013e-49
-2.23791e-41
1.59537e-45
-2.78008e-50
-2.24106e-41
1.59824e-45
-4.73582e-49
-2.24107e-41
1.59836e-45
-7.30266e-49
-2.24148e-41
1.59862e-45
-6.79704e-49
-2.24268e-41
1.59928e-45
-2.24028e-41
1.59725e-45
4.16978e-46
-4.09724e-38
1.5968e-42
-7.77005e-46
-4.10308e-38
1.60069e-42
-1.86832e-45
-4.10305e-38
1.60098e-42
-2.37777e-45
-4.10377e-38
1.60106e-42
-1.97292e-45
-4.10602e-38
1.60137e-42
-4.10175e-38
1.59877e-42
-7.35841e-43
-5.88896e-35
-8.78778e-36
-2.76263e-42
-5.89822e-35
-8.7918e-36
-4.43494e-42
-5.89819e-35
-8.79029e-36
-4.96592e-42
-5.89905e-35
-8.79325e-36
-3.74311e-42
-5.90204e-35
-8.80154e-36
-5.89557e-35
-8.7978e-36
-4.00599e-39
-4.87631e-32
-5.15683e-32
-6.05045e-39
-4.88415e-32
-5.16505e-32
-7.34895e-39
-4.88394e-32
-5.16509e-32
-7.60598e-39
-4.88429e-32
-5.16611e-32
-5.78973e-39
-4.88628e-32
-5.16927e-32
-4.88023e-32
-5.16439e-32
-4.21941e-36
-1.12115e-28
-3.6918e-36
-1.123e-28
-2.38826e-36
-1.12294e-28
-6.59772e-37
-1.12301e-28
6.1831e-37
-1.12345e-28
-1.12199e-28
-1.196e-71
-6.06291e-64
5.50777e-68
-2.38694e-72
-6.07151e-64
5.51605e-68
1.07925e-72
-6.07095e-64
5.51578e-68
3.76111e-72
-6.07152e-64
5.51641e-68
6.24093e-72
-6.07364e-64
5.51839e-68
-6.06551e-64
5.51101e-68
-2.23508e-67
-1.3029e-59
1.26029e-63
-1.57566e-68
-1.30468e-59
1.26209e-63
7.44401e-68
-1.30458e-59
1.26202e-63
1.49282e-67
-1.30471e-59
1.26215e-63
2.44271e-67
-1.30522e-59
1.26263e-63
-1.30356e-59
1.26098e-63
-2.07531e-63
-1.33794e-55
1.42544e-59
4.51602e-64
-1.33969e-55
1.42738e-59
1.51484e-63
-1.33958e-55
1.4273e-59
2.34727e-63
-1.33973e-55
1.42745e-59
3.27534e-63
-1.3403e-55
1.42803e-59
-1.33866e-55
1.42623e-59
-7.82058e-60
-8.63179e-52
1.03389e-55
7.73498e-60
-8.6427e-52
1.03526e-55
1.45557e-59
-8.64211e-52
1.03519e-55
1.93962e-59
-8.64322e-52
1.03532e-55
2.40763e-59
-8.64715e-52
1.03577e-55
-8.63697e-52
1.03452e-55
2.57081e-57
-3.89387e-48
5.25693e-52
5.45991e-56
-3.89872e-48
5.26379e-52
7.21459e-56
-3.89849e-48
5.26351e-52
8.28659e-56
-3.89905e-48
5.26426e-52
9.17057e-56
-3.90095e-48
5.2667e-52
-3.89652e-48
5.26055e-52
8.00362e-53
-1.30244e-44
1.93288e-48
1.23146e-52
-1.30406e-44
1.93545e-48
1.1746e-52
-1.30398e-44
1.93538e-48
9.97683e-53
-1.30418e-44
1.93568e-48
9.17308e-53
-1.30485e-44
1.93662e-48
-1.30341e-44
1.9344e-48
4.15573e-51
-3.3759e-41
5.13137e-45
-2.14711e-49
-3.38008e-41
5.13855e-45
-4.34862e-49
-3.37987e-41
5.13843e-45
-5.57413e-49
-3.38039e-41
5.13925e-45
-4.93012e-49
-3.38216e-41
5.14176e-45
-3.37851e-41
5.13584e-45
-6.90696e-46
-7.11382e-38
9.45974e-42
-1.62651e-45
-7.1227e-38
9.47426e-42
-2.46209e-45
-7.12216e-38
9.47426e-42
-2.70152e-45
-7.12323e-38
9.47567e-42
-2.15031e-45
-7.12706e-38
9.48009e-42
-7.11954e-38
9.46869e-42
-1.9261e-42
-1.2873e-34
9.86943e-39
-3.91495e-42
-1.28892e-34
9.88858e-39
-5.59843e-42
-1.28882e-34
9.88938e-39
-5.97394e-42
-1.28901e-34
9.89042e-39
-4.25853e-42
-1.28972e-34
9.89382e-39
-1.2884e-34
9.87963e-39
-1.8496e-39
-1.82512e-31
-2.82251e-32
-6.16533e-39
-1.82777e-31
-2.82322e-32
-1.0137e-38
-1.82766e-31
-2.82254e-32
-1.1784e-38
-1.82786e-31
-2.82343e-32
-8.94816e-39
-1.82877e-31
-2.82631e-32
-1.82673e-31
-2.82562e-32
-6.98288e-36
-1.18711e-28
-1.7308e-28
-9.89899e-36
-1.1889e-28
-1.73349e-28
-1.20279e-35
-1.18882e-28
-1.73342e-28
-1.38605e-35
-1.1889e-28
-1.73362e-28
-1.24758e-35
-1.18942e-28
-1.73452e-28
-1.18797e-28
-1.73264e-28
-5.60657e-33
-2.4843e-25
-1.42493e-33
-2.48826e-25
4.73465e-33
-2.48809e-25
9.22386e-33
-2.48819e-25
9.04627e-33
-2.48909e-25
-2.48574e-25
-4.75204e-68
-3.62797e-60
4.84652e-64
-1.75027e-69
-3.63319e-60
4.85379e-64
1.5286e-68
-3.63291e-60
4.85358e-64
2.85514e-68
-3.63323e-60
4.85408e-64
3.96551e-68
-3.63448e-60
4.85578e-64
-3.62958e-60
4.84925e-64
-9.07192e-64
-8.15047e-56
1.16623e-59
1.59698e-64
-8.16187e-56
1.16791e-59
6.21726e-64
-8.16134e-56
1.16786e-59
1.00905e-63
-8.16212e-56
1.16797e-59
1.4774e-63
-8.16522e-56
1.1684e-59
-8.1547e-56
1.16686e-59
-8.60853e-60
-8.68625e-52
1.38483e-55
4.85111e-60
-8.69803e-52
1.38676e-55
1.05979e-59
-8.69749e-52
1.38669e-55
1.51808e-59
-8.69842e-52
1.38683e-55
1.9907e-59
-8.70196e-52
1.38737e-55
-8.69107e-52
1.3856e-55
-3.47674e-56
-5.7436e-48
1.04805e-51
5.27501e-56
-5.75124e-48
1.04948e-51
8.74204e-56
-5.75091e-48
1.04942e-51
1.14061e-55
-5.75158e-48
1.04954e-51
1.40312e-55
-5.75407e-48
1.04997e-51
-5.74705e-48
1.04867e-51
-6.75875e-53
-2.60496e-44
5.50569e-48
2.16436e-52
-2.6084e-44
5.51317e-48
3.12947e-52
-2.60825e-44
5.5129e-48
3.79609e-52
-2.60857e-44
5.51356e-48
4.57388e-52
-2.60974e-44
5.51594e-48
-2.6066e-44
5.5092e-48
-5.48851e-49
-8.50872e-41
2.07502e-44
-1.67553e-49
-8.51989e-41
2.07788e-44
-1.73075e-49
-8.51931e-41
2.07778e-44
-1.1654e-49
-8.52029e-41
2.07803e-44
1.82642e-49
-8.52412e-41
2.07894e-44
-8.51387e-41
2.07641e-44
-3.76693e-45
-2.05117e-37
5.68999e-41
-3.73584e-45
-2.05386e-37
5.698e-41
-4.27737e-45
-2.05368e-37
5.69769e-41
-4.01173e-45
-2.05388e-37
5.69833e-41
-2.34869e-45
-2.05479e-37
5.70079e-41
-2.05231e-37
5.69371e-41
-9.46912e-42
-3.66674e-34
1.07992e-37
-9.57977e-42
-3.67157e-34
1.0815e-37
-1.052e-41
-3.67119e-34
1.08143e-37
-9.06627e-42
-3.6715e-34
1.08153e-37
-4.32503e-42
-3.67312e-34
1.08197e-37
-3.66865e-34
1.08059e-37
-7.3356e-39
-4.89445e-31
1.19623e-34
-7.99105e-39
-4.90103e-31
1.19811e-34
-9.56017e-39
-4.9005e-31
1.19804e-34
-8.29579e-39
-4.90086e-31
1.19811e-34
-2.35868e-39
-4.90303e-31
1.19853e-34
-4.89706e-31
1.19688e-34
-3.77623e-36
-5.08777e-28
-1.56303e-30
-3.33333e-36
-5.09507e-28
-1.54105e-30
-3.36207e-36
-5.09457e-28
-1.53864e-30
-3.79167e-36
-5.09486e-28
-1.54547e-30
-2.70486e-36
-5.09697e-28
-1.56179e-30
-5.09053e-28
-1.58578e-30
-1.61208e-32
-2.3456e-25
-2.39611e-25
-1.05883e-32
-2.34914e-25
-2.39972e-25
-1.35941e-33
-2.34892e-25
-2.39954e-25
1.61032e-33
-2.34899e-25
-2.39971e-25
-1.67435e-33
-2.34983e-25
-2.40075e-25
-2.34667e-25
-2.39779e-25
-1.99688e-29
-2.52191e-22
-7.22805e-30
-2.5258e-22
1.03637e-29
-2.52558e-22
2.16097e-29
-2.52561e-22
2.15428e-29
-2.5264e-22
-2.52287e-22
-2.06252e-65
-2.61873e-57
4.58458e-61
3.4014e-66
-2.62255e-57
4.59143e-61
1.26957e-65
-2.62239e-57
4.59128e-61
1.97281e-65
-2.62265e-57
4.59178e-61
2.5484e-65
-2.62359e-57
4.59344e-61
-2.62008e-57
4.58733e-61
-4.07413e-61
-6.37388e-53
1.20519e-56
2.02793e-61
-6.38301e-53
1.20694e-56
4.74355e-61
-6.38271e-53
1.2069e-56
7.01535e-61
-6.38339e-53
1.20703e-56
9.68396e-61
-6.38589e-53
1.20749e-56
-6.37765e-53
1.20591e-56
-4.23932e-57
-7.27716e-49
1.55704e-52
4.02383e-57
-7.28743e-49
1.55927e-52
7.59031e-57
-7.28713e-49
1.55921e-52
1.04486e-56
-7.28797e-49
1.55938e-52
1.34477e-56
-7.29098e-49
1.56e-52
-7.28178e-49
1.558e-52
-2.63704e-53
-5.06087e-45
1.26867e-48
3.04543e-53
-5.06798e-45
1.27047e-48
5.32356e-53
-5.06778e-45
1.27042e-48
7.20023e-53
-5.06839e-45
1.27057e-48
9.279e-53
-5.07057e-45
1.27109e-48
-5.06427e-45
1.26949e-48
-2.11457e-49
-2.35091e-41
7.03564e-45
7.04202e-51
-2.35422e-41
7.0456e-45
9.59102e-50
-2.35411e-41
7.0453e-45
1.79279e-49
-2.35439e-41
7.04614e-45
2.78682e-49
-2.35541e-41
7.04914e-45
-2.35248e-41
7.04033e-45
-1.69384e-45
-7.61383e-38
2.71034e-41
-1.03857e-45
-7.62454e-38
2.7142e-41
-7.13168e-46
-7.62404e-38
2.71407e-41
-3.16406e-46
-7.62482e-38
2.71438e-41
2.58994e-46
-7.62807e-38
2.71554e-41
-7.61848e-38
2.71213e-41
-6.88581e-42
-1.77146e-34
7.28778e-38
-4.57199e-42
-1.77394e-34
7.29826e-38
-3.0747e-42
-1.77379e-34
7.29781e-38
-1.20711e-42
-1.77393e-34
7.29855e-38
1.09651e-42
-1.77467e-34
7.30162e-38
-1.77241e-34
7.2923e-38
-1.28556e-38
-3.06677e-31
1.35114e-34
-7.00264e-39
-3.07109e-31
1.35311e-34
-2.419e-39
-3.07077e-31
1.35301e-34
2.28956e-39
-3.07097e-31
1.35311e-34
6.50387e-39
-3.07223e-31
1.35366e-34
-3.06827e-31
1.35188e-34
-9.9388e-36
-4.1093e-28
1.59543e-31
-6.39728e-37
-4.11513e-28
1.59781e-31
6.43398e-36
-4.11469e-28
1.59767e-31
1.09787e-35
-4.1149e-28
1.59774e-31
1.21297e-35
-4.11654e-28
1.59832e-31
-4.11118e-28
1.59613e-31
-4.45403e-33
-4.41541e-25
5.98388e-29
5.8416e-33
-4.42175e-25
5.99372e-29
1.50521e-32
-4.42128e-25
5.99304e-29
1.68161e-32
-4.42143e-25
5.99271e-29
9.91133e-33
-4.42309e-25
5.99387e-29
-4.41722e-25
5.98413e-29
-5.36647e-30
-1.191e-22
-2.64334e-22
7.69823e-30
-1.19284e-22
-2.64695e-22
2.52311e-29
-1.19274e-22
-2.64662e-22
3.20029e-29
-1.19274e-22
-2.64671e-22
2.1536e-29
-1.19309e-22
-2.6477e-22
-1.19143e-22
-2.64417e-22
-1.67471e-26
-1.1809e-19
-9.36799e-27
-1.18258e-19
2.50265e-27
-1.18245e-19
1.22672e-26
-1.18243e-19
1.32916e-26
-1.18276e-19
-1.18111e-19
-1.72155e-06
-0.713437
-0.140448
2.20607e-06
-0.713444
-0.14045
2.46367e-06
-0.713442
-0.140449
1.97378e-06
-0.713439
-0.140449
3.49616e-06
-0.713438
-0.140451
-0.713449
-0.140448
5.01776e-06
0.0552239
-5.16825e-07
4.66915e-06
0.0552269
-5.16871e-07
3.55594e-06
0.0552274
-5.16906e-07
6.23917e-06
0.0552261
-5.16887e-07
8.8636e-06
0.0552258
-5.1685e-07
0.055231
-5.16784e-07
9.35091e-07
1.26747e-12
9.72267e-07
1.38839e-12
9.03917e-07
1.42509e-12
1.28048e-06
1.39337e-12
1.54928e-06
1.38516e-12
1.41814e-12
-1.26229e-06
-1.16491e-07
0.0219572
-8.31831e-07
-1.16503e-07
0.0219571
7.94245e-07
-1.16511e-07
0.0219569
9.36484e-07
-1.16507e-07
0.0219571
-1.9569e-06
-1.16497e-07
0.0219573
-1.16487e-07
0.0219587
-2.58287e-13
1.04345e-12
-6.33316e-07
8.17156e-14
1.14301e-12
-6.33375e-07
5.2956e-13
1.17322e-12
-6.33418e-07
7.21754e-13
1.1471e-12
-6.33395e-07
6.46373e-13
1.14034e-12
-6.33349e-07
1.16748e-12
-6.33272e-07
9.91143e-18
5.54435e-12
2.41202e-17
6.07329e-12
3.14712e-17
6.23382e-12
3.33239e-17
6.09505e-12
2.0034e-17
6.05914e-12
6.20345e-12
-2.97135e-09
-1.73419e-05
-1.37501e-07
4.85989e-09
-1.73431e-05
-1.37465e-07
1.23779e-08
-1.73442e-05
-1.37456e-07
1.76824e-08
-1.73436e-05
-1.37439e-07
2.26744e-08
-1.73426e-05
-1.37407e-07
-1.73407e-05
-1.37339e-07
-6.08691e-12
5.40449e-12
-1.79752e-05
7.06333e-12
5.92022e-12
-1.79765e-05
1.2472e-11
6.07671e-12
-1.79776e-05
1.996e-11
5.94147e-12
-1.7977e-05
3.05356e-11
5.90659e-12
-1.7976e-05
6.04733e-12
-1.79739e-05
-4.87352e-17
2.33574e-11
-5.14297e-17
2.55855e-11
-4.55457e-17
2.62618e-11
-4.15225e-17
2.56772e-11
-2.55801e-17
2.55261e-11
2.61344e-11
1.08404e-10
-2.03333e-05
-1.38818e-07
1.12053e-10
-2.0335e-05
-1.38777e-07
8.61639e-11
-2.0336e-05
-1.38762e-07
5.67624e-11
-2.03356e-05
-1.3875e-07
3.40234e-11
-2.03349e-05
-1.38737e-07
-2.03334e-05
-1.38708e-07
1.01584e-09
2.49598e-11
-4.88649e-05
8.82156e-10
2.73401e-11
-4.88673e-05
5.12381e-10
2.80623e-11
-4.88684e-05
2.55642e-10
2.74377e-11
-4.88696e-05
3.09243e-10
2.72767e-11
-4.88697e-05
2.79267e-11
-4.8869e-05
8.41165e-17
3.34771e-15
-3.80285e-17
3.97326e-15
-7.29474e-17
4.48787e-15
-1.59987e-16
4.27999e-15
-3.91342e-16
4.07587e-15
-6.47766e-19
-5.23335e-12
-4.18954e-05
-2.70195e-10
-1.11253e-11
-4.18961e-05
-2.7038e-10
-1.91305e-11
-4.18956e-05
-2.70276e-10
-3.89508e-11
-4.18945e-05
-2.70139e-10
-4.99538e-11
-4.18947e-05
-2.699e-10
-4.18952e-05
-2.69498e-10
1.44187e-09
4.00986e-15
-1.38968e-12
5.43351e-10
4.75872e-15
-1.39045e-12
-3.6034e-11
5.37485e-15
-1.39031e-12
-1.56076e-10
5.12574e-15
-1.39036e-12
-2.23538e-10
4.8812e-15
-1.39061e-12
-3.31407e-17
-1.38849e-12
1.26402e-19
-3.38486e-17
1.21821e-19
-3.38632e-17
1.12615e-19
-3.386e-17
5.87435e-20
-3.3865e-17
-5.78146e-20
-3.38744e-17
-3.38463e-17
-2.34762e-14
-1.63786e-14
-1.09168e-08
-2.04589e-14
-1.63856e-14
-1.09253e-08
-1.04176e-14
-1.63826e-14
-1.09216e-08
-1.8459e-15
-1.63816e-14
-1.09164e-08
-1.51636e-16
-1.63841e-14
-1.09073e-08
-1.64512e-14
-1.08918e-08
-1.19779e-18
-5.43946e-17
-1.40494e-12
-1.37953e-18
-5.44131e-17
-1.40572e-12
-8.69193e-19
-5.44054e-17
-1.40558e-12
1.70788e-20
-5.44105e-17
-1.40563e-12
8.10721e-19
-5.44237e-17
-1.40588e-12
-5.43802e-17
-1.40502e-12
-5.84519e-22
-1.0045e-16
-6.79688e-22
-1.00649e-16
-7.69366e-22
-1.0077e-16
-4.68129e-22
-1.00738e-16
1.83078e-22
-1.00705e-16
-1.00757e-16
-1.85803e-14
-6.6362e-11
-1.88382e-08
4.1358e-13
-6.63953e-11
-1.88839e-08
7.53948e-13
-6.63871e-11
-1.88801e-08
1.02647e-12
-6.63871e-11
-1.88646e-08
8.09351e-13
-6.63941e-11
-1.88545e-08
-6.63562e-11
-1.88099e-08
-2.43779e-17
-6.79704e-14
-6.77059e-11
-3.20447e-18
-6.80291e-14
-6.774e-11
3.01036e-17
-6.80127e-14
-6.77317e-11
7.8379e-17
-6.8002e-14
-6.77317e-11
1.01283e-16
-6.79902e-14
-6.7739e-11
-6.79052e-14
-6.77003e-11
-5.46098e-20
-6.80657e-14
-3.16339e-20
-6.81247e-14
7.01432e-21
-6.81084e-14
4.76819e-20
-6.80977e-14
7.26699e-20
-6.80859e-14
-6.80008e-14
4.883e-12
-3.29694e-09
-9.24754e-08
1.14468e-11
-3.29802e-09
-9.25128e-08
1.49244e-11
-3.29766e-09
-9.24859e-08
1.56823e-11
-3.29773e-09
-9.24582e-08
8.03863e-12
-3.29825e-09
-9.24596e-08
-3.29702e-09
-9.24178e-08
2.17241e-16
-7.7061e-12
-3.35785e-09
4.67571e-15
-7.7086e-12
-3.35897e-09
6.76628e-15
-7.70774e-12
-3.3586e-09
7.82396e-15
-7.70838e-12
-3.35867e-09
7.58856e-15
-7.71054e-12
-3.35919e-09
-7.70721e-12
-3.35792e-09
-9.85996e-18
-7.77406e-12
-5.22055e-18
-7.77664e-12
8.63345e-19
-7.77576e-12
6.58817e-18
-7.7764e-12
1.12569e-17
-7.77854e-12
-7.77511e-12
2.51338e-11
-1.16842e-08
-2.19074e-07
2.5681e-11
-1.167e-08
-2.19185e-07
2.22933e-11
-1.16731e-08
-2.19137e-07
1.58712e-11
-1.16769e-08
-2.19045e-07
-5.09128e-12
-1.16791e-08
-2.19005e-07
-1.1698e-08
-2.19038e-07
6.69582e-14
-1.47828e-11
-2.05604e-08
1.06253e-13
-1.47737e-11
-2.05537e-08
6.78957e-14
-1.47729e-11
-2.05552e-08
3.66431e-14
-1.47766e-11
-2.05592e-08
6.56945e-14
-1.47819e-11
-2.0566e-08
-1.47907e-11
-2.05764e-08
-7.19699e-16
-1.90673e-10
-2.62276e-16
-1.90839e-10
-5.16146e-17
-1.90809e-10
1.62412e-16
-1.90797e-10
1.22582e-15
-1.90817e-10
-1.90631e-10
2.96566e-10
-7.00952e-07
-2.6231e-05
2.10369e-10
-7.01052e-07
-2.62312e-05
1.71985e-10
-7.0102e-07
-2.623e-05
1.23349e-10
-7.0104e-07
-2.62302e-05
-1.81479e-10
-7.01043e-07
-2.62297e-05
-7.00944e-07
-2.62303e-05
1.16621e-12
-2.14717e-08
-1.09797e-06
-2.21967e-12
-2.14777e-08
-1.09807e-06
-6.71964e-12
-2.14777e-08
-1.09803e-06
-8.13859e-12
-2.14812e-08
-1.09813e-06
-4.63571e-12
-2.14893e-08
-1.0983e-06
-2.14833e-08
-1.09816e-06
-7.70389e-14
-2.45076e-08
-1.28049e-13
-2.45145e-08
-1.99297e-13
-2.45144e-08
-2.11625e-13
-2.45184e-08
-3.56251e-14
-2.45273e-08
-2.45197e-08
3.20949e-09
1.22713e-06
-7.72527e-06
3.18004e-09
1.22709e-06
-7.72665e-06
2.36774e-09
1.22708e-06
-7.72632e-06
1.43139e-09
1.22725e-06
-7.72636e-06
-1.30851e-09
1.22744e-06
-7.72646e-06
1.22751e-06
-7.7254e-06
-4.79449e-11
1.01984e-07
-1.52652e-07
-1.03621e-10
1.0201e-07
-1.52689e-07
-1.5023e-10
1.02012e-07
-1.52675e-07
-1.47043e-10
1.02029e-07
-1.52683e-07
-1.07262e-10
1.02063e-07
-1.52711e-07
1.02034e-07
-1.52647e-07
-2.94844e-12
3.02173e-10
-4.87678e-12
3.02216e-10
-6.36095e-12
3.02153e-10
-6.24509e-12
3.02022e-10
-2.52909e-12
3.01955e-10
3.01406e-10
2.61843e-10
1.14834e-06
3.61838e-06
6.018e-10
1.14934e-06
3.62385e-06
7.13277e-10
1.14925e-06
3.62309e-06
2.11767e-10
1.14933e-06
3.62289e-06
-4.77648e-10
1.14976e-06
3.62465e-06
1.14878e-06
3.61812e-06
-7.05398e-11
1.06455e-07
3.6436e-07
-8.66411e-11
1.06554e-07
3.64889e-07
-1.03622e-10
1.06549e-07
3.64837e-07
-9.95903e-11
1.06559e-07
3.64834e-07
-5.86588e-11
1.06602e-07
3.65012e-07
1.06506e-07
3.64449e-07
-2.82515e-12
9.79117e-09
-3.84622e-12
9.8087e-09
-4.65839e-12
9.80709e-09
-4.47047e-12
9.80692e-09
-2.16161e-12
9.81275e-09
9.79344e-09
-2.2823e-22
8.90963e-18
-7.07759e-17
3.08938e-17
-3.58639e-23
8.91966e-18
-7.08532e-17
3.09288e-17
1.47007e-22
8.91823e-18
-7.08421e-17
3.09241e-17
2.54973e-22
8.91792e-18
-7.08384e-17
3.0923e-17
2.14725e-22
8.92002e-18
-7.08525e-17
3.09304e-17
8.90847e-18
-7.07614e-17
3.08904e-17
-2.1149e-22
1.38445e-17
-3.19401e-17
1.88264e-17
-1.4577e-22
1.38638e-17
-3.19871e-17
1.88527e-17
-3.94014e-23
1.38626e-17
-3.19843e-17
1.88511e-17
5.69253e-23
1.38633e-17
-3.19859e-17
1.8852e-17
1.37371e-22
1.38686e-17
-3.19988e-17
1.88593e-17
1.38483e-17
-3.19494e-17
1.88317e-17
-2.08039e-24
-2.24627e-17
1.88514e-19
-2.20077e-24
-2.24966e-17
1.88798e-19
-7.4939e-25
-2.2495e-17
1.88782e-19
5.91646e-25
-2.24966e-17
1.88796e-19
1.17567e-24
-2.25066e-17
1.88879e-19
-2.24715e-17
1.88585e-19
-1.29777e-20
9.12604e-16
-4.32558e-15
1.11133e-20
9.13484e-16
-4.32948e-15
3.29572e-20
9.13327e-16
-4.32882e-15
4.99993e-20
9.13266e-16
-4.32852e-15
4.46673e-20
9.13416e-16
-4.3291e-15
9.12313e-16
-4.32427e-15
-1.79038e-20
6.67776e-16
-4.41432e-15
-1.06999e-20
6.68973e-16
-4.42002e-15
-4.07273e-21
6.68961e-16
-4.41971e-15
4.81373e-21
6.69058e-16
-4.4199e-15
1.38963e-20
6.6946e-16
-4.42144e-15
6.683e-16
-4.41541e-15
-3.6192e-22
-5.17377e-17
-3.14134e-22
-5.18215e-17
-1.49674e-22
-5.18186e-17
3.56307e-23
-5.18236e-17
2.5172e-22
-5.18491e-17
-5.17641e-17
7.61105e-19
5.14375e-14
-1.53475e-13
2.70326e-18
5.14828e-14
-1.53606e-13
3.96337e-18
5.14729e-14
-1.53577e-13
4.66982e-18
5.1469e-14
-1.53563e-13
4.22316e-18
5.14774e-14
-1.53581e-13
5.14183e-14
-1.53404e-13
-2.83077e-18
7.15838e-14
-9.28605e-14
-2.36023e-18
7.17028e-14
-9.24534e-14
-2.02979e-18
7.17007e-14
-9.25115e-14
-7.30707e-19
7.17102e-14
-9.25044e-14
1.38155e-18
7.17514e-14
-9.23484e-14
7.16358e-14
-9.27941e-14
-3.89231e-20
-1.31909e-14
-3.82277e-20
-1.32142e-14
-3.06714e-20
-1.32139e-14
-1.10599e-20
-1.32157e-14
1.81113e-20
-1.32236e-14
-1.32014e-14
2.76336e-16
4.61363e-12
-9.18647e-12
6.00019e-16
4.61809e-12
-9.19969e-12
7.81123e-16
4.61699e-12
-9.19659e-12
8.65878e-16
4.61657e-12
-9.19494e-12
7.58905e-16
4.61752e-12
-9.19722e-12
4.61162e-12
-9.17886e-12
-4.28047e-16
4.18207e-12
-6.54709e-12
-5.03617e-16
4.18906e-12
-6.56078e-12
-5.08249e-16
4.18881e-12
-6.56083e-12
-3.4435e-16
4.18929e-12
-6.56211e-12
2.56398e-17
4.19178e-12
-6.56709e-12
4.18487e-12
-6.55408e-12
-6.62214e-18
-1.82623e-13
-8.09745e-18
-1.82453e-13
-8.34194e-18
-1.82484e-13
-5.74989e-18
-1.82469e-13
-8.45778e-20
-1.82369e-13
-1.82544e-13
1.06606e-13
8.66213e-10
-2.30336e-09
1.13579e-13
8.66962e-10
-2.33442e-09
9.01988e-14
8.66821e-10
-2.33072e-09
6.02711e-14
8.66806e-10
-2.32856e-09
3.39976e-15
8.67018e-10
-2.33734e-09
8.66084e-10
-2.30122e-09
-3.51331e-14
1.27409e-10
-1.69336e-08
-4.35035e-14
1.27596e-10
-1.69685e-08
-4.83713e-14
1.27587e-10
-1.69645e-08
-4.67838e-14
1.27602e-10
-1.69634e-08
-1.93092e-14
1.27674e-10
-1.69734e-08
1.27487e-10
-1.69342e-08
-8.00774e-16
6.7405e-11
-9.90154e-16
6.753e-11
-1.06733e-15
6.75163e-11
-9.09704e-16
6.75187e-11
-1.99071e-16
6.75693e-11
6.74129e-11
3.4266e-11
2.83018e-07
3.09787e-11
2.83308e-07
2.77483e-11
2.8327e-07
2.44275e-11
2.83274e-07
9.33014e-12
2.83376e-07
2.83045e-07
-1.95459e-12
-6.88093e-09
-2.65155e-12
-6.89315e-09
-3.43528e-12
-6.89139e-09
-3.54132e-12
-6.89097e-09
-2.0022e-12
-6.89461e-09
-6.87987e-09
-6.98902e-14
-8.94396e-14
-1.02747e-13
-9.95091e-14
-4.11615e-14
-1.61541e-62
8.94453e-58
-4.36159e-54
7.52779e-63
8.95786e-58
-4.36798e-54
1.77759e-62
8.9578e-58
-4.36785e-54
2.54389e-62
8.95894e-58
-4.36836e-54
3.20101e-62
8.96233e-58
-4.36997e-54
8.95026e-58
-4.36403e-54
-9.27783e-66
2.12251e-60
-9.11733e-57
1.37891e-65
2.12579e-60
-9.1313e-57
2.53309e-65
2.12579e-60
-9.13114e-57
3.49517e-65
2.12609e-60
-9.13236e-57
4.3885e-65
2.12695e-60
-9.13605e-57
2.12397e-60
-9.12308e-57
9.14653e-71
-1.2219e-60
1.40762e-69
-1.22378e-60