/*--------------------------------*- C++ -*----------------------------------*\
| =========                 |                                                 |
| \\      /  F ield         | OpenFOAM: The Open Source CFD Toolbox           |
|  \\    /   O peration     | Version:  v1612+                                |
|   \\  /    A nd           | Web:      www.OpenFOAM.com                      |
|    \\/     M anipulation  |                                                 |
\*---------------------------------------------------------------------------*/
FoamFile
{
    version     2.0;
    format      ascii;
    class       volScalarField;
    location    "1.45";
    object      p;
}
// * * * * * * * * * * * * * * * * * * * * * * * * * * * * * * * * * * * * * //

dimensions      [1 -1 -2 0 0 0 0];

internalField   nonuniform List<scalar> 
1116
(
33912.1
33912.1
33912.1
33912.1
33912.1
33912.1
32847.7
32847.7
32847.7
32847.7
32847.7
32847.7
29733.8
29733.8
29733.8
29733.7
29733.7
29733.7
25560.9
25560.9
25560.9
25560.8
25560.8
25560.8
20237.8
20237.9
20237.9
20237.9
20237.9
20237.9
14654.3
14654.3
14654.3
14654.4
14654.4
14654.4
8674.24
8674.21
8674.21
8674.24
8674.25
8674.27
4658.01
4658.01
4658.02
4658.04
4658.05
4658.07
3616.09
3616.16
3616.18
3616.2
3616.2
3616.18
1229.89
1229.91
1229.91
1229.91
1229.91
1229.89
832.355
832.36
832.366
832.369
832.369
832.367
882.77
882.79
882.806
882.818
882.818
882.802
24283
24283
24283
24283
24283
24283.1
22446.8
22446.8
22446.8
22446.8
22446.8
22446.8
18540.5
18540.5
18540.4
18540.4
18540.4
18540.4
12981.5
12981.5
12981.5
12981.5
12981.5
12981.6
6138.75
6138.78
6138.82
6138.85
6138.86
6138.93
2556.21
2556.18
2556.2
2556.21
2556.21
2556.24
484.159
484.117
484.131
484.14
484.138
484.154
-48.1659
-48.1701
-48.1698
-48.1694
-48.169
-48.1681
-94.3574
-94.3622
-94.3644
-94.364
-94.3645
-94.3654
-127.093
-127.086
-127.086
-127.084
-127.084
-127.093
65.9759
65.9842
65.9954
66.0073
66.0221
66.0258
456.481
456.513
456.51
456.515
456.534
456.494
15089.4
15089.4
15089.4
15089.4
15089.4
15089.4
12377.5
12377.5
12377.5
12377.5
12377.5
12377.5
7344.9
7344.88
7344.89
7344.9
7344.93
7344.99
2280.4
2280.44
2280.48
2280.49
2280.51
2280.56
171.098
171.107
171.116
171.117
171.12
171.135
-57.1805
-57.1751
-57.1758
-57.1764
-57.1765
-57.1764
-55.6495
-55.6472
-55.6464
-55.6462
-55.646
-55.6446
-65.0338
-65.0348
-65.0346
-65.0349
-65.0357
-65.036
-103.283
-103.285
-103.287
-103.289
-103.292
-103.295
-156.069
-156.065
-156.066
-156.066
-156.067
-156.071
-167.309
-167.29
-167.285
-167.281
-167.27
-167.297
57.5847
57.5773
57.5707
57.5681
57.5721
57.5819
7953.94
7953.94
7953.95
7953.96
7953.95
7953.93
4586.99
4587.03
4587.04
4587.04
4587.03
4587.04
834.955
834.998
835.009
835.014
835.021
835.052
-37.329
-37.3326
-37.3329
-37.3311
-37.3295
-37.3295
-49.0825
-49.0817
-49.0822
-49.0826
-49.0824
-49.0824
-54.5259
-54.5247
-54.5244
-54.5247
-54.5253
-54.5252
-58.1417
-58.1409
-58.1405
-58.1407
-58.1414
-58.1415
-71.713
-71.7138
-71.7138
-71.7137
-71.7138
-71.714
-108.313
-108.314
-108.314
-108.314
-108.315
-108.315
-135.581
-135.581
-135.581
-135.582
-135.585
-135.585
-110.767
-110.77
-110.772
-110.775
-110.779
-110.784
-46.4721
-46.4772
-46.4797
-46.4801
-46.4817
-46.4891
-4.92036
-4.92039
-4.9204
-4.9204
-4.9204
-4.9204
-4.92021
-4.92022
-4.92023
-4.92022
-4.92021
-4.92019
-4.91979
-4.9198
-4.91979
-4.91978
-4.91976
-4.91975
-4.91921
-4.9192
-4.91918
-4.91917
-4.91915
-4.91913
-4.91859
-4.91855
-4.91853
-4.91852
-4.91851
-4.9185
-4.91811
-4.91806
-4.91804
-4.91804
-4.91805
-4.91806
-4.91784
-4.9178
-4.9178
-4.91782
-4.91786
-4.9179
-4.91767
-4.91766
-4.91769
-4.91773
-4.91779
-4.91784
-4.91782
-4.91784
-4.91788
-4.91793
-4.91797
-4.91801
-4.91839
-4.91842
-4.91845
-4.91847
-4.91849
-4.9185
-4.9214
-4.92141
-4.92141
-4.92141
-4.9214
-4.92139
-4.92223
-4.92223
-4.92222
-4.92221
-4.9222
-4.92219
-14.73
-14.7301
-14.7301
-14.7301
-14.73
-14.73
-14.7298
-14.7299
-14.7299
-14.7298
-14.7298
-14.7298
-14.7294
-14.7294
-14.7294
-14.7293
-14.7293
-14.7293
-14.7287
-14.7287
-14.7287
-14.7286
-14.7286
-14.7286
-14.728
-14.728
-14.7279
-14.7279
-14.7279
-14.7279
-14.7276
-14.7276
-14.7276
-14.7276
-14.7276
-14.7276
-14.7282
-14.7282
-14.7282
-14.7282
-14.7283
-14.7283
-14.7307
-14.7307
-14.7307
-14.7308
-14.7308
-14.7309
-14.7353
-14.7354
-14.7354
-14.7354
-14.7355
-14.7355
-14.7414
-14.7414
-14.7414
-14.7415
-14.7415
-14.7415
-14.7486
-14.7486
-14.7486
-14.7485
-14.7485
-14.7485
-14.7547
-14.7547
-14.7547
-14.7547
-14.7547
-14.7547
-24.5397
-24.5397
-24.5397
-24.5397
-24.5397
-24.5397
-24.5395
-24.5395
-24.5395
-24.5395
-24.5394
-24.5394
-24.5389
-24.5389
-24.5389
-24.5389
-24.5389
-24.5389
-24.5381
-24.5381
-24.5381
-24.5381
-24.5381
-24.5381
-24.5372
-24.5372
-24.5372
-24.5372
-24.5372
-24.5372
-24.5361
-24.5361
-24.5362
-24.5362
-24.5362
-24.5362
-24.5348
-24.5348
-24.5348
-24.5349
-24.5349
-24.5349
-24.5317
-24.5317
-24.5318
-24.5318
-24.5319
-24.5319
-24.5268
-24.5269
-24.5269
-24.5269
-24.5269
-24.5269
-24.5209
-24.5209
-24.5209
-24.5209
-24.5209
-24.5209
-24.5212
-24.5212
-24.5212
-24.5212
-24.5212
-24.5212
-24.5231
-24.5231
-24.5231
-24.5231
-24.5231
-24.5232
-34.3494
-34.3494
-34.3494
-34.3494
-34.3494
-34.3494
-34.3492
-34.3492
-34.3492
-34.3492
-34.3492
-34.3491
-34.3486
-34.3486
-34.3486
-34.3486
-34.3486
-34.3486
-34.3478
-34.3478
-34.3478
-34.3478
-34.3477
-34.3477
-34.3467
-34.3467
-34.3467
-34.3468
-34.3468
-34.3468
-34.3458
-34.3458
-34.3459
-34.3459
-34.3459
-34.3459
-34.3459
-34.346
-34.346
-34.346
-34.346
-34.3461
-34.3492
-34.3492
-34.3492
-34.3492
-34.3492
-34.3492
-34.3576
-34.3576
-34.3576
-34.3576
-34.3576
-34.3575
-34.3742
-34.3742
-34.3741
-34.3741
-34.3741
-34.3741
-34.3968
-34.3968
-34.3968
-34.3969
-34.3969
-34.3969
-34.4665
-34.4665
-34.4666
-34.4666
-34.4667
-34.4667
4025.66
4025.71
4025.71
4025.72
4025.73
4025.75
-45.141
-45.1317
-45.1318
-45.1314
-45.1304
-45.1306
-476.161
-476.161
-476.161
-476.161
-476.161
-476.161
292.52
292.531
292.528
292.531
292.533
292.536
-47.3885
-47.3869
-47.3864
-47.3851
-47.3834
-47.3837
-117.548
-117.548
-117.548
-117.547
-117.547
-117.546
-60.5768
-60.5763
-60.576
-60.5748
-60.5737
-60.575
-79.8553
-79.8561
-79.8556
-79.8548
-79.854
-79.8535
-98.8681
-98.8677
-98.8675
-98.8675
-98.8677
-98.8679
-47.9339
-47.9348
-47.9346
-47.9341
-47.9339
-47.9339
-63.1691
-63.1688
-63.1682
-63.1678
-63.1674
-63.1672
-73.4566
-73.4561
-73.4559
-73.4558
-73.4557
-73.4558
-59.3341
-59.3335
-59.3329
-59.3326
-59.3325
-59.3326
-66.1219
-66.1212
-66.1205
-66.1202
-66.12
-66.12
-70.4998
-70.4999
-70.4999
-70.4999
-70.4997
-70.4995
-61.4957
-61.4952
-61.4948
-61.4948
-61.4951
-61.4955
-64.6208
-64.6205
-64.6202
-64.6201
-64.6203
-64.6207
-68.8065
-68.8064
-68.8063
-68.8062
-68.8061
-68.8062
-63.0696
-63.0695
-63.0695
-63.0698
-63.0703
-63.0706
-65.4942
-65.4941
-65.4942
-65.4944
-65.4947
-65.4951
-67.9409
-67.9408
-67.9408
-67.9408
-67.9409
-67.9411
-70.6796
-70.6797
-70.68
-70.6803
-70.6807
-70.681
-67.6479
-67.6478
-67.648
-67.6481
-67.6482
-67.6484
-67.2047
-67.2048
-67.2048
-67.2048
-67.2047
-67.2047
-83.3585
-83.3587
-83.3585
-83.3585
-83.359
-83.3592
-68.7238
-68.7238
-68.7238
-68.7238
-68.7238
-68.7239
-66.5681
-66.568
-66.568
-66.568
-66.5679
-66.568
-87.6877
-87.6887
-87.6886
-87.6887
-87.6897
-87.6884
-64.1948
-64.1947
-64.1945
-64.1942
-64.1942
-64.1939
-64.4345
-64.4342
-64.434
-64.4338
-64.4336
-64.4337
-63.0441
-63.0462
-63.0473
-63.0483
-63.0498
-63.0487
-50.584
-50.5842
-50.5839
-50.5833
-50.5828
-50.5815
-60.4457
-60.4452
-60.4448
-60.4443
-60.444
-60.4436
-34.9551
-34.9606
-34.9612
-34.9602
-34.9605
-34.9613
-38.4584
-38.4581
-38.4574
-38.4567
-38.4562
-38.4555
-56.2265
-56.2257
-56.2251
-56.2247
-56.2244
-56.2241
-44.4954
-44.4953
-44.4954
-44.4954
-44.4955
-44.4956
-53.5993
-53.5992
-53.5992
-53.5992
-53.5993
-53.5993
-63.396
-63.396
-63.396
-63.3959
-63.396
-63.396
-44.9831
-44.983
-44.9831
-44.9831
-44.9832
-44.9833
-53.3074
-53.3073
-53.3072
-53.3072
-53.3073
-53.3074
-63.1099
-63.1098
-63.1098
-63.1098
-63.1099
-63.1099
-45.9331
-45.933
-45.9331
-45.9332
-45.9334
-45.9335
-52.7314
-52.7312
-52.7311
-52.7311
-52.7313
-52.7315
-62.606
-62.6059
-62.6059
-62.6059
-62.6059
-62.606
-47.2469
-47.2468
-47.247
-47.2472
-47.2476
-47.2479
-51.6216
-51.6214
-51.6213
-51.6214
-51.6216
-51.6221
-61.7358
-61.7357
-61.7357
-61.7357
-61.7358
-61.736
-48.3095
-48.3095
-48.3096
-48.3097
-48.31
-48.3103
-50.3617
-50.3615
-50.3614
-50.3614
-50.3616
-50.3622
-60.3809
-60.3808
-60.3806
-60.3806
-60.3807
-60.3811
-64.7814
-64.7828
-64.7836
-64.7845
-64.7857
-64.7866
-49.3164
-49.3158
-49.3154
-49.3152
-49.3153
-49.3154
-58.5537
-58.5532
-58.5529
-58.5527
-58.5528
-58.5532
-44.1438
-44.1438
-44.1438
-44.1438
-44.1438
-44.1438
-53.9542
-53.9542
-53.9542
-53.9542
-53.9542
-53.9542
-63.7647
-63.7647
-63.7646
-63.7646
-63.7646
-63.7646
-44.1435
-44.1435
-44.1435
-44.1435
-44.1435
-44.1435
-53.954
-53.954
-53.954
-53.954
-53.954
-53.954
-63.7646
-63.7646
-63.7646
-63.7646
-63.7646
-63.7646
-44.143
-44.143
-44.143
-44.143
-44.143
-44.143
-53.9536
-53.9536
-53.9536
-53.9536
-53.9536
-53.9536
-63.7644
-63.7644
-63.7644
-63.7644
-63.7644
-63.7644
-44.1421
-44.1421
-44.1421
-44.1421
-44.1421
-44.1421
-53.953
-53.953
-53.953
-53.953
-53.953
-53.953
-63.7641
-63.7641
-63.7641
-63.7641
-63.7641
-63.7641
-44.1409
-44.1409
-44.1409
-44.1409
-44.1409
-44.1409
-53.952
-53.952
-53.952
-53.952
-53.952
-53.952
-63.7636
-63.7636
-63.7636
-63.7636
-63.7636
-63.7636
-44.1389
-44.1389
-44.1389
-44.139
-44.139
-44.139
-53.9504
-53.9504
-53.9505
-53.9505
-53.9505
-53.9505
-63.7628
-63.7628
-63.7628
-63.7628
-63.7628
-63.7628
-44.1354
-44.1354
-44.1354
-44.1354
-44.1354
-44.1354
-53.9478
-53.9478
-53.9478
-53.9478
-53.9478
-53.9477
-63.7611
-63.7611
-63.7611
-63.7611
-63.7611
-63.7611
-44.1287
-44.1287
-44.1287
-44.1287
-44.1286
-44.1286
-53.9433
-53.9433
-53.9432
-53.9432
-53.9432
-53.9432
-63.7577
-63.7577
-63.7577
-63.7577
-63.7576
-63.7576
-44.1173
-44.1173
-44.1173
-44.1173
-44.1172
-44.1172
-53.9352
-53.9352
-53.9352
-53.9352
-53.9352
-53.9352
-63.7501
-63.7501
-63.7501
-63.7501
-63.7501
-63.7501
-44.104
-44.104
-44.104
-44.104
-44.104
-44.104
-53.9209
-53.9209
-53.9209
-53.9209
-53.9209
-53.921
-63.7329
-63.7329
-63.7329
-63.7329
-63.7329
-63.7329
-44.1015
-44.1015
-44.1016
-44.1016
-44.1017
-44.1017
-53.884
-53.884
-53.8841
-53.8841
-53.8841
-53.8841
-63.6915
-63.6915
-63.6915
-63.6915
-63.6915
-63.6914
-44.1984
-44.1985
-44.1985
-44.1986
-44.1986
-44.1986
-53.807
-53.807
-53.807
-53.807
-53.807
-53.807
-63.5996
-63.5996
-63.5996
-63.5996
-63.5996
-63.5996
)
;

boundaryField
{
    seabed_topleft_surface
    {
        type            calculated;
        value           nonuniform List<scalar> 
72
(
38833.9
38833.9
38833.9
38833.9
38833.9
38833.9
37769.6
37769.6
37769.6
37769.5
37769.5
37769.5
34655.7
34655.6
34655.6
34655.6
34655.6
34655.5
30482.7
30482.7
30482.7
30482.6
30482.6
30482.6
25159.2
25159.2
25159.2
25159.2
25159.2
25159.2
19514
19514
19514.1
19514.1
19514.1
19514.1
13252.9
13252.8
13252.8
13252.8
13252.8
13252.9
8961.61
8961.55
8961.57
8961.6
8961.61
8961.66
7235.45
7235.56
7235.6
7235.62
7235.61
7235.56
2378.18
2378.38
2378.38
2378.38
2378.37
2378.22
851.065
851.074
851.08
851.083
851.083
851.077
898.353
898.375
898.393
898.405
898.403
898.385
)
;
    }
    seabed_topright_surface
    {
        type            calculated;
        value           nonuniform List<scalar> 
72
(
0.00149681
0.00146738
0.00145401
0.00145195
0.00145622
0.00146049
0.00165003
0.00163362
0.00162762
0.00163397
0.00164624
0.00166132
0.00206357
0.00205999
0.00206195
0.00207438
0.00209071
0.00210768
0.00264479
0.00266063
0.00267429
0.00269061
0.00270749
0.00272248
0.00326444
0.00330259
0.00332401
0.00333844
0.00334835
0.00335362
0.00374909
0.00379922
0.00381631
0.00381743
0.00380894
0.00379445
0.00401673
0.00405766
0.00405546
0.00403223
0.00399728
0.00396064
0.00418313
0.00419535
0.00416966
0.00412323
0.00407004
0.00402002
0.00403274
0.00401632
0.00397656
0.00392834
0.00388135
0.00384281
0.00346206
0.00343818
0.0034098
0.00338442
0.00336616
0.00335612
0.000457774
0.000446206
0.000442413
0.000446129
0.000456251
0.000469569
-0.000377609
-0.000373478
-0.000366257
-0.000356032
-0.00034448
-0.000337708
)
;
    }
    breakwater_top_surface
    {
        type            calculated;
        value           nonuniform List<scalar> 
36
(
-39.5904
-39.5903
-39.5904
-39.5904
-39.5905
-39.5906
-40.0781
-40.078
-40.0781
-40.0781
-40.0782
-40.0783
-41.0281
-41.028
-41.0281
-41.0282
-41.0284
-41.0285
-42.3419
-42.3418
-42.342
-42.3422
-42.3426
-42.3429
-43.4045
-43.4045
-43.4046
-43.4047
-43.405
-43.4053
-59.8757
-59.8771
-59.878
-59.8789
-59.88
-59.8809
)
;
    }
    breakwater_left_surface
    {
        type            calculated;
        value           nonuniform List<scalar> 
24
(
882.823
882.843
882.86
882.871
882.872
882.856
456.531
456.562
456.559
456.564
456.584
456.543
57.614
57.6066
57.6
57.5974
57.6014
57.6112
-46.4561
-46.4611
-46.4636
-46.464
-46.4656
-46.473
)
;
    }
    breakwater_right_surface
    {
        type            calculated;
        value           nonuniform List<scalar> 
24
(
-4.90538
-4.90537
-4.90537
-4.90536
-4.90534
-4.90534
-14.7382
-14.7382
-14.7382
-14.7382
-14.7382
-14.7382
-24.5069
-24.5069
-24.5069
-24.5069
-24.507
-24.507
-34.4506
-34.4507
-34.4507
-34.4507
-34.4508
-34.4508
)
;
    }
    water_front_surface
    {
        type            calculated;
        value           nonuniform List<scalar> 
186
(
33912.1
32847.7
29733.8
25560.9
20237.8
14654.3
8674.24
4658.01
3616.09
1229.89
832.355
882.77
24283
22446.8
18540.5
12981.5
6138.75
2556.21
484.159
-48.1659
-94.3574
-127.093
65.9759
456.481
15089.4
12377.5
7344.9
2280.4
171.098
-57.1805
-55.6495
-65.0338
-103.283
-156.069
-167.309
57.5847
7953.94
4586.99
834.955
-37.329
-49.0825
-54.5259
-58.1417
-71.713
-108.313
-135.581
-110.767
-46.4721
-4.92036
-4.92021
-4.91979
-4.91921
-4.91859
-4.91811
-4.91784
-4.91767
-4.91782
-4.91839
-4.9214
-4.92223
-14.73
-14.7298
-14.7294
-14.7287
-14.728
-14.7276
-14.7282
-14.7307
-14.7353
-14.7414
-14.7486
-14.7547
-24.5397
-24.5395
-24.5389
-24.5381
-24.5372
-24.5361
-24.5348
-24.5317
-24.5268
-24.5209
-24.5212
-24.5231
-34.3494
-34.3492
-34.3486
-34.3478
-34.3467
-34.3458
-34.3459
-34.3492
-34.3576
-34.3742
-34.3968
-34.4665
4025.66
-45.141
-476.161
292.52
-47.3885
-117.548
-60.5768
-79.8553
-98.8681
-47.9339
-63.1691
-73.4566
-59.3341
-66.1219
-70.4998
-61.4957
-64.6208
-68.8065
-63.0696
-65.4942
-67.9409
-70.6796
-67.6479
-67.2047
-83.3585
-68.7238
-66.5681
-87.6877
-64.1948
-64.4345
-63.0441
-50.584
-60.4457
-34.9551
-38.4584
-56.2265
-44.4954
-53.5993
-63.396
-44.9831
-53.3074
-63.1099
-45.9331
-52.7314
-62.606
-47.2469
-51.6216
-61.7358
-48.3095
-50.3617
-60.3809
-64.7814
-49.3164
-58.5537
-44.1438
-53.9542
-63.7647
-44.1435
-53.954
-63.7646
-44.143
-53.9536
-63.7644
-44.1421
-53.953
-63.7641
-44.1409
-53.952
-63.7636
-44.1389
-53.9504
-63.7628
-44.1354
-53.9478
-63.7611
-44.1287
-53.9433
-63.7577
-44.1173
-53.9352
-63.7501
-44.104
-53.9209
-63.7329
-44.1015
-53.884
-63.6915
-44.1984
-53.807
-63.5996
)
;
    }
    water_back_surface
    {
        type            calculated;
        value           nonuniform List<scalar> 
186
(
33912.1
32847.7
29733.7
25560.8
20237.9
14654.4
8674.27
4658.07
3616.18
1229.89
832.367
882.802
24283.1
22446.8
18540.4
12981.6
6138.93
2556.24
484.154
-48.1681
-94.3654
-127.093
66.0258
456.494
15089.4
12377.5
7344.99
2280.56
171.135
-57.1764
-55.6446
-65.036
-103.295
-156.071
-167.297
57.5819
7953.93
4587.04
835.052
-37.3295
-49.0824
-54.5252
-58.1415
-71.714
-108.315
-135.585
-110.784
-46.4891
-4.9204
-4.92019
-4.91975
-4.91913
-4.9185
-4.91806
-4.9179
-4.91784
-4.91801
-4.9185
-4.92139
-4.92219
-14.73
-14.7298
-14.7293
-14.7286
-14.7279
-14.7276
-14.7283
-14.7309
-14.7355
-14.7415
-14.7485
-14.7547
-24.5397
-24.5394
-24.5389
-24.5381
-24.5372
-24.5362
-24.5349
-24.5319
-24.5269
-24.5209
-24.5212
-24.5232
-34.3494
-34.3491
-34.3486
-34.3477
-34.3468
-34.3459
-34.3461
-34.3492
-34.3575
-34.3741
-34.3969
-34.4667
4025.75
-45.1306
-476.161
292.536
-47.3837
-117.546
-60.575
-79.8535
-98.8679
-47.9339
-63.1672
-73.4558
-59.3326
-66.12
-70.4995
-61.4955
-64.6207
-68.8062
-63.0706
-65.4951
-67.9411
-70.681
-67.6484
-67.2047
-83.3592
-68.7239
-66.568
-87.6884
-64.1939
-64.4337
-63.0487
-50.5815
-60.4436
-34.9613
-38.4555
-56.2241
-44.4956
-53.5993
-63.396
-44.9833
-53.3074
-63.1099
-45.9335
-52.7315
-62.606
-47.2479
-51.6221
-61.736
-48.3103
-50.3622
-60.3811
-64.7866
-49.3154
-58.5532
-44.1438
-53.9542
-63.7646
-44.1435
-53.954
-63.7646
-44.143
-53.9536
-63.7644
-44.1421
-53.953
-63.7641
-44.1409
-53.952
-63.7636
-44.139
-53.9505
-63.7628
-44.1354
-53.9477
-63.7611
-44.1286
-53.9432
-63.7576
-44.1172
-53.9352
-63.7501
-44.104
-53.921
-63.7329
-44.1017
-53.8841
-63.6914
-44.1986
-53.807
-63.5996
)
;
    }
    water_left_surface
    {
        type            calculated;
        value           nonuniform List<scalar> 
42
(
33928.9
33928.9
33928.9
33928.9
33928.9
33928.9
24299.6
24299.5
24299.5
24299.6
24299.6
24299.6
15105.6
15105.6
15105.6
15105.6
15105.6
15105.6
7969.82
7969.82
7969.82
7969.83
7969.83
7969.8
4025.66
4025.71
4025.71
4025.72
4025.73
4025.75
-45.141
-45.1317
-45.1318
-45.1314
-45.1304
-45.1306
-476.161
-476.161
-476.161
-476.161
-476.161
-476.161
)
;
    }
    water_right_surface
    {
        type            calculated;
        value           nonuniform List<scalar> 
42
(
-4.9035
-4.90353
-4.90355
-4.90355
-4.90354
-4.90354
-14.7135
-14.7135
-14.7136
-14.7135
-14.7135
-14.7135
-24.5235
-24.5235
-24.5235
-24.5235
-24.5235
-24.5235
-34.3336
-34.3336
-34.3336
-34.3336
-34.3335
-34.3335
-44.1438
-44.1438
-44.1438
-44.1438
-44.1438
-44.1438
-53.9542
-53.9542
-53.9542
-53.9542
-53.9542
-53.9542
-63.7647
-63.7647
-63.7646
-63.7646
-63.7646
-63.7646
)
;
    }
    water_top_surface
    {
        type            calculated;
        value           nonuniform List<scalar> 
180
(
-3178.47
-3178.54
-3178.55
-3178.52
-3178.51
-3178.65
-123.214
-123.217
-123.215
-123.214
-123.212
-123.206
-87.3837
-87.3828
-87.3834
-87.3841
-87.3852
-87.3854
-74.7759
-74.7754
-74.7757
-74.7761
-74.7764
-74.7766
-73.7342
-73.7351
-73.7357
-73.736
-73.7362
-73.7361
-71.5975
-71.598
-71.5981
-71.5981
-71.598
-71.5977
-70.7859
-70.7859
-70.7858
-70.7857
-70.7855
-70.7852
-69.1133
-69.1131
-69.1131
-69.1131
-69.113
-69.113
-68.67
-68.67
-68.67
-68.67
-68.67
-68.67
-68.67
-68.67
-68.67
-68.67
-68.67
-68.67
-68.6701
-68.6701
-68.6701
-68.6701
-68.6701
-68.6701
-68.6701
-68.6701
-68.6701
-68.6701
-68.6701
-68.6701
-68.67
-68.67
-68.67
-68.67
-68.67
-68.67
-68.67
-68.67
-68.67
-68.67
-68.67
-68.67
-68.67
-68.67
-68.67
-68.67
-68.67
-68.67
-68.67
-68.67
-68.67
-68.67
-68.67
-68.67
-68.67
-68.67
-68.67
-68.67
-68.67
-68.67
-68.67
-68.67
-68.67
-68.67
-68.67
-68.67
-68.67
-68.67
-68.67
-68.67
-68.67
-68.67
-68.67
-68.67
-68.67
-68.67
-68.67
-68.67
-68.67
-68.67
-68.67
-68.67
-68.67
-68.67
-68.67
-68.67
-68.67
-68.67
-68.67
-68.67
-68.67
-68.67
-68.67
-68.67
-68.67
-68.67
-68.67
-68.67
-68.67
-68.67
-68.67
-68.67
-68.67
-68.67
-68.67
-68.67
-68.67
-68.67
-68.67
-68.67
-68.67
-68.67
-68.67
-68.67
-68.67
-68.67
-68.67
-68.67
-68.67
-68.67
-68.67
-68.67
-68.67
-68.67
-68.67
-68.67
-68.67
-68.67
-68.67
-68.67
-68.67
-68.67
-68.67
-68.67
-68.67
-68.67
-68.67
-68.67
)
;
    }
}


// ************************************************************************* //
