/*--------------------------------*- C++ -*----------------------------------*\
| =========                 |                                                 |
| \\      /  F ield         | OpenFOAM: The Open Source CFD Toolbox           |
|  \\    /   O peration     | Version:  v1612+                                |
|   \\  /    A nd           | Web:      www.OpenFOAM.com                      |
|    \\/     M anipulation  |                                                 |
\*---------------------------------------------------------------------------*/
FoamFile
{
    version     2.0;
    format      ascii;
    class       surfaceScalarField;
    location    "1.45";
    object      phi;
}
// * * * * * * * * * * * * * * * * * * * * * * * * * * * * * * * * * * * * * //

dimensions      [0 3 -1 0 0 0 0];

internalField   nonuniform List<scalar> 
2916
(
3.81196e-07
0.398928
-0.398928
6.08317e-07
0.398929
-0.39893
8.02448e-07
0.398929
-0.39893
1.14171e-06
0.398929
-0.39893
1.01399e-06
0.39893
-0.39893
0.398929
-0.398928
1.26745e-06
0.904715
-0.505789
1.7954e-06
0.904719
-0.50579
1.88228e-06
0.904718
-0.505789
1.50195e-06
0.904718
-0.505788
9.94858e-07
0.904717
-0.505787
0.904715
-0.505785
2.134e-06
1.43902
-0.534303
3.81357e-06
1.43902
-0.534304
2.20532e-06
1.43902
-0.5343
7.199e-07
1.43902
-0.534299
5.41934e-07
1.43902
-0.5343
1.43901
-0.534296
-2.12712e-06
2.05155
-0.612533
9.37013e-07
2.05156
-0.612537
-1.6739e-06
2.05155
-0.612531
-3.69855e-06
2.05155
-0.612531
-2.48928e-06
2.05155
-0.612534
2.05154
-0.612534
-1.69665e-05
2.70019
-0.648626
-9.93038e-06
2.7002
-0.648649
-8.28729e-06
2.7002
-0.648644
-7.95565e-06
2.70019
-0.648644
-4.25016e-06
2.70019
-0.648649
2.70019
-0.648651
-3.05568e-05
3.39483
-0.694604
-1.74266e-05
3.39485
-0.694663
-9.53453e-06
3.39485
-0.69466
-6.43559e-06
3.39485
-0.694657
-1.13348e-06
3.39485
-0.694659
3.39484
-0.694656
-3.23124e-05
3.91582
-0.520958
-2.16073e-05
3.91586
-0.521025
-7.64005e-06
3.91586
-0.521029
-1.11797e-06
3.91587
-0.521025
1.37779e-06
3.91587
-0.521024
3.91587
-0.521021
-1.7998e-05
4.57958
-0.663739
-1.26345e-05
4.57963
-0.663773
-3.37843e-06
4.57963
-0.663772
-9.92757e-07
4.57963
-0.663764
-3.12595e-06
4.57964
-0.663768
4.57963
-0.663769
-2.1477e-05
5.50667
-0.927078
-1.28738e-05
5.50674
-0.927121
-1.16864e-05
5.50673
-0.927105
-1.22642e-05
5.50673
-0.927102
-2.01215e-06
5.50676
-0.927128
5.50672
-0.927092
-4.09984e-05
5.66995
-0.163235
-2.18731e-05
5.67008
-0.163356
-1.74981e-05
5.67008
-0.163356
-1.75324e-05
5.67009
-0.163358
1.20444e-05
5.6701
-0.163372
5.67001
-0.163276
-6.47744e-05
3.88241
1.7876
-5.89477e-05
3.88265
1.78743
-5.232e-05
3.88267
1.78741
-4.61704e-05
3.88269
1.78738
5.28579e-06
3.88265
1.7874
3.8824
1.78762
-0.000463631
3.88287
-9.60014e-05
3.88228
0.000188952
3.88239
0.00048321
3.8824
0.000817328
3.88231
3.88322
1.68671e-06
0.432095
-0.831024
1.66418e-06
0.432098
-0.831028
1.37826e-06
0.432097
-0.831026
9.5806e-07
0.432096
-0.831025
4.79038e-07
0.432096
-0.831025
0.432094
-0.831021
4.76807e-06
0.865922
-0.939621
4.89908e-06
0.865932
-0.939624
3.15034e-06
0.86593
-0.93962
1.26147e-06
0.865929
-0.939619
1.37713e-06
0.865927
-0.939619
0.865923
-0.939613
9.07717e-06
1.36445
-1.03284
9.0004e-06
1.36447
-1.03284
3.3954e-06
1.36446
-1.03283
-4.90985e-08
1.36446
-1.03283
1.07108e-06
1.36446
-1.03283
1.36445
-1.03282
-3.44583e-06
2.01168
-1.25976
3.94369e-07
2.01171
-1.25978
-1.44448e-07
2.0117
-1.25977
5.49408e-07
2.0117
-1.25977
2.75528e-06
2.01169
-1.25977
2.01168
-1.25976
-1.24597e-05
2.68854
-1.32547
-8.10337e-06
2.68858
-1.32553
-1.03858e-06
2.68858
-1.32553
1.78318e-06
2.68858
-1.32553
8.73888e-07
2.68858
-1.32553
2.68856
-1.32553
-2.82357e-06
3.59284
-1.5989
2.82094e-06
3.5929
-1.59899
1.11305e-05
3.59289
-1.59898
1.1997e-05
3.59289
-1.59897
5.96333e-06
3.59289
-1.59897
3.59286
-1.59895
-3.66481e-07
4.3811
-1.30922
-7.67635e-06
4.38115
-1.30927
1.39129e-06
4.38114
-1.30929
6.64006e-07
4.38115
-1.30928
-7.8522e-06
4.38117
-1.30929
4.38111
-1.30928
6.32876e-05
5.37352
-1.65623
-9.01227e-06
5.37386
-1.6564
-3.54471e-05
5.3738
-1.6564
-3.07163e-05
5.37378
-1.6564
-4.20642e-05
5.37389
-1.65648
5.37381
-1.6565
-8.83481e-05
6.66074
-2.2142
-0.000107111
6.66116
-2.2144
-0.000100049
6.66111
-2.21442
-9.87751e-05
6.66111
-2.21443
-0.000128912
6.6614
-2.2146
6.66111
-2.21452
-0.000197921
6.30756
0.19014
-0.000152834
6.30779
0.18997
-0.000205012
6.30778
0.190029
-0.000280282
6.30779
0.190031
-0.000253971
6.30812
0.189881
6.30753
0.190058
-6.96164e-06
4.17189
3.92328
-0.000108572
4.17235
3.92297
-0.000172532
4.17225
3.92301
-0.000284502
4.17228
3.92301
-0.000358623
4.17262
3.92297
4.17149
3.92329
-0.000317287
8.05508
-5.03137e-05
8.05435
9.53806e-06
8.05458
0.00010697
8.05459
0.000708441
8.05434
8.05542
6.67876e-06
0.382223
-1.21325
5.48935e-06
0.382232
-1.21326
3.95508e-06
0.382231
-1.21326
2.44699e-06
0.382231
-1.21326
1.95493e-06
0.382231
-1.21326
0.382231
-1.21325
1.16297e-05
0.741935
-1.29934
1.0102e-05
0.741959
-1.29935
4.92322e-06
0.74196
-1.29934
1.09105e-06
0.741959
-1.29934
2.76937e-06
0.741955
-1.29935
0.741952
-1.29933
8.13987e-06
1.32539
-1.6163
4.99462e-06
1.32543
-1.6163
4.37451e-06
1.32543
-1.61629
4.11414e-06
1.32542
-1.61629
3.77528e-06
1.32542
-1.6163
1.32542
-1.61628
1.20539e-05
2.26924
-2.20363
1.17114e-05
2.26934
-2.20369
1.75863e-05
2.26932
-2.20367
1.93983e-05
2.26932
-2.20366
8.02476e-06
2.26931
-2.20365
2.2693
-2.20363
4.91957e-05
2.91334
-1.96962
5.26449e-05
2.9135
-1.9697
6.43643e-05
2.91351
-1.96973
6.2357e-05
2.91351
-1.96971
2.82792e-05
2.9135
-1.96968
2.91347
-1.96968
1.47558e-05
3.06691
-1.75248
6.53763e-05
3.06704
-1.75257
8.05712e-05
3.06704
-1.75253
7.05154e-05
3.06704
-1.75249
3.62897e-05
3.06706
-1.75249
3.06697
-1.75241
2.86428e-07
3.12428
-1.36659
8.31186e-06
3.1243
-1.36653
-1.36381e-05
3.12425
-1.36646
-5.81035e-05
3.12424
-1.36643
-0.000121506
3.12435
-1.36652
3.1242
-1.36663
7.21647e-05
3.22844
-1.76046
-0.000107675
3.22852
-1.76044
-0.000129398
3.22832
-1.76045
-5.89069e-05
3.22828
-1.76052
-9.98039e-05
3.22861
-1.76071
3.22846
-1.76086
0.000147563
2.52806
-1.51396
2.75552e-05
2.52819
-1.51395
-1.69081e-07
2.52794
-1.51401
5.74664e-05
2.5279
-1.51409
-2.92078e-05
2.52841
-1.51431
2.52821
-1.51431
-2.49209e-05
1.74886
0.969364
-3.55562e-05
1.74899
0.969184
-7.92548e-05
1.74879
0.969229
-0.000187564
1.74878
0.969259
-0.000179137
1.74921
0.96907
1.74876
0.969332
0.000223116
0.662497
5.00942
-1.94846e-05
0.662925
5.00928
-0.000271064
0.662817
5.00923
-0.000535928
0.662808
5.00925
-0.000524988
0.663007
5.00917
0.662215
5.00932
9.45918e-05
8.71749
8.2398e-05
8.71728
9.18883e-05
8.71737
0.00015485
8.71733
0.000284157
8.71721
8.71792
1.00217e-05
0.173351
-1.38662
9.34293e-06
0.17336
-1.38662
6.98954e-06
0.173362
-1.38662
4.1414e-06
0.173362
-1.38661
4.38313e-06
0.17336
-1.38662
0.173369
-1.38662
7.93061e-06
0.750333
-1.87633
5.81666e-06
0.750362
-1.87635
4.16906e-06
0.750364
-1.87634
-4.86458e-07
0.750363
-1.87634
-5.67152e-06
0.750361
-1.87634
0.750361
-1.87633
-7.16904e-06
1.76331
-2.62927
-7.98697e-06
1.76335
-2.62929
-5.73281e-07
1.76336
-2.62929
-3.96421e-06
1.76336
-2.62928
-2.61312e-05
1.76336
-2.62928
1.76337
-2.62932
1.57555e-05
1.5544
-1.99473
3.37586e-05
1.5546
-1.99495
6.12328e-05
1.55461
-1.99495
7.09291e-05
1.55463
-1.99495
5.46662e-05
1.55465
-1.99493
1.55468
-1.99489
0.000198025
1.30737
-1.72279
0.000237356
1.30773
-1.72288
0.000177237
1.30779
-1.72285
0.000124164
1.30781
-1.72284
8.27686e-05
1.30782
-1.72281
1.3078
-1.72272
-7.71677e-05
0.409822
-0.854854
-3.06082e-05
0.409993
-0.854877
1.05368e-05
0.410028
-0.8548
1.77082e-05
0.410044
-0.854738
-1.63158e-05
0.410115
-0.854746
0.410128
-0.854762
-0.000112961
-0.119401
-0.837246
-7.33421e-05
-0.119416
-0.837154
2.00995e-05
-0.119432
-0.83709
9.70835e-05
-0.119405
-0.837055
3.5315e-05
-0.119213
-0.837129
-0.119141
-0.837327
4.85867e-05
-0.480204
-1.3997
1.37243e-05
-0.480301
-1.39951
2.03802e-05
-0.480352
-1.39953
1.76753e-05
-0.480331
-1.39959
-8.08091e-05
-0.480107
-1.39971
-0.480143
-1.39994
0.000113775
-1.28067
-0.713606
3.34715e-05
-1.2807
-0.713473
7.1524e-05
-1.28081
-0.713596
9.1477e-05
-1.28078
-0.713663
-0.000147694
-1.28045
-0.713723
-1.28068
-0.71392
0.000354079
-1.84897
1.53731
0.000228024
-1.84872
1.53732
0.000204708
-1.84884
1.53728
0.00015813
-1.84881
1.53734
-0.000165025
-1.84842
1.53735
-1.84887
1.53736
0.000465543
-2.00606
5.16604
0.000395271
-2.00551
5.16613
0.000302991
-2.00562
5.1661
0.000166007
-2.00562
5.1662
-5.0918e-05
-2.00528
5.16626
-2.00592
5.16631
9.55607e-05
6.71133
0.000218033
6.71166
0.000231376
6.71175
0.000100866
6.71184
1.52502e-05
6.71202
6.71202
1.25795e-08
-0.00114711
0.0011471
-1.3816e-08
-0.00114721
0.00114716
-4.14844e-08
-0.00114722
0.00114716
-3.8393e-08
-0.00114723
0.00114715
-2.41549e-08
-0.00114724
0.00114715
-0.00114719
0.0011471
-1.82462e-07
-0.00233732
0.00119028
-1.0274e-07
-0.00233752
0.00119034
-8.73232e-08
-0.00233751
0.00119034
-6.79137e-08
-0.00233752
0.00119033
-5.52353e-08
-0.00233751
0.00119033
-0.0023374
0.00119028
-4.16904e-07
-0.00360964
0.00127274
-1.72727e-07
-0.0036099
0.00127282
-7.00637e-08
-0.00360987
0.00127282
-9.72651e-09
-0.00360986
0.00127283
2.56218e-08
-0.00360983
0.00127284
-0.00360964
0.00127283
-6.63565e-07
-0.00499429
0.00138556
-1.73445e-07
-0.00499455
0.00138569
2.30045e-08
-0.0049945
0.00138572
1.28323e-07
-0.00499446
0.00138575
1.79874e-07
-0.00499441
0.00138579
-0.00499413
0.00138581
-8.20982e-07
-0.00650462
0.00151178
-9.27694e-08
-0.00650485
0.00151202
2.04276e-07
-0.00650477
0.00151208
3.35525e-07
-0.0065047
0.00151216
3.97992e-07
-0.00650464
0.00151222
-0.00650429
0.00151227
-7.35194e-07
-0.0081259
0.0016231
1.46078e-07
-0.00812608
0.00162354
4.40506e-07
-0.00812599
0.00162369
5.51867e-07
-0.00812593
0.00162379
5.95266e-07
-0.00812591
0.00162387
-0.00812556
0.00162392
-4.05778e-07
-0.00980831
0.00168427
3.94182e-07
-0.0098085
0.00168498
5.97561e-07
-0.00980847
0.00168518
6.18553e-07
-0.00980848
0.00168529
6.52694e-07
-0.00980858
0.00168532
-0.00980828
0.00168524
6.0297e-08
-0.0113344
0.00152756
5.61295e-07
-0.0113347
0.00152849
4.9478e-07
-0.0113348
0.00152874
3.7934e-07
-0.0113349
0.00152876
3.9975e-07
-0.0113352
0.00152864
-0.011335
0.00152833
4.39343e-07
-0.0121403
0.00080681
4.15773e-07
-0.0121408
0.000807899
3.38645e-08
-0.0121411
0.000808112
-2.46411e-07
-0.0121414
0.000807991
-1.84687e-07
-0.0121418
0.000807657
-0.0121419
0.000807083
2.67565e-07
-0.0113127
-0.000827116
-2.36788e-07
-0.0113134
-0.000826381
-7.95458e-07
-0.0113138
-0.000826355
-1.09309e-06
-0.0113142
-0.000826626
-8.88114e-07
-0.0113148
-0.000827112
-0.0113151
-0.000827777
-4.92639e-07
-0.00797669
-0.00333536
-1.08357e-06
-0.00797714
-0.003336
-1.48411e-06
-0.00797732
-0.00333637
-1.65908e-06
-0.00797749
-0.00333686
-1.36798e-06
-0.00797781
-0.00333753
-0.00797827
-0.00333838
-7.22427e-07
-0.00797616
-7.49559e-07
-0.00797748
-5.94597e-07
-0.00797778
-3.3985e-07
-0.007978
-8.7589e-08
-0.00797824
-0.00797837
-2.40743e-08
-0.00115347
0.0023005
-5.6557e-08
-0.00115356
0.0023006
-7.48491e-08
-0.00115356
0.0023006
-7.66659e-08
-0.00115357
0.00230059
-7.90256e-08
-0.00115357
0.0023006
-0.00115352
0.00230049
-1.50873e-07
-0.0023582
0.00239512
-1.05665e-07
-0.00235837
0.00239522
-8.73985e-08
-0.00235837
0.00239522
-8.46125e-08
-0.00235837
0.00239521
-7.83627e-08
-0.00235835
0.00239521
-0.00235823
0.00239511
-3.04794e-07
-0.00366167
0.00257684
-1.15591e-07
-0.00366189
0.00257696
-4.44952e-08
-0.00366187
0.00257696
-1.84337e-10
-0.00366185
0.00257697
4.69197e-08
-0.00366182
0.00257698
-0.0036616
0.00257689
-4.59527e-07
-0.00510102
0.00282629
-8.69242e-08
-0.00510124
0.00282647
5.83727e-08
-0.00510119
0.00282649
1.60832e-07
-0.00510115
0.00282652
2.65499e-07
-0.00510109
0.00282656
-0.00510079
0.00282647
-5.42906e-07
-0.00669043
0.00310342
2.31351e-08
-0.00669063
0.00310373
2.30533e-07
-0.00669055
0.00310379
3.87493e-07
-0.00669049
0.00310386
5.60182e-07
-0.00669044
0.00310392
-0.00669007
0.00310382
-4.77497e-07
-0.00838221
0.00331772
1.75419e-07
-0.00838237
0.00331826
4.18114e-07
-0.00838229
0.0033184
5.95376e-07
-0.00838224
0.0033185
8.12619e-07
-0.00838223
0.00331854
-0.00838189
0.00331837
-2.35879e-07
-0.00999342
0.00329841
3.38713e-07
-0.0099936
0.00329925
5.11101e-07
-0.00999356
0.00329946
6.54967e-07
-0.0099936
0.00329952
8.9366e-07
-0.00999373
0.00329946
-0.00999349
0.00329911
1.50424e-07
-0.0112591
0.00279545
4.1786e-07
-0.0112592
0.00279659
3.82211e-07
-0.0112593
0.00279681
3.90685e-07
-0.0112595
0.00279676
5.55623e-07
-0.0112599
0.0027965
-0.0112599
0.00279589
3.04204e-07
-0.0120062
0.00155515
2.15326e-07
-0.0120063
0.00155643
-3.43775e-08
-0.0120064
0.00155662
-1.98231e-07
-0.0120068
0.00155641
-7.75347e-08
-0.0120075
0.00155592
-0.0120079
0.00155507
2.30189e-07
-0.0117484
-0.00108459
-2.41356e-07
-0.0117485
-0.00108335
-7.55037e-07
-0.0117488
-0.0010833
-1.09155e-06
-0.0117492
-0.00108374
-9.63393e-07
-0.01175
-0.00108457
-0.0117507
-0.00108583
-5.50721e-07
-0.00840911
-0.00667425
-8.32984e-07
-0.00840916
-0.00667533
-1.05634e-06
-0.00840929
-0.00667582
-1.24133e-06
-0.00840962
-0.00667641
-1.11862e-06
-0.0084103
-0.00667736
-0.00841128
-0.00667871
-6.88161e-07
-0.016385
-2.93144e-07
-0.0163872
2.39629e-07
-0.0163877
6.54882e-07
-0.0163881
7.39108e-07
-0.0163885
-0.0163888
-2.48881e-08
-0.00111258
0.00341302
-4.52007e-08
-0.00111267
0.00341316
-6.20614e-08
-0.00111266
0.00341316
-6.28414e-08
-0.00111267
0.00341316
-6.18107e-08
-0.00111266
0.00341316
-0.00111261
0.00341302
-1.20509e-07
-0.00228962
0.00357223
-8.24091e-08
-0.00228976
0.00357238
-6.79788e-08
-0.00228975
0.00357237
-6.46623e-08
-0.00228975
0.00357237
-5.33748e-08
-0.00228973
0.00357238
-0.0022896
0.00357222
-2.24932e-07
-0.00359757
0.00388529
-6.96557e-08
-0.00359776
0.00388547
-1.78746e-08
-0.00359773
0.00388548
1.96642e-08
-0.00359771
0.00388548
6.33493e-08
-0.00359768
0.0038855
-0.00359746
0.00388534
-3.19746e-07
-0.00510577
0.00433559
-3.0013e-08
-0.00510597
0.00433585
7.32041e-08
-0.00510593
0.00433586
1.56642e-07
-0.00510589
0.00433589
2.53668e-07
-0.00510585
0.00433592
-0.00510557
0.00433576
-3.29257e-07
-0.00689014
0.0048895
6.52416e-08
-0.00689033
0.0048899
2.11484e-07
-0.00689027
0.00488996
3.35101e-07
-0.00689024
0.00489001
4.91752e-07
-0.00689021
0.00489004
-0.00688989
0.00488984
-1.91444e-07
-0.0090553
0.00548498
2.05321e-07
-0.00905549
0.00548561
3.51401e-07
-0.00905545
0.00548572
4.98546e-07
-0.00905546
0.00548578
6.92955e-07
-0.00905551
0.00548577
-0.00905521
0.00548545
6.00322e-08
-0.0118097
0.00605472
3.27403e-07
-0.0118099
0.00605565
3.89188e-07
-0.0118099
0.0060558
4.87541e-07
-0.01181
0.00605579
6.68943e-07
-0.0118102
0.00605565
-0.01181
0.00605509
2.81095e-07
-0.0152232
0.00621025
3.16035e-07
-0.0152234
0.00621148
2.36505e-07
-0.0152235
0.00621163
2.27399e-07
-0.0152238
0.00621149
3.39538e-07
-0.0152242
0.00621113
-0.015224
0.00621028
2.99799e-07
-0.0186173
0.00494979
1.27712e-07
-0.0186176
0.00495125
-9.06917e-08
-0.0186177
0.00495141
-2.28466e-07
-0.018618
0.00495113
-1.55127e-07
-0.0186185
0.00495054
-0.0186184
0.0049494
-1.92191e-07
-0.0196118
-8.97818e-05
-2.31134e-07
-0.019612
-8.87323e-05
-2.9484e-07
-0.019612
-8.86901e-05
-3.49616e-07
-0.0196123
-8.90482e-05
-2.80103e-07
-0.0196129
-8.97909e-05
-0.019613
-9.0972e-05
-9.89377e-07
-0.0155061
-0.010779
-5.99699e-07
-0.0155067
-0.0107807
-1.18505e-07
-0.0155068
-0.0107812
1.35143e-07
-0.015507
-0.0107816
1.73921e-07
-0.0155074
-0.0107823
-0.0155079
-0.0107834
-1.44923e-06
-0.0318895
-3.03188e-07
-0.0318947
1.12203e-06
-0.0318957
2.04513e-06
-0.0318958
1.99584e-06
-0.0318957
-0.0318947
-3.52646e-08
-0.00101509
0.00442807
-4.3079e-08
-0.00101516
0.00442826
-4.89507e-08
-0.00101516
0.00442826
-4.78436e-08
-0.00101516
0.00442826
-4.61071e-08
-0.00101515
0.00442826
-0.0010151
0.00442808
-9.61101e-08
-0.00210831
0.00466552
-5.68571e-08
-0.00210843
0.00466572
-4.79101e-08
-0.00210842
0.00466572
-4.37504e-08
-0.00210841
0.00466573
-3.18672e-08
-0.00210839
0.00466573
-0.00210827
0.00466553
-1.66698e-07
-0.0033659
0.00514329
-5.32209e-08
-0.00336606
0.00514354
-1.24582e-08
-0.00336604
0.00514354
1.91681e-08
-0.00336602
0.00514355
6.02474e-08
-0.003366
0.00514356
-0.0033658
0.00514334
-2.22461e-07
-0.00488993
0.00586049
-2.80182e-08
-0.00489013
0.0058608
4.51723e-08
-0.00489011
0.00586081
1.13123e-07
-0.00489008
0.00586083
2.02503e-07
-0.00489006
0.00586085
-0.0048898
0.0058606
-2.16731e-07
-0.0067887
0.00678956
1.38456e-08
-0.00678895
0.00678998
1.2623e-07
-0.00678895
0.00679001
2.38572e-07
-0.00678894
0.00679004
3.74686e-07
-0.00678894
0.00679006
-0.00678865
0.00678975
-1.21473e-07
-0.00911853
0.00781627
8.46811e-08
-0.00911891
0.00781683
2.05158e-07
-0.00911896
0.00781689
3.44063e-07
-0.00911901
0.00781692
5.05753e-07
-0.00911909
0.0078169
-0.0091188
0.00781647
3.36077e-10
-0.0117787
0.00871604
1.06983e-07
-0.0117793
0.00871678
2.17773e-07
-0.0117794
0.00871686
3.50468e-07
-0.0117796
0.00871684
4.54907e-07
-0.0117798
0.00871674
-0.0117795
0.00871613
-4.07054e-08
-0.0145376
0.00896988
-4.13842e-08
-0.0145385
0.00897081
5.75195e-08
-0.0145387
0.0089709
1.55586e-07
-0.014539
0.00897081
1.87875e-07
-0.0145394
0.00897059
-0.0145391
0.0089698
-3.11312e-07
-0.0171241
0.00753661
-2.30083e-07
-0.0171251
0.00753768
-3.63819e-08
-0.0171254
0.00753778
6.9547e-08
-0.0171256
0.00753764
8.84927e-08
-0.0171259
0.0075373
-0.0171256
0.0075364
-5.3585e-07
-0.0196334
0.00242007
-4.91044e-08
-0.0196348
0.00242086
4.41514e-07
-0.019635
0.00242094
6.64657e-07
-0.0196351
0.00242077
5.69861e-07
-0.0196353
0.00242034
-0.019635
0.00241949
-3.04148e-07
-0.0148612
-0.0155506
6.40915e-07
-0.0148638
-0.015552
1.74703e-06
-0.0148644
-0.0155522
2.24525e-06
-0.0148642
-0.0155523
1.79855e-06
-0.0148639
-0.0155528
-0.0148635
-0.0155533
-1.68185e-06
-0.0467487
-4.68059e-07
-0.0467594
1.31824e-06
-0.0467617
2.55416e-06
-0.0467611
2.26464e-06
-0.0467593
-0.046756
-2.51471e-06
-0.929683
-0.45693
2.08381e-06
-0.929691
-0.456933
2.54963e-06
-0.929687
-0.456929
2.20401e-06
-0.929684
-0.456929
3.67399e-06
-0.929683
-0.456933
-0.929693
-0.456919
1.26346e-05
2.19177
-3.12146
1.19043e-05
2.19177
-3.12146
9.00193e-06
2.19177
-3.12145
1.59467e-05
2.19177
-3.12146
2.2595e-05
2.19177
-3.12146
2.19176
-3.12143
1.89125e-05
-4.51238
1.91661e-05
-4.51238
1.80324e-05
-4.51237
2.51707e-05
-4.51238
3.03324e-05
-4.51238
-4.51235
-2.0474e-05
-2.64294
0.309697
-1.32629e-05
-2.64298
0.309687
1.29649e-05
-2.64298
0.309684
1.69822e-05
-2.64296
0.309686
-2.80688e-05
-2.64292
0.309691
-2.64297
0.309702
-2.22298e-05
-3.71035
-2.05403
1.46328e-05
-3.71039
-2.05409
6.11744e-05
-3.71038
-2.0541
7.66912e-05
-3.71035
-2.05409
6.96057e-05
-3.71032
-2.05406
-3.71029
-2.05405
-3.53587e-05
-2.44633
-8.98941e-05
-2.44635
-0.000116109
-2.44634
-0.000121227
-2.44633
-7.04592e-05
-2.44631
-2.44628
-7.80787e-06
-2.1545
-0.165062
1.05076e-05
-2.15459
-0.165031
2.79976e-05
-2.15461
-0.165018
3.95274e-05
-2.15461
-0.165002
5.24012e-05
-2.15463
-0.164968
-2.15466
-0.164899
-3.00463e-05
-2.38762
-1.82089
4.6535e-06
-2.38769
-1.82103
2.83104e-05
-2.38769
-1.82103
5.56585e-05
-2.38769
-1.82103
9.4111e-05
-2.38773
-1.821
-2.38771
-1.82091
2.38512e-05
-1.42519
2.60785e-05
-1.42523
2.25116e-05
-1.42524
2.12117e-05
-1.42524
1.26254e-05
-1.42523
-1.42522
0.000181142
-1.60523
-0.554747
0.000182052
-1.60537
-0.554613
0.00013967
-1.60536
-0.554563
9.35066e-05
-1.60537
-0.55453
5.9124e-05
-1.60538
-0.554481
-1.60536
-0.554369
0.000110204
-1.53936
-1.88687
9.31127e-05
-1.53937
-1.88702
5.29369e-05
-1.53935
-1.88701
2.57242e-05
-1.53936
-1.88702
2.96396e-05
-1.53937
-1.88702
-1.53935
-1.88689
-6.61303e-06
-1.05398
1.45268e-06
-1.05404
2.34872e-06
-1.05406
8.51345e-06
-1.05407
2.05352e-05
-1.05408
-1.05406
-6.56725e-06
-0.9502
-1.32733
-2.62418e-05
-0.950216
-1.32726
-4.43578e-05
-0.950197
-1.32721
-8.35989e-05
-0.950168
-1.32716
-0.000102081
-0.950162
-1.32711
-0.950162
-1.32703
5.0383e-05
-1.32736
-1.50976
1.77343e-05
-1.32732
-1.5099
-4.32079e-06
-1.32729
-1.5099
-8.76723e-06
-1.32727
-1.50992
-1.05686e-05
-1.32725
-1.50993
-1.32724
-1.50982
-3.37965e-05
-0.664615
-3.15006e-05
-0.664667
-3.20781e-05
-0.664685
-2.0168e-05
-0.664702
9.37031e-06
-0.664716
-0.664693
-0.000119752
-0.710987
-1.47108
-0.000106849
-0.710908
-1.47125
-5.39484e-05
-0.710855
-1.4712
-1.03148e-05
-0.710791
-1.47115
-2.58031e-06
-0.710774
-1.47109
-0.710853
-1.47094
-5.20377e-05
-1.14238
-1.07833
-6.03027e-05
-1.14236
-1.07844
-3.91431e-05
-1.14234
-1.07844
-2.31338e-06
-1.14231
-1.07844
3.13896e-05
-1.14229
-1.07845
-1.14229
-1.07835
-1.36004e-05
-0.502736
-1.62466e-05
-0.50278
-1.82031e-05
-0.502788
-1.11841e-05
-0.502795
3.9599e-06
-0.502801
-0.502764
-5.9602e-06
-1.00812
-1.30021
6.57366e-05
-1.00805
-1.30042
0.000121614
-1.00802
-1.30034
0.000164313
-1.00799
-1.30027
0.00012531
-1.008
-1.30019
-1.00812
-1.30003
-2.14511e-05
-1.09988
-0.986548
-2.83561e-06
-1.09985
-0.986661
2.31681e-05
-1.09984
-0.986649
5.98439e-05
-1.09983
-0.986631
7.65295e-05
-1.09984
-0.986625
-1.09988
-0.986511
-1.5115e-05
-0.500029
-9.21251e-06
-0.500078
1.80907e-06
-0.500082
1.39878e-05
-0.500082
2.23708e-05
-0.500082
-0.500037
5.41913e-05
-0.874628
-1.82532
0.000128593
-0.874473
-1.82553
0.000166402
-0.874482
-1.82543
0.000173455
-0.87451
-1.82536
8.94902e-05
-0.874561
-1.82525
-0.874726
-1.82515
6.87246e-06
-0.532709
-1.32848
6.93647e-05
-0.532594
-1.32861
9.53957e-05
-0.532587
-1.32857
0.00010598
-0.532604
-1.32855
0.000103459
-0.532631
-1.32856
-0.532727
-1.32841
-2.35478e-05
-0.536911
-1.2488e-05
-0.536965
1.96809e-06
-0.53697
1.56628e-05
-0.536974
2.83237e-05
-0.536986
-0.536933
0.000148849
-0.253983
-2.28509
0.000149559
-0.253805
-2.2852
0.00013496
-0.253871
-2.28514
0.000100778
-0.253909
-2.28508
-3.16706e-05
-0.253904
-2.28494
-0.254154
-2.28495
4.63997e-05
0.118893
-1.7014
7.14111e-05
0.11905
-1.70149
4.38077e-05
0.119033
-1.70146
2.15728e-05
0.119008
-1.70145
3.84718e-05
0.119004
-1.70149
0.118833
-1.70136
-2.2694e-05
-0.617937
-6.74898e-06
-0.617984
-1.3305e-06
-0.617994
5.28538e-06
-0.618009
3.67169e-05
-0.618042
-0.617989
0.000209863
1.48408
-2.23208
0.000151197
1.48424
-2.23206
0.000136426
1.48421
-2.23205
0.000104632
1.48428
-2.23198
-0.000131567
1.48445
-2.23181
1.4842
-2.23193
1.99305e-05
1.30075
-1.51809
-2.68351e-05
1.3009
-1.51811
-9.28039e-05
1.30091
-1.51809
-0.000116191
1.30094
-1.5181
-7.75257e-05
1.30106
-1.51813
1.30083
-1.51807
-3.29014e-05
-0.48668
-5.34671e-05
-0.486713
-8.47572e-05
-0.486725
-9.12958e-05
-0.486748
-1.82275e-05
-0.486788
-0.48676
0.000250783
3.72344
-0.789735
0.000246025
3.72369
-0.789618
0.00019336
3.72376
-0.789657
0.000122033
3.72394
-0.78966
-0.000104054
3.72425
-0.789573
3.72406
-0.789784
-3.93577e-05
2.48524
-0.279837
-9.10769e-05
2.48545
-0.279807
-0.000141174
2.48551
-0.2798
-0.000141181
2.48563
-0.279798
-0.000123046
2.48588
-0.279792
2.48564
-0.279782
-7.97411e-05
-0.00405108
-0.000131713
-0.00405288
-0.000174155
-0.00405538
-0.000171534
-0.00406151
-7.43393e-05
-0.0040674
-0.00408178
5.20685e-05
4.5316
1.38994
8.58288e-05
4.53203
1.38998
0.000105563
4.5321
1.38996
4.63628e-05
4.53227
1.38997
-5.92286e-05
4.53257
1.38998
4.53235
1.38982
-0.000103218
2.93374
1.31812
-0.000128448
2.93404
1.31821
-0.000163159
2.9341
1.31823
-0.000164454
2.93421
1.31826
-0.000109561
2.93442
1.3183
2.93422
1.31824
-0.00010065
0.547774
-0.000134588
0.547826
-0.00016303
0.54784
-0.000157111
0.547854
-7.75116e-05
0.547881
0.547841
-2.94911e-07
0.0526717
-0.239736
0.187065
7.11993e-07
0.0526742
-0.239751
0.187076
1.72283e-06
0.052674
-0.239752
0.187077
2.26793e-06
0.0526738
-0.239751
0.187076
1.83211e-06
0.0526734
-0.239749
0.187075
0.0526706
-0.239736
0.187066
-1.74555e-06
0.127634
-0.250388
0.175428
-1.06398e-06
0.127639
-0.250403
0.175437
1.29704e-07
0.12764
-0.250405
0.175438
8.81926e-07
0.127639
-0.250404
0.175437
1.34144e-06
0.127639
-0.250403
0.175437
0.127633
-0.25039
0.175429
-9.84171e-07
-0.110737
0.0746474
-9.06578e-07
-0.110743
0.0746508
-4.44934e-07
-0.110744
0.0746512
1.50007e-07
-0.110744
0.0746513
7.32865e-07
-0.110744
0.0746513
-0.110738
0.074648
5.06791e-07
0.0619624
-0.301699
2.19943e-06
0.0619652
-0.301719
3.51628e-06
0.0619644
-0.301719
4.30862e-06
0.0619638
-0.301716
3.1543e-06
0.0619633
-0.301712
0.0619597
-0.301693
-2.92826e-06
0.17857
-0.366993
-1.92551e-06
0.178579
-0.367017
-3.74568e-07
0.178579
-0.367021
1.17546e-06
0.178578
-0.367021
2.35286e-06
0.178578
-0.36702
0.178569
-0.366998
-1.52237e-06
-0.166416
-1.35909e-06
-0.166426
-8.12371e-07
-0.166428
1.92771e-07
-0.166428
1.27594e-06
-0.166428
-0.166419
2.45604e-06
0.0617616
-0.363464
5.49072e-06
0.061763
-0.363486
7.01823e-06
0.0617607
-0.363483
8.03422e-06
0.061759
-0.363477
5.76595e-06
0.0617577
-0.363469
0.0617539
-0.363441
-5.46708e-06
0.246538
-0.551765
-5.25155e-06
0.24655
-0.551805
-4.28038e-06
0.24655
-0.551811
-1.58427e-06
0.246548
-0.551813
2.1243e-06
0.246547
-0.551813
0.246534
-0.551775
-2.94969e-06
-0.254409
-3.24368e-06
-0.254428
-2.90574e-06
-0.254432
-1.19912e-06
-0.254434
9.73376e-07
-0.254434
-0.254417
5.35146e-06
0.0511513
-0.414621
1.15553e-05
0.0511518
-0.414644
1.39859e-05
0.0511479
-0.414635
1.46296e-05
0.0511443
-0.414624
1.19417e-05
0.0511413
-0.41461
0.0511368
-0.414568
-1.34489e-05
0.336928
-0.83753
-1.59303e-05
0.336942
-0.837594
-1.68579e-05
0.336942
-0.837606
-1.25951e-05
0.33694
-0.837615
-3.66198e-08
0.336937
-0.837624
0.336918
-0.837559
-7.56294e-06
-0.394545
-9.79847e-06
-0.394579
-1.06687e-05
-0.394587
-7.95067e-06
-0.394593
-4.64098e-07
-0.394599
-0.394568
2.54553e-05
0.163253
-0.5779
2.72012e-05
0.163277
-0.577922
2.23468e-05
0.163274
-0.577904
1.59376e-05
0.163273
-0.577891
3.52977e-06
0.163277
-0.577874
0.163251
-0.577815
-2.873e-05
0.496704
-1.17095
-3.6179e-05
0.496736
-1.17105
-4.19918e-05
0.496737
-1.17107
-4.21951e-05
0.496739
-1.17108
-1.84739e-05
0.496743
-1.17111
0.496705
-1.17103
-2.19591e-05
-0.562013
-2.81719e-05
-0.562066
-3.0753e-05
-0.56208
-2.66683e-05
-0.562093
-6.52204e-06
-0.56211
-0.562063
0.00010259
0.811931
9.61112e-05
0.812062
8.69762e-05
0.812066
7.67456e-05
0.812088
3.52659e-05
0.812141
0.812041
-3.03948e-05
0.959133
-4.09154e-05
0.959229
-5.6037e-05
0.959242
-5.89793e-05
0.959262
-3.4369e-05
0.959304
0.959214
-4.64294e-05
-5.88463e-05
-6.78575e-05
-6.63494e-05
-2.87651e-05
-3.25245e-08
0.00516934
-0.000741289
-3.13715e-08
0.00516957
-0.000741331
-3.30698e-08
0.00516957
-0.000741328
-3.2426e-08
0.00516958
-0.000741329
-2.97865e-08
0.00516958
-0.000741323
0.00516936
-0.000741284
-2.2161e-08
0.00564828
-0.000478927
-1.81267e-08
0.00564852
-0.000478952
-1.71763e-08
0.00564853
-0.000478949
-1.56033e-08
0.00564853
-0.000478948
-1.29516e-08
0.00564854
-0.000478944
0.0056483
-0.000478917
-7.53921e-09
-0.00017185
-7.18729e-09
-0.000171858
-6.5769e-09
-0.000171857
-5.45854e-09
-0.000171856
-2.93381e-09
-0.000171854
-0.000171843
-7.08575e-08
0.00547435
-0.00155003
-4.05459e-08
0.00547459
-0.00155011
-3.18877e-08
0.0054746
-0.0015501
-2.66284e-08
0.0054746
-0.00155009
-1.25948e-08
0.0054746
-0.00155009
0.00547437
-0.00155
-4.00996e-08
0.00600423
-0.00100872
-2.03517e-08
0.00600449
-0.00100877
-1.3374e-08
0.0060045
-0.00100876
-7.76972e-09
0.0060045
-0.00100876
4.08165e-09
0.0060045
-0.00100875
0.00600425
-0.0010087
-9.38239e-09
-0.000364642
-4.81138e-09
-0.000364657
-2.84833e-09
-0.000364654
5.1616e-10
-0.000364651
6.9907e-09
-0.000364648
-0.000364627
-1.06078e-07
0.00610346
-0.00250987
-3.00982e-08
0.00610374
-0.00250998
-8.20865e-10
0.00610375
-0.00250997
2.66402e-08
0.00610375
-0.00250996
6.21243e-08
0.00610375
-0.00250994
0.00610349
-0.00250981
-4.39319e-08
0.00674972
-0.00165477
-1.42313e-09
0.00675002
-0.00165484
1.72685e-08
0.00675002
-0.00165483
3.6323e-08
0.00675002
-0.00165482
5.96227e-08
0.00675002
-0.00165481
0.00674972
-0.00165472
-3.70917e-09
-0.000605972
5.99335e-09
-0.000605994
1.1389e-08
-0.000605991
1.91093e-08
-0.000605986
3.1749e-08
-0.000605982
-0.00060595
-1.13909e-07
0.00709669
-0.00374548
4.00548e-09
0.00709703
-0.00374563
5.58408e-08
0.00709703
-0.00374561
1.08124e-07
0.00709703
-0.0037456
1.73755e-07
0.00709703
-0.00374558
0.00709672
-0.00374538
-1.56335e-08
0.00796055
-0.0025183
4.12545e-08
0.0079609
-0.00251839
6.7616e-08
0.00796089
-0.00251838
9.57651e-08
0.00796089
-0.00251837
1.30606e-07
0.00796087
-0.00251836
0.00796051
-0.00251824
1.18557e-08
-0.000939876
2.47658e-08
-0.000939911
3.25396e-08
-0.000939908
4.33858e-08
-0.000939904
5.85815e-08
-0.0009399
-0.000939858
-5.99571e-08
0.00851939
-0.00547453
6.09298e-08
0.00851979
-0.00547474
1.36467e-07
0.00851979
-0.00547474
2.13633e-07
0.00851979
-0.00547472
2.98198e-07
0.00851978
-0.0054747
0.00851938
-0.00547445
5.1215e-08
0.00977506
-0.00377365
9.27375e-08
0.00977548
-0.00377379
1.21801e-07
0.00977546
-0.00377379
1.5255e-07
0.00977544
-0.00377378
1.84686e-07
0.00977542
-0.00377378
0.00977497
-0.00377362
4.03481e-08
-0.0014442
4.59657e-08
-0.00144425
5.17709e-08
-0.00144425
6.03259e-08
-0.00144425
6.92367e-08
-0.00144425
-0.0014442
5.69853e-08
0.0104729
-0.00813047
1.43505e-07
0.0104733
-0.00813081
2.2007e-07
0.0104733
-0.00813082
3.05527e-07
0.0104733
-0.00813082
3.67684e-07
0.0104733
-0.00813083
0.0104728
-0.00813051
1.44749e-07
0.0124358
-0.0057365
1.38407e-07
0.0124363
-0.00573675
1.45025e-07
0.0124363
-0.00573677
1.57054e-07
0.0124363
-0.00573678
1.53768e-07
0.0124363
-0.00573681
0.0124357
-0.0057366
6.37365e-08
-0.00226441
5.30371e-08
-0.00226451
5.34362e-08
-0.00226452
5.00922e-08
-0.00226453
3.36011e-08
-0.00226454
-0.00226446
1.1108e-07
0.0131259
-0.0125401
1.23147e-07
0.0131265
-0.0125407
2.00085e-07
0.0131265
-0.0125407
2.72132e-07
0.0131265
-0.0125407
2.70276e-07
0.0131264
-0.0125408
0.0131258
-0.0125403
1.59381e-07
0.0163695
-0.00898036
7.22737e-08
0.0163701
-0.00898079
5.54481e-08
0.0163701
-0.00898083
3.00134e-08
0.0163701
-0.00898087
-3.78645e-08
0.0163701
-0.0089809
0.0163694
-0.00898054
5.30335e-08
-0.0036797
2.75825e-08
-0.00367988
8.54588e-09
-0.00367989
-2.23363e-08
-0.00367991
-7.23308e-08
-0.00367992
-0.00367977
-9.99736e-08
0.0166686
-0.0202389
-1.07891e-07
0.0166694
-0.0202398
2.86739e-08
0.0166694
-0.0202399
1.22961e-07
0.0166693
-0.0202398
1.0041e-07