/*--------------------------------*- C++ -*----------------------------------*\
| =========                 |                                                 |
| \\      /  F ield         | OpenFOAM: The Open Source CFD Toolbox           |
|  \\    /   O peration     | Version:  v1612+                                |
|   \\  /    A nd           | Web:      www.OpenFOAM.com                      |
|    \\/     M anipulation  |                                                 |
\*---------------------------------------------------------------------------*/
FoamFile
{
    version     2.0;
    format      ascii;
    class       surfaceScalarField;
    location    "1.35";
    object      alphaPhi;
}
// * * * * * * * * * * * * * * * * * * * * * * * * * * * * * * * * * * * * * //

dimensions      [0 3 -1 0 0 0 0];

internalField   nonuniform List<scalar> 
816
(
-1.11557e-07
1.6473e-06
5.68785e-07
1.54144e-06
2.97521e-06
-6.62117e-06
1.00423e-06
3.08548e-07
1.87743e-06
2.73474e-06
-6.00711e-06
7.43948e-07
2.45016e-06
-8.98926e-07
3.10568e-08
-6.50216e-07
2.71178e-07
1.11367e-06
-5.32609e-07
9.08663e-07
1.82175e-10
2.22586e-10
7.88563e-07
3.30464e-10
-1.70532e-10
4.44746e-10
1.63542e-06
3.49196e-10
1.27067e-10
3.17352e-10
-9.51388e-07
-3.95027e-11
4.63637e-10
1.25301e-10
-3.33038e-06
1.19397e-10
-5.17346e-10
6.85985e-12
-3.56921e-06
-3.81976e-11
-2.59322e-10
-1.33865e-10
-1.01697e-05
-3.37651e-11
2.9891e-10
-4.10808e-10
2.7654e-06
-1.02647e-11
4.33925e-11
-8.34817e-10
-5.11551e-06
5.66933e-11
-2.25527e-10
3.81161e-10
-1.12972e-05
5.22559e-12
-1.97876e-10
3.11704e-10
-3.62021e-06
6.39049e-11
1.38421e-10
2.00749e-10
7.04525e-07
-1.56278e-11
-7.17393e-11
-8.08271e-06
1.42096e-10
-1.4061e-10
-8.65031e-07
6.49537e-06
-2.53699e-06
-5.14564e-08
-1.19877e-06
4.5899e-06
-1.69708e-06
1.66791e-06
1.35839e-06
4.07839e-07
-1.95561e-07
-6.47298e-07
3.8168e-06
6.56261e-07
8.21637e-07
1.24107e-06
-6.16623e-06
2.98811e-06
-2.67774e-06
-1.46675e-06
-2.101e-06
-4.88043e-06
-6.11793e-06
-5.54209e-07
-1.38781e-06
6.16627e-07
2.57597e-06
1.06386e-06
-6.70871e-07
1.16786e-06
-2.01329e-06
1.76814e-06
-4.76917e-06
-1.1818e-06
-6.21695e-06
-1.89935e-06
-3.81061e-06
-1.48023e-07
1.26836e-06
-6.45909e-07
-1.309e-06
4.24693e-06
-5.46008e-07
8.59842e-07
-2.27065e-06
5.96759e-07
1.25286e-06
8.34066e-07
2.40021e-08
1.71652e-08
-1.79803e-06
-1.83944e-07
-1.45522e-07
-1.26987e-06
5.6766e-08
9.13155e-07
-5.95699e-07
-7.53294e-07
1.0755e-07
1.81172e-06
8.44781e-07
9.50798e-07
1.24899e-06
-1.32524e-06
-5.37648e-07
-9.07557e-07
-2.9237e-06
-4.76768e-07
-5.60647e-07
1.72199e-07
1.91853e-06
6.8181e-07
1.14766e-07
-9.99009e-07
1.48448e-06
-1.14419e-06
-3.2743e-06
3.95499e-07
-2.07868e-06
-4.20446e-07
1.88367e-07
-5.41515e-07
1.49457e-07
-9.22385e-08
5.35575e-07
-4.98522e-08
1.24469e-07
7.04196e-07
-7.37632e-08
1.02501e-06
2.96484e-07
6.67507e-07
1.08661e-06
3.05875e-07
2.69465e-07
1.13122e-06
9.66622e-07
4.55158e-07
1.4938e-06
-7.07092e-07
-1.70413e-07
4.63659e-08
4.05706e-07
-2.26748e-07
1.13913e-07
-2.91151e-07
-9.05533e-07
-4.02001e-07
-1.68634e-07
-4.55513e-07
-2.44863e-07
1.81184e-07
-5.9156e-07
-2.31161e-07
-1.20455e-07
1.16542e-06
6.6836e-07
3.28596e-07
9.32498e-07
-5.10399e-07
-5.34079e-07
-9.371e-07
1.46581e-07
-3.21911e-07
-8.89525e-07
3.62128e-07
5.30445e-07
4.95207e-07
8.3755e-08
1.11413e-06
-3.29189e-07
-6.12626e-07
9.29019e-08
-1.86014e-06
-8.03198e-07
-3.57308e-07
-8.09499e-07
5.58673e-08
2.56236e-07
-1.90292e-08
1.17753e-09
-1.15129e-07
1.6122e-07
-1.15798e-07
1.95511e-10
-3.60544e-10
-2.52523e-06
2.32264e-10
1.80056e-10
-5.01393e-06
1.38297e-10
1.74766e-11
4.05519e-06
2.47475e-10
-3.19503e-10
2.50642e-06
3.15454e-10
4.62504e-10
-8.44459e-06
2.53122e-10
-6.1559e-10
8.42818e-11
-8.83243e-06
2e-10
-1.45122e-10
-4.13424e-06
-1.52935e-10
-3.1531e-10
-6.00831e-06
-1.44902e-10
3.99917e-11
6.13867e-13
-1.53854e-10
-6.95656e-11
4.51883e-06
2.80752e-10
1.99945e-11
-3.99225e-10
-6.28163e-06
2.32675e-10
-5.32491e-10
-8.58012e-06
2.12759e-10
-2.81701e-10
-9.61263e-06
-1.25444e-10
-3.14448e-10
-8.13238e-06
-1.45412e-10
9.11594e-11
2.23001e-06
-5.01333e-11
-4.76778e-10
6.9375e-10
-6.87116e-07
3.74252e-10
1.11341e-10
-6.32427e-06
-4.70523e-11
-9.41359e-11
-4.37557e-06
-2.96236e-10
-6.51006e-11
-8.45742e-06
-7.48191e-10
-3.87756e-06
6.53092e-11
-1.15975e-09
-1.44487e-06
-2.004e-06
1.82215e-06
-1.01506e-06
-2.53616e-06
3.39896e-07
-4.94889e-06
3.08649e-06
4.27815e-06
3.86885e-06
3.61122e-06
4.846e-06
1.2161e-06
3.1113e-06
-1.36353e-07
-3.05025e-06
-3.92942e-06
-1.28431e-06
-7.91762e-07
-2.32717e-06
-1.60283e-06
5.87038e-07
-3.92663e-06
-4.88334e-06
1.96652e-06
-5.14859e-06
-5.72446e-06
1.69571e-06
-4.42526e-06
5.27664e-06
-1.94652e-06
1.31143e-06
-4.1394e-06
1.8566e-06
-5.67521e-08
-4.7955e-06
-3.0159e-06
-2.49893e-06
-7.56429e-07
-4.03238e-06
-6.37228e-06
-8.17425e-08
-7.81214e-06
-3.67357e-06
-5.22925e-06
4.39897e-06
6.10646e-06
-2.80946e-06
-2.9056e-06
4.93759e-06
-5.06201e-07
-3.37897e-06
1.18175e-06
-2.34831e-07
-5.48873e-06
4.47865e-08
2.31363e-06
-4.11532e-06
-3.74274e-06
-2.2305e-06
-4.4275e-06
-1.81755e-06
-4.436e-06
-3.97355e-06
-9.05984e-07
1.58553e-06
6.27356e-07
6.43882e-07
-8.48252e-07
8.04005e-07
-6.9704e-07
4.07111e-07
2.37527e-06
7.0879e-07
1.8438e-06
2.10765e-06
5.39187e-07
-1.87332e-07
-5.76761e-07
1.16893e-06
1.3018e-06
-3.71099e-07
-6.81114e-07
1.67277e-07
3.19372e-09
2.44221e-07
9.15836e-07
3.72391e-07
6.54124e-07
4.002e-07
1.04863e-06
3.75406e-07
1.57162e-07
7.48561e-07
-1.12142e-06
-7.76014e-07
2.59818e-07
7.21059e-07
-4.93927e-07
-1.66399e-07
2.96e-07
-1.64595e-06
2.36465e-07
-1.868e-06
-3.70883e-06
9.86566e-07
-3.35857e-06
-1.379e-06
-4.00889e-07
1.01197e-06
3.1396e-06
-3.31333e-07
-1.07002e-06
4.79122e-07
-4.20505e-07
-1.56278e-06
1.45992e-07
-1.5295e-07
-2.66745e-07
1.08623e-06
1.3834e-06
5.30752e-07
2.39049e-07
-1.20187e-06
5.29572e-07
-4.96709e-07
-3.78632e-07
8.843e-07
-5.82459e-07
8.67242e-07
1.10203e-07
1.19403e-07
-2.58259e-07
4.61387e-07
-8.6027e-07
7.30519e-07
7.84673e-07
1.44723e-07
1.60856e-06
7.19411e-07
-1.03334e-07
-1.09801e-07
-6.07734e-08
3.24916e-07
8.64219e-07
-4.1216e-07
-1.86539e-07
-4.30603e-07
3.58659e-08
1.35193e-07
3.28609e-07
2.59254e-07
1.13983e-07
-1.84471e-07
2.22929e-07
2.19213e-07
3.35148e-07
6.20391e-07
-2.99155e-07
-7.4476e-07
-5.45472e-07
4.0201e-07
-2.5744e-07
-3.54817e-07
9.00467e-08
-5.60213e-07
-2.42606e-07
-1.7335e-06
-1.24154e-06
4.82376e-07
-2.48916e-06
-4.10982e-07
-1.06438e-07
9.35133e-07
9.49888e-07
-4.43337e-07
-7.57112e-07
2.5627e-07
8.46203e-08
-1.67351e-06
7.3975e-08
9.22499e-08
-8.64083e-07
8.78537e-07
4.66072e-07
1.01223e-07
-2.37576e-07
-3.7844e-07
4.59751e-07
-3.58433e-08
-5.55316e-07
7.33673e-07
8.18185e-08
7.11446e-07
5.31138e-09
2.99409e-07
3.5356e-07
2.78494e-08
6.78414e-07
2.8211e-07
7.30387e-07
-4.53971e-07
1.2563e-07
2.90772e-07
9.09798e-08
-7.23628e-08
-4.0057e-07
5.49444e-08
-1.66472e-07
1.43471e-07
-2.77355e-07
7.26886e-08
7.13637e-07
4.39598e-07
4.71516e-07
-1.59121e-07
-4.77404e-07
2.46896e-08
4.72719e-08
-5.53753e-08
3.73068e-07
-2.32453e-07
5.89878e-07
-2.30014e-07
1.29626e-07
-9.32281e-07
-1.32653e-07
-4.94092e-07
1.8652e-07
-2.56276e-09
-9.867e-09
2.15302e-08
-3.46429e-07
3.66476e-07
8.59444e-08
-3.28215e-08
-2.34325e-07
4.13604e-07
1.78495e-07
8.06505e-07
5.56369e-08
-1.849e-08
2.46794e-07
5.14038e-07
-1.19993e-07
-1.85112e-08
1.04126e-07
3.54843e-07
1.12521e-07
-3.95446e-08
2.55058e-07
1.24983e-07
2.97029e-07
-2.82901e-07
-4.92371e-08
1.03658e-07
1.55308e-10
-9.83709e-08
2.11922e-08
-1.01826e-06
2.65514e-07
-1.30087e-06
-5.15803e-09
3.3559e-07
-1.6446e-07
-5.29388e-07
1.33839e-07
-6.5853e-07
6.4582e-08
-3.24597e-07
4.27202e-07
1.03982e-07
-8.40766e-08
1.58174e-07
-1.30145e-07
3.81769e-07
2.34646e-10
-4.94695e-10
3.89041e-07
9.68289e-11
-5.51283e-06
2.35486e-10
5.03839e-06
1.71564e-10
-3.56293e-06
-1.6042e-10
-3.96388e-06
-1.03835e-09
-5.95997e-08
3.33364e-10
-5.44392e-06
1.16446e-09
9.44515e-07
7.17205e-11
1.68734e-13
-1.79601e-10
6.85424e-07
1.31336e-10
2.18406e-06
5.93823e-10
1.81857e-06
2.79487e-10
-2.95848e-06
-4.50926e-10
2.84752e-11
1.22111e-10
2.02727e-06
-2.80619e-10
1.31138e-11
-1.12436e-09
-3.7009e-06
-4.64934e-10
-9.38976e-06
-2.82605e-10
1.04986e-08
1.02672e-11
-1.09881e-05
-5.99043e-11
-3.34559e-06
4.21136e-10
2.14198e-06
1.28034e-10
2.00283e-06
-2.72273e-10
1.74751e-11
-4.47338e-10
1.18362e-06
-2.10379e-10
-2.26122e-06
5.04941e-10
-2.58612e-06
2.62168e-06
2.64427e-06
-6.2242e-06
8.67679e-07
-1.79658e-06
-9.72653e-07
3.93264e-06
4.04323e-06
2.31824e-06
-9.52767e-08
-4.42356e-07
1.12188e-06
-2.31226e-07
-2.90796e-06
-1.61436e-06
-4.97396e-06
4.54621e-08
-1.48676e-06
-3.14122e-06
1.17027e-06
-2.98523e-06
9.31625e-07
1.53327e-06
-1.98175e-06
4.14742e-06
-1.77827e-06
-3.48701e-07
2.35267e-06
-3.07459e-06
1.38755e-06
1.57964e-06
5.07292e-07
3.93552e-06
5.73597e-07
1.74112e-07
3.27049e-07
-3.97894e-06
-7.34669e-06
-3.48472e-06
-1.50927e-06
8.8676e-07
4.66488e-06
-1.7999e-06
1.84267e-06
1.55985e-06
3.49418e-06
9.14188e-07
5.52196e-06
1.34779e-06
2.4334e-06
2.41663e-06
-6.20849e-07
-1.49987e-06
-3.51687e-06
-4.40796e-06
-4.01948e-06
-1.23952e-07
-8.36979e-07
4.53537e-07
8.75517e-07
-6.52576e-07
-5.07414e-07
2.00252e-07
2.50484e-06
8.48618e-07
-2.78145e-08
1.54881e-06
9.3901e-07
8.33009e-07
-1.03587e-06
-1.15952e-06
-2.98473e-06
-5.32365e-07
-8.18017e-07
1.98125e-08
7.83076e-07
7.67308e-07
1.09942e-06
-1.41251e-07
-6.68951e-07
-4.84278e-07
-1.27803e-06
6.12569e-09
1.02212e-06
3.83232e-07
1.01864e-06
3.9315e-07
7.71464e-07
5.03648e-07
2.77376e-07
4.99814e-07
5.6208e-07
-1.89244e-06
-3.96425e-06
-2.64506e-06
-1.15315e-06
-9.16361e-07
2.62161e-06
-4.43621e-07
1.37415e-06
4.26674e-07
1.60655e-06
1.12843e-06
3.26942e-06
1.38747e-06
1.90971e-06
1.20705e-06
9.1877e-08
6.25659e-07
-2.40508e-06
-2.23288e-07
-2.28338e-06
1.0552e-07
-2.46158e-07
3.36914e-07
2.32317e-07
-4.85634e-07
-1.40684e-07
4.72295e-07
6.83713e-07
6.26733e-07
-3.06608e-08
1.29542e-06
1.66019e-07
1.03281e-06
-4.50992e-07
-1.13352e-06
-8.3434e-07
-7.95343e-07
-3.0526e-07
-4.86713e-07
3.94687e-08
8.0398e-07
1.43688e-07
1.89056e-07
-2.2399e-07
-4.6643e-07
-2.7246e-07
-4.79126e-07
2.87592e-07
2.62411e-07
1.74495e-07
3.98227e-07
1.04181e-07
4.90139e-07
-1.56711e-07
7.93314e-07
2.83478e-08
-1.43072e-06
-1.25209e-06
-2.33594e-06
-3.31794e-07
-8.7982e-07
8.40826e-07
-7.09159e-08
5.94358e-07
5.28889e-08
7.05992e-07
7.31145e-07
9.1414e-07
1.35677e-06
4.25684e-07
1.51951e-06
3.37515e-08
2.78212e-07
-7.01856e-07
-6.3367e-07
-6.32641e-07
-1.8751e-07
-1.54065e-07
2.60008e-07
-1.96842e-07
2.55011e-07
4.01771e-07
6.17845e-07
4.17523e-07
-4.17803e-07
-2.15945e-07
-1.93805e-07
3.07963e-07
5.27824e-08
-7.49467e-08
-4.26673e-08
1.20352e-07
1.85063e-07
2.9752e-08
7.88436e-08
-9.2338e-07
-1.2656e-06
-5.57027e-07
5.69011e-08
2.17117e-07
4.71856e-07
5.73025e-07
7.14388e-07
1.76284e-07
-7.36171e-08
7.61515e-10
3.58683e-10
3.77579e-06
1.43809e-10
2.69042e-06
5.5982e-10
1.91035e-06
-8.78932e-07
2.60154e-06
1.90141e-06
1.40495e-06
1.67524e-06
)
;

boundaryField
{
    top_fluid_surface
    {
        type            calculated;
        value           nonuniform List<scalar> 
64
(
0
0
0
4.00757e-10
4.0162e-10
0
1.94563e-10
1.96982e-10
0
0
2.54314e-10
3.74579e-10
1.20084e-10
1.53722e-10
7.80126e-11
1.29975e-11
0
3.31109e-10
4.56085e-10
1.90076e-10
0
0
2.03004e-10
0
0
2.27692e-10
0
0
4.17425e-10
4.43589e-10
3.36333e-10
1.61682e-10
2.14184e-10
3.35254e-10
0
3.52971e-10
4.67597e-10
3.66223e-10
0
0
4.70988e-10
1.01594e-10
0
0
2.67326e-10
4.61697e-10
0
2.79089e-10
3.78647e-10
0
0
0
1.16083e-10
0
3.5923e-10
2.66917e-10
0
0
0
0
0
0
0
2.85939e-10
)
;
    }
    bottom_fluid_surface
    {
        type            calculated;
        value           uniform 0;
    }
    lateral_surface_1
    {
        type            calculated;
        value           uniform 0;
    }
    lateral_surface_2
    {
        type            calculated;
        value           uniform 0;
    }
    lateral_surface_3
    {
        type            calculated;
        value           uniform 0;
    }
    lateral_surface_4
    {
        type            calculated;
        value           uniform 0;
    }
}


// ************************************************************************* //
