/*--------------------------------*- C++ -*----------------------------------*\
| =========                 |                                                 |
| \\      /  F ield         | OpenFOAM: The Open Source CFD Toolbox           |
|  \\    /   O peration     | Version:  v1612+                                |
|   \\  /    A nd           | Web:      www.OpenFOAM.com                      |
|    \\/     M anipulation  |                                                 |
\*---------------------------------------------------------------------------*/
FoamFile
{
    version     2.0;
    format      ascii;
    class       volScalarField;
    location    "1.35";
    object      p_rgh;
}
// * * * * * * * * * * * * * * * * * * * * * * * * * * * * * * * * * * * * * //

dimensions      [1 -1 -2 0 0 0 0];

internalField   nonuniform List<scalar> 
320
(
-9800.2
-9800.2
-9800.2
-9800.21
-0.0037947
-0.0042402
-0.0023789
0.00415108
0.00418102
-0.00149761
0.00262227
0.00174274
-0.00649173
-0.00151571
-0.00258273
0.00235216
-9800.12
-9800.12
-9800.14
-9800.18
-9800.18
-9800.11
-9800.15
-9800.18
-9800.1
-9800.15
-9800.15
-9800.2
-9800.2
-9800.21
-9800.21
-9800.21
-9800.21
-9800.21
-9800.21
-9800.21
-9800.2
-9800.2
-9800.21
-9800.21
-9800.2
-9800.2
-9800.2
-9800.21
-9800.2
-9800.2
-9800.2
-9800.21
-9800.21
-9800.21
-9800.21
-9800.21
-9800.21
-9800.2
-9800.2
-9800.21
0.000690196
0.00108821
0.0015499
0.000300655
-0.00195031
0.00285556
0.00473179
0.00116593
-0.00196073
-0.000834951
0.00205527
-0.00103088
-0.000889908
0.000697198
7.65971e-05
-0.00649239
0.0029782
0.00402839
0.00202256
0.00126105
-9800.2
-9800.17
-9800.17
-9800.19
-9800.16
-9800.2
-9800.21
-9800.2
-9800.15
-9800.11
-9800.19
-9800.13
-9800.12
-9800.15
-9800.12
-9800.11
-9800.17
-9800.2
-9800.18
-9800.14
-9800.21
-9800.21
-9800.21
-9800.2
-9800.19
-9800.21
-9800.2
-9800.2
-9800.2
-9800.21
-9800.2
-9800.2
-9800.2
-9800.21
-9800.21
-9800.21
-9800.22
-9800.21
-9800.21
-9800.22
-9800.21
-9800.21
-9800.2
-9800.2
-9800.2
-9800.21
-9800.21
-9800.21
-9800.2
-9800.21
-9800.21
-9800.21
-9800.21
-9800.21
-9800.21
-9800.21
-9800.21
-9800.21
-9800.21
-9800.22
-9800.2
-9800.2
-9800.21
-9800.21
-9800.21
-9800.21
-9800.21
-9800.21
-9800.21
-9800.21
-9800.21
-9800.21
-9800.21
-9800.21
-9800.21
-9800.21
-9800.21
-9800.21
-9800.21
-9800.2
-9800.2
-9800.21
-9800.21
-9800.21
-9800.21
-9800.21
-9800.21
-9800.21
-9800.21
-9800.21
-9800.21
-9800.21
-9800.21
-9800.21
-9800.21
-9800.21
0.00235078
0.00313993
0.000891252
0.00304231
0.00662172
0.00558904
-0.00692789
-0.00687326
0.00702698
0.00130575
-0.00269235
-0.0033744
0.00360765
0.00590414
-0.00098306
0.00642497
0.00506675
-0.00475663
-0.00231182
-0.00213886
-0.00384149
-0.00674799
0.00294053
0.00305668
-0.00132284
-0.00613368
-0.00939866
-0.000847178
-9800.15
-9800.17
-9800.1
-9800.18
-9800.19
-9800.16
-9800.1
-9800.08
-9800.18
-9800.13
-9800.07
-9800.12
-9800.19
-9800.16
-9800.07
-9800.17
-9800.16
-9800.1
-9800.12
-9800.1
-9800.13
-9800.14
-9800.17
-9800.14
-9800.08
-9800.12
-9800.08
-9800.11
-9800.22
-9800.22
-9800.21
-9800.21
-9800.21
-9800.21
-9800.2
-9800.2
-9800.21
-9800.21
-9800.22
-9800.21
-9800.21
-9800.21
-9800.21
-9800.21
-9800.21
-9800.2
-9800.21
-9800.22
-9800.22
-9800.21
-9800.22
-9800.22
-9800.21
-9800.2
-9800.21
-9800.21
-9800.22
-9800.21
-9800.21
-9800.21
-9800.21
-9800.21
-9800.2
-9800.2
-9800.21
-9800.21
-9800.22
-9800.2
-9800.21
-9800.21
-9800.21
-9800.21
-9800.21
-9800.21
-9800.21
-9800.21
-9800.21
-9800.2
-9800.21
-9800.21
-9800.21
-9800.21
-9800.21
-9800.21
-9800.21
-9800.21
-9800.21
-9800.21
-9800.21
-9800.21
-9800.2
-9800.2
-9800.21
-9800.21
-9800.21
-9800.21
-9800.21
-9800.21
-9800.21
-9800.21
-9800.21
-9800.21
-9800.21
-9800.21
-9800.21
-9800.21
-9800.21
-9800.21
-9800.21
-9800.21
-9800.21
-9800.21
-0.0068718
-0.000577686
-0.00237445
0.00316224
-9800.13
-9800.16
-9800.14
-9800.19
)
;

boundaryField
{
    top_fluid_surface
    {
        type            totalPressure;
        rho             rho;
        psi             none;
        gamma           1;
        p0              uniform 0;
        value           nonuniform List<scalar> 
64
(
-3.51857e-09
-5.57239e-09
-1.0769e-09
0
0
-2.06792e-11
0
0
-4.85129e-09
-4.23393e-10
-6.80794e-10
0
0
0
0
-7.3197e-12
-3.65799e-10
0
0
0
-5.47979e-10
-9.85659e-10
0
-1.39866e-11
-2.7118e-11
0
-9.99561e-11
-7.67506e-09
0
0
0
0
0
0
-8.55963e-11
0
0
0
-9.08716e-09
-1.3222e-08
0
0
-2.78841e-09
-3.84851e-09
0
0
-1.29728e-09
0
0
-2.5175e-09
-1.31802e-09
-1.50426e-09
-1.42779e-09
-5.95215e-09
0
0
-6.62403e-10
-7.08663e-09
-1.72196e-08
-8.75785e-10
-1.30734e-08
-4.95223e-10
-1.78501e-09
0
)
;
    }
    bottom_fluid_surface
    {
        type            fixedFluxPressure;
        gradient        uniform 0;
        value           nonuniform List<scalar> 
64
(
-9800.2
-9800.2
-9800.21
-9800.21
-9800.21
-9800.21
-9800.21
-9800.21
-9800.21
-9800.21
-9800.21
-9800.21
-9800.21
-9800.21
-9800.21
-9800.21
-9800.21
-9800.21
-9800.21
-9800.2
-9800.2
-9800.21
-9800.21
-9800.21
-9800.21
-9800.21
-9800.21
-9800.21
-9800.21
-9800.21
-9800.21
-9800.21
-9800.21
-9800.21
-9800.21
-9800.21
-9800.21
-9800.21
-9800.21
-9800.21
-9800.21
-9800.21
-9800.2
-9800.2
-9800.21
-9800.21
-9800.21
-9800.21
-9800.21
-9800.21
-9800.21
-9800.21
-9800.21
-9800.21
-9800.21
-9800.21
-9800.21
-9800.21
-9800.21
-9800.21
-9800.21
-9800.21
-9800.21
-9800.21
)
;
    }
    lateral_surface_1
    {
        type            fixedFluxPressure;
        gradient        uniform 0;
        value           nonuniform List<scalar> 
40
(
0.00235078
0.00313993
0.000891252
0.00304231
0.00662172
0.00558904
-0.00692789
-0.000847178
-9800.15
-9800.17
-9800.1
-9800.18
-9800.19
-9800.16
-9800.1
-9800.11
-9800.22
-9800.22
-9800.21
-9800.21
-9800.21
-9800.21
-9800.2
-9800.21
-9800.22
-9800.21
-9800.21
-9800.21
-9800.21
-9800.21
-9800.2
-9800.21
-9800.21
-9800.21
-9800.21
-9800.21
-9800.21
-9800.21
-9800.2
-9800.21
)
;
    }
    lateral_surface_2
    {
        type            fixedFluxPressure;
        gradient        uniform 0;
        value           nonuniform List<scalar> 
40
(
0.00590414
-0.00098306
0.00642497
0.00506675
-0.00475663
-0.00231182
-0.00213886
-0.00384149
-9800.16
-9800.07
-9800.17
-9800.16
-9800.1
-9800.12
-9800.1
-9800.13
-9800.21
-9800.21
-9800.21
-9800.21
-9800.2
-9800.21
-9800.22
-9800.22
-9800.21
-9800.21
-9800.21
-9800.21
-9800.21
-9800.21
-9800.21
-9800.21
-9800.21
-9800.21
-9800.21
-9800.21
-9800.21
-9800.21
-9800.21
-9800.21
)
;
    }
    lateral_surface_3
    {
        type            fixedFluxPressure;
        gradient        uniform 0;
        value           nonuniform List<scalar> 
40
(
-0.00692789
-0.00687326
0.00702698
0.00130575
-0.00269235
-0.0033744
0.00360765
0.00590414
-9800.1
-9800.08
-9800.18
-9800.13
-9800.07
-9800.12
-9800.19
-9800.16
-9800.2
-9800.2
-9800.21
-9800.21
-9800.22
-9800.21
-9800.21
-9800.21
-9800.2
-9800.2
-9800.21
-9800.21
-9800.22
-9800.2
-9800.21
-9800.21
-9800.2
-9800.2
-9800.21
-9800.21
-9800.21
-9800.21
-9800.21
-9800.21
)
;
    }
    lateral_surface_4
    {
        type            fixedFluxPressure;
        gradient        uniform 0;
        value           nonuniform List<scalar> 
40
(
-0.00384149
-0.00674799
0.00294053
0.00305668
-0.00132284
-0.00613368
-0.00939866
-0.000847178
-9800.13
-9800.14
-9800.17
-9800.14
-9800.08
-9800.12
-9800.08
-9800.11
-9800.22
-9800.21
-9800.22
-9800.22
-9800.21
-9800.2
-9800.21
-9800.21
-9800.21
-9800.2
-9800.21
-9800.21
-9800.21
-9800.21
-9800.21
-9800.21
-9800.21
-9800.21
-9800.21
-9800.21
-9800.21
-9800.21
-9800.21
-9800.21
)
;
    }
}


// ************************************************************************* //
