/*--------------------------------*- C++ -*----------------------------------*\
| =========                 |                                                 |
| \\      /  F ield         | OpenFOAM: The Open Source CFD Toolbox           |
|  \\    /   O peration     | Version:  v1612+                                |
|   \\  /    A nd           | Web:      www.OpenFOAM.com                      |
|    \\/     M anipulation  |                                                 |
\*---------------------------------------------------------------------------*/
FoamFile
{
    version     2.0;
    format      ascii;
    class       volVectorField;
    location    "1.35";
    object      U;
}
// * * * * * * * * * * * * * * * * * * * * * * * * * * * * * * * * * * * * * //

dimensions      [0 1 -1 0 0 0 0];

internalField   nonuniform List<vector> 
320
(
(-1.63577e-06 8.70557e-08 -6.22732e-06)
(1.46238e-06 1.32842e-07 -5.37787e-06)
(6.57994e-07 2.79764e-06 -6.39997e-07)
(7.79171e-07 1.46616e-06 1.11097e-06)
(-4.76956e-05 -0.000118364 -8.38877e-05)
(0.000120692 -3.9743e-05 -0.000105569)
(0.000139331 6.61915e-05 -4.6409e-05)
(0.000143518 9.04251e-05 9.23805e-05)
(2.77246e-05 -6.26909e-06 9.13084e-05)
(2.85805e-05 1.75791e-05 -6.43105e-06)
(0.000101882 -5.96767e-05 3.61397e-05)
(0.000181338 1.9899e-05 4.16649e-05)
(0.000135304 -3.96256e-05 -9.85017e-05)
(-4.91627e-05 -7.41076e-05 -2.90996e-05)
(-9.30581e-05 -7.47758e-05 -3.68235e-05)
(-6.82466e-05 -7.72022e-05 7.22531e-05)
(-6.10742e-06 -2.86871e-06 3.70326e-06)
(3.61226e-06 -7.47507e-08 2.86107e-06)
(6.87718e-06 1.08035e-06 -7.71486e-09)
(6.27352e-06 -4.24959e-07 -1.40195e-06)
(1.9713e-06 2.3568e-06 1.84883e-06)
(4.77486e-06 2.87055e-06 4.92236e-06)
(3.01443e-06 2.012e-06 -2.77359e-06)
(-3.78411e-06 4.10717e-06 1.48626e-06)
(1.10659e-06 -9.41244e-07 6.42753e-06)
(-2.93547e-06 3.56532e-06 -1.34898e-06)
(-4.00206e-06 -2.87469e-06 5.22864e-07)
(-5.28026e-06 -5.14777e-06 -1.56806e-06)
(1.55599e-07 -1.06024e-06 2.45276e-06)
(-1.73662e-07 -5.04835e-07 1.47886e-06)
(7.17009e-09 7.48047e-07 5.28711e-07)
(1.61458e-06 1.03989e-06 -7.55753e-07)
(-3.84364e-07 2.45602e-06 2.59169e-06)
(2.79853e-07 -1.83438e-07 5.54568e-06)
(1.12076e-06 7.598e-07 -3.00852e-06)
(-1.47629e-06 1.81956e-06 1.93498e-06)
(1.18785e-06 9.92678e-07 5.87772e-06)
(8.37586e-07 1.3067e-06 -6.753e-07)
(-1.0951e-06 -3.69533e-07 3.11551e-07)
(-1.86981e-07 -3.64225e-08 1.18007e-07)
(-9.0859e-07 -1.44052e-07 -1.334e-06)
(7.89448e-07 -1.51754e-07 -1.29841e-06)
(4.76375e-07 1.90516e-06 1.58388e-07)
(3.0482e-07 5.81027e-07 1.9193e-07)
(3.34237e-07 -3.14593e-07 2.11594e-07)
(-2.15695e-07 -1.49413e-07 1.13423e-07)
(-9.90133e-08 1.28903e-07 -6.9071e-08)
(1.1214e-06 3.76464e-07 -3.39711e-07)
(-1.98466e-07 1.74628e-06 6.58364e-07)
(7.35337e-07 6.63219e-08 1.05122e-06)
(6.30564e-07 4.65669e-07 -4.11423e-07)
(-1.1748e-06 1.16463e-06 4.21262e-07)
(1.04425e-06 3.73108e-07 8.31156e-07)
(9.90755e-07 8.47237e-07 -2.05946e-07)
(-3.36909e-07 -2.93892e-07 -3.30908e-08)
(3.25818e-07 -7.16304e-08 -3.67428e-08)
(5.76788e-05 -2.73421e-05 2.39373e-05)
(5.84983e-05 -5.63942e-05 3.22891e-05)
(3.46843e-05 -0.000116876 9.88711e-06)
(-1.64227e-05 -4.63682e-05 3.82012e-06)
(-0.000139165 3.78833e-05 -2.70481e-05)
(0.000110663 0.000120291 7.45462e-05)
(-2.27848e-05 -1.65766e-05 0.00010537)
(-5.0721e-05 -0.000103721 3.65951e-05)
(-4.87844e-05 -4.81573e-05 -3.31053e-05)
(2.55188e-05 4.15692e-05 -4.43995e-05)
(3.92346e-05 0.00011709 4.74909e-05)
(0.000172827 5.95798e-05 -5.28897e-06)
(0.000102129 -4.08806e-06 -7.36451e-06)
(8.63429e-05 3.56701e-05 4.11646e-05)
(0.000112015 3.47815e-05 -1.4139e-05)
(-6.75916e-05 -0.000115461 -0.000123896)
(8.5709e-06 -0.00011768 8.52824e-05)
(7.49472e-05 1.69196e-05 9.7958e-05)
(0.000186445 3.23251e-05 6.66828e-05)
(0.00023835 2.69659e-05 3.30214e-05)
(7.67314e-07 2.02365e-06 -1.99556e-06)
(-4.54571e-06 2.95314e-06 -1.47883e-07)
(2.44246e-07 -3.5644e-06 -3.38926e-06)
(6.44235e-06 -1.45211e-07 -3.96348e-06)
(-1.05188e-06 4.40073e-06 -5.08638e-07)
(-9.97685e-08 -2.43862e-07 -4.37908e-07)
(-2.42583e-06 -1.6505e-06 -1.64642e-06)
(-4.30486e-06 -2.24458e-06 -2.42372e-06)
(-5.73662e-06 -5.87424e-06 -1.8357e-06)
(-2.31607e-06 -6.88161e-06 2.7138e-06)
(-5.91499e-06 -4.84379e-06 -8.80522e-07)
(1.63069e-06 1.60742e-06 1.58756e-06)
(2.976e-06 7.28836e-07 6.01902e-06)
(7.2391e-06 -4.30611e-06 3.12662e-06)
(5.79746e-06 -4.84713e-06 -4.972e-06)
(5.26999e-06 -6.06742e-06 1.12919e-06)
(4.54235e-06 -1.57266e-06 -3.15038e-07)
(1.90199e-06 -2.0248e-06 -3.14666e-06)
(4.14796e-06 1.9007e-06 1.11412e-06)
(5.00847e-06 6.10169e-06 1.63675e-06)
(-1.09709e-06 -3.31349e-07 -1.29283e-06)
(-1.16735e-06 1.4001e-06 -6.96196e-07)
(-3.4587e-07 2.68797e-07 -4.17382e-06)
(1.26643e-06 3.931e-07 -4.04503e-06)
(1.95503e-06 -6.41034e-07 1.01228e-06)
(2.19577e-07 -1.56646e-07 1.60341e-06)
(8.87166e-07 -2.58663e-07 7.57813e-08)
(-2.72028e-07 1.31408e-07 -1.2145e-06)
(-9.10819e-07 9.03134e-07 -8.94703e-07)
(-9.18087e-07 8.60874e-07 1.64869e-06)
(-2.41032e-07 -6.12098e-07 9.28556e-07)
(-1.22382e-06 9.48266e-07 2.82376e-06)
(4.25129e-07 1.60556e-06 6.35875e-06)
(3.87029e-06 -4.01919e-07 3.01092e-06)
(2.22658e-06 -9.61505e-07 -6.0384e-06)
(2.56664e-06 -1.21314e-06 2.87939e-07)
(3.79625e-07 5.14664e-07 6.71514e-07)
(-1.59515e-07 -9.37504e-07 -2.14951e-06)
(-8.65095e-07 -1.06222e-06 2.56215e-06)
(-1.29842e-06 6.08115e-07 1.34206e-06)
(-6.31466e-07 1.05368e-07 -2.45928e-07)
(-8.30806e-07 1.79309e-06 -4.3953e-07)
(3.4595e-07 6.53753e-07 -9.47122e-07)
(1.2519e-06 7.17464e-07 -1.01824e-06)
(1.50913e-06 -1.16127e-07 -2.82187e-07)
(-3.60509e-07 -2.79916e-07 -1.03842e-08)
(5.92645e-07 -2.51208e-07 -3.88082e-07)
(-4.88057e-07 1.94967e-07 -3.23753e-07)
(-2.57436e-07 5.35072e-07 -4.76247e-07)
(-8.72848e-07 -2.42662e-07 2.81347e-07)
(-1.29063e-07 -5.50443e-07 1.88964e-07)
(-7.9349e-07 5.06569e-07 5.23709e-07)
(5.68935e-07 1.06114e-06 1.31302e-06)
(3.03092e-06 -2.15039e-07 5.37258e-07)
(1.6261e-06 -9.11385e-07 -1.00614e-06)
(2.3347e-06 -8.75538e-07 -8.84267e-08)
(9.39696e-07 5.24006e-07 -1.11603e-07)
(3.23425e-07 -8.08989e-07 -4.34444e-07)
(-5.78192e-07 -6.09151e-07 3.57911e-07)
(-7.31897e-07 9.37706e-07 2.3273e-07)
(-3.79957e-07 1.32912e-07 -5.23029e-07)
(5.34642e-07 7.43178e-08 -4.13836e-07)
(3.13462e-07 1.05921e-06 2.95554e-07)
(2.06734e-07 4.52285e-07 2.79576e-07)
(6.3013e-08 -1.06644e-07 5.74115e-07)
(4.41136e-08 -6.23481e-08 4.95103e-07)
(9.62923e-08 1.26644e-07 2.80162e-07)
(6.17629e-07 2.95533e-07 -2.47792e-07)
(-1.18485e-08 9.49351e-07 3.44707e-07)
(2.98207e-07 1.47455e-07 4.86689e-07)
(4.24778e-07 2.854e-07 -3.6206e-07)
(-2.6907e-07 5.5022e-07 3.18281e-07)
(7.21358e-07 1.9076e-07 5.63097e-07)
(6.32762e-07 3.41399e-07 9.67077e-08)
(-1.64516e-07 -1.76132e-07 1.09919e-07)
(1.07217e-07 -9.0057e-08 1.90613e-07)
(-3.41012e-07 5.98514e-08 2.24518e-09)
(-4.07665e-07 7.07328e-07 -3.66106e-07)
(3.01353e-07 2.33463e-07 -3.81558e-07)
(5.96972e-07 2.59912e-07 -2.78013e-07)
(8.052e-07 -6.23974e-08 2.73998e-07)
(5.34111e-08 -4.16907e-08 2.81936e-07)
(4.61431e-07 -3.38231e-08 3.54155e-08)
(-1.53109e-07 1.32863e-07 1.71571e-08)
(-1.76504e-07 2.42693e-07 4.67031e-08)
(-3.82678e-07 1.39267e-07 2.76775e-07)
(-5.45552e-08 -2.92697e-08 1.91036e-07)
(-1.96031e-07 3.64089e-07 3.84856e-07)
(4.08102e-07 5.49383e-07 8.42062e-07)
(1.56448e-06 9.20058e-09 2.40872e-07)
(9.67859e-07 -3.06109e-07 -6.26263e-07)
(1.01255e-06 -3.815e-07 -2.31509e-08)
(4.58148e-07 1.7334e-07 -1.04107e-07)
(1.30151e-07 -3.92633e-07 -3.82927e-07)
(-1.41872e-07 -2.8314e-07 2.64485e-07)
(-2.96896e-07 3.56575e-07 -1.202e-07)
(0.000197709 -7.42704e-05 4.3509e-05)
(1.52291e-05 -0.000111194 7.17574e-05)
(4.18389e-05 -3.18281e-05 -1.30841e-05)
(0.000110857 -9.45863e-05 7.56693e-05)
(-1.55717e-05 -0.000108064 0.000127721)
(-0.000171217 -9.56358e-05 9.40572e-05)
(-0.000186239 -7.60502e-05 -0.000134812)
(-0.000166979 0.000234679 -0.000162616)
(1.08261e-05 0.000183015 0.000138107)
(-0.000104713 -7.09135e-05 1.61259e-05)
(-4.34899e-05 -3.22128e-05 -7.46781e-05)
(-3.33954e-05 9.38374e-05 -8.77327e-05)
(9.84144e-05 0.000188478 6.83298e-05)
(0.000113247 4.60061e-06 0.00011523)
(2.24722e-05 -1.01741e-05 -5.09369e-05)
(1.0853e-05 7.68121e-06 8.59329e-05)
(0.000223434 1.82115e-05 9.93619e-05)
(0.000204979 -4.2722e-05 -7.09578e-05)
(9.67685e-05 -8.48542e-05 -5.13424e-05)
(3.29014e-05 -5.30424e-05 -5.48501e-05)
(1.96501e-05 -5.73244e-06 -5.33227e-05)
(6.6949e-05 -6.50167e-05 -0.000109107)
(-8.02755e-05 -0.000143167 5.87259e-05)
(3.94518e-05 6.84005e-05 4.94302e-05)
(0.000105686 0.000102873 -3.63979e-05)
(0.000125222 8.61988e-05 -0.000119051)
(0.000159503 -1.57545e-05 -0.000185578)
(8.22367e-05 -0.000151705 -4.18518e-05)
(7.85907e-06 1.82209e-06 -1.10926e-06)
(-2.13184e-06 5.73769e-07 2.13566e-07)
(-5.19484e-07 4.72127e-06 -3.35743e-06)
(6.71067e-06 -3.45239e-06 -2.76681e-07)
(-1.08768e-06 -1.74513e-06 -2.06282e-06)
(-6.76283e-07 4.07781e-06 2.30664e-06)
(2.96272e-07 -2.12071e-06 6.08462e-06)
(-5.90221e-06 4.31487e-07 2.64417e-06)
(-3.67315e-06 -2.93603e-07 -2.28147e-06)
(-5.9521e-06 -4.63021e-06 -1.24037e-06)
(-6.65286e-06 -9.5405e-07 2.32293e-06)
(-4.66131e-06 4.85922e-06 3.14133e-06)
(4.08085e-06 1.95098e-06 -2.90787e-06)
(4.17152e-06 -2.07793e-06 -2.30365e-06)
(1.05816e-06 -2.16859e-06 3.7308e-07)
(-3.71448e-06 -5.45216e-06 -9.67872e-07)
(-2.55844e-06 -4.3691e-06 -4.77437e-07)
(2.12942e-06 -1.26292e-06 7.06215e-06)
(6.68241e-06 -3.52247e-06 2.28302e-06)
(6.67411e-07 -7.06406e-07 -3.98686e-06)
(-1.9283e-06 1.60748e-06 -1.64827e-06)
(3.85524e-07 2.96573e-07 -2.06543e-06)
(3.21544e-06 -2.19645e-06 -5.57267e-06)
(4.25676e-06 1.97434e-07 -3.12714e-06)
(4.98559e-06 -3.26903e-06 1.1093e-06)
(3.01251e-06 -2.04143e-06 4.70594e-06)
(1.04336e-06 5.7344e-06 5.5646e-06)
(2.64561e-06 3.42422e-06 1.11875e-06)
(-2.9883e-07 1.70284e-07 -1.12788e-06)
(-9.78939e-07 -7.04424e-07 1.2846e-06)
(-4.44536e-07 5.21381e-08 -4.60503e-06)
(8.3331e-07 -1.42724e-06 3.9359e-07)
(9.16958e-07 -1.12707e-06 -9.08362e-07)
(1.62766e-06 -1.07778e-06 2.37385e-06)
(4.1021e-07 -7.99706e-07 5.09567e-06)
(6.88286e-07 -1.015e-06 1.05999e-06)
(3.62592e-08 -3.19814e-07 -8.60153e-07)
(5.25144e-07 5.48312e-07 -1.18838e-06)
(8.43216e-07 6.58026e-07 1.25481e-06)
(1.05175e-06 -8.2949e-07 1.38293e-06)
(-8.89426e-07 -3.94794e-07 -1.87032e-06)
(-2.03954e-07 4.39923e-07 -1.30042e-06)
(-6.93509e-07 -2.45564e-07 -1.16766e-06)
(1.92496e-07 2.15334e-07 -6.57356e-07)
(-1.09687e-06 -6.79082e-07 -4.81182e-07)
(-1.26116e-07 8.83691e-08 7.0379e-06)
(3.75493e-06 -1.27869e-07 1.36598e-06)
(1.86721e-06 2.03735e-07 -4.80008e-06)
(-2.34886e-07 2.31524e-07 -2.14131e-06)
(-2.07079e-07 2.97499e-07 -3.54314e-06)
(1.0241e-06 -8.54217e-07 -5.86605e-06)
(1.51736e-07 -1.41946e-06 -2.76724e-06)
(-9.10011e-07 -1.61426e-06 -2.11545e-08)
(-5.25016e-07 -1.17532e-06 3.62317e-06)
(-1.02311e-06 2.34971e-07 3.68529e-06)
(-8.98196e-07 2.95195e-07 -8.08935e-07)
(1.14627e-08 2.00836e-07 2.9679e-08)
(-5.29568e-07 -2.80236e-07 1.80421e-07)
(-2.14149e-07 9.89362e-08 -6.18758e-07)
(8.59932e-07 -8.96894e-07 -1.28724e-08)
(6.70866e-07 -4.15046e-07 -2.33177e-07)
(1.5936e-06 -3.1586e-07 5.12176e-07)
(6.23456e-07 -4.99516e-07 6.88878e-07)
(4.398e-07 -1.23664e-06 1.2349e-07)
(-4.97059e-07 -7.87577e-07 5.02978e-08)
(-6.78607e-08 2.48917e-07 -2.88206e-08)
(3.06448e-09 8.96199e-07 4.64361e-07)
(6.33369e-07 -3.1847e-07 2.65006e-07)
(-8.50478e-07 -9.48066e-07 -3.48267e-07)
(-7.20361e-08 -3.27638e-08 4.0284e-08)
(-6.55061e-07 -8.11206e-07 1.75347e-07)
(-1.38925e-08 -2.50552e-07 4.16536e-07)
(-9.81023e-07 -9.26377e-07 1.45653e-07)
(-4.5319e-07 -6.30183e-08 1.39478e-06)
(3.01678e-06 9.57479e-08 3.7658e-07)
(1.87138e-06 -4.88727e-08 -7.77578e-07)
(-4.843e-08 -1.49538e-07 -4.5529e-07)
(-1.49095e-07 2.4828e-07 -7.46609e-07)
(1.11123e-06 -3.13294e-07 -7.48269e-07)
(4.1315e-07 -1.16404e-06 -1.98267e-07)
(-5.76812e-07 -1.81178e-06 1.01782e-07)
(-5.89641e-07 -1.12695e-06 5.76157e-07)
(-1.09461e-06 6.95022e-07 6.7238e-07)
(-8.32324e-07 4.63124e-07 4.43032e-07)
(-6.65494e-08 -2.83022e-08 -3.53921e-07)
(-2.43536e-07 -1.82391e-07 5.82898e-08)
(-1.10599e-07 -1.25779e-07 -5.80154e-07)
(4.91529e-07 -4.79458e-07 3.1939e-08)
(3.92152e-07 -3.15955e-07 -1.93084e-07)
(6.89083e-07 -2.74639e-07 3.07171e-07)
(2.26573e-07 -1.99839e-07 6.98356e-07)
(3.01374e-07 -3.7576e-07 4.16435e-07)
(-8.67895e-08 -2.17124e-07 -1.58272e-07)
(1.2594e-07 8.90131e-08 -1.79e-07)
(3.60465e-08 3.11416e-07 -2.71714e-08)
(3.04493e-07 -8.21137e-08 3.74856e-07)
(-2.88761e-07 -1.75647e-07 -2.94761e-07)
(-1.04214e-08 8.76662e-08 -3.91482e-07)
(-3.22882e-07 -1.90673e-07 -3.63104e-07)
(7.33847e-08 2.787e-08 -5.76229e-08)
(-1.53874e-07 -3.18613e-07 -2.26341e-07)
(8.5818e-08 -1.42866e-08 7.87531e-07)
(1.57685e-06 3.67176e-09 3.18427e-07)
(1.03929e-06 -2.66542e-08 -6.4779e-07)
(8.7976e-08 -6.77573e-08 -5.10965e-07)
(4.68726e-08 -1.7542e-08 -4.24826e-07)
(3.76543e-07 -3.18952e-07 -7.66061e-07)
(1.09421e-07 -5.40996e-07 -4.3046e-07)
(-3.37794e-07 -7.76151e-07 -1.64923e-07)
(-2.74098e-07 -5.17103e-07 5.67137e-07)
(-5.71756e-07 1.35174e-07 4.06374e-07)
(-4.95498e-07 4.79552e-08 5.07981e-09)
(9.57487e-05 3.58902e-05 -0.0001617)
(0.000219487 9.48951e-05 -3.14713e-05)
(0.000121966 0.000111202 -5.97497e-05)
(0.000175262 1.11836e-05 6.33184e-05)
(5.27332e-07 3.19964e-07 -4.71682e-06)
(4.19322e-06 3.25562e-06 -4.96781e-06)
(2.28595e-08 3.53578e-06 -3.74107e-07)
(2.8674e-06 -7.46001e-07 3.35991e-07)
)
;

boundaryField
{
    top_fluid_surface
    {
        type            pressureInletOutletVelocity;
        value           nonuniform List<vector> 
64
(
(0 0 -8.38877e-05)
(0 0 -0.000105569)
(0 0 -4.6409e-05)
(0.000143518 9.04251e-05 9.23805e-05)
(2.77246e-05 -6.26909e-06 9.13084e-05)
(0 0 -6.43105e-06)
(0.000101882 -5.96767e-05 3.61397e-05)
(0.000181338 1.9899e-05 4.16649e-05)
(0 0 -9.85017e-05)
(0 0 -2.90996e-05)
(0 0 -3.68235e-05)
(-6.82466e-05 -7.72022e-05 7.22531e-05)
(5.76788e-05 -2.73421e-05 2.39373e-05)
(5.84983e-05 -5.63942e-05 3.22891e-05)
(3.46843e-05 -0.000116876 9.88711e-06)
(0 0 3.82012e-06)
(0 0 -2.70481e-05)
(0.000110663 0.000120291 7.45462e-05)
(-2.27848e-05 -1.65766e-05 0.00010537)
(-5.0721e-05 -0.000103721 3.65951e-05)
(0 0 -3.31053e-05)
(0 0 -4.43995e-05)
(3.92346e-05 0.00011709 4.74909e-05)
(0 0 -5.28897e-06)
(0 0 -7.36451e-06)
(8.63429e-05 3.56701e-05 4.11646e-05)
(0 0 -1.4139e-05)
(0 0 -0.000123896)
(8.5709e-06 -0.00011768 8.52824e-05)
(7.49472e-05 1.69196e-05 9.7958e-05)
(0.000186445 3.23251e-05 6.66828e-05)
(0.00023835 2.69659e-05 3.30214e-05)
(0.000197709 -7.42704e-05 4.3509e-05)
(1.52291e-05 -0.000111194 7.17574e-05)
(0 0 -1.30841e-05)
(0.000110857 -9.45863e-05 7.56693e-05)
(-1.55717e-05 -0.000108064 0.000127721)
(-0.000171217 -9.56358e-05 9.40572e-05)
(0 0 -0.000134812)
(0 0 -0.000162616)
(1.08261e-05 0.000183015 0.000138107)
(-0.000104713 -7.09135e-05 1.61259e-05)
(0 0 -7.46781e-05)
(0 0 -8.77327e-05)
(9.84144e-05 0.000188478 6.83298e-05)
(0.000113247 4.60061e-06 0.00011523)
(0 0 -5.09369e-05)
(1.0853e-05 7.68121e-06 8.59329e-05)
(0.000223434 1.82115e-05 9.93619e-05)
(0 0 -7.09578e-05)
(0 0 -5.13424e-05)
(0 0 -5.48501e-05)
(0 0 -5.33227e-05)
(0 0 -0.000109107)
(-8.02755e-05 -0.000143167 5.87259e-05)
(3.94518e-05 6.84005e-05 4.94302e-05)
(0 0 -3.63979e-05)
(0 0 -0.000119051)
(0 0 -0.000185578)
(0 0 -4.18518e-05)
(0 0 -0.0001617)
(0 0 -3.14713e-05)
(0 0 -5.97497e-05)
(0.000175262 1.11836e-05 6.33184e-05)
)
;
    }
    bottom_fluid_surface
    {
        type            noSlip;
    }
    lateral_surface_1
    {
        type            noSlip;
    }
    lateral_surface_2
    {
        type            noSlip;
    }
    lateral_surface_3
    {
        type            noSlip;
    }
    lateral_surface_4
    {
        type            noSlip;
    }
}


// ************************************************************************* //
