/*--------------------------------*- C++ -*----------------------------------*\
| =========                 |                                                 |
| \\      /  F ield         | OpenFOAM: The Open Source CFD Toolbox           |
|  \\    /   O peration     | Version:  v1612+                                |
|   \\  /    A nd           | Web:      www.OpenFOAM.com                      |
|    \\/     M anipulation  |                                                 |
\*---------------------------------------------------------------------------*/
FoamFile
{
    version     2.0;
    format      ascii;
    class       surfaceScalarField;
    location    "1.05";
    object      alphaPhi;
}
// * * * * * * * * * * * * * * * * * * * * * * * * * * * * * * * * * * * * * //

dimensions      [0 3 -1 0 0 0 0];

internalField   nonuniform List<scalar> 
2916
(
5.43321e-08
0.281556
-0.281556
-2.84079e-08
0.281557
-0.281557
-5.92264e-08
0.281557
-0.281557
1.41492e-07
0.281557
-0.281557
3.65603e-07
0.281557
-0.281557
0.281557
-0.281556
9.48537e-07
0.664894
-0.383339
1.13857e-06
0.664896
-0.383339
1.55252e-06
0.664896
-0.383339
1.64731e-06
0.664895
-0.383338
1.07479e-06
0.664895
-0.383337
0.664894
-0.383336
2.62097e-06
1.24596
-0.581073
4.45453e-06
1.24597
-0.581073
5.197e-06
1.24597
-0.581071
4.67383e-06
1.24597
-0.581069
2.71241e-06
1.24596
-0.581067
1.24596
-0.581065
7.67987e-07
2.03142
-0.785458
5.24098e-06
2.03143
-0.785463
7.51107e-06
2.03143
-0.785461
7.20266e-06
2.03143
-0.78546
5.25506e-06
2.03143
-0.785459
2.03143
-0.785457
5.78858e-06
2.77009
-0.796484
9.18662e-06
2.77013
-0.796473
9.0163e-06
2.77012
-0.796478
7.65303e-06
2.77012
-0.796489
5.73749e-06
2.77011
-0.796504
2.77009
-0.796515
9.64601e-06
1.41198
-0.31573
5.90853e-06
1.41203
-0.315736
-5.17673e-06
1.41202
-0.315732
-1.79936e-05
1.41201
-0.31573
-1.85328e-05
1.41202
-0.315735
1.41196
-0.31573
8.23338e-06
0.0129792
-0.00833062
5.46802e-06
0.0129807
-0.00833042
-1.52345e-06
0.0129809
-0.00832994
-5.88787e-06
0.0129805
-0.00832995
-9.03873e-06
0.0129806
-0.00833053
0.0129792
-0.00832803
-9.10482e-07
0.000898168
0.0072203
-1.12762e-06
0.000898119
0.0072211
-9.34347e-07
0.000898121
0.00722092
-8.99296e-07
0.000898128
0.00722066
-6.33052e-07
0.000898195
0.00722029
0.000897996
0.00721942
1.23066e-08
4.8175e-05
0.000590782
-1.90773e-08
4.81723e-05
0.000590781
-3.85516e-09
4.81704e-05
0.000590744
1.61962e-08
4.81723e-05
0.000590736
4.36886e-08
4.81783e-05
0.000590769
4.81685e-05
0.000590698
2.81889e-09
7.57088e-07
3.97836e-05
5.57249e-09
7.57272e-07
3.97797e-05
7.34164e-09
7.57258e-07
3.97788e-05
7.50774e-09
7.57309e-07
3.97817e-05
5.9786e-09
7.57401e-07
3.97885e-05
7.57253e-07
3.97849e-05
1.28726e-10
2.00143e-08
6.12347e-07
2.48109e-10
2.00229e-08
6.12488e-07
2.76827e-10
2.00234e-08
6.12558e-07
2.52663e-10
2.00243e-08
6.12652e-07
1.68242e-10
2.00273e-08
6.12782e-07
2.00202e-08
6.12741e-07
5.01211e-13
5.8536e-09
1.10628e-12
5.85628e-09
1.38264e-12
5.85663e-09
1.31127e-12
5.8569e-09
8.41454e-13
5.85731e-09
5.85621e-09
-5.61289e-07
0.209043
-0.490599
-1.6058e-06
0.209044
-0.4906
-1.92022e-06
0.209043
-0.490599
-1.39193e-06
0.209041
-0.490599
-5.824e-07
0.209041
-0.490599
0.209041
-0.490597
1.54672e-06
0.536319
-0.710616
7.61334e-07
0.536321
-0.710616
3.71357e-07
0.536319
-0.710615
-2.03185e-07
0.536318
-0.710614
-9.84612e-07
0.536317
-0.710613
0.536315
-0.710611
7.71952e-06
1.01737
-1.06214
7.979e-06
1.01738
-1.06214
7.52225e-06
1.01738
-1.06213
5.79414e-06
1.01738
-1.06213
3.62928e-06
1.01738
-1.06213
1.01737
-1.06212
6.51548e-06
1.67985
-1.44786
1.04743e-05
1.67987
-1.44787
1.01508e-05
1.67987
-1.44786
7.5963e-06
1.67987
-1.44786
5.18909e-06
1.67987
-1.44786
1.67987
-1.44786
4.00175e-06
0.610034
-0.838173
1.08743e-05
0.610067
-0.83821
9.67148e-06
0.610065
-0.838207
5.92147e-06
0.61006
-0.838206
8.90012e-07
0.610057
-0.838209
0.610041
-0.838208
3.11039e-07
-0.0184789
-0.0444477
-4.52633e-07
-0.0184793
-0.0444509
-1.12799e-06
-0.0184789
-0.0444504
-7.46611e-07
-0.0184785
-0.04445
-2.44311e-06
-0.018479
-0.044451
-0.0184776
-0.0444488
-1.82345e-07
0.00582342
-0.000415005
-5.29512e-07
0.00582467
-0.000414986
-6.62809e-07
0.00582489
-0.000415016
-7.98928e-07
0.00582483
-0.000415026
-1.09054e-06
0.00582469
-0.000415052
0.00582379
-0.000415051
-3.69489e-08
0.0018629
0.000431269
-1.73821e-07
0.00186297
0.000431422
-1.34886e-07
0.00186288
0.000431429
-7.27936e-08
0.00186284
0.000431408
-8.05069e-09
0.00186297
0.000431348
0.00186233
0.000431291
5.20427e-09
-3.87786e-05
0.000133102
8.22616e-09
-3.87753e-05
0.000133086
9.62632e-09
-3.87751e-05
0.000133067
1.03634e-08
-3.87781e-05
0.000133061
1.7316e-08
-3.87843e-05
0.000133079
-3.87815e-05
0.000133021
7.01793e-10
-5.93977e-07
5.28901e-07
8.87991e-10
-5.94114e-07
5.28838e-07
5.72163e-10
-5.94187e-07
5.2875e-07
2.76178e-10
-5.9428e-07
5.28761e-07
1.98455e-10
-5.94403e-07
5.28959e-07
-5.94371e-07
5.28651e-07
3.16152e-12
-5.34375e-09
1.15438e-08
5.61283e-12
-5.34608e-09
1.15446e-08
5.22821e-12
-5.34637e-09
1.15445e-08
3.63016e-12
-5.3466e-09
1.15456e-08
2.04175e-12
-5.34692e-09
1.15498e-08
-5.34606e-09
1.15454e-08
-4.07575e-14
1.07144e-10
6.8437e-16
1.07187e-10
4.56561e-14
1.07189e-10
6.58503e-14
1.07196e-10
5.19037e-14
1.07223e-10
1.0717e-10
7.54848e-07
0.0519273
-0.542527
1.62934e-07
0.0519273
-0.542526
2.75282e-07
0.051926
-0.542526
8.81514e-07
0.0519252
-0.542525
8.38024e-07
0.0519255
-0.542524
0.0519267
-0.542523
5.71135e-06
0.243254
-0.901948
5.08135e-06
0.24326
-0.901948
4.30364e-06
0.243259
-0.901947
3.03757e-06
0.243258
-0.901946
1.86832e-06
0.243259
-0.901945
0.243261
-0.901943
1.16024e-05
0.539958
-1.35876
9.68268e-06
0.53998
-1.35877
6.121e-06
0.539981
-1.35876
3.55104e-06
0.53998
-1.35876
3.66128e-06
0.539979
-1.35876
0.53998
-1.35875
1.33869e-05
1.03134
-1.52414
1.47956e-05
1.03137
-1.52416
1.43675e-05
1.03137
-1.52416
1.65355e-05
1.03137
-1.52416
1.45391e-05
1.03137
-1.52417
1.03138
-1.52417
2.61669e-06
0.0444043
-0.129283
3.14172e-06
0.0444076
-0.129292
2.89662e-06
0.0444076
-0.129292
3.03148e-06
0.044407
-0.129293
2.19315e-06
0.0444074
-0.129295
0.0444064
-0.129297
-3.8234e-07
0.00038867
-0.000995133
-5.46204e-07
0.000388668
-0.000995238
-2.42575e-07
0.00038869
-0.000995245
-1.85019e-07
0.000388703
-0.000995251
-7.13403e-07
0.000388758
-0.000995365
0.000388772
-0.000995515
-6.25557e-10
-5.24241e-05
2.33013e-05
-2.04935e-09
-5.24129e-05
2.33045e-05
7.2534e-10
-5.24233e-05
2.33046e-05
4.62512e-10
-5.24161e-05
2.33047e-05
-6.42712e-09
-5.23783e-05
2.33044e-05
-5.23734e-05
2.3302e-05
-3.33549e-09
-1.39867e-06
1.02498e-05
6.20786e-09
-1.3982e-06
1.02532e-05
5.36984e-09
-1.39826e-06
1.02524e-05
2.5296e-09
-1.3979e-06
1.02513e-05
1.07287e-09
-1.39675e-06
1.02502e-05
-1.39609e-06
1.02472e-05
2.9496e-10
-3.08819e-07
2.60581e-07
5.08884e-10
-3.0887e-07
2.60492e-07
2.51616e-11
-3.08878e-07
2.60432e-07
-4.37221e-10
-3.0893e-07
2.60422e-07
-2.71887e-10
-3.09059e-07
2.60504e-07
-3.09065e-07
2.60353e-07
2.54111e-12
-1.11347e-08
1.43353e-08
-9.39069e-12
-1.11352e-08
1.43394e-08
-2.23255e-11
-1.11349e-08
1.4335e-08
-2.85939e-11
-1.11359e-08
1.43303e-08
-2.14638e-11
-1.114e-08
1.43263e-08
-1.11356e-08
1.43174e-08
-2.18e-13
-9.33607e-11
3.0292e-11
-3.84037e-13
-9.33921e-11
3.03317e-11
-4.36926e-13
-9.33907e-11
3.03553e-11
-4.06605e-13
-9.33945e-11
3.03734e-11
-2.69713e-13
-9.34185e-11
3.03976e-11
-9.33663e-11
3.0391e-11
-1.1166e-15
1.32146e-12
-6.53234e-16
1.32213e-12
2.7781e-18
1.32225e-12
4.68667e-16
1.32237e-12
5.78531e-16
1.32266e-12
1.32217e-12
6.82642e-06
-0.288173
-0.254361
5.67256e-06
-0.288169
-0.254355
5.5085e-06
-0.288169
-0.254356
4.98629e-06
-0.288168
-0.254356
3.33626e-06
-0.288167
-0.254356
-0.288164
-0.254356
1.02379e-05
-0.276872
-0.913218
8.65634e-06
-0.276856
-0.913218
6.10757e-06
-0.276854
-0.913218
4.27586e-06
-0.276853
-0.913218
3.90966e-06
-0.276851
-0.91322
-0.276843
-0.913219
4.32625e-06
0.228703
-1.28985
3.41679e-06
0.228727
-1.28986
2.38258e-06
0.22873
-1.28986
2.75481e-06
0.22873
-1.28986
3.40605e-06
0.228732
-1.28986
0.228736
-1.28986
2.20307e-06
0.108946
-0.132036
4.42843e-06
0.108958
-0.132036
6.39248e-06
0.108956
-0.132035
5.87155e-06
0.108952
-0.132036
1.76698e-06
0.108942
-0.132037
0.10893
-0.132036
2.90341e-07
0.000970832
-0.00154414
3.6139e-07
0.000970953
-0.00154438
5.75057e-07
0.000970966
-0.00154438
6.7366e-07
0.000970965
-0.0015444
3.17868e-07
0.000971057
-0.00154442
0.00097119
-0.00154431
-8.83104e-09
-3.28955e-05
8.70902e-06
2.06122e-09
-3.29009e-05
8.70864e-06
2.13982e-08
-3.29009e-05
8.70753e-06
3.36894e-08
-3.29001e-05
8.70769e-06
2.52681e-08
-3.28989e-05
8.70704e-06
-3.2894e-05
8.70367e-06
-6.26953e-11
-9.83006e-06
2.03536e-07
1.78973e-10
-9.83273e-06
2.03605e-07
2.63108e-10
-9.83248e-06
2.03589e-07
2.68238e-10
-9.8316e-06
2.03606e-07
1.89405e-10
-9.83047e-06
2.03613e-07
-9.8277e-06
2.03523e-07
1.09904e-10
-1.9994e-07
1.41554e-07
6.80861e-10
-1.99923e-07
1.41607e-07
6.54743e-10
-1.99866e-07
1.41609e-07
4.24116e-10
-1.9983e-07
1.41602e-07
3.11715e-10
-1.99844e-07
1.41591e-07
-1.99702e-07
1.41534e-07
3.61625e-11
-1.32743e-08
6.52163e-09
1.06035e-11
-1.32787e-08
6.52211e-09
-1.94795e-11
-1.32738e-08
6.52134e-09
-3.68814e-11
-1.32684e-08
6.52094e-09
-2.20998e-11
-1.32633e-08
6.5218e-09
-1.32542e-08
6.5183e-09
-2.34649e-13
-1.45286e-11
4.92207e-11
-1.01766e-12
-1.4568e-11
4.92443e-11
-1.48065e-12
-1.45933e-11
4.92576e-11
-1.52767e-12
-1.46096e-11
4.92687e-11
-9.86529e-13
-1.46285e-11
4.92797e-11
-1.46248e-11
4.92711e-11
-7.29148e-15
-3.34646e-14
2.27894e-12
-1.18503e-14
-3.34809e-14
2.27917e-12
-1.35822e-14
-3.34744e-14
2.27957e-12
-1.25245e-14
-3.34751e-14
2.2802e-12
-7.99998e-15
-3.34979e-14
2.28118e-12
-3.34441e-14
2.28112e-12
-2.51104e-17
5.69134e-14
-2.01963e-17
5.69391e-14
-1.18381e-17
5.69448e-14
-3.40699e-18
5.69525e-14
2.00122e-18
5.69684e-14
5.69486e-14
2.02741e-92
-1.61453e-84
2.09953e-89
4.61025e-93
-1.615e-84
2.10014e-89
-7.6893e-94
-1.61471e-84
2.09968e-89
-3.57787e-93
-1.61438e-84
2.09926e-89
-3.87492e-93
-1.6141e-84
2.09884e-89
-1.61279e-84
2.09697e-89
9.87452e-88
-1.22302e-79
1.6758e-84
1.01467e-88
-1.22321e-79
1.67601e-84
-2.92747e-88
-1.22289e-79
1.67557e-84
-5.00918e-88
-1.22264e-79
1.67518e-84
-6.44189e-88
-1.22241e-79
1.6748e-84
-1.22134e-79
1.6732e-84
3.3796e-83
-4.47431e-75
6.67028e-80
4.45764e-84
-4.47475e-75
6.67074e-80
-6.62156e-84
-4.47365e-75
6.66903e-80
-1.31177e-83
-4.47283e-75
6.66763e-80
-1.85211e-83
-4.47207e-75
6.66625e-80
-4.46833e-75
6.6603e-80
1.20672e-78
-1.0417e-70
1.72247e-75
3.57719e-79
-1.0418e-70
1.72253e-75
6.782e-80
-1.04158e-70
1.72209e-75
-1.30732e-79
-1.04142e-70
1.72177e-75
-3.018e-79
-1.04127e-70
1.72146e-75
-1.04044e-70
1.72e-75
3.22167e-74
-1.72003e-66
3.15901e-71
1.06937e-74
-1.72025e-66
3.15891e-71
2.18905e-75
-1.71994e-66
3.15811e-71
-2.79359e-75
-1.71972e-66
3.1575e-71
-7.05473e-75
-1.7195e-66
3.15696e-71
-1.71816e-66
3.15429e-71
5.46213e-70
-2.13697e-62
4.25925e-67
1.34013e-70
-2.13733e-62
4.25881e-67
-2.55323e-71
-2.13701e-62
4.25762e-67
-1.17019e-70
-2.13675e-62
4.25678e-67
-1.85769e-70
-2.13647e-62
4.25604e-67
-2.13482e-62
4.25248e-67
5.4173e-66
-2.08267e-58
4.23681e-63
2.35328e-67
-2.08312e-58
4.23594e-63
-1.68758e-66
-2.08284e-58
4.23465e-63
-2.64559e-66
-2.08257e-58
4.23381e-63
-3.22445e-66
-2.08228e-58
4.23313e-63
-2.08065e-58
4.22967e-63
3.14922e-62
-1.65414e-54
3.00748e-59
-1.16242e-62
-1.65457e-54
3.00633e-59
-2.48564e-62
-1.65435e-54
3.00528e-59
-2.94714e-62
-1.65412e-54
3.00467e-59
-3.22808e-62
-1.65385e-54
3.00427e-59
-1.65255e-54
3.00199e-59
1.10774e-58
-1.11819e-50
1.20928e-55
-1.34725e-58
-1.11851e-50
1.20791e-55
-1.81628e-58
-1.11837e-50
1.20728e-55
-1.84736e-58
-1.1182e-50
1.20708e-55
-1.95637e-58
-1.11802e-50
1.20713e-55
-1.11714e-50
1.20653e-55
3.3437e-55
-6.02746e-47
-8.14687e-48
-6.55539e-55
-6.02827e-47
-8.16139e-48
-6.89446e-55
-6.02743e-47
-8.16213e-48
-5.99057e-55
-6.0267e-47
-8.1594e-48
-6.89065e-55
-6.0261e-47
-8.15456e-48
-6.02196e-47
-8.1434e-48
4.26093e-51
-1.96635e-43
-1.83287e-43
2.82169e-52
-1.96654e-43
-1.83328e-43
-4.52216e-53
-1.96636e-43
-1.833e-43
-5.82082e-53
-1.96632e-43
-1.83267e-43
-1.46716e-51
-1.9664e-43
-1.8323e-43
-1.96548e-43
-1.8308e-43
1.33133e-47
-1.66183e-39
-4.12371e-48
-1.66197e-39
-1.50319e-47
-1.66184e-39
-2.25042e-47
-1.66183e-39
-2.69719e-47
-1.66195e-39
-1.66129e-39
2.54083e-88
-2.70604e-80
7.01207e-85
2.50466e-89
-2.70726e-80
7.01536e-85
-7.89533e-89
-2.70672e-80
7.01408e-85
-1.32126e-88
-2.7062e-80
7.01278e-85
-1.67276e-88
-2.70565e-80
7.01134e-85
-2.70335e-80
7.00531e-85
1.0547e-83
-2.05325e-75
5.63191e-80
-3.64951e-84
-2.05389e-75
5.63369e-80
-8.78188e-84
-2.05346e-75
5.63253e-80
-1.26879e-83
-2.05303e-75
5.6313e-80
-1.67852e-83
-2.05259e-75
5.62998e-80
-2.05078e-75
5.62483e-80
3.50234e-79
-7.48957e-71
2.25278e-75
-8.96186e-80
-7.49164e-71
2.25339e-75
-2.38323e-79
-7.49025e-71
2.25294e-75
-3.53726e-79
-7.48888e-71
2.25249e-75
-4.97047e-79
-7.48747e-71
2.25201e-75
-7.4812e-71
2.25005e-75
1.33072e-74
-1.72624e-66
5.82241e-71
2.01962e-75
-1.72672e-66
5.82383e-71
-2.13641e-75
-1.72646e-66
5.82276e-71
-5.71656e-75
-1.72619e-66
5.8217e-71
-1.03425e-74
-1.72591e-66
5.8206e-71
-1.72453e-66
5.81577e-71
3.5313e-70
-2.79428e-62
1.06219e-66
7.03813e-71
-2.79514e-62
1.06243e-66
-3.96324e-71
-2.79479e-62
1.06224e-66
-1.39583e-70
-2.7944e-62
1.06206e-66
-2.58825e-70
-2.79397e-62
1.06188e-66
-2.79177e-62
1.06103e-66
4.9871e-66
-3.36015e-58
1.41334e-62
1.09236e-69
-3.36131e-58
1.41362e-62
-2.03077e-66
-3.36093e-58
1.41337e-62
-3.71191e-66
-3.36046e-58
1.41314e-62
-5.67895e-66
-3.3599e-58
1.41292e-62
-3.35721e-58
1.41182e-62
3.24011e-62
-3.11894e-54
1.36962e-58
-2.33512e-62
-3.1201e-54
1.36983e-58
-4.33686e-62
-3.11976e-54
1.36959e-58
-5.79033e-62
-3.11927e-54
1.36937e-58
-7.4485e-62
-3.11869e-54
1.36918e-58
-3.11614e-54
1.36816e-58
6.42389e-59
-2.31671e-50
9.16483e-55
-3.38931e-58
-2.31761e-50
9.16508e-55
-4.637e-58
-2.31735e-50
9.16327e-55
-5.38697e-58
-2.31696e-50
9.16202e-55
-6.36427e-58
-2.3165e-50
9.16114e-55
-2.31458e-50
9.15509e-55
-7.96431e-55
-1.4452e-46
3.41267e-51
-2.42475e-54
-1.4458e-46
3.41137e-51
-2.5262e-54
-1.44564e-46
3.41054e-51
-2.51894e-54
-1.44539e-46
3.4103e-51
-3.02009e-54
-1.4451e-46
3.41047e-51
-1.44391e-46
3.40904e-51
-9.15536e-51
-7.42105e-43
-6.80994e-44
-1.14157e-50
-7.42272e-43
-6.82739e-44
-6.58065e-51
-7.42187e-43
-6.82789e-44
-3.54005e-51
-7.42101e-43
-6.82336e-44
-6.60047e-51
-7.4203e-43
-6.81569e-44
-7.4154e-43
-6.80047e-44
-1.3029e-48
-1.96338e-39
-2.07796e-39
-7.79026e-48
-1.96381e-39
-2.07839e-39
2.7724e-48
-1.9637e-39
-2.0781e-39
2.34196e-48
-1.96366e-39
-2.07776e-39
-2.32912e-47
-1.96375e-39
-2.07743e-39
-1.96286e-39
-2.0759e-39
-1.27135e-44
-1.37897e-35
-1.47698e-43
-1.37918e-35
-2.77982e-43
-1.37911e-35
-3.73296e-43
-1.37912e-35
-4.08207e-43
-1.37924e-35
-1.37874e-35
2.92899e-84
-3.3146e-76
1.25777e-80
1.10968e-85
-3.31577e-76
1.25822e-80
-1.14053e-84
-3.31525e-76
1.25804e-80
-1.82197e-84
-3.31499e-76
1.25795e-80
-2.22603e-84
-3.31492e-76
1.25793e-80
-3.31315e-76
1.25725e-80
1.28576e-79
-2.648e-71
1.06983e-75
-5.90633e-80
-2.64861e-71
1.07007e-75
-1.26216e-79
-2.64822e-71
1.06991e-75
-1.77721e-79
-2.64798e-71
1.0698e-75
-2.30119e-79
-2.6479e-71
1.06976e-75
-2.6464e-71
1.06913e-75
4.31035e-75
-1.00975e-66
4.5236e-71
-1.43432e-75
-1.00996e-66
4.52449e-71
-3.62768e-75
-1.00983e-66
4.52388e-71
-5.30332e-75
-1.00977e-66
4.52349e-71
-7.26822e-75
-1.00976e-66
4.52339e-71
-1.00924e-66
4.52093e-71
1.43105e-70
-2.40397e-62
1.22806e-66
1.17062e-72
-2.40449e-62
1.22829e-66
-5.35624e-71
-2.40426e-62
1.22814e-66
-1.03736e-70
-2.40416e-62
1.22806e-66
-1.63211e-70
-2.4042e-62
1.22806e-66
-2.40303e-62
1.22744e-66
2.96476e-66
-3.94945e-58
2.32725e-62
-7.58935e-68
-3.95036e-58
2.32765e-62
-1.44538e-66
-3.95005e-58
2.3274e-62
-2.67184e-66
-3.94991e-58
2.32728e-62
-4.00925e-66
-3.94999e-58
2.32731e-62
-3.9481e-58
2.3262e-62
2.48284e-62
-4.70601e-54
3.17367e-58
-2.1877e-62
-4.70715e-54
3.17419e-58
-4.2513e-62
-4.7068e-54
3.17386e-58
-5.97509e-62
-4.70658e-54
3.17372e-58
-7.69967e-62
-4.7066e-54
3.1738e-58
-4.70428e-54
3.17234e-58
-6.85695e-59
-4.18949e-50
3.13142e-54
-4.93945e-58
-4.19054e-50
3.13186e-54
-6.55269e-58
-4.1902e-50
3.13154e-54
-7.68238e-58
-4.18994e-50
3.13141e-54
-8.71596e-58
-4.18987e-50
3.13152e-54
-4.18774e-50
3.13013e-54
-2.76259e-54
-2.8414e-46
2.21403e-50
-4.72495e-54
-2.84212e-46
2.21422e-50
-5.16567e-54
-2.84188e-46
2.21398e-50
-5.29402e-54
-2.84167e-46
2.2139e-50
-5.60922e-54
-2.84159e-46
2.214e-50
-2.84012e-46
2.21309e-50
-2.40857e-50
-1.47987e-42
1.02295e-46
-2.5473e-50
-1.48025e-42
1.02289e-46
-2.09997e-50
-1.48013e-42
1.02277e-46
-1.73688e-50
-1.48002e-42
1.02275e-46
-1.88106e-50
-1.47997e-42
1.02285e-46
-1.47921e-42
1.02251e-46
-8.71605e-47
-6.00954e-39
2.00018e-44
-7.42849e-47
-6.01108e-39
1.98658e-44
-5.30793e-47
-6.01062e-39
1.98604e-44
-4.39788e-47
-6.0102e-39
1.99015e-44
-5.49686e-47
-6.01008e-39
1.99758e-44
-6.00702e-39
2.00825e-44
-3.71998e-43
-1.21593e-35
-9.94598e-36
-2.9559e-43
-1.21626e-35
-9.94781e-36
-2.28206e-43
-1.21622e-35
-9.94675e-36
-2.03076e-43
-1.2162e-35
-9.94572e-36
-2.1566e-43
-1.21628e-35
-9.94502e-36
-1.21582e-35
-9.93906e-36
-1.00959e-39
-5.1287e-32
-1.48342e-39
-5.12983e-32
-1.89026e-39
-5.12968e-32
-2.04406e-39
-5.12977e-32
-1.67309e-39
-5.13034e-32
-5.12875e-32
1.05756e-80
-1.37273e-72
6.78098e-77
-6.02587e-82
-1.37306e-72
6.78256e-77
-5.47907e-81
-1.37281e-72
6.78144e-77
-8.16331e-81
-1.37272e-72
6.781e-77
-9.77351e-81
-1.37274e-72
6.78113e-77
-1.3721e-72
6.77798e-77
5.12369e-76
-1.20118e-67
6.37097e-72
-3.09679e-76
-1.20134e-67
6.37176e-72
-6.20763e-76
-1.20113e-67
6.37066e-72
-8.58623e-76
-1.20104e-67
6.37009e-72
-1.10635e-75
-1.20104e-67
6.37007e-72
-1.20044e-67
6.3668e-72
1.78423e-71
-4.96099e-63
2.96292e-67
-9.74828e-72
-4.96157e-63
2.96321e-67
-2.09835e-71
-4.96085e-63
2.96275e-67
-3.00724e-71
-4.96055e-63
2.96253e-67
-3.97523e-71
-4.9607e-63
2.96257e-67
-4.95842e-63
2.96116e-67
4.76538e-67
-1.25604e-58
8.75677e-63
-1.62584e-67
-1.25619e-58
8.75759e-63
-4.41001e-67
-1.25603e-58
8.75635e-63
-6.95599e-67
-1.25598e-58
8.75584e-63
-9.71501e-67
-1.25604e-58
8.75615e-63
-1.25549e-58
8.75226e-63
6.13745e-63
-2.13587e-54
1.77598e-58
-5.2825e-63
-2.13613e-54
1.77615e-58
-1.11867e-62
-2.13588e-54
1.77591e-58
-1.64168e-62
-2.1358e-54
1.77583e-58
-2.15227e-62
-2.13589e-54
1.77591e-58
-2.13497e-54
1.77516e-58
-4.46775e-59
-2.53647e-50
2.52202e-54
-1.69319e-58
-2.53679e-50
2.52225e-54
-2.4003e-58
-2.53649e-50
2.52194e-54
-2.96859e-58
-2.53636e-50
2.52183e-54
-3.33256e-58
-2.53644e-50
2.52196e-54
-2.53532e-50
2.52091e-54
-1.74781e-54
-2.14656e-46
2.48626e-50
-2.19745e-54
-2.14683e-46
2.48648e-50
-2.48323e-54
-2.14657e-46
2.48618e-50
-2.65425e-54
-2.14645e-46
2.48609e-50
-2.66771e-54
-2.14649e-46
2.48622e-50
-2.14553e-46
2.48521e-50
-1.49249e-50
-1.32118e-42
1.65687e-46
-1.19364e-50
-1.32136e-42
1.657e-46
-1.15937e-50
-1.32121e-42
1.65681e-46
-1.12731e-50
-1.32113e-42
1.65675e-46
-1.12311e-50
-1.32116e-42
1.65685e-46
-1.32056e-42
1.65619e-46
-5.56257e-47
-6.14275e-39
6.98083e-43
-1.90097e-47
-6.1437e-39
6.98112e-43
-1.08797e-47
-6.14311e-39
6.98034e-43
-1.35525e-47
-6.14278e-39
6.98013e-43
-2.33991e-47
-6.1429e-39
6.9806e-43
-6.14015e-39
6.97803e-43
-2.48192e-43
-2.29353e-35
1.19133e-39
-6.5827e-44
-2.29393e-35
1.1912e-39
-3.48963e-46
-2.29375e-35
1.19108e-39
7.29503e-45
-2.29366e-35
1.19112e-39
-2.21301e-44
-2.29372e-35
1.19134e-39
-2.29271e-35
1.19111e-39
-1.22331e-39
-2.90879e-32
-4.03326e-32
-7.90809e-40
-2.90948e-32
-4.03383e-32
-4.15771e-40
-2.90938e-32
-4.03356e-32
1.85704e-41
-2.90936e-32
-4.03348e-32
3.74403e-40
-2.90955e-32
-4.03371e-32
-2.90842e-32
-4.03205e-32
-5.57718e-36
-9.84713e-29
-5.77767e-36
-9.84954e-29
-5.49088e-36
-9.84936e-29
-4.75929e-36
-9.84967e-29
-3.02982e-36
-9.85097e-29
-9.84821e-29
1.43746e-05
0.44226
-0.696594
1.11506e-05
0.442275
-0.696586
7.49694e-06
0.442275
-0.696585
4.84312e-06
0.442275
-0.696586
3.83247e-06
0.442274
-0.696587
0.442273
-0.696583
1.22707e-05
2.21173
-1.64567
1.01674e-05
2.21175
-1.64566
8.57768e-06
2.21175
-1.64566
8.37013e-06
2.21175
-1.64566
9.58755e-06
2.21175
-1.64566
2.21175
-1.64566
1.27253e-05
-4.49795e-08
1.34446e-05
-4.50397e-08
1.41632e-05
-4.50451e-08
2.14049e-05
-4.50344e-08
2.69267e-05
-4.50394e-08
-4.50287e-08
-1.52205e-06
-0.609611
-0.56537
-2.53696e-07
-0.609611
-0.56537
4.51049e-07
-0.60961
-0.565369
-1.2552e-07
-0.60961
-0.565369
-1.22307e-06
-0.609611
-0.565372
-0.609609
-0.565377
3.7837e-06
-2.12647e-08
0.0724704
-1.24652e-06
-2.12925e-08
0.0724553
7.84049e-08
-2.12953e-08
0.0724583
1.80241e-06
-2.12902e-08
0.0724578
-8.95287e-07
-2.12926e-08
0.0724603
-2.12869e-08
0.0724305
-3.20723e-14
-6.62442e-08
-4.07425e-14
-6.63322e-08
-4.89698e-14
-6.63403e-08
-6.06545e-14
-6.63246e-08
-6.47162e-14
-6.6332e-08
-6.63156e-08
2.37006e-06
-0.0717377
0.13279
3.63188e-07
-0.0717228
0.13279
2.0619e-06
-0.0717258
0.132789
2.3018e-06
-0.0717253
0.13279
-2.70263e-06
-0.0717278
0.132791
-0.0716983
0.13279
5.99413e-08
-1.2149e-06
0.000733828
7.43554e-09
-1.2165e-06
0.000733671
-1.37702e-08
-1.21665e-06
0.000733689
-7.56463e-08
-1.21636e-06
0.000733687
-1.07312e-07
-1.21649e-06
0.000733725
-1.21618e-06
0.000733269
-1.29525e-12
-1.27953e-06
-2.02271e-12
-1.28122e-06
-2.09717e-12
-1.28138e-06
-1.8455e-12
-1.28107e-06
-1.04493e-12
-1.28121e-06
-1.28089e-06
1.56262e-07
-0.000850964
0.00117683
2.24413e-07
-0.000850804
0.00117698
1.89294e-07
-0.000850822
0.001177
7.07625e-08
-0.000850811
0.00117702
-1.00396e-09
-0.000850835
0.00117701
-0.000850359
0.00117693
2.59625e-09
-3.4457e-05
-9.88244e-05
2.65188e-09
-3.45011e-05
-9.87948e-05
2.63682e-09
-3.45056e-05
-9.87929e-05
3.01744e-09
-3.44978e-05
-9.87874e-05
3.03976e-09
-3.45022e-05
-9.87699e-05
-3.44943e-05
-9.87519e-05
7.71035e-12
-1.3666e-05
2.94722e-12
-1.36774e-05
-5.48799e-12
-1.36787e-05
-1.40354e-11
-1.36763e-05
-1.61853e-11
-1.36764e-05
-1.3674e-05
6.11756e-09
-0.000246548
-3.13498e-06
4.82622e-09
-0.000246598
-3.13361e-06
4.09919e-09
-0.000246593
-3.13315e-06
3.91544e-09
-0.000246596
-3.13284e-06
2.6276e-09
-0.000246613
-3.1321e-06
-0.000246615
-3.13127e-06
1.59316e-09
2.36062e-05
-5.88375e-06
-5.7588e-09
2.36174e-05
-5.88938e-06
-7.11773e-09
2.36204e-05
-5.88968e-06
-4.34466e-09
2.36166e-05
-5.88929e-06
-1.56795e-11
2.36119e-05
-5.89176e-06
2.36167e-05
-5.88841e-06
-2.04968e-11
-2.3128e-07
-3.53826e-11
-2.31636e-07
-4.34972e-11
-2.31654e-07
-6.81558e-11
-2.31583e-07
-2.06869e-11
-2.31629e-07
-2.31483e-07
-2.99893e-10
5.88138e-06
-3.27588e-07
-1.00973e-10
5.88191e-06
-3.27654e-07
9.59391e-11
5.88128e-06
-3.27635e-07
3.29768e-10
5.88179e-06
-3.27645e-07
4.79401e-10
5.88202e-06
-3.27634e-07
5.87999e-06
-3.275e-07
-6.35697e-12
1.70392e-08
-2.51803e-08
-3.48364e-12
1.70656e-08
-2.5217e-08
-2.34791e-12
1.70658e-08
-2.52206e-08
-1.36299e-12
1.70615e-08
-2.52175e-08
2.49117e-12
1.70681e-08
-2.52204e-08
1.70532e-08
-2.52149e-08
-7.05429e-13
-5.46538e-10
-9.50328e-13
-5.46836e-10
-1.27621e-12
-5.46783e-10
-1.31504e-12
-5.46839e-10
-7.19897e-13
-5.46987e-10
-5.46764e-10
-1.66504e-12
2.22148e-08
-1.17731e-07
-1.2889e-13
2.22498e-08
-1.17773e-07
8.0069e-13
2.22531e-08
-1.17774e-07
1.54549e-12
2.22503e-08
-1.17768e-07
2.43768e-12
2.22533e-08
-1.17761e-07
2.22488e-08
-1.17717e-07
-1.96635e-14
5.79036e-10
-3.6063e-09
-2.9839e-14
5.79298e-10
-3.60829e-09
-3.56966e-14
5.79254e-10
-3.60855e-09
-2.61099e-14
5.7929e-10
-3.60832e-09
1.80487e-15
5.79369e-10
-3.60815e-09
5.7914e-10
-3.60689e-09
-2.08806e-16
-8.13886e-11
-1.4524e-16
-8.14293e-11
-1.59702e-16
-8.14315e-11
-9.38843e-17
-8.14277e-11
8.73988e-17
-8.14286e-11
-8.13876e-11
-6.08848e-13
4.46184e-09
-4.42839e-09
-1.87873e-13
4.46412e-09
-4.42912e-09
1.96716e-12
4.46446e-09
-4.42843e-09
3.86597e-12
4.46425e-09
-4.42775e-09
4.88418e-12
4.46403e-09
-4.42768e-09
4.46236e-09
-4.42522e-09
-8.09436e-14
2.04435e-10
-8.29179e-11
-1.31515e-13
2.04494e-10
-8.29321e-11
-1.13141e-13
2.04486e-10
-8.29216e-11
-3.84538e-14
2.04475e-10
-8.29136e-11
1.95065e-14
2.04479e-10
-8.29169e-11
2.04376e-10
-8.28709e-11
-8.97624e-16
-1.44353e-12
-1.11896e-15
-1.44384e-12
-9.28282e-16
-1.44369e-12
-5.09346e-16
-1.44357e-12
-1.50263e-16
-1.44363e-12
-1.4428e-12
1.5925e-13
1.34775e-10
-7.12696e-12
2.14773e-13
1.34793e-10
-7.14065e-12
2.46239e-13
1.34783e-10
-7.14449e-12
2.59728e-13
1.34783e-10
-7.13995e-12
2.75252e-13
1.34808e-10
-7.1243e-12
1.34742e-10
-7.11959e-12
-3.54006e-15
5.7389e-12
-1.18803e-13
7.03574e-17
5.7394e-12
-1.18837e-13
3.47913e-15
5.7388e-12
-1.18812e-13
5.31818e-15
5.73858e-12
-1.18845e-13
4.80934e-15
5.73937e-12
-1.18921e-13
5.73635e-12
-1.18858e-13
-3.12933e-17
-9.46045e-15
-1.29767e-17
-9.46081e-15
1.12402e-17
-9.46052e-15
2.53521e-17
-9.46171e-15
2.3437e-17
-9.46523e-15
-9.46144e-15
-3.1918e-15
3.84615e-13
-1.10749e-12
-6.33287e-15
3.84956e-13
-1.10739e-12
-8.16716e-15
3.85159e-13
-1.10712e-12
-7.69985e-15
3.85658e-13
-1.10708e-12
-3.65338e-15
3.86678e-13
-1.10753e-12
3.86275e-13
-1.10643e-12
-1.79896e-17
8.96931e-14
7.63661e-15
-1.41505e-17
8.96945e-14
7.6372e-15
-1.05684e-17
8.96933e-14
7.63808e-15
-3.68986e-18
8.97052e-14
7.64016e-15
9.21422e-18
8.97383e-14
7.64424e-15
8.97074e-14
7.64302e-15
4.60639e-20
-5.19452e-19
9.53361e-20
-5.20092e-19
1.65914e-19
-5.20931e-19
1.89045e-19
-5.21886e-19
1.37907e-19
-5.22965e-19
-5.22644e-19
-8.39154e-17
9.52e-14
1.92342e-14
-1.59805e-16
9.52138e-14
1.92424e-14
-2.00145e-16
9.52294e-14
1.92464e-14
-1.9017e-16
9.52574e-14
1.92513e-14
-1.13866e-16
9.53057e-14
1.92591e-14
9.52928e-14
1.92556e-14
-3.36054e-19
1.66222e-15
3.82654e-16
-1.01621e-18
1.6625e-15
3.82773e-16
-1.40501e-18
1.66267e-15
3.82839e-16
-1.34835e-18
1.66307e-15
3.82942e-16
-7.52655e-19
1.66387e-15
3.8312e-16
1.66337e-15
3.83039e-16
1.18283e-21
3.9693e-17
-1.0575e-21
3.97008e-17
-2.61365e-21
3.97052e-17
-2.66625e-21
3.97146e-17
-1.50417e-21
3.97329e-17
3.97229e-17
-4.46734e-19
1.73782e-15
1.10616e-15
-9.59297e-19
1.73833e-15
1.10657e-15
-1.18363e-18
1.73856e-15
1.10667e-15
-1.0972e-18
1.73896e-15
1.10684e-15
-7.19338e-19
1.73972e-15
1.10718e-15
1.73926e-15
1.10681e-15
-8.05155e-21
5.8628e-17
-6.23038e-17
-2.16469e-20
5.86451e-17
-6.24168e-17
-2.85367e-20
5.86507e-17
-6.24403e-17
-2.7364e-20
5.86615e-17
-6.24905e-17
-1.68664e-20
5.86827e-17
-6.26015e-17
5.86656e-17
-6.24835e-17
-8.68366e-23
4.672e-18
-1.8992e-22
4.67333e-18
-2.48375e-22
4.6737e-18
-2.38203e-22
4.67444e-18
-1.41657e-22
4.67595e-18
4.67459e-18
6.70155e-31
4.23625e-26
-1.98222e-23
1.15562e-25
4.09802e-31
4.23706e-26
-1.98264e-23
1.15584e-25
3.69154e-31
4.23703e-26
-1.98264e-23
1.15583e-25
3.93805e-31
4.23729e-26
-1.98277e-23
1.1559e-25
3.31929e-31
4.23802e-26
-1.98312e-23
1.15609e-25
4.23692e-26
-1.98259e-23
1.1558e-25
1.15718e-32
1.1883e-27
-3.05883e-25
1.39079e-27
8.24356e-33
1.18851e-27
-3.05941e-25
1.39103e-27
8.76522e-33
1.1885e-27
-3.05941e-25
1.39102e-27
7.96826e-33
1.18858e-27
-3.05963e-25
1.39111e-27
3.24495e-33
1.18879e-27
-3.0602e-25
1.39136e-27
1.18849e-27
-3.05943e-25
1.39102e-27
3.17182e-35
-9.12236e-28
2.89077e-30
2.55744e-35
-9.12395e-28
2.89125e-30
2.78848e-35
-9.1239e-28
2.89121e-30
1.97367e-35
-9.12456e-28
2.89141e-30
-6.89743e-36
-9.12626e-28
2.89192e-30
-9.12405e-28
2.89122e-30
9.50037e-29
7.60224e-24
-2.3558e-21
1.70948e-29
7.60382e-24
-2.35636e-21
4.72592e-30
7.60383e-24
-2.3564e-21
-8.54471e-31
7.60432e-24
-2.35657e-21
-2.3437e-29
7.60566e-24
-2.35702e-21
7.60362e-24
-2.35635e-21
1.39866e-30
2.74476e-25
-4.60632e-23
5.15782e-31
2.74527e-25
-4.60727e-23
4.8822e-31
2.74526e-25
-4.60732e-23
1.08116e-31
2.74545e-25
-4.60768e-23
-1.46681e-30
2.74596e-25
-4.60859e-23
2.74526e-25
-4.60738e-23
2.64813e-33
-1.89413e-25
7.52302e-34
-1.89448e-25
1.82162e-33
-1.89449e-25
-9.39756e-34
-1.89463e-25
-1.03913e-32
-1.895e-25
-1.89452e-25
2.74314e-27
9.31522e-22
-1.93725e-19
-8.00339e-27
9.3174e-22
-1.93779e-19
-1.18124e-26
9.31751e-22
-1.93785e-19
-1.28449e-26
9.31819e-22
-1.93802e-19
-1.15073e-26
9.31994e-22
-1.93843e-19
9.3173e-22
-1.93785e-19
-7.99075e-29
4.24301e-23
-4.68139e-21
-1.9509e-28
4.24387e-23
-4.68248e-21
-2.25758e-28
4.2439e-23
-4.68259e-21
-2.52753e-28
4.24422e-23
-4.68301e-21
-3.64824e-28
4.24504e-23
-4.68401e-21
4.24393e-23
-4.68273e-21
-1.0374e-30
-2.57233e-23
-1.1901e-30
-2.57285e-23
-1.11052e-30
-2.57288e-23
-1.56286e-30
-2.5731e-23
-2.60804e-30
-2.57362e-23
-2.57296e-23
-4.99588e-25
7.83198e-20
-1.12496e-17
-1.64337e-24
7.83413e-20
-1.12533e-17
-2.13271e-24
7.83436e-20
-1.1254e-17
-2.03134e-24
7.83504e-20
-1.12553e-17
-1.37393e-24
7.83669e-20
-1.12581e-17
7.83432e-20
-1.12544e-17
-2.45001e-26
4.39318e-21
-3.21969e-19
-4.85322e-26
4.39419e-21
-3.22056e-19
-5.58279e-26
4.39429e-21
-3.2207e-19
-5.30377e-26
4.39467e-21
-3.22106e-19
-4.84801e-26
4.3956e-21
-3.22185e-19
4.3944e-21
-3.22091e-19
-2.06893e-28
-2.27852e-21
-3.04448e-28
-2.27905e-21
-3.68599e-28
-2.27911e-21
-3.8722e-28
-2.27933e-21
-3.50642e-28
-2.27985e-21
-2.27924e-21
-3.06358e-23
4.51423e-18
-4.82036e-16
-1.23483e-22
4.51571e-18
-4.82228e-16
-1.5812e-22
4.51597e-18
-4.82275e-16
-1.45292e-22
4.51647e-18
-4.82349e-16
-7.62195e-23
4.5176e-18
-4.825e-16
4.51613e-18
-4.82332e-16
-2.46223e-24
3.0536e-19
-1.53996e-17
-5.05367e-24
3.05441e-19
-1.54045e-17
-5.63844e-24
3.05454e-19
-1.54056e-17
-4.9219e-24
3.05487e-19
-1.54077e-17
-2.8531e-24
3.05561e-19
-1.54123e-17
3.05473e-19
-1.54075e-17
-2.29243e-26
-1.30838e-19
-4.57319e-26
-1.30872e-19
-5.38693e-26
-1.30879e-19
-4.68829e-26
-1.30894e-19
-2.65974e-26
-1.30929e-19
-1.30892e-19
-1.48013e-21
2.3851e-16
-5.73223e-21
2.38605e-16
-7.31132e-21
2.38629e-16
-6.57743e-21
2.38665e-16
-3.81356e-21
2.38741e-16
2.38658e-16
-1.48048e-22
1.50368e-17
-2.71703e-22
1.50415e-17
-3.1026e-22
1.50426e-17
-2.80087e-22
1.50446e-17
-1.49636e-22
1.50491e-17
1.50445e-17
-2.22048e-24
-3.46641e-24
-3.69671e-24
-3.3033e-24
-1.78534e-24
2.31046e-77
2.52768e-73
-4.4129e-69
-6.79433e-78
2.52848e-73
-4.41435e-69
-1.903e-77
2.52839e-73
-4.41413e-69
-2.60498e-77
2.52856e-73
-4.41441e-69
-3.07228e-77
2.529e-73
-4.41515e-69
2.52833e-73
-4.41395e-69
3.29525e-81
1.09455e-76
-1.53139e-72
-3.79005e-81
1.09489e-76
-1.53187e-72
-6.6844e-81
1.09485e-76
-1.53181e-72
-8.62235e-81
1.09493e-76
-1.5319e-72
-1.01378e-80
1.09513e-76