/*--------------------------------*- C++ -*----------------------------------*\
| =========                 |                                                 |
| \\      /  F ield         | OpenFOAM: The Open Source CFD Toolbox           |
|  \\    /   O peration     | Version:  v1612+                                |
|   \\  /    A nd           | Web:      www.OpenFOAM.com                      |
|    \\/     M anipulation  |                                                 |
\*---------------------------------------------------------------------------*/
FoamFile
{
    version     2.0;
    format      ascii;
    class       surfaceScalarField;
    location    "1.05";
    object      phi;
}
// * * * * * * * * * * * * * * * * * * * * * * * * * * * * * * * * * * * * * //

dimensions      [0 3 -1 0 0 0 0];

internalField   nonuniform List<scalar> 
2916
(
3.82778e-07
0.286349
-0.286349
1.37362e-07
0.28635
-0.28635
-2.12523e-08
0.28635
-0.28635
1.70481e-08
0.28635
-0.28635
1.57581e-07
0.28635
-0.28635
0.286349
-0.286349
8.77364e-07
0.674611
-0.388263
1.0723e-06
0.674614
-0.388264
1.46901e-06
0.674614
-0.388264
1.55403e-06
0.674613
-0.388263
1.02487e-06
0.674613
-0.388263
0.674611
-0.388261
2.54788e-06
1.2589
-0.584288
4.29499e-06
1.2589
-0.584288
4.9337e-06
1.2589
-0.584285
4.30206e-06
1.2589
-0.584284
2.62886e-06
1.2589
-0.584282
1.25889
-0.58428
3.67926e-07
2.0451
-0.786202
4.60981e-06
2.0451
-0.786208
6.73468e-06
2.0451
-0.786206
6.55054e-06
2.0451
-0.786204
4.9075e-06
2.0451
-0.786203
2.0451
-0.786202
4.42355e-06
3.00901
-0.963915
8.42604e-06
3.00903
-0.96393
8.92305e-06
3.00903
-0.963925
7.99816e-06
3.00903
-0.963924
6.03198e-06
3.00903
-0.963928
3.00902
-0.963918
8.92267e-06
4.34309
-1.33409
6.28402e-06
4.34312
-1.33409
-6.23028e-06
4.34311
-1.33407
-2.16565e-05
4.34311
-1.33407
-2.18196e-05
4.34313
-1.3341
4.34311
-1.3341
4.83567e-05
4.91357
-0.570524
3.34979e-05
4.91362
-0.570483
-1.12024e-05
4.91361
-0.570456
-3.99833e-05
4.9136
-0.570465
-5.75321e-05
4.91365
-0.570505
4.91347
-0.570418
-7.2026e-05
3.84042
1.07322
-7.51786e-05
3.84034
1.07328
-5.95303e-05
3.84033
1.07325
-4.83119e-05
3.84037
1.07323
-2.36829e-05
3.84047
1.07316
3.84028
1.07316
1.72425e-05
2.52883
1.31157
-3.64495e-05
2.52885
1.31155
-1.5563e-05
2.52882
1.31149
1.87913e-05
2.52885
1.31149
7.02689e-05
2.52892
1.3115
2.52882
1.31153
8.62684e-05
1.41434
1.1144
0.000161243
1.41451
1.11426
0.0002221
1.4145
1.11425
0.000231318
1.41451
1.11433
0.000187793
1.41452
1.11444
1.41447
1.11453
0.000173269
0.682024
0.732147
0.000302082
0.682148
0.732231
0.000327132
0.682152
0.732319
0.000291809
0.682136
0.732402
0.000193047
0.682115
0.732498
0.682081
0.73258
6.23182e-05
0.681961
0.000137349
0.68207
0.000171029
0.682116
0.000164495
0.682145
0.000108504
0.682172
0.68219
-7.61741e-07
0.215609
-0.501957
-1.83899e-06
0.215609
-0.501958
-2.09467e-06
0.215608
-0.501958
-1.52498e-06
0.215607
-0.501958
-6.71504e-07
0.215606
-0.501957
0.215606
-0.501956
1.40966e-06
0.5494
-0.722056
5.20484e-07
0.549403
-0.722057
1.52489e-07
0.549401
-0.722056
-6.24923e-07
0.549399
-0.722055
-9.52806e-07
0.549398
-0.722054
0.549396
-0.722052
7.52253e-06
1.03217
-1.06707
7.84433e-06
1.03218
-1.06707
7.3961e-06
1.03218
-1.06706
5.59662e-06
1.03218
-1.06706
3.61229e-06
1.03218
-1.06706
1.03217
-1.06705
6.24733e-06
1.76498
-1.51902
1.02048e-05
1.765
-1.51903
9.8001e-06
1.765
-1.51902
7.5278e-06
1.765
-1.51902
5.01865e-06
1.765
-1.51902
1.765
-1.51902
1.29668e-06
3.07758
-2.27651
1.67994e-05
3.07761
-2.27655
1.7464e-05
3.07761
-2.27654
1.25329e-05
3.07762
-2.27654
3.59447e-06
3.07762
-2.27655
3.07761
-2.27653
-1.50206e-06
4.48724
-2.74375
-1.63706e-05
4.48724
-2.74371
-2.70595e-05
4.48723
-2.74368
-7.54896e-06
4.48722
-2.74369
-6.63519e-05
4.48736
-2.74377
4.48715
-2.74371
-3.14116e-05
4.52396
-0.607216
-0.000152705
4.52398
-0.607096
-0.000208608
4.52395
-0.607121
-0.000245252
4.52393
-0.607137
-0.000330789
4.52413
-0.607197
4.52358
-0.60718
2.78911e-08
3.0704
2.52678
-9.50259e-05
3.07044
2.52691
-8.75494e-05
3.07036
2.52684
-5.74795e-05
3.07034
2.52679
-2.70658e-05
3.07051
2.52675
3.07007
2.52664
1.79773e-05
1.66808
2.71388
3.25074e-05
1.66815
2.71382
6.40189e-05
1.66809
2.71373
8.46176e-05
1.66811
2.71369
0.000138793
1.66822
2.71373
1.6681
2.71364
0.000145069
0.998594
1.78374
0.000182848
0.998727
1.78365
0.000113452
0.998733
1.78368
4.56644e-05
0.998736
1.78376
4.01951e-05
0.998758
1.78391
0.998721
1.78395
3.24482e-05
0.479575
1.25113
7.30902e-05
0.479677
1.25124
6.93307e-05
0.479693
1.25136
4.8666e-05
0.479684
1.25148
3.02882e-05
0.479666
1.25161
0.479628
1.2517
-5.7853e-05
1.16159
-1.27857e-05
1.1617
4.10619e-05
1.16175
6.88615e-05
1.1618
5.8929e-05
1.16185
1.16188
6.10894e-07
0.0605503
-0.562508
-1.237e-07
0.0605503
-0.562508
-1.36577e-07
0.0605488
-0.562507
3.66053e-07
0.0605481
-0.562506
5.84829e-07
0.0605484
-0.562506
0.0605496
-0.562505
5.71993e-06
0.256111
-0.917622
5.13367e-06
0.256117
-0.917623
4.30723e-06
0.256116
-0.917622
2.93379e-06
0.256115
-0.917621
1.96206e-06
0.256116
-0.91762
0.256118
-0.917618
1.14439e-05
0.568474
-1.37944
9.71748e-06
0.568496
-1.37945
6.18335e-06
0.568497
-1.37944
3.90563e-06
0.568496
-1.37944
3.73948e-06
0.568494
-1.37944
0.568496
-1.37943
1.11812e-05
1.49254
-2.4431
1.37257e-05
1.49258
-2.44311
1.49526e-05
1.49258
-2.4431
1.79021e-05
1.49258
-2.4431
1.54606e-05
1.49258
-2.4431
1.49257
-2.44308
1.62395e-05
2.63396
-3.41794
2.40572e-05
2.63406
-3.41804
2.46191e-05
2.63406
-3.41802
2.70093e-05
2.63405
-3.41801
1.90662e-05
2.63405
-3.41802
2.63403
-3.41798
-2.56817e-05
0.916602
-1.02637
-6.24516e-05
0.916759
-1.02637
-1.60186e-05
0.916711
-1.02639
1.0012e-05
0.916733
-1.02639
-7.40233e-05
0.916852
-1.02648
0.916882
-1.02664
1.34854e-05
-0.25855
0.56793
-3.35582e-05
-0.258362
0.568064
-1.88551e-06
-0.25845
0.567998
3.25642e-06
-0.258412
0.568003
-0.000116608
-0.258182
0.567955
-0.258201
0.567787
-5.13811e-05
-0.185428
2.45371
3.58789e-05
-0.185369
2.45383
4.25189e-05
-0.18542
2.45381
8.41097e-06
-0.185385
2.45379
-2.06308e-05
-0.185189
2.45378
-0.185209
2.45363
3.34442e-05
0.193343
2.33507
8.35941e-05
0.193327
2.33508
1.3995e-05
0.193336
2.33505
-7.16847e-05
0.19338
2.33501
-4.26012e-05
0.193496
2.33501
0.193527
2.33486
3.53051e-05
0.296464
1.68058
-5.65009e-05
0.296495
1.68057
-0.000177715
0.296512
1.68062
-0.000243028
0.296518
1.68069
-0.000180719
0.296538
1.6808
0.29652
1.68078
-0.000119777
0.168678
1.37904
-0.000214655
0.16871
1.37911
-0.000240421
0.1687
1.37919
-0.00021843
0.168679
1.37929
-0.000142011
0.168652
1.37942
0.168605
1.37947
-6.1806e-05
1.33033
-4.41463e-05
1.33039
-8.46948e-06
1.33042
1.73568e-05
1.33045
2.82327e-05
1.33049
1.33051
6.87502e-06
-0.280223
-0.282292
5.63891e-06
-0.28022
-0.282287
5.42596e-06
-0.280219
-0.282288
4.79799e-06
-0.280219
-0.282287
3.17029e-06
-0.280217
-0.282287
-0.280214
-0.282288
9.78758e-06
-0.268201
-0.929655
8.34312e-06
-0.268186
-0.929656
5.82264e-06
-0.268183
-0.929656
4.22907e-06
-0.268182
-0.929656
3.89821e-06
-0.26818
-0.929657
-0.268171
-0.929657
4.08023e-06
0.348237
-1.99589
3.66306e-06
0.348268
-1.9959
2.74663e-06
0.348271
-1.9959
3.40739e-06
0.348272
-1.99589
3.85179e-06
0.348274
-1.99589
0.34828
-1.99588
4.48693e-06
2.36422
-4.45908
1.53189e-05
2.36426
-4.45912
2.30123e-05
2.36428
-4.45912
1.92536e-05
2.3643
-4.45913
5.04053e-06
2.36434
-4.45915
2.36436
-4.45915
1.50038e-05
1.1158
-2.16954
2.13061e-05
1.11594
-2.16973
6.19921e-05
1.11591
-2.16969
8.37847e-05
1.11595
-2.16968
5.33016e-05
1.11607
-2.16972
1.11612
-2.16968
-1.95386e-05
-0.624948
0.714397
-1.26753e-05
-0.624867
0.714424
3.91192e-05
-0.624926
0.714385
6.45312e-05
-0.624871
0.714408
1.63412e-05
-0.624731
0.714373
-0.624652
0.714148
-6.3674e-05
-1.46156
1.40461
0.000127051
-1.46166
1.40467
0.000202507
-1.46164
1.40465
0.000197465
-1.46156
1.40469
0.000127487
-1.46144
1.40473
-1.46132
1.40459
6.303e-06
-0.790258
1.78238
0.000107179
-0.790383
1.78245
0.000113274
-0.790326
1.7825
6.45169e-05
-0.790238
1.78251
4.12687e-05
-0.790124
1.78249
-0.790022
1.78238
0.000107851
-0.209766
1.75447
4.0781e-05
-0.209795
1.75456
-4.91505e-05
-0.209737
1.75454
-0.000103547
-0.209675
1.7545
-6.0295e-05
-0.209605
1.75445
-0.209545
1.75432
-3.95422e-05
-0.00682373
1.47768
-0.00020892
-0.00677649
1.47772
-0.000311184
-0.00674786
1.47773
-0.000320166
-0.0067304
1.47775
-0.000207524
-0.00671448
1.4778
-0.00671579
1.47774
-0.000163324
0.0272827
1.34509
-0.000269571
0.0273154
1.34512
-0.000306253
0.0273121
1.34517
-0.000280222
0.0272976
1.34524
-0.000177483
0.0272776
1.34532
0.0272438
1.34533
-5.63798e-05
1.35767
-4.35599e-05
1.35769
-2.39827e-05
1.35771
-8.01811e-06
1.35773
2.91103e-06
1.35775
1.35775
6.03943e-08
-0.000528778
0.000528717
-4.1963e-08
-0.000528862
0.000528722
-7.66139e-08
-0.000528891
0.00052871
-8.89856e-08
-0.000528898
0.000528712
-7.50424e-08
-0.000528904
0.000528706
-0.000528919
0.000528675
-1.95527e-07
-0.00107809
0.000549277
-1.45374e-07
-0.00107821
0.000549288
-1.39258e-07
-0.00107823
0.000549301
-1.26773e-07
-0.00107823
0.0005493
-1.07272e-07
-0.00107822
0.000549299
-0.00107819
0.000549282
-5.19191e-07
-0.00166623
0.000588597
-2.40249e-07
-0.00166635
0.00058864
-1.34636e-07
-0.00166634
0.000588666
-6.71024e-08
-0.00166632
0.00058868
-1.90681e-08
-0.00166629
0.000588696
-0.00166621
0.00058871
-8.11876e-07
-0.00230734
0.000642237
-2.72294e-07
-0.00230742
0.000642315
-4.05989e-08
-0.00230739
0.000642356
9.10539e-08
-0.00230734
0.00064239
1.74656e-07
-0.00230728
0.000642426
-0.00230718
0.000642474
-9.42542e-07
-0.00300654
0.000700927
-1.71718e-07
-0.00300654
0.000701012
1.52441e-07
-0.00300649
0.00070107
3.43612e-07
-0.00300642
0.000701113
4.40822e-07
-0.00300636
0.000701167
-0.00300625
0.000701235
-7.85393e-07
-0.00375108
0.000746547
6.16907e-08
-0.00375101
0.000746619
4.34597e-07
-0.00375095
0.000746671
6.27741e-07
-0.00375088
0.000746722
6.94587e-07
-0.00375084
0.000746781
-0.00375075
0.000746856
-4.22302e-07
-0.00449641
0.000747162
3.19205e-07
-0.00449634
0.000747173
6.16451e-07
-0.00449627
0.000747219
7.68697e-07
-0.00449627
0.000747251
7.85148e-07
-0.00449628
0.000747302
-0.00449621
0.000747363
-7.09004e-08
-0.00515096
0.000655834
3.93121e-07
-0.00515098
0.000655738
6.05572e-07
-0.00515096
0.000655731
7.10042e-07
-0.005151
0.00065573
6.74953e-07
-0.00515104
0.000655755
-0.00515099
0.000655789
1.17728e-07
-0.00553442
0.000384036
2.98953e-07
-0.00553451
0.00038376
4.19271e-07
-0.00553453
0.000383695
4.67149e-07
-0.00553458
0.00038368
4.03177e-07
-0.00553461
0.00038371
-0.00553452
0.000383767
1.01278e-07
-0.00520243
-0.000331992
1.08757e-07
-0.0052026
-0.000332265
1.63149e-07
-0.00520265
-0.000332303
1.73884e-07
-0.00520267
-0.000332292
1.1583e-07
-0.00520266
-0.000332231
-0.00520247
-0.000332111
7.37624e-08
-0.00374205
-0.00146075
2.21381e-08
-0.00374219
-0.00146085
1.63807e-08
-0.00374222
-0.0014608
-9.44049e-11
-0.00374222
-0.00146073
-4.75292e-08
-0.00374219
-0.00146058
-0.00374198
-0.00146031
-2.11973e-07
-0.00374219
-2.9218e-07
-0.00374219
-3.31185e-07
-0.00374215
-3.20346e-07
-0.00374209
-2.90406e-07
-0.00374197
-0.00374169
2.90582e-08
-0.000529835
0.00105832
-6.67521e-08
-0.000529911
0.00105833
-1.18346e-07
-0.000529914
0.00105833
-1.36562e-07
-0.000529924
0.00105833
-1.38924e-07
-0.000529926
0.00105833
-0.000529928
0.00105831
-1.6663e-07
-0.00108379
0.0011032
-1.58984e-07
-0.00108388
0.00110321
-1.51043e-07
-0.00108388
0.00110322
-1.44448e-07
-0.00108387
0.00110323
-1.26052e-07
-0.00108385
0.00110323
-0.00108379
0.00110322
-3.80166e-07
-0.00168448
0.00119002
-1.79272e-07
-0.00168457
0.00119006
-9.97566e-08
-0.00168455
0.00119008
-3.21047e-08
-0.00168451
0.00119009
4.35871e-08
-0.00168446
0.0011901
-0.00168436
0.00119009
-5.351e-07
-0.00235148
0.00131089
-1.12283e-07
-0.00235153
0.00131096
6.12387e-08
-0.00235148
0.00131098
2.01993e-07
-0.00235142
0.001311
3.5125e-07
-0.00235134
0.00131102
-0.00235122
0.001311
-5.17075e-07
-0.00309724
0.00144911
7.31462e-08
-0.00309724
0.00144918
3.32764e-07
-0.00309718
0.0014492
5.27612e-07
-0.00309711
0.00144922
7.2019e-07
-0.00309704
0.00144923
-0.00309693
0.00144921
-2.93688e-07
-0.00391779
0.00156975
3.5311e-07
-0.00391778
0.00156979
6.19204e-07
-0.00391773
0.00156981
8.10482e-07
-0.00391769
0.00156981
9.71112e-07
-0.00391766
0.00156981
-0.00391759
0.00156977
-3.17488e-08
-0.0047689
0.00160051
4.93522e-07
-0.00476898
0.00160045
7.38603e-07
-0.00476899
0.00160043
8.87531e-07
-0.004769
0.00160041
9.84781e-07
-0.004769
0.00160039
-0.00476893
0.00160035
1.44534e-07
-0.00551655
0.00140478
4.57058e-07
-0.00551673
0.00140456
5.95656e-07
-0.00551678
0.00140447
6.56727e-07
-0.00551684
0.00140443
6.55434e-07
-0.00551687
0.00140441
-0.00551682
0.00140441
5.58572e-08
-0.00595156
0.000819446
2.20202e-07
-0.00595189
0.000819089
3.19082e-07
-0.00595198
0.000818973
3.52534e-07
-0.005952
0.000818939
2.78031e-07
-0.00595195
0.00081896
-0.00595174
0.000819048
-3.89632e-07
-0.00591795
-0.000365477
-1.42432e-07
-0.00591821
-0.000366138
8.33697e-08
-0.00591825
-0.000366192
2.06355e-07
-0.00591822
-0.000366058
1.7382e-07
-0.00591811
-0.000365785
-0.00591775
-0.000365299
-4.01065e-07
-0.0044075
-0.0029712
-1.29246e-07
-0.00440763
-0.0029712
1.95613e-08
-0.00440762
-0.002971
9.05527e-08
-0.00440756
-0.00297071
1.01764e-07
-0.00440743
-0.00297031
-0.00440708
-0.0029696
-6.72066e-07
-0.00814908
-4.73435e-07
-0.00814897
-4.08537e-07
-0.00814879
-3.03069e-07
-0.00814857
-9.66344e-08
-0.00814828
-0.00814768
2.22671e-08
-0.000508636
0.00156672
-6.1617e-08
-0.000508695
0.00156673
-1.10326e-07
-0.000508687
0.00156674
-1.29914e-07
-0.000508692
0.00156674
-1.33818e-07
-0.000508688
0.00156675
-0.000508684
0.00156673
-1.19458e-07
-0.00104697
0.00164144
-1.26451e-07
-0.00104703
0.00164146
-1.24247e-07
-0.00104702
0.00164148
-1.20852e-07
-0.00104701
0.00164149
-1.07873e-07
-0.00104698
0.00164149
-0.00104692
0.00164147
-2.46825e-07
-0.00164528
0.00178883
-9.85066e-08
-0.00164533
0.00178887
-4.22497e-08
-0.0016453
0.00178889
9.31248e-09
-0.00164526
0.0017889
6.31573e-08
-0.00164521
0.0017889
-0.00164511
0.00178888
-2.92457e-07
-0.00233489
0.00200169
1.43139e-08
-0.00233491
0.00200176
1.47055e-07
-0.00233486
0.00200177
2.51496e-07
-0.0023348
0.00200178
3.53734e-07
-0.00233473
0.00200177
-0.00233462
0.00200173
-1.83135e-07
-0.0031459
0.00226181
2.37723e-07
-0.0031459
0.00226188
4.1324e-07
-0.00314585
0.00226189
5.44331e-07
-0.00314579
0.00226188
6.57163e-07
-0.00314575
0.00226186
-0.00314566
0.00226179
4.75586e-08
-0.00410498
0.00253057
4.4931e-07
-0.00410502
0.0025306
6.22901e-07
-0.00410499
0.00253058
7.29497e-07
-0.00410499
0.00253055
7.97354e-07
-0.00410499
0.00253051
-0.00410494
0.00253043
2.34364e-07
-0.00523908
0.00273589
5.07683e-07
-0.00523922
0.00273583
6.18689e-07
-0.00523927
0.00273577
6.67307e-07
-0.00523932
0.00273571
6.80918e-07
-0.00523937
0.00273566
-0.00523934
0.00273558
1.52924e-07
-0.00661281
0.00277919
3.15569e-07
-0.0066131
0.00277899
3.70709e-07
-0.00661319
0.00277887
3.85345e-07
-0.00661327
0.00277881
3.60586e-07
-0.00661331
0.00277877
-0.00661323
0.00277875
-3.12046e-07
-0.0081764
0.00238356
-7.56299e-08
-0.00817678
0.00238318
4.4059e-08
-0.00817685
0.00238306
1.12834e-07
-0.00817687
0.00238304
1.13051e-07
-0.00817683
0.00238312
-0.00817659
0.00238328
-6.19354e-07
-0.00866103
0.000119863
-2.67941e-07
-0.00866136
0.000119588
-1.39946e-07
-0.00866136
0.000119615
-7.0171e-08
-0.00866124
0.000119768
6.49134e-08
-0.00866102
0.000120026
-0.00866056
0.000120442
-9.56775e-07
-0.00720218
-0.00442846
-3.56481e-07
-0.0072022
-0.00442826
-1.32818e-07
-0.00720207
-0.00442797
-3.00644e-09
-0.00720185
-0.00442761
2.2929e-07
-0.00720157
-0.00442718
-0.00720112
-0.00442654
-1.08789e-06
-0.0153489
-5.07019e-07
-0.015349
-2.12532e-07
-0.0153486
4.73563e-08
-0.0153482
4.45486e-07
-0.0153477
-0.0153471
7.4135e-09
-0.000461005
0.00202752
-5.5866e-08
-0.000461047
0.00202753
-9.37217e-08
-0.000461034
0.00202755
-1.09701e-07
-0.000461034
0.00202755
-1.13405e-07
-0.000461029
0.00202756
-0.000461022
0.00202754
-7.63488e-08
-0.000957478
0.00213781
-9.06033e-08
-0.000957517
0.00213784
-9.27819e-08
-0.000957502
0.00213786
-9.16732e-08
-0.000957484
0.00213786
-8.50103e-08
-0.00095746
0.00213787
-0.000957407
0.00213785
-1.27196e-07
-0.00152881
0.00236046
-4.22137e-08
-0.00152884
0.0023605
-7.33345e-09
-0.00152881
0.00236052
2.24511e-08
-0.00152877
0.00236052
5.45761e-08
-0.00152872
0.00236052
-0.00152864
0.00236049
-9.35218e-08
-0.00222353
0.00269715
9.01957e-08
-0.00222354
0.0026972
1.64551e-07
-0.00222349
0.00269721
2.22097e-07
-0.00222344
0.0026972
2.76374e-07
-0.00222339
0.00269719
-0.00222331
0.00269712
7.01843e-08
-0.00310309
0.00314232
2.81353e-07
-0.0031031
0.00314237
3.70165e-07
-0.00310306
0.00314236
4.27038e-07
-0.00310302
0.00314233
4.65286e-07
-0.003103
0.00314229
-0.00310294
0.0031422
2.90422e-07
-0.00423306
0.0036613
4.3263e-07
-0.00423311
0.00366133
4.73654e-07
-0.0042331
0.00366128
4.7879e-07
-0.00423311
0.00366123
4.72402e-07
-0.00423313
0.00366117
-0.00423309
0.00366105
3.51038e-07
-0.00564114
0.0041443
3.94861e-07
-0.00564129
0.00414427
3.79607e-07
-0.00564132
0.00414419
3.40175e-07
-0.00564136
0.00414413
3.01743e-07
-0.00564139
0.00414406
-0.00564133
0.00414395
8.4372e-08
-0.00721026
0.00434843
1.49047e-07
-0.0072105
0.00434833
1.23579e-07
-0.00721053
0.00434824
9.0176e-08
-0.00721055
0.00434818
5.80011e-08
-0.00721054
0.00434816
-0.00721039
0.00434811
-4.07547e-07
-0.00862927
0.00380312
-9.06103e-08
-0.00862949
0.00380298
-6.28376e-09
-0.00862942
0.00380292
2.24279e-08
-0.00862931
0.00380292
6.67855e-08
-0.00862914
0.00380298
-0.00862876
0.00380305
-8.73996e-07
-0.0101647
0.00165706
-1.47049e-07
-0.0101647
0.00165708
1.56409e-07
-0.0101645
0.00165713
3.26966e-07
-0.0101642
0.00165726
5.31307e-07
-0.0101638
0.00165745
-0.0101631
0.00165767
-1.03466e-06
-0.00859263
-0.00599752
6.88075e-08
-0.00859229
-0.00599722
5.62382e-07
-0.00859197
-0.0059969
8.83306e-07
-0.00859163
-0.00599649
1.03352e-06
-0.00859131
-0.00599602
-0.00859088
-0.0059954
-7.51552e-07
-0.023938
-9.80854e-08
-0.023938
3.38235e-07
-0.0239377
7.6173e-07
-0.0239372
1.0382e-06
-0.0239368
-0.0239363
1.38442e-05
0.397629
-0.679935
1.06703e-05
0.397644
-0.679928
6.99531e-06
0.397644
-0.679928
4.54019e-06
0.397644
-0.679929
3.83764e-06
0.397643
-0.67993
0.397642
-0.679925
1.25219e-05
2.39486
-1.99724
1.00382e-05
2.39488
-1.99723
8.38512e-06
2.39488
-1.99723
8.58457e-06
2.39488
-1.99723
1.06651e-05
2.39488
-1.99723
2.39487
-1.99722
1.79099e-05
-3.85559
1.90958e-05
-3.85558
1.94716e-05
-3.85558
2.96705e-05
-3.85558
3.74728e-05
-3.85558
-3.85554
-1.95686e-06
-0.806929
-0.80266
-6.39163e-07
-0.806924
-0.802661
-6.50353e-08
-0.806925
-0.802659
-8.04922e-07
-0.806924
-0.802659
-2.77339e-06
-0.806925
-0.80266
-0.806917
-0.802668
1.33016e-05
-2.95018
0.145994
-3.48456e-06
-2.95032
0.146177
2.61118e-10
-2.95029
0.146134
2.46779e-06
-2.95029
0.146135
2.4e-06
-2.95025
0.146094
-2.95059
0.146452
7.91735e-05
-2.94475
2.15678e-06
-2.94479
7.30989e-06
-2.94479
3.60206e-05
-2.9448
0.000173751
-2.94482
-2.94487
7.86345e-06
-3.33494
0.536387
2.60149e-06
-3.33495
0.536397
7.34734e-06
-3.33495
0.53639
6.20159e-06
-3.33495
0.536393
-1.87128e-05
-3.33493
0.536403
-3.33499
0.536424
-1.77516e-05
-3.6009
0.411971
-2.94741e-05
-3.60087
0.412108
-4.35732e-05
-3.60087
0.412073
-8.33197e-05
-3.60085
0.412081
-0.000148494
-3.60086
0.412093
-3.6009
0.412218
-6.18613e-05
-1.82972
-8.3264e-05
-1.82974
-8.20895e-05
-1.82973
-6.11744e-05
-1.82971
-1.74846e-05
-1.82969
-1.82963
3.56199e-05
-4.79434
0.871607
6.23483e-05
-4.79448
0.871734
5.76995e-05
-4.79449
0.871762
3.15024e-05
-4.7945
0.871787
3.31355e-06
-4.79454
0.871819
-4.79452
0.871793
6.41097e-05
-3.86533
-0.517101
9.11858e-05
-3.86544
-0.516959
8.15188e-05
-3.86546
-0.51694
7.99724e-05
-3.8655
-0.516915
2.8692e-05
-3.86556
-0.516834
-3.86551
-0.516764
3.208e-05
-2.43388
2.00852e-05
-2.43392
8.81008e-07
-2.43392
-2.08993e-05
-2.43392
-3.95175e-05
-2.43389
-2.43385
0.000125278
-0.854165
-0.443893
9.55177e-05
-0.854284
-0.443686
7.79363e-05
-0.85426
-0.443647
6.07487e-05
-0.854275
-0.443603
2.52275e-05
-0.854336
-0.443526
-0.854339
-0.443525
8.73918e-06
0.123126
-1.4944
-2.90658e-05
0.123168
-1.49437
-4.39039e-05
0.123175
-1.49436
-3.32367e-05
0.123164
-1.49436
-1.56381e-05
0.123142
-1.49433
0.123161
-1.49428
-4.4194e-06
-1.66115
-5.94329e-06
-1.66119
-9.39039e-06
-1.66121
-1.02452e-05
-1.66122
-3.1993e-06
-1.66122
-1.66119
-0.000101311
1.43474
-1.16414
-4.80403e-05
1.43481
-1.16413
1.07134e-05
1.43481
-1.16412
7.74774e-05
1.43484
-1.1641
0.000128893
1.43486
-1.16406
1.43478
-1.16403
-5.89366e-05
0.935866
-0.995468
-2.70677e-05
0.935901
-0.995487
-2.107e-05
0.935925
-0.995486
-1.38177e-05
0.935957
-0.995489
2.10604e-05
0.935984
-0.99549
0.935986
-0.995458
-1.69019e-05
-0.953067
-2.47081e-05
-0.953094
-3.70009e-05
-0.953104
-3.7783e-05
-0.953118
-1.84175e-05
-0.953132
-0.95312
-5.793e-05
0.976343
-0.735824
-6.18822e-06
0.976354
-0.735863
2.53711e-05
0.976359
-0.735858
4.19564e-05
0.976403
-0.735829
6.8278e-05
0.976444
-0.735804
0.976392
-0.73576
-2.11025e-05
0.584239
-0.603342
-3.22964e-05
0.584247
-0.603364
-4.56802e-05
0.584251
-0.603366
-3.43246e-05
0.584262
-0.603356
-9.35705e-08
0.584272
-0.603348
0.584259
-0.603323
-4.57327e-06
-0.624646
-6.65637e-06
-0.624669
-8.11224e-06
-0.624671
-4.49444e-06
-0.624673
4.09618e-06
-0.624675
-0.624656
-1.16885e-05
1.44009
-0.393519
2.92618e-06
1.44013
-0.393551
1.16431e-05
1.44016
-0.393537
2.42621e-05
1.44017
-0.393505
3.58271e-05
1.44016
-0.393479
1.4401
-0.393448
-1.63652e-05
1.09476
-0.257992
-3.3602e-05
1.09478
-0.258001
-3.45435e-05
1.09479
-0.257997
-1.43142e-05
1.09479
-0.257993
4.0245e-06
1.09479
-0.257991
1.09477
-0.257981
-1.54824e-05
-0.266003
-2.3438e-05
-0.266013
-2.06082e-05
-0.266011
-1.18232e-05
-0.266009
-3.27195e-06
-0.266008
-0.265998
2.27548e-05
1.3523
0.00862767
3.08669e-05
1.35238
0.00861941
2.65962e-05
1.35238
0.00862842
2.94634e-05
1.35236
0.00863971
3.56776e-05
1.35232
0.00864876
1.35225
0.00865836
-2.40395e-05
1.12369
-0.029363
-7.73751e-06
1.12372
-0.0293659
1.51086e-05
1.12372
-0.0293641
3.21326e-05
1.12372
-0.0293665
3.31649e-05
1.12371
-0.0293717
1.12368
-0.0293724
-1.59035e-05
-0.118514
-1.22066e-05
-0.118517
-1.79795e-06
-0.118516
6.25826e-06
-0.118515
8.58171e-06
-0.118516
-0.118511
-4.02329e-05
1.27803
0.208313
-8.17816e-05
1.27806
0.208314
-0.000104885
1.27806
0.208317
-9.67558e-05
1.27807
0.208318
-4.68899e-05
1.27808
0.208321
1.27804
0.208315
-1.51261e-05
1.12374
0.124939
-1.67119e-05
1.12376
0.12494
-1.14708e-05
1.12376
0.124939
-4.56721e-06
1.12376
0.124936
4.56023e-06
1.12376
0.124932
1.12375
0.124928
-2.91339e-06
-0.00303711
-8.46669e-07
-0.00303622
3.45388e-06
-0.0030355
5.5535e-06
-0.00303529
5.08324e-06
-0.0030356
-0.00303527
-6.49774e-05
1.14705
0.406417
-0.000115382
1.14706
0.406425
-0.000138586
1.14708
0.406431
-0.000130355
1.14711
0.406437
-7.70793e-05
1.14714
0.406445
1.14713
0.406438
-1.40696e-05
1.0147
0.257303
-2.98375e-05
1.01471
0.257308
-3.77045e-05
1.01472
0.25731
-3.57602e-05
1.01473
0.257312
-1.86148e-05
1.01474
0.257315
1.01473
0.257311
7.86475e-07
0.0604904
-1.52774e-06
0.0604915
-2.89225e-06
0.0604915
-2.8521e-06
0.0604918
-7.51765e-07
0.0604923
0.0604917
-2.00908e-05
1.02243
0.741671
-3.64405e-05
1.02245
0.741684
-4.43896e-05
1.02246
0.741687
-4.05303e-05
1.02247
0.741692
-2.72287e-05
1.02248
0.741696
1.02248
0.741686
-5.03358e-06
0.855413
0.424332
-1.49112e-05
0.855428
0.424339
-2.18408e-05
0.855431
0.42434
-2.17625e-05
0.855437
0.424343
-1.39749e-05
0.855443
0.424346
0.855433
0.42434
-4.38993e-07
0.114834
-2.73056e-06
0.114836
-4.43863e-06
0.114837
-4.63747e-06
0.114837
-2.88614e-06
0.114838
0.114837
-1.06681e-06
0.0351371
-0.131047
0.0959108
2.23699e-07
0.0351378
-0.131049
0.0959128
7.65606e-07
0.0351379
-0.131049
0.0959129
8.50129e-07
0.0351379
-0.131049
0.095913
6.21793e-07
0.0351379
-0.131049
0.0959131
0.0351373
-0.131048
0.0959118
-4.06876e-07
0.0602853
-0.0958839
0.0707373
5.67442e-07
0.0602863
-0.0958852
0.0707388
8.5161e-07
0.0602863
-0.0958853
0.070739
8.05832e-07
0.0602862
-0.0958856
0.0707391
4.42004e-07
0.0602862
-0.0958859
0.0707391
0.0602851
-0.0958846
0.0707381
-1.08372e-08
-0.0351829
0.0258571
4.53454e-07
-0.0351834
0.0258577
6.16705e-07
-0.0351836
0.0258578
4.7871e-07
-0.0351839
0.0258578
1.16114e-07
-0.0351841
0.0258578
-0.0351837
0.0258574
-6.65781e-07
0.050138
-0.181182
1.19871e-07
0.0501389
-0.181185
3.72475e-07
0.0501391
-0.181185
2.26347e-07
0.0501391
-0.181186
1.90309e-07
0.050139
-0.181187
0.0501383
-0.181184
-1.67138e-07
0.0857898
-0.131533
4.54469e-07
0.0857911
-0.131535
3.08048e-07
0.0857911
-0.131535
4.30839e-08
0.085791
-0.131536
8.17637e-09
0.0857909
-0.131536
0.0857896
-0.131534
4.29331e-08
-0.0473196
1.60686e-07
-0.0473204
1.48516e-07
-0.0473206
-6.73114e-09
-0.047321
-9.43903e-08
-0.0473213
-0.0473204
-5.70337e-07
0.0713865
-0.252566
-4.77922e-07
0.0713877
-0.25257
-6.35518e-07
0.0713878
-0.252571
-1.01015e-06
0.0713878
-0.252572
-2.81511e-07
0.0713879
-0.252572
0.0713869
-0.252569
-4.40382e-08
0.12071
-0.180854
-5.22642e-08
0.120712
-0.180857
-7.10379e-07
0.120712
-0.180858
-9.04595e-07
0.120712
-0.180858
-7.39276e-08
0.120712
-0.180859
0.12071
-0.180856
3.99778e-08
-0.0627695
-3.08196e-07
-0.0627705
-4.3127e-07
-0.0627709
-4.05767e-07
-0.0627712
3.83389e-08
-0.0627715
-0.0627706
-6.25169e-07
0.101568
-0.354132
-1.75028e-06
0.10157
-0.354138
-2.30793e-06
0.10157
-0.354139
-2.30883e-06
0.10157
-0.354141
-7.72603e-07
0.10157
-0.354142
0.101568
-0.354136
-1.61048e-07
0.168884
-0.248169
-1.26649e-06
0.168887
-0.248173
-2.16553e-06
0.168887
-0.248174
-2.08853e-06
0.168887
-0.248176
-8.55135e-07
0.168888
-0.248177
0.168885
-0.248173
1.12633e-09
-0.0814207
-8.41538e-07
-0.0814222
-1.07412e-06
-0.0814225
-8.46201e-07
-0.0814229
-2.03413e-07
-0.0814233
-0.0814223
-1.62904e-07
0.141038
-0.495169
-2.19136e-06
0.141041
-0.495178
-3.85715e-06
0.14104
-0.495179
-3.57857e-06
0.14104
-0.495182
-9.73964e-07
0.14104
-0.495184
0.141038
-0.495176
-8.75806e-07
0.233633
-0.340764
-2.84967e-06
0.233637
-0.340771
-3.84982e-06
0.233637
-0.340772
-3.60229e-06
0.233638
-0.340774
-1.33116e-06
0.233638
-0.340776
0.233635
-0.340771
-5.39191e-07
-0.102743
-1.4255e-06
-0.102745
-1.8567e-06
-0.102745
-1.56935e-06
-0.102746
-5.66849e-07
-0.102746
-0.102745
7.21287e-07
0.246502
-3.09939e-06
0.246506
-5.81037e-06
0.246507
-5.33172e-06
0.246508
-3.18473e-06
0.24651
0.246506
-1.39759e-06
0.330067
-3.97454e-06
0.330073
-5.4483e-06
0.330074
-5.41471e-06
0.330075
-3.1442e-06
0.330076
0.330072
-1.12159e-06
-2.25495e-06
-2.42931e-06
-2.12361e-06
-1.11414e-06
-4.66205e-09
0.00236232
-0.000334948
-5.03523e-08
0.00236233
-0.000334969
-7.33998e-08
0.00236235
-0.000334959
-8.24204e-08
0.00236235
-0.000334958
-8.48949e-08
0.00236236
-0.000334953
0.00236234
-0.000334949
-1.5782e-08
0.00257759
-0.000215364
-4.22094e-08
0.00257761
-0.000215375
-5.07413e-08
0.00257762
-0.000215369
-5.45255e-08
0.00257763
-0.000215366
-5.49325e-08
0.00257763
-0.000215363
0.0025776
-0.000215361
-1.76587e-08
-7.67363e-05
-3.1494e-08
-7.67381e-05
-3.41753e-08
-7.67363e-05
-3.53889e-08
-7.67349e-05
-3.37939e-08
-7.67336e-05
-7.67322e-05
-4.48186e-08
0.00250208
-0.000699305
-6.02664e-08
0.00250211
-0.000699322
-6.32739e-08
0.00250212
-0.000699308
-6.48219e-08
0.00250213
-0.000699295
-6.2222e-08
0.00250213
-0.00069928
0.00250211
-0.000699246
-2.35241e-08
0.0027393
-0.000452643
-3.82556e-08
0.00273933
-0.000452651
-4.05456e-08
0.00273934
-0.000452642
-4.20275e-08
0.00273934
-0.000452634
-4.13533e-08
0.00273934
-0.000452625
0.00273932
-0.000452605
-1.46692e-08
-0.000162346
-2.51018e-08
-0.000162348
-2.80954e-08
-0.000162345
-2.96927e-08
-0.000162342
-2.83987e-08
-0.000162339
-0.000162331
-4.71664e-08
0.0027904
-0.0011291
-1.29329e-08
0.00279043
-0.00112911
3.03808e-09
0.00279044
-0.00112908
1.6122e-08
0.00279044
-0.00112906
3.15163e-08
0.00279044
-0.00112903
0.00279039
-0.00112898
-8.21331e-09
0.00307766
-0.00073987
-5.36617e-09
0.00307769
-0.000739872
-6.80468e-10
0.00307769
-0.000739859
4.82197e-09
0.00307769
-0.000739845
9.6718e-09
0.00307769
-0.00073983
0.00307765
-0.000739801
-6.24042e-09
-0.000268473
-1.22743e-08
-0.000268473
-1.36486e-08
-0.000268468
-1.35843e-08
-0.000268463
-8.86432e-09
-0.000268458
-0.000268447
1.87859e-08
0.00324547
-0.00167709
8.78849e-08
0.00324551
-0.00167708
1.21725e-07
0.00324551
-0.00167705
1.46953e-07
0.0032455
-0.00167703
1.68872e-07
0.00324548
-0.001677
0.00324541
-0.00167696
4.47742e-08
0.00362624
-0.00112054
5.58985e-08
0.00362627
-0.00112054
6.46694e-08
0.00362626
-0.00112053
7.13241e-08
0.00362625
-0.00112052
7.93979e-08
0.00362623
-0.00112051
0.00362617
-0.00112049
1.39839e-08
-0.000413594
9.63844e-09
-0.000413593
1.01135e-08
-0.000413589
1.13037e-08
-0.000413586
1.62619e-08
-0.000413585
-0.000413581
1.76365e-07
0.00389664
-0.00243109
2.29947e-07
0.00389668
-0.0024311
2.4787e-07
0.00389666
-0.00243108
2.52812e-07
0.00389663
-0.00243108
2.46223e-07
0.00389659
-0.00243109
0.0038965
-0.00243107
1.42009e-07
0.00444658
-0.0016705
1.27166e-07
0.00444661
-0.00167052
1.20648e-07
0.00444659
-0.00167052
1.05463e-07
0.00444656
-0.00167053
8.46743e-08
0.00444654
-0.00167055
0.00444646
-0.00167055
4.07041e-08
-0.0006301
2.81329e-08
-0.000630111
2.32542e-08
-0.000630115
1.42688e-08
-0.000630122
6.73944e-10
-0.000630132
-0.000630136
3.23101e-07
0.00478756
-0.00355734
2.89417e-07
0.00478759
-0.00355741
2.56172e-07
0.00478755
-0.00355743
2.11832e-07
0.00478751
-0.00355746
1.62701e-07
0.00478746
-0.00355751
0.00478735
-0.00355749
1.98859e-07
0.00564781
-0.00253107
1.21029e-07
0.00564785
-0.00253114
7.53196e-08
0.00564783
-0.00253117
2.47264e-08
0.0056478
-0.0025312
-2.7917e-08
0.00564779
-0.00253123
0.0056477
-0.00253122
3.91984e-08
-0.000977513
8.87352e-09
-0.000977544
-7.73627e-09
-0.000977556
-3.35485e-08
-0.000977568
-6.88662e-08
-0.00097758
-0.000977571
2.7797e-07
0.00598758
-0.00540093
1.78625e-07
0.00598761
-0.0054011
9.08831e-08
0.00598757
-0.00540115
2.3043e-08
0.00598752
-0.0054012
-2.06954e-08
0.00598749
-0.00540124
0.00598738
-0.00540118
8.91262e-08
0.00742516
-0.00396915
-2.50606e-08
0.00742524
-0.00396928
-8.44378e-08
0.00742523
-0.00396931
-1.3709e-07