/*--------------------------------*- C++ -*----------------------------------*\
| =========                 |                                                 |
| \\      /  F ield         | OpenFOAM: The Open Source CFD Toolbox           |
|  \\    /   O peration     | Version:  v1612+                                |
|   \\  /    A nd           | Web:      www.OpenFOAM.com                      |
|    \\/     M anipulation  |                                                 |
\*---------------------------------------------------------------------------*/
FoamFile
{
    version     2.0;
    format      ascii;
    class       volVectorField;
    location    "1.05";
    object      U;
}
// * * * * * * * * * * * * * * * * * * * * * * * * * * * * * * * * * * * * * //

dimensions      [0 1 -1 0 0 0 0];

internalField   nonuniform List<vector> 
1116
(
(0.306826 2.60346e-07 -0.316571)
(0.306827 2.74535e-07 -0.316572)
(0.306827 1.7421e-08 -0.316573)
(0.306827 -2.37322e-08 -0.316573)
(0.306827 8.43848e-08 -0.316573)
(0.306826 1.14874e-07 -0.316573)
(0.819939 6.38533e-07 -0.425852)
(0.819942 9.10294e-07 -0.425854)
(0.819943 1.34039e-06 -0.425854)
(0.819942 1.67492e-06 -0.425853)
(0.819942 1.42053e-06 -0.425852)
(0.81994 2.66058e-07 -0.42585)
(1.94094 1.25708e-06 -0.636529)
(1.94095 3.31584e-06 -0.63653)
(1.94094 5.10289e-06 -0.636527)
(1.94094 4.99061e-06 -0.636525)
(1.94094 3.62408e-06 -0.636523)
(1.94094 8.31252e-07 -0.636519)
(3.15138 -6.26586e-07 -0.890769)
(3.15138 2.09534e-06 -0.890776)
(3.15138 6.32411e-06 -0.890774)
(3.15138 7.26804e-06 -0.890772)
(3.15138 5.70299e-06 -0.89077)
(3.15137 2.33779e-06 -0.890767)
(4.52497 4.74394e-06 -1.08368)
(4.52498 7.92269e-06 -1.08368)
(4.52498 6.9399e-06 -1.08368)
(4.52498 9.98823e-06 -1.08368)
(4.52498 6.58819e-06 -1.08369)
(4.52498 2.75146e-06 -1.08368)
(6.38167 1.37205e-05 -1.59103)
(6.38175 1.33559e-05 -1.59098)
(6.38173 -5.59708e-06 -1.59097)
(6.38174 -8.04606e-06 -1.59097)
(6.38175 -3.03064e-05 -1.59099)
(6.38172 -2.2517e-05 -1.59098)
(8.59555 5.26163e-05 -1.67)
(8.59562 6.20917e-05 -1.66996)
(8.59559 -5.03491e-06 -1.66994)
(8.59559 -1.97234e-05 -1.66995)
(8.59565 -6.58169e-05 -1.66998)
(8.59556 -4.53349e-05 -1.66994)
(10.714 -3.93209e-05 -0.363422)
(10.7139 -5.68271e-05 -0.363389)
(10.7139 -7.95235e-05 -0.363393)
(10.7139 -4.42608e-05 -0.363405)
(10.7141 -6.1545e-05 -0.363483)
(10.7136 -1.78666e-05 -0.363367)
(6.78675 2.06234e-05 0.932744)
(6.78657 -1.47491e-06 0.932707)
(6.78651 -4.02617e-05 0.932644)
(6.78661 1.2334e-05 0.932624)
(6.7868 3.99193e-05 0.932599)
(6.78645 5.56787e-05 0.932647)
(3.51264 9.79527e-06 1.20521)
(3.5129 9.76407e-05 1.20509)
(3.51287 0.000205285 1.20508)
(3.51292 0.000251935 1.20515)
(3.513 0.000229389 1.20526)
(3.51293 0.000110837 1.20537)
(2.25688 9.86013e-05 0.786731)
(2.25725 0.000251927 0.786833)
(2.25728 0.000313374 0.786935)
(2.25728 0.000314852 0.787035)
(2.25726 0.000252893 0.787148)
(2.25719 0.000104822 0.787251)
(0.869115 4.133e-05 0.706806)
(0.869249 0.000110203 0.706933)
(0.869251 0.000154022 0.706982)
(0.869231 0.000170179 0.707014)
(0.869205 0.000140727 0.707043)
(0.869168 5.7371e-05 0.707062)
(0.234472 -3.29357e-07 -0.814968)
(0.234473 -1.27381e-06 -0.81497)
(0.234471 -2.02983e-06 -0.814971)
(0.23447 -1.90829e-06 -0.814971)
(0.234469 -1.28653e-06 -0.814971)
(0.234469 -3.42175e-07 -0.814969)
(0.569898 1.06197e-06 -1.10876)
(0.5699 1.16867e-06 -1.10876)
(0.569898 3.09212e-07 -1.10876)
(0.569895 -1.87525e-07 -1.10876)
(0.569893 -9.07764e-07 -1.10875)
(0.569892 -7.63781e-07 -1.10875)
(1.64224 2.83788e-06 -1.67102)
(1.64224 8.59939e-06 -1.67102)
(1.64224 8.68488e-06 -1.67101)
(1.64224 5.64079e-06 -1.671)
(1.64223 4.96428e-06 -1.671)
(1.64223 2.79507e-06 -1.67099)
(2.20304 6.66268e-07 -2.3083)
(2.20307 1.03366e-05 -2.30831)
(2.20306 9.88151e-06 -2.30831)
(2.20306 8.98893e-06 -2.3083)
(2.20306 4.90534e-06 -2.3083)
(2.20305 5.71125e-06 -2.3083)
(3.60967 2.19303e-06 -3.18454)
(3.60971 9.26893e-06 -3.18459)
(3.60971 1.57942e-05 -3.18457)
(3.60971 1.69837e-05 -3.18457)
(3.6097 6.9397e-06 -3.18458)
(3.6097 -2.39223e-07 -3.18455)
(5.95309 2.76802e-05 -4.10031)
(5.95323 -6.79721e-06 -4.10029)
(5.95325 -4.20122e-05 -4.10024)
(5.95325 -4.35881e-06 -4.10023)
(5.95326 -3.51129e-05 -4.10033)
(5.9532 -4.52491e-05 -4.10034)
(12.276 -1.98032e-05 -0.280302)
(12.2759 -8.22207e-05 -0.280106)
(12.276 -0.000197503 -0.280057)
(12.2759 -0.000184299 -0.280089)
(12.2764 -0.000334064 -0.28019)
(12.2757 -0.000225641 -0.279951)
(9.10183 4.9254e-05 3.52836)
(9.10192 -2.88569e-05 3.52852)
(9.10178 -0.00014424 3.52843)
(9.10171 -4.07012e-05 3.52835)
(9.10205 -5.13961e-05 3.52821)
(9.10068 -1.44168e-06 3.52808)
(4.04243 7.14715e-06 4.35746)
(4.04251 9.76954e-06 4.35741)
(4.04228 3.50508e-05 4.35725)
(4.04228 9.51067e-05 4.35721)
(4.0426 0.000119025 4.35725)
(4.04216 8.91199e-05 4.35719)
(3.05267 7.90673e-05 3.01805)
(3.05287 0.000175195 3.01781)
(3.05286 0.000148421 3.01783)
(3.05294 7.62462e-05 3.01799)
(3.05311 4.18081e-05 3.01825)
(3.05309 1.99509e-05 3.01842)
(1.92164 2.27654e-05 1.99092)
(1.92197 6.46608e-05 1.99111)
(1.92206 7.34426e-05 1.99133)
(1.92209 5.79301e-05 1.99154)
(1.92213 3.99905e-05 1.99177)
(1.92209 1.47681e-05 1.99196)
(0.905804 -3.92829e-05 1.83979)
(0.905957 -4.34115e-05 1.84002)
(0.905977 1.85484e-05 1.84013)
(0.905965 5.84657e-05 1.8402)
(0.905941 7.02249e-05 1.84028)
(0.90589 3.20612e-05 1.84032)
(0.0721649 8.05447e-07 -0.987101)
(0.0721639 3.1749e-07 -0.987101)
(0.0721624 -4.46662e-07 -0.9871)
(0.0721611 1.568e-07 -0.987099)
(0.072161 4.97846e-07 -0.987098)
(0.072162 2.76732e-07 -0.987095)
(0.0894139 2.77581e-06 -1.64862)
(0.0894143 6.34307e-06 -1.64862)
(0.0894106 4.92982e-06 -1.64862)
(0.0894089 2.66509e-06 -1.64861)
(0.0894103 2.47021e-06 -1.64861)
(0.0894141 1.60624e-06 -1.64861)
(0.86001 4.70855e-06 -2.36428)
(0.860036 1.40056e-05 -2.36428)
(0.860036 6.38895e-06 -2.36427)
(0.860036 4.98998e-06 -2.36426)
(0.860037 2.44605e-06 -2.36426)
(0.860041 5.10211e-06 -2.36425)
(0.842674 6.05843e-06 -3.50053)
(0.842726 1.14251e-05 -3.50055)
(0.842728 1.49243e-05 -3.50054)
(0.842726 1.30585e-05 -3.50054)
(0.842722 2.10327e-05 -3.50055)
(0.842727 1.2342e-05 -3.50054)
(3.43211 2.39038e-05 -4.99405)
(3.43221 1.02292e-05 -4.99419)
(3.43221 3.29322e-05 -4.99416)
(3.43221 1.37239e-05 -4.99415)
(3.43221 3.57732e-05 -4.99416)
(3.43219 2.88268e-06 -4.99414)
(4.54498 -2.426e-05 -4.97153)
(4.54527 -6.75543e-05 -4.97149)
(4.54523 -2.41165e-05 -4.97146)
(4.54522 -1.7159e-06 -4.97147)
(4.54528 -1.39399e-05 -4.97164)
(4.54524 -4.08427e-05 -4.97156)
(-0.583718 1.03076e-05 -1.61218)
(-0.583356 -8.35246e-06 -1.61197)
(-0.583521 -3.79164e-05 -1.61209)
(-0.58343 4.24468e-05 -1.61211)
(-0.583052 -6.06331e-05 -1.61226)
(-0.582953 -8.76297e-05 -1.6124)
(0.7588 -4.14292e-05 5.81033)
(0.759104 -1.39445e-05 5.81062)
(0.75896 4.04355e-05 5.81049)
(0.758968 4.22638e-05 5.8104)
(0.759294 -8.70614e-06 5.81037)
(0.759081 -1.51698e-05 5.81012)
(0.703221 1.65558e-05 5.16566)
(0.703155 7.26443e-05 5.16556)
(0.703089 5.65213e-05 5.16542)
(0.703154 -3.69087e-05 5.16535)
(0.703422 -6.25083e-05 5.16544)
(0.703455 -2.3791e-05 5.16519)
(1.3288 4.44083e-05 3.39332)
(1.3288 1.98105e-05 3.39321)
(1.32887 -0.000115591 3.3933)
(1.32897 -0.000214725 3.39347)
(1.32917 -0.000223594 3.39377)
(1.32919 -0.000102068 3.39379)
(1.02456 -5.64482e-05 2.56024)
(1.02468 -0.000163156 2.56042)
(1.02472 -0.000223692 2.56062)
(1.02473 -0.000223358 2.56084)
(1.02475 -0.00018149 2.56109)
(1.02469 -7.59396e-05 2.56122)
(0.747125 -4.10835e-05 2.41392)
(0.747192 -5.97993e-05 2.41409)
(0.747185 -2.19092e-05 2.41416)
(0.747161 6.98026e-06 2.41424)
(0.747125 2.62411e-05 2.41432)
(0.747059 1.42094e-05 2.41436)
(-0.356439 3.99839e-06 -1.44345)
(-0.356438 6.75006e-06 -1.44345)
(-0.356438 5.3482e-06 -1.44344)
(-0.356437 4.30615e-06 -1.44344)
(-0.356434 4.05254e-06 -1.44344)
(-0.356431 1.72654e-06 -1.44344)
(-0.719602 4.80751e-06 -2.00664)
(-0.719588 1.16557e-05 -2.00664)
(-0.719587 5.46667e-06 -2.00664)
(-0.719586 4.45368e-06 -2.00664)
(-0.719582 2.98045e-06 -2.00664)
(-0.719573 4.1797e-06 -2.00664)
(-0.564684 -4.96636e-08 -2.76906)
(-0.564644 6.56246e-06 -2.76907)
(-0.564638 1.03487e-06 -2.76906)
(-0.564634 4.205e-06 -2.76906)
(-0.56463 1.62452e-06 -2.76906)
(-0.564604 5.98018e-06 -2.76904)
(1.15068 2.48881e-05 -5.61618)
(1.15075 -1.14332e-05 -5.61621)
(1.15076 3.67769e-05 -5.61618)
(1.15076 4.48444e-06 -5.61618)
(1.15077 3.30933e-05 -5.61617)
(1.15077 -2.33213e-05 -5.6161)
(5.57266 3.84533e-05 -6.5927)
(5.57273 -4.95393e-05 -6.59295)
(5.57279 0.000103644 -6.59289)
(5.57291 2.23103e-05 -6.59289)
(5.57311 0.000125962 -6.5929)
(5.57326 -2.13818e-05 -6.5928)
(-0.222106 -5.17268e-05 0.0621559)
(-0.221604 -4.10745e-05 0.0621875)
(-0.221816 2.78872e-05 0.0621145)
(-0.221738 4.22124e-05 0.0621207)
(-0.221461 6.72187e-05 0.0619335)
(-0.221532 3.21936e-05 0.0613823)
(-2.34648 -8.38522e-05 2.61398)
(-2.3466 9.46093e-06 2.61415)
(-2.34663 0.000181317 2.61407)
(-2.34651 0.000196603 2.61411)
(-2.34629 0.000186386 2.61411)
(-2.34611 7.59921e-05 2.61376)
(-1.63785 -5.23766e-05 4.03965)
(-1.63804 5.67743e-05 4.03985)
(-1.63795 0.000148056 4.03991)
(-1.63777 6.96604e-05 4.0399)
(-1.6375 5.64438e-05 4.03987)
(-1.63732 2.74255e-05 4.03956)
(-0.152671 6.43824e-05 3.85812)
(-0.152827 9.30511e-05 3.85827)
(-0.152703 -5.1424e-07 3.85823)
(-0.15254 -9.08247e-05 3.85815)
(-0.152346 -8.84577e-05 3.8581)
(-0.1522 -2.80441e-05 3.8578)
(0.473344 1.25152e-05 2.96698)
(0.4734 -9.78645e-05 2.96702)
(0.473501 -0.000261015 2.96707)
(0.473593 -0.000309556 2.96716)
(0.473709 -0.000266056 2.96732)
(0.473742 -0.000107902 2.96721)
(0.629249 -7.4313e-05 2.57308)
(0.629358 -0.00020625 2.57318)
(0.629392 -0.00027895 2.57331)
(0.629407 -0.000280981 2.57347)
(0.629421 -0.000225641 2.57367)
(0.629369 -9.17287e-05 2.57373)
(0.627764 -3.34724e-05 2.55507)
(0.627806 -5.11976e-05 2.55514)
(0.627802 -2.97562e-05 2.55519)
(0.627787 -1.41209e-05 2.55524)
(0.627764 -9.72019e-07 2.55529)
(0.627718 1.68014e-06 2.55531)
(0.000522621 2.24831e-07 0.000528813)
(0.000522713 1.19792e-07 0.000528802)
(0.000522749 -1.60806e-07 0.00052878)
(0.000522758 -9.63835e-08 0.000528779)
(0.000522768 -9.10377e-08 0.000528767)
(0.000522789 -5.02874e-08 0.000528723)
(0.00158796 5.98728e-08 0.000549361)
(0.00158817 -1.12022e-07 0.000549355)
(0.00158822 -2.44422e-07 0.00054936)
(0.00158822 -1.27018e-07 0.000549354)
(0.00158823 -1.59956e-07 0.000549348)
(0.00158821 -1.01546e-07 0.000549315)
(0.00271117 -1.37495e-07 0.000588629)
(0.00271141 -3.31309e-07 0.000588651)
(0.00271141 -2.59997e-07 0.000588672)
(0.00271139 -9.63782e-08 0.000588679)
(0.00271135 -8.39237e-08 0.000588687)
(0.00271124 -4.95687e-08 0.000588684)
(0.00392407 -3.19561e-07 0.000641855)
(0.00392426 -4.91008e-07 0.000641908)
(0.00392422 -1.95607e-07 0.000641941)
(0.00392415 2.50581e-08 0.000641965)
(0.00392406 1.02509e-07 0.000641992)
(0.00392388 5.77503e-08 0.000642022)
(0.00524623 -3.88735e-07 0.000699058)
(0.0052463 -5.02196e-07 0.000699125)
(0.00524621 -3.18596e-08 0.000699175)
(0.00524609 2.50169e-07 0.000699213)
(0.00524596 3.62838e-07 0.000699262)
(0.00524575 1.98996e-07 0.000699323)
(0.00667168 -3.05625e-07 0.000740537)
(0.00667163 -3.01239e-07 0.000740585)
(0.00667152 2.14702e-07 0.00074063)
(0.0066714 5.16957e-07 0.000740675)
(0.00667129 6.31346e-07 0.000740733)
(0.00667108 3.29487e-07 0.000740806)
(0.00815042 -1.05893e-07 0.000729917)
(0.00815034 -1.64916e-08 0.000729881)
(0.00815024 4.00901e-07 0.000729921)
(0.00815018 6.87477e-07 0.000729953)
(0.00815014 7.45115e-07 0.000730017)
(0.00814997 3.73468e-07 0.000730091)
(0.00956295 6.98683e-08 0.000616932)
(0.00956295 2.21833e-07 0.000616776)
(0.0095629 4.55105e-07 0.000616766)
(0.00956293 6.48032e-07 0.000616765)
(0.00956296 6.65797e-07 0.000616803)
(0.00956284 3.23856e-07 0.000616854)
(0.0106722 1.46886e-07 0.000343284)
(0.0106724 2.95624e-07 0.000342945)
(0.0106724 3.44377e-07 0.00034287)
(0.0106725 4.34895e-07 0.000342856)
(0.0106726 4.25808e-07 0.000342895)
(0.0106724 1.86835e-07 0.00034295)
(0.0108947 1.15138e-07 -0.000175256)
(0.010895 1.70833e-07 -0.000175728)
(0.0108951 1.06705e-07 -0.000175795)
(0.0108951 1.59667e-07 -0.000175754)
(0.0108951 1.4192e-07 -0.000175632)
(0.0108948 2.98146e-08 -0.000175452)
(0.00982042 7.71279e-08 -0.00140239)
(0.00982077 5.41662e-08 -0.00140249)
(0.00982085 -2.18407e-08 -0.00140242)
(0.00982084 1.05141e-08 -0.0014023)
(0.00982072 -1.57781e-08 -0.00140209)
(0.00982013 -3.95714e-08 -0.00140174)
(0.00513595 -5.64899e-08 -0.00376219)
(0.0051361 -2.10126e-07 -0.00376215)
(0.00513615 -3.14162e-07 -0.00376211)
(0.00513617 -3.30573e-07 -0.00376206)
(0.00513611 -3.47603e-07 -0.00376194)
(0.00513574 -1.71005e-07 -0.00376163)
(0.000512961 1.90272e-07 0.00154473)
(0.000513041 4.19994e-08 0.00154472)
(0.000513047 -2.04302e-07 0.0015447)
(0.000513058 -1.1925e-07 0.0015447)
(0.000513062 -1.82123e-07 0.00154469)
(0.000513068 -1.22235e-07 0.00154463)
(0.00156113 4.85107e-08 0.00160825)
(0.0015613 -1.04326e-07 0.00160826)
(0.00156131 -2.29656e-07 0.00160827)
(0.00156131 -1.40068e-07 0.00160827)
(0.00156129 -2.05e-07 0.00160827)
(0.00156124 -1.41593e-07 0.00160823)
(0.00267471 -8.93268e-08 0.00173077)
(0.00267488 -2.32848e-07 0.00173083)
(0.00267486 -1.91227e-07 0.00173087)
(0.00267481 -6.43512e-08 0.00173089)
(0.00267474 -5.9574e-08 0.00173091)
(0.00267458 -4.27935e-08 0.0017309)
(0.00389329 -1.91951e-07 0.00190012)
(0.00389341 -2.86294e-07 0.00190023)
(0.00389334 -6.38661e-08 0.00190029)
(0.00389324 1.2526e-07 0.00190033)
(0.00389312 2.19812e-07 0.00190037)
(0.00389289 1.25111e-07 0.00190039)
(0.0052488 -1.93348e-07 0.00208928)
(0.00524883 -1.82746e-07 0.00208942)
(0.00524872 1.73428e-07 0.00208949)
(0.00524858 4.15596e-07 0.00208955)
(0.00524844 5.65801e-07 0.00208961)
(0.00524821 3.13022e-07 0.00208965)
(0.00675488 -7.89236e-08 0.00224448)
(0.00675485 5.36024e-08 0.00224456)
(0.00675474 4.36052e-07 0.00224463)
(0.00675463 6.91457e-07 0.00224467)
(0.00675453 8.25184e-07 0.00224473)
(0.00675434 4.37087e-07 0.00224477)
(0.00837713 5.87966e-08 0.00226231)
(0.00837716 2.88049e-07 0.00226222)
(0.0083771 5.93696e-07 0.00226224)
(0.00837709 8.00684e-07 0.00226225)
(0.00837709 8.72138e-07 0.00226228)
(0.008377 4.35444e-07 0.00226232)
(0.0099888 1.4456e-07 0.00194575)
(0.00998906 3.73114e-07 0.00194536)
(0.00998912 5.0993e-07 0.00194526)
(0.00998921 6.00817e-07 0.00194522)
(0.00998928 5.95367e-07 0.00194524)
(0.00998921 2.74748e-07 0.0019453)
(0.0113441 8.53343e-09 0.000898937)
(0.0113447 1.3496e-07 0.00089819)
(0.0113449 2.67632e-07 0.000897969)
(0.011345 3.33116e-07 0.000897914)
(0.011345 2.84028e-07 0.000897974)
(0.0113447 8.96602e-08 0.000898147)
(0.0123088 -2.75852e-07 -0.00157367)
(0.0123095 -2.91212e-07 -0.00157452)
(0.0123097 1.65079e-08 -0.00157465)
(0.0123096 1.66244e-07 -0.00157459)
(0.0123094 1.95627e-07 -0.00157436)
(0.0123088 5.64784e-08 -0.00157392)
(0.0122216 -2.33947e-07 -0.00529853)
(0.0122221 -2.69029e-07 -0.00529867)
(0.0122221 -2.47022e-08 -0.00529849)
(0.0122219 7.4565e-08 -0.00529822)
(0.0122215 1.00996e-07 -0.00529775)
(0.0122204 2.39657e-08 -0.00529686)
(0.00799965 -3.09263e-07 -0.012295)
(0.00799983 -5.16149e-07 -0.0122949)
(0.0079998 -4.11695e-07 -0.0122947)
(0.00799967 -3.58594e-07 -0.0122944)
(0.00799941 -2.52047e-07 -0.0122941)
(0.00799869 -7.13177e-08 -0.0122932)
(0.000481476 1.6912e-07 0.00250143)
(0.000481539 2.77976e-08 0.00250143)
(0.000481531 -1.9097e-07 0.00250145)
(0.000481537 -1.09991e-07 0.00250145)
(0.000481535 -1.72771e-07 0.00250146)
(0.000481533 -1.15445e-07 0.00250143)
(0.00147059 5.73047e-08 0.00261498)
(0.00147071 -6.336e-08 0.00261501)
(0.00147069 -1.82393e-07 0.00261504)
(0.00147068 -1.14948e-07 0.00261505)
(0.00147065 -1.78707e-07 0.00261506)
(0.00147059 -1.25296e-07 0.00261503)
(0.00253895 -2.84689e-08 0.00283749)
(0.00253906 -1.25543e-07 0.00283757)
(0.00253902 -1.16654e-07 0.0028376)
(0.00253896 -1.88409e-08 0.00283762)
(0.00253888 -2.74073e-08 0.00283764)
(0.00253872 -2.79565e-08 0.00283761)
(0.00374261 -7.72831e-08 0.00315506)
(0.00374268 -1.04571e-07 0.00315518)
(0.00374259 4.01076e-08 0.00315522)
(0.00374249 1.82492e-07 0.00315524)
(0.00374237 2.40978e-07 0.00315526)
(0.00374216 1.2604e-07 0.00315521)
(0.00514101 -3.54995e-08 0.00353237)
(0.00514103 4.588e-08 0.00353249)
(0.00514092 2.78105e-07 0.00353252)
(0.0051408 4.52661e-07 0.00353253)
(0.00514069 5.34212e-07 0.00353253)
(0.0051405 2.78304e-07 0.00353245)
(0.0067964 7.70046e-08 0.00389173)
(0.00679642 2.77186e-07 0.00389178)
(0.00679634 4.97305e-07 0.00389178)
(0.00679629 6.39351e-07 0.00389176)
(0.00679625 6.89979e-07 0.00389172)
(0.00679612 3.47475e-07 0.00389162)
(0.00878338 1.53447e-07 0.0040828)
(0.00878356 3.93288e-07 0.00408267)
(0.00878359 5.37753e-07 0.00408259)
(0.00878364 6.10779e-07 0.00408252)
(0.0087837 6.0465e-07 0.00408245)
(0.00878365 2.91184e-07 0.00408235)
(0.0112397 7.27916e-08 0.00386835)
(0.0112402 2.24986e-07 0.00386788)
(0.0112404 3.31046e-07 0.00386767)
(0.0112406 3.59021e-07 0.00386758)
(0.0112407 3.20442e-07 0.00386755)
(0.0112406 1.40345e-07 0.00386757)
(0.0143167 -1.98721e-07 0.00295874)
(0.0143175 -2.06704e-07 0.00295794)
(0.0143177 6.9421e-09 0.00295771)
(0.0143178 6.84275e-08 0.00295769)
(0.0143178 8.84733e-08 0.00295782)
(0.0143175 3.6094e-08 0.00295812)
(0.0167581 -3.87956e-07 0.00092942)
(0.016759 -4.55301e-07 0.000928661)
(0.0167591 -1.55198e-07 0.000928669)
(0.0167589 -1.07991e-07 0.000928932)
(0.0167586 -6.78625e-09 0.000929406)
(0.0167578 1.92584e-08 0.000930202)
(0.0181635 -5.63131e-07 -0.00365483)
(0.0181639 -6.76715e-07 -0.00365464)
(0.0181637 -1.921e-07 -0.00365411)
(0.0181631 -6.74804e-08 -0.00365339)
(0.0181623 1.11027e-07 -0.00365247)
(0.0181608 1.1461e-07 -0.00365104)
(0.0121198 -5.94881e-07 -0.0146831)
(0.0121198 -7.54168e-07 -0.0146826)
(0.0121195 -3.1909e-07 -0.0146821)
(0.0121191 -1.08363e-07 -0.0146815)
(0.0121185 1.95947e-07 -0.0146808)
(0.0121175 2.64271e-07 -0.0146796)
(0.00042448 1.3425e-07 0.00335754)
(0.000424524 1.6644e-08 0.00335755)
(0.000424512 -1.58583e-07 0.00335758)
(0.000424513 -9.11914e-08 0.00335759)
(0.000424508 -1.47646e-07 0.0033576)
(0.000424503 -9.99649e-08 0.00335757)
(0.00130327 5.94017e-08 0.00353018)
(0.00130335 -2.83449e-08 0.00353022)
(0.00130332 -1.3217e-07 0.00353025)
(0.0013033 -8.44743e-08 0.00353026)
(0.00130327 -1.4486e-07 0.00353027)
(0.00130322 -1.04547e-07 0.00353024)
(0.00227533 1.72681e-08 0.00387541)
(0.00227539 -3.68469e-08 0.00387549)
(0.00227535 -5.88276e-08 0.00387552)
(0.00227529 3.90656e-09 0.00387553)
(0.00227522 -1.90811e-08 0.00387554)
(0.00227509 -2.73467e-08 0.00387548)
(0.00341739 1.69292e-08 0.00438822)
(0.00341742 2.90857e-08 0.00438833)
(0.00341734 8.55614e-08 0.00438835)
(0.00341725 1.73456e-07 0.00438835)
(0.00341715 1.88375e-07 0.00438833)
(0.00341699 8.88304e-08 0.00438824)
(0.00483034 7.85597e-08 0.00504518)
(0.00483034 1.91395e-07 0.00504528)
(0.00483025 2.83923e-07 0.00504528)
(0.00483017 3.67043e-07 0.00504524)
(0.0048301 3.79752e-07 0.00504519)
(0.00482997 1.84527e-07 0.00504505)
(0.00664451 1.69176e-07 0.00577277)
(0.00664456 3.58225e-07 0.00577281)
(0.00664452 4.11928e-07 0.00577275)
(0.0066445 4.47065e-07 0.00577268)
(0.00664451 4.1487e-07 0.0057726)
(0.00664443 1.915e-07 0.00577242)
(0.00898027 1.85392e-07 0.00637694)
(0.00898047 3.65066e-07 0.00637683)
(0.00898052 3.63159e-07 0.0063767)
(0.00898058 3.35957e-07 0.00637659)
(0.00898066 2.67233e-07 0.00637649)
(0.00898059 1.1465e-07 0.00637632)
(0.011834 2.89121e-08 0.00636989)
(0.0118345 1.03231e-07 0.00636955)
(0.0118345 1.38793e-07 0.00636935)
(0.0118346 9.77982e-08 0.00636924)
(0.0118346 4.10779e-08 0.00636919)
(0.0118344 3.84076e-09 0.00636916)
(0.0149994 -2.50625e-07 0.00468064)
(0.0149999 -2.52759e-07 0.00468008)
(0.0149999 -1.06128e-08 0.00467991)
(0.0149998 -5.44126e-09 0.0046799)
(0.0149996 2.67904e-08 0.00468004)
(0.0149991 1.31435e-08 0.00468033)
(0.0190916 -5.17099e-07 -0.00118089)
(0.019092 -5.10448e-07 -0.0011814)
(0.0190917 7.38575e-08 -0.00118132)
(0.0190912 2.10863e-07 -0.00118096)
(0.0190905 4.0741e-07 -0.00118039)
(0.0190894 2.44837e-07 -0.00117952)
(0.0244152 -5.92153e-07 -0.0175345)
(0.0244148 -5.37752e-07 -0.0175342)
(0.024414 3.49803e-07 -0.0175335)
(0.0244131 6.54981e-07 -0.0175327)
(0.024412 9.33235e-07 -0.0175317)
(0.0244103 5.12741e-07 -0.0175302)
(0.0238171 -3.99276e-07 -0.0540725)
(0.0238168 -4.89942e-07 -0.054073)
(0.0238163 1.03517e-07 -0.0540723)
(0.0238156 5.16315e-07 -0.0540713)
(0.0238148 8.48793e-07 -0.0540703)
(0.0238137 4.74603e-07 -0.0540689)
(-0.730581 8.28753e-06 0.758177)
(-0.73058 1.4886e-05 0.75819)
(-0.730579 7.25122e-06 0.758187)
(-0.730582 4.43381e-06 0.758187)
(-0.730583 3.50547e-06 0.758187)
(-0.730579 4.14385e-06 0.758184)
(-2.03305 2.33699e-06 0.189383)
(-2.033 1.76614e-05 0.189415)
(-2.033 3.85668e-06 0.189415)
(-2.033 1.00074e-05 0.189415)
(-2.033 4.58568e-06 0.189414)
(-2.03297 1.67086e-05 0.189413)
(-3.7533 1.1299e-05 10.9157)
(-3.75327 2.16866e-05 10.9157)
(-3.75326 1.51692e-05 10.9157)
(-3.75326 1.80779e-05 10.9157)
(-3.75326 3.8158e-05 10.9157)
(-3.75324 3.13001e-05 10.9157)
(-1.90674 -1.02759e-06 -0.990549)
(-1.90671 -6.28619e-07 -0.990547)
(-1.90671 -1.36816e-06 -0.990548)
(-1.90671 9.39619e-07 -0.990549)
(-1.90671 -2.31896e-06 -0.990551)
(-1.9067 -1.64177e-06 -0.99055)
(-5.67139 2.71984e-05 -2.38031)
(-5.67139 -7.93059e-06 -2.3803)
(-5.67139 4.83985e-06 -2.3803)
(-5.67139 -5.80965e-06 -2.38029)
(-5.6714 1.65e-05 -2.3803)
(-5.67138 -2.11285e-05 -2.38028)
(-10.7178 8.27991e-05 -7.34837)
(-10.7178 6.86752e-06 -7.34857)
(-10.7178 2.37051e-05 -7.34857)
(-10.7179 -1.28882e-06 -7.34859)
(-10.7179 0.000115729 -7.34857)
(-10.7178 3.63169e-05 -7.34916)
(-1.82401 3.77497e-05 -4.46915)
(-1.82404 -1.87331e-05 -4.46918)
(-1.82404 2.11849e-05 -4.46917)
(-1.82404 -7.78051e-06 -4.46917)
(-1.82404 1.92643e-05 -4.46916)
(-1.82408 -5.14375e-05 -4.46911)
(2.57381 0.000107336 -6.34943)
(2.57431 -9.24838e-05 -6.3494)
(2.5742 1.76081e-05 -6.34938)
(2.57421 -0.000102645 -6.34934)
(2.5741 -3.25815e-05 -6.3493)
(2.57506 -0.000225133 -6.34943)
(-2.78741 -1.24847e-05 -8.66897)
(-2.78746 -8.3338e-05 -8.66899)
(-2.78745 -8.08819e-05 -8.66906)
(-2.78745 -8.83987e-05 -8.66907)
(-2.78744 -2.94919e-05 -8.66918)
(-2.78747 1.95283e-05 -8.66938)
(2.19265 6.9981e-05 -9.05146)
(2.19269 1.8469e-05 -9.05159)
(2.19267 9.6693e-05 -9.05161)
(2.19268 1.26445e-05 -9.05163)
(2.19271 5.2671e-05 -9.05168)
(2.19275 -5.67774e-05 -9.05166)
(2.20351 8.88331e-05 -9.68222)
(2.20378 7.47398e-05 -9.68257)
(2.2037 0.000121197 -9.6826)
(2.20372 2.12535e-05 -9.68265)
(2.20383 9.00565e-05 -9.68277)
(2.20386 2.71566e-05 -9.6827)
(-3.85058 3.37976e-05 -6.14004)
(-3.85063 4.19306e-05 -6.14011)
(-3.85061 -7.64006e-06 -6.14013)
(-3.85058 5.49773e-06 -6.14019)
(-3.85052 -4.38814e-05 -6.14031)
(-3.85041 -2.46285e-05 -6.14028)
(3.38788 0.000135989 -3.34821)
(3.38848 5.35499e-05 -3.34862)
(3.38862 0.000137687 -3.34853)
(3.38874 3.28897e-06 -3.34853)
(3.38885 0.000100877 -3.34865)
(3.38876 -4.21298e-05 -3.34861)
(-3.43545 5.44069e-05 1.47009)
(-3.43525 -3.40353e-05 1.47012)
(-3.43512 -2.72323e-05 1.4701)
(-3.43506 -6.20004e-05 1.47008)
(-3.43491 -6.86056e-06 1.47002)
(-3.43474 -7.92386e-06 1.46998)
(-5.25888 -4.74195e-06 -1.24916)
(-5.25899 -4.88117e-06 -1.24908)
(-5.25902 -6.61941e-06 -1.24905)
(-5.25901 -1.01577e-05 -1.24905)
(-5.25897 -8.57378e-06 -1.24905)
(-5.25886 3.28797e-06 -1.24897)
(-4.63152 -8.4472e-05 2.09296)
(-4.63141 -8.1032e-05 2.09305)
(-4.6314 -1.37456e-06 2.093)
(-4.63135 1.67558e-05 2.09306)
(-4.63121 0.000116814 2.09308)
(-4.63113 9.88868e-05 2.09284)
(-2.43373 -6.47567e-05 3.09906)
(-2.43377 -3.35679e-05 3.09919)
(-2.43378 -9.06543e-06 3.09919)
(-2.43382 -3.62792e-05 3.09923)
(-2.43383 4.74139e-06 3.09928)
(-2.43376 4.08069e-05 3.09924)
(-1.95577 -4.61655e-06 0.403926)
(-1.95583 -1.73428e-05 0.403941)
(-1.95588 -3.78512e-05 0.403988)
(-1.95593 -3.69184e-05 0.404034)
(-1.95598 -3.0894e-05 0.404069)
(-1.95599 -7.20424e-06 0.404096)
(-0.921171 -7.69056e-05 2.13147)
(-0.921237 -4.47486e-05 2.13151)
(-0.92124 3.84213e-05 2.1315)
(-0.921215 8.91649e-06 2.1316)
(-0.921203 6.70831e-05 2.13172)
(-0.921124 5.38856e-05 2.13157)
(-1.31967 -8.85452e-06 1.53282)
(-1.31971 -2.6254e-05 1.53285)
(-1.31971 -4.20782e-05 1.53286)
(-1.31968 -4.7858e-05 1.5329)
(-1.31967 -1.11168e-05 1.53293)
(-1.3196 1.12687e-05 1.53289)
(-1.81856 1.44435e-06 0.464359)
(-1.81862 -5.92292e-06 0.464352)
(-1.81862 -9.06036e-06 0.464348)
(-1.81861 -8.39288e-06 0.464337)
(-1.81861 1.85942e-06 0.464327)
(-1.81855 4.49643e-06 0.464312)
(-1.53672 -2.28624e-05 2.6783)
(-1.53679 -4.05742e-06 2.67841)
(-1.53676 1.59061e-05 2.6785)
(-1.53667 4.91859e-06 2.67853)
(-1.53659 3.39217e-05 2.67852)
(-1.5365 2.76937e-05 2.67838)
(-0.890615 6.82216e-06 2.51973)
(-0.890639 -2.02554e-05 2.51979)
(-0.890636 -4.47226e-05 2.51981)
(-0.890622 -2.61001e-05 2.51982)
(-0.89061 -9.17004e-07 2.51982)
(-0.890579 8.29708e-06 2.51975)
(-0.633557 -4.4883e-06 1.36803)
(-0.633581 -2.143e-05 1.36803)
(-0.633583 -2.46848e-05 1.36803)
(-0.633583 -1.59292e-05 1.36802)
(-0.633582 -5.1535e-06 1.36802)
(-0.633563 -1.10452e-06 1.368)
(-0.184576 2.57587e-05 2.77402)
(-0.184614 3.5866e-05 2.77423)
(-0.184582 2.34242e-05 2.77421)
(-0.184535 2.11334e-05 2.77415)
(-0.184499 3.63845e-05 2.77405)
(-0.184456 2.74753e-05 2.77386)
(-0.223025 -1.36359e-05 2.31218)
(-0.223042 -1.77338e-05 2.31225)
(-0.223034 3.27449e-06 2.31224)
(-0.223032 2.26459e-05 2.31222)
(-0.223035 3.70703e-05 2.31219)
(-0.223026 2.3492e-05 2.31211)
(-0.4316 -1.48278e-05 1.80864)
(-0.431617 -1.89645e-05 1.80866)
(-0.431613 -5.04662e-06 1.80865)
(-0.431611 2.23601e-06 1.80865)
(-0.43161 9.57529e-06 1.80864)
(-0.431592 7.02967e-06 1.80862)
(0.223523 -6.06327e-06 2.53117)
(0.223515 -5.13989e-05 2.53124)
(0.223516 -9.55473e-05 2.53124)
(0.223514 -0.000101111 2.53126)
(0.223514 -7.0939e-05 2.53129)
(0.22351 -2.0361e-05 2.53121)
(0.110775 -1.2803e-05 2.24451)
(0.110774 -1.92139e-05 2.24455)
(0.11077 -1.16801e-05 2.24456)
(0.110758 -9.22519e-06 2.24457)
(0.110743 1.89453e-06 2.24457)
(0.110732 6.34362e-06 2.24453)
(-0.0687646 -5.73127e-06 1.8667)
(-0.0687639 -4.42729e-06 1.86673)
(-0.0687629 3.51106e-06 1.86673)
(-0.0687639 4.08092e-06 1.86674)
(-0.0687666 7.01771e-06 1.86675)
(-0.0687643 4.13287e-06 1.86673)
(0.568886 -2.95396e-05 2.31693)
(0.568892 -8.60461e-05 2.31696)
(0.568901 -0.00012236 2.31702)
(0.568907 -0.000129942 2.31711)
(0.568919 -0.000102282 2.31721)
(0.568902 -3.94137e-05 2.31722)
(0.353199 -9.32431e-06 2.00248)
(0.353207 -2.2396e-05 2.00251)
(0.353208 -3.09409e-05 2.00254)
(0.353208 -3.58823e-05 2.00257)
(0.353209 -2.57164e-05 2.0026)
(0.3532 -7.65054e-06 2.00258)
(0.0545701 -1.71904e-07 1.75831)
(0.054572 -2.84892e-07 1.75834)
(0.0545712 -1.44563e-06 1.75835)
(0.0545705 -3.19207e-06 1.75836)
(0.0545695 -9.98453e-07 1.75837)
(0.0545688 7.67967e-07 1.75836)
(1.18938 -1.31511e-05 2.2667)
(1.1894 -2.90493e-05 2.26674)
(1.18941 -3.70751e-05 2.26677)
(1.18942 -4.032e-05 2.2668)
(1.18944 -3.5265e-05 2.26684)
(1.18942 -1.58475e-05 2.26684)
(0.733407 -2.59541e-06 1.697)
(0.733423 -8.9081e-06 1.69703)
(0.733429 -1.72773e-05 1.69704)
(0.733437 -2.09466e-05 1.69706)
(0.733446 -1.77631e-05 1.69707)
(0.733436 -6.54675e-06 1.69705)
(0.194636 3.93667e-07 1.47845)
(0.194639 -8.16294e-07 1.47848)
(0.194639 -3.44058e-06 1.47848)
(0.19464 -4.50057e-06 1.47849)
(0.194641 -3.35711e-06 1.4785)
(0.194638 -9.03476e-07 1.47848)
(0.225356 -9.20493e-07 0.0550768)
(0.225359 -6.3348e-07 0.0550779)
(0.225359 6.89202e-07 0.055078)
(0.22536 1.28636e-06 0.055078)
(0.22536 1.05166e-06 0.055078)
(0.225357 6.54518e-07 0.0550772)
(0.165421 -3.05977e-07 0.146537)
(0.165423 9.24976e-08 0.14654)
(0.165424 1.06617e-06 0.14654)
(0.165424 1.28297e-06 0.14654)
(0.165424 9.39039e-07 0.14654)
(0.165422 3.5147e-07 0.146537)
(0.0606739 -1.92073e-08 0.207938)
(0.060675 3.04167e-07 0.207941)
(0.0606752 7.98026e-07 0.207941)
(0.0606755 8.30401e-07 0.20794)
(0.0606757 4.28118e-07 0.20794)
(0.0606749 4.92828e-08 0.207937)
(0.309032 -5.95357e-07 0.0790492)
(0.309036 -3.9398e-07 0.0790506)
(0.309037 1.80736e-07 0.0790508)
(0.309038 5.97022e-07 0.0790508)
(0.309039 2.9106e-07 0.0790507)
(0.309034 3.38929e-07 0.0790495)
(0.225269 -6.51406e-08 0.209675)
(0.225272 1.65083e-07 0.209678)
(0.225273 4.86768e-07 0.209678)
(0.225273 3.86338e-07 0.209678)
(0.225274 1.22425e-07 0.209678)
(0.225271 7.47512e-09 0.209675)
(0.082026 1.89908e-08 0.292624)
(0.0820273 1.11323e-07 0.292628)
(0.0820277 2.41241e-07 0.292628)
(0.0820283 1.72869e-07 0.292628)
(0.0820289 -2.08125e-08 0.292628)
(0.0820276 -8.63523e-08 0.292624)
(0.430622 -4.99153e-07 0.113941)
(0.430629 -5.81569e-07 0.113943)
(0.43063 -1.11391e-06 0.113943)
(0.430632 -1.30742e-06 0.113943)
(0.430633 -1.10671e-06 0.113943)
(0.430627 1.10191e-07 0.113941)
(0.309443 9.53427e-08 0.297911)
(0.309448 -1.33594e-07 0.297916)
(0.309449 -7.67804e-07 0.297916)
(0.30945 -1.25251e-06 0.297916)
(0.309452 -6.68814e-07 0.297917)
(0.309447 5.26659e-08 0.297912)
(0.109478 6.13422e-08 0.407008)
(0.10948 -2.23812e-07 0.407014)
(0.10948 -5.99035e-07 0.407015)
(0.109481 -6.8914e-07 0.407015)
(0.109482 -1.42642e-07 0.407016)
(0.10948 1.59285e-07 0.407009)
(0.585782 -6.27888e-07 0.16155)
(0.585791 -1.32323e-06 0.161553)
(0.585793 -3.32182e-06 0.161553)
(0.585795 -3.69557e-06 0.161553)
(0.585796 -2.60103e-06 0.161553)
(0.585787 -3.15284e-08 0.16155)
(0.421802 2.39282e-07 0.423733)
(0.421809 -8.80269e-07 0.42374)
(0.421811 -2.85484e-06 0.42374)
(0.421813 -3.38835e-06 0.423741)
(0.421815 -1.9123e-06 0.423741)
(0.421808 -2.30932e-07 0.423735)
(0.143277 1.83999e-07 0.560846)
(0.14328 -5.68579e-07 0.560855)
(0.143281 -1.55538e-06 0.560855)
(0.143281 -1.57217e-06 0.560857)
(0.143282 -5.49507e-07 0.560858)
(0.14328 1.03463e-07 0.560849)
(0.815225 -4.33816e-07 0.226033)
(0.815239 -8.95888e-07 0.226037)
(0.81524 -4.90694e-06 0.226037)
(0.815243 -5.69068e-06 0.226037)
(0.815245 -4.02394e-06 0.226037)
(0.815232 1.00082e-07 0.226033)
(0.578992 3.77411e-08 0.592995)
(0.579003 -2.26972e-06 0.593004)
(0.579005 -5.38373e-06 0.593004)
(0.579007 -5.77722e-06 0.593005)
(0.579009 -3.37704e-06 0.593006)
(0.579001 -5.8084e-07 0.592997)