/*--------------------------------*- C++ -*----------------------------------*\
| =========                 |                                                 |
| \\      /  F ield         | OpenFOAM: The Open Source CFD Toolbox           |
|  \\    /   O peration     | Version:  v1612+                                |
|   \\  /    A nd           | Web:      www.OpenFOAM.com                      |
|    \\/     M anipulation  |                                                 |
\*---------------------------------------------------------------------------*/
FoamFile
{
    version     2.0;
    format      ascii;
    class       volScalarField;
    location    "5.55";
    object      alpha.water;
}
// * * * * * * * * * * * * * * * * * * * * * * * * * * * * * * * * * * * * * //

dimensions      [0 0 0 0 0 0 0];

internalField   nonuniform List<scalar> 
320
(
1
1
1
1
1.26321e-05
1.31731e-05
1.36252e-05
1.40426e-05
1.42085e-05
1.4783e-05
1.548e-05
1.39735e-05
1.36302e-05
1.34148e-05
1.19982e-05
1.411e-05
0.999983
0.999987
0.999989
0.999985
0.999983
0.999983
0.999984
0.999988
0.999984
0.999983
0.999993
0.999982
1
1
1
1
1
1
1
1
1
1
1
1
1
1
1
1
1
1
1
1
1
1
1
1
1
1
1
1
1.37281e-05
1.37218e-05
1.34658e-05
1.43445e-05
1.2962e-05
1.07565e-05
1.2022e-05
1.05045e-05
1.42659e-05
1.27687e-05
1.14816e-05
1.18226e-05
1.52636e-05
1.3192e-05
1.30671e-05
1.15216e-05
1.15216e-05
1.47791e-05
1.43657e-05
1.20765e-05
0.999987
0.999979
0.999988
0.999987
0.999994
0.999996
0.999993
0.999994
0.999982
0.999988
0.999993
0.999994
0.999984
0.999994
0.999992
0.999992
0.999992
0.999985
0.999987
0.999991
1
1
1
1
1
1
1
1
1
1
1
1
1
1
1
1
1
1
1
1
1
1
1
1
1
1
1
1
1
1
1
1
1
1
1
1
1
1
1
1
1
1
1
1
1
1
1
1
1
1
1
1
1
1
1
1
1
1
1
1
1
1
1
1
1
1
1
1
1
1
1
1
1
1
1
1
1.28451e-05
1.37255e-05
1.50754e-05
1.19035e-05
1.40017e-05
1.41638e-05
1.64102e-05
1.33366e-05
1.20532e-05
1.52986e-05
1.29658e-05
1.28781e-05
1.42842e-05
1.39186e-05
1.38323e-05
1.32908e-05
1.35828e-05
1.39182e-05
1.56268e-05
1.75159e-05
1.58195e-05
1.26118e-05
1.16185e-05
1.3044e-05
1.27409e-05
1.43083e-05
1.42088e-05
1.34555e-05
0.999982
0.999983
0.999985
0.999991
0.999987
0.999987
0.999982
0.999985
0.999987
0.999979
0.999981
0.999984
0.999979
0.999986
0.999986
0.999986
0.999982
0.999984
0.999987
0.999982
0.999981
0.999985
0.999989
0.999985
0.99999
0.999987
0.999983
0.999981
1
1
1
1
1
1
1
1
1
1
1
1
1
1
1
1
1
1
1
1
1
1
1
1
1
1
1
1
1
1
1
1
1
1
1
1
1
1
1
1
1
1
1
1
1
1
1
1
1
1
1
1
1
1
1
1
1
1
1
1
1
1
1
1
1
1
1
1
1
1
1
1
1
1
1
1
1
1
1
1
1
1
1
1
1.56593e-05
1.29174e-05
1.41596e-05
1.29174e-05
0.999981
0.999988
0.999987
0.999993
)
;

boundaryField
{
    top_fluid_surface
    {
        type            inletOutlet;
        inletValue      uniform 0;
        value           nonuniform List<scalar> 
64
(
1.26321e-05
1.31731e-05
0
0
0
0
0
0
0
0
1.19982e-05
0
1.37281e-05
0
1.34658e-05
0
1.2962e-05
1.07565e-05
1.2022e-05
1.05045e-05
0
1.27687e-05
1.14816e-05
1.18226e-05
0
1.3192e-05
1.30671e-05
1.15216e-05
1.15216e-05
0
0
1.20765e-05
1.28451e-05
1.37255e-05
0
1.19035e-05
0
0
0
0
1.20532e-05
0
0
1.28781e-05
0
1.39186e-05
0
1.32908e-05
0
0
0
0
0
1.26118e-05
1.16185e-05
1.3044e-05
1.27409e-05
0
0
0
0
1.29174e-05
0
1.29174e-05
)
;
    }
    bottom_fluid_surface
    {
        type            zeroGradient;
    }
    lateral_surface_1
    {
        type            zeroGradient;
    }
    lateral_surface_2
    {
        type            zeroGradient;
    }
    lateral_surface_3
    {
        type            zeroGradient;
    }
    lateral_surface_4
    {
        type            zeroGradient;
    }
}


// ************************************************************************* //
