/*--------------------------------*- C++ -*----------------------------------*\
| =========                 |                                                 |
| \\      /  F ield         | OpenFOAM: The Open Source CFD Toolbox           |
|  \\    /   O peration     | Version:  v1612+                                |
|   \\  /    A nd           | Web:      www.OpenFOAM.com                      |
|    \\/     M anipulation  |                                                 |
\*---------------------------------------------------------------------------*/
FoamFile
{
    version     2.0;
    format      ascii;
    class       volScalarField;
    location    "5.55";
    object      p;
}
// * * * * * * * * * * * * * * * * * * * * * * * * * * * * * * * * * * * * * //

dimensions      [1 -1 -2 0 0 0 0];

internalField   nonuniform List<scalar> 
320
(
14724.8
14724.8
14724.8
14724.8
4.97076
4.97126
4.97113
4.96994
4.97001
4.97091
4.97086
4.97032
4.97154
4.97049
4.97263
4.97137
4914.81
4914.84
4914.86
4914.88
4914.87
4914.88
4914.89
4914.89
4914.87
4914.86
4914.85
4914.86
14724.8
14724.8
14724.8
14724.8
14724.8
14724.8
14724.8
14724.8
14724.8
14724.8
14724.8
14724.8
24534.8
24534.8
24534.8
24534.8
24534.8
24534.8
24534.8
24534.8
24534.8
24534.8
24534.8
24534.8
24534.8
24534.8
24534.8
24534.8
4.97283
4.97162
4.97181
4.97058
4.97033
4.96968
4.96983
4.96978
4.971
4.97272
4.97233
4.97141
4.97075
4.97192
4.97265
4.97185
4.97226
4.97325
4.97287
4.97393
4914.84
4914.84
4914.85
4914.89
4914.87
4914.85
4914.85
4914.83
4914.87
4914.84
4914.84
4914.85
4914.89
4914.87
4914.86
4914.84
4914.84
4914.89
4914.89
4914.84
14724.8
14724.8
14724.8
14724.8
14724.8
14724.8
14724.8
14724.8
14724.8
14724.8
14724.8
14724.8
14724.8
14724.8
14724.8
14724.8
14724.8
14724.8
14724.8
14724.8
24534.8
24534.8
24534.8
24534.8
24534.8
24534.8
24534.8
24534.8
24534.8
24534.8
24534.8
24534.8
24534.8
24534.8
24534.8
24534.8
24534.8
24534.8
24534.8
24534.8
34344.8
34344.8
34344.8
34344.8
34344.8
34344.8
34344.8
34344.8
34344.8
34344.8
34344.8
34344.8
34344.8
34344.8
34344.8
34344.8
34344.8
34344.8
34344.8
34344.8
34344.8
34344.8
34344.8
34344.8
34344.8
34344.8
34344.8
34344.8
34344.8
34344.8
34344.8
34344.8
34344.8
34344.8
34344.8
34344.8
4.97156
4.97315
4.97329
4.97087
4.96988
4.96996
4.97201
4.96992
4.96869
4.96935
4.96963
4.97227
4.97244
4.97551
4.97298
4.9735
4.9713
4.97114
4.97176
4.97311
4.97365
4.97263
4.97115
4.97201
4.97331
4.97294
4.97215
4.97215
4914.81
4914.82
4914.89
4914.84
4914.89
4914.89
4914.9
4914.87
4914.82
4914.87
4914.84
4914.82
4914.85
4914.84
4914.88
4914.83
4914.85
4914.87
4914.91
4914.91
4914.88
4914.82
4914.83
4914.83
4914.84
4914.86
4914.87
4914.85
14724.8
14724.8
14724.8
14724.8
14724.8
14724.8
14724.8
14724.8
14724.8
14724.8
14724.8
14724.8
14724.8
14724.8
14724.8
14724.8
14724.8
14724.8
14724.8
14724.8
14724.8
14724.8
14724.8
14724.8
14724.8
14724.8
14724.8
14724.8
24534.8
24534.8
24534.8
24534.8
24534.8
24534.8
24534.8
24534.8
24534.8
24534.8
24534.8
24534.8
24534.8
24534.8
24534.8
24534.8
24534.8
24534.8
24534.8
24534.8
24534.8
24534.8
24534.8
24534.8
24534.8
24534.8
24534.8
24534.8
34344.8
34344.8
34344.8
34344.8
34344.8
34344.8
34344.8
34344.8
34344.8
34344.8
34344.8
34344.8
34344.8
34344.8
34344.8
34344.8
34344.8
34344.8
34344.8
34344.8
34344.8
34344.8
34344.8
34344.8
34344.8
34344.8
34344.8
34344.8
4.97078
4.96978
4.97078
4.97049
4914.88
4914.84
4914.89
4914.87
)
;

boundaryField
{
    top_fluid_surface
    {
        type            calculated;
        value           nonuniform List<scalar> 
64
(
0
0
-1.65087e-08
-3.40661e-09
-4.20761e-09
-1.22081e-08
-2.31514e-08
-3.7121e-09
-6.41023e-10
-4.19907e-10
0
-3.53251e-09
0
-3.29273e-10
0
-4.62666e-09
0
0
0
0
-3.73833e-09
0
0
0
-2.67887e-08
0
0
0
0
-2.11541e-09
-1.16915e-09
0
0
0
-6.66489e-09
0
-3.73697e-09
-8.37617e-09
-4.25766e-08
-6.72003e-10
0
-3.64189e-08
-9.84831e-10
0
-3.83163e-10
0
0
0
-2.94469e-10
-1.56865e-09
-2.3263e-08
-6.53501e-08
-2.10775e-08
0
0
0
0
-4.56754e-08
-2.29477e-09
-6.84464e-10
-3.49222e-08
0
-2.6874e-09
0
)
;
    }
    bottom_fluid_surface
    {
        type            calculated;
        value           nonuniform List<scalar> 
64
(
39249.8
39249.8
39249.8
39249.8
39249.8
39249.8
39249.8
39249.8
39249.8
39249.8
39249.8
39249.8
39249.8
39249.8
39249.8
39249.8
39249.8
39249.8
39249.8
39249.8
39249.8
39249.8
39249.8
39249.8
39249.8
39249.8
39249.8
39249.8
39249.8
39249.8
39249.8
39249.8
39249.8
39249.8
39249.8
39249.8
39249.8
39249.8
39249.8
39249.8
39249.8
39249.8
39249.8
39249.8
39249.8
39249.8
39249.8
39249.8
39249.8
39249.8
39249.8
39249.8
39249.8
39249.8
39249.8
39249.8
39249.8
39249.8
39249.8
39249.8
39249.8
39249.8
39249.8
39249.8
)
;
    }
    lateral_surface_1
    {
        type            calculated;
        value           nonuniform List<scalar> 
40
(
4.97156
4.97315
4.97329
4.97087
4.96988
4.96996
4.97201
4.97215
4914.81
4914.82
4914.89
4914.84
4914.89
4914.89
4914.9
4914.85
14724.8
14724.8
14724.8
14724.8
14724.8
14724.8
14724.8
14724.8
24534.8
24534.8
24534.8
24534.8
24534.8
24534.8
24534.8
24534.8
34344.8
34344.8
34344.8
34344.8
34344.8
34344.8
34344.8
34344.8
)
;
    }
    lateral_surface_2
    {
        type            calculated;
        value           nonuniform List<scalar> 
40
(
4.97551
4.97298
4.9735
4.9713
4.97114
4.97176
4.97311
4.97365
4914.84
4914.88
4914.83
4914.85
4914.87
4914.91
4914.91
4914.88
14724.8
14724.8
14724.8
14724.8
14724.8
14724.8
14724.8
14724.8
24534.8
24534.8
24534.8
24534.8
24534.8
24534.8
24534.8
24534.8
34344.8
34344.8
34344.8
34344.8
34344.8
34344.8
34344.8
34344.8
)
;
    }
    lateral_surface_3
    {
        type            calculated;
        value           nonuniform List<scalar> 
40
(
4.97201
4.96992
4.96869
4.96935
4.96963
4.97227
4.97244
4.97551
4914.9
4914.87
4914.82
4914.87
4914.84
4914.82
4914.85
4914.84
14724.8
14724.8
14724.8
14724.8
14724.8
14724.8
14724.8
14724.8
24534.8
24534.8
24534.8
24534.8
24534.8
24534.8
24534.8
24534.8
34344.8
34344.8
34344.8
34344.8
34344.8
34344.8
34344.8
34344.8
)
;
    }
    lateral_surface_4
    {
        type            calculated;
        value           nonuniform List<scalar> 
40
(
4.97365
4.97263
4.97115
4.97201
4.97331
4.97294
4.97215
4.97215
4914.88
4914.82
4914.83
4914.83
4914.84
4914.86
4914.87
4914.85
14724.8
14724.8
14724.8
14724.8
14724.8
14724.8
14724.8
14724.8
24534.8
24534.8
24534.8
24534.8
24534.8
24534.8
24534.8
24534.8
34344.8
34344.8
34344.8
34344.8
34344.8
34344.8
34344.8
34344.8
)
;
    }
}


// ************************************************************************* //
