/*--------------------------------*- C++ -*----------------------------------*\
| =========                 |                                                 |
| \\      /  F ield         | OpenFOAM: The Open Source CFD Toolbox           |
|  \\    /   O peration     | Version:  v1612+                                |
|   \\  /    A nd           | Web:      www.OpenFOAM.com                      |
|    \\/     M anipulation  |                                                 |
\*---------------------------------------------------------------------------*/
FoamFile
{
    version     2.0;
    format      ascii;
    class       surfaceScalarField;
    location    "4.2";
    object      alphaPhi;
}
// * * * * * * * * * * * * * * * * * * * * * * * * * * * * * * * * * * * * * //

dimensions      [0 3 -1 0 0 0 0];

internalField   nonuniform List<scalar> 
2916
(
3.45748e-06
0.118965
-5.01809e-07
2.62167e-06
0.118967
-5.01728e-07
-1.38515e-06
0.118966
-5.01779e-07
4.85976e-07
0.118967
-5.01805e-07
3.70409e-06
0.118967
-5.01765e-07
0.118965
-5.01891e-07
4.45136e-06
0.236137
-1.35004e-06
2.81674e-06
0.236143
-1.35001e-06
-3.48348e-07
0.236141
-1.35005e-06
1.86282e-06
0.236142
-1.35002e-06
4.5078e-06
0.236144
-1.3499e-06
0.236139
-1.35009e-06
4.59584e-06
0.364205
-1.74774e-07
2.18255e-06
0.364217
-1.74785e-07
3.31084e-07
0.364214
-1.7479e-07
2.28393e-06
0.364215
-1.74778e-07
3.29359e-06
0.364217
-1.74778e-07
0.364209
-1.74825e-07
4.75642e-06
0.503977
-2.34213e-08
1.80984e-06
0.503999
-2.34251e-08
9.38037e-07
0.503993
-2.3425e-08
1.74127e-06
0.503993
-2.34242e-08
4.98438e-07
0.503997
-2.3425e-08
0.503984
-2.34265e-08
4.40925e-06
0.618386
-2.48434e-09
1.39962e-06
0.618414
-2.48361e-09
9.54516e-07
0.618406
-2.48411e-09
6.00247e-07
0.618407
-2.48377e-09
-1.97387e-06
0.618412
-2.48283e-09
0.618392
-2.4842e-09
4.09482e-06
0.593712
0.0615245
2.1384e-06
0.593743
0.0615277
7.7141e-07
0.593735
0.0615271
-5.30052e-07
0.593735
0.0615276
-3.47523e-06
0.593741
0.0615282
0.593711
0.0615279
-3.52941e-06
0.26101
0.259508
-4.44884e-07
0.261046
0.259498
-3.39233e-06
0.26104
0.2595
-5.89976e-06
0.26104
0.2595
-5.99191e-06
0.261047
0.259496
0.261008
0.2595
-7.08774e-07
-0.25831
0.518244
-1.29009e-06
-0.258284
0.518254
-6.00124e-06
-0.258277
0.518245
-1.00339e-05
-0.258278
0.518245
-1.58538e-05
-0.25827
0.518246
-0.258326
0.518241
1.38435e-05
-0.839283
0.579881
5.66125e-06
-0.839284
0.579929
4.88924e-07
-0.839258
0.579907
-7.03878e-06
-0.83926
0.57991
-2.62769e-05
-0.839255
0.579924
-0.839321
0.579889
4.69896e-05
-1.10335
0.263077
1.53504e-05
-1.10336
0.263157
9.10855e-06
-1.10333
0.26313
-1.82974e-06
-1.10333
0.263133
-3.78413e-05
-1.10332
0.263156
-1.10338
0.263074
7.49404e-05
-0.751806
-0.352347
1.37476e-05
-0.751787
-0.352234
4.88947e-06
-0.75178
-0.352267
-7.29151e-06
-0.75178
-0.352262
-5.40905e-05
-0.751769
-0.352233
-0.75181
-0.352349
8.10381e-06
-0.752674
-1.44697e-05
-0.752627
-1.28766e-05
-0.752648
-9.15281e-06
-0.752654
-9.57855e-06
-0.752637
-0.752686
-8.5166e-13
3.70836e-08
-5.41326e-07
-4.93641e-14
3.70802e-08
-5.41241e-07
4.67794e-13
3.7082e-08
-5.41295e-07
1.17245e-12
3.70836e-08
-5.41323e-07
1.55008e-12
3.70829e-08
-5.41281e-07
3.70885e-08
-5.41413e-07
-1.41484e-12
1.07408e-07
-1.42349e-06
4.76792e-13
1.0741e-07
-1.42346e-06
1.47897e-12
1.07412e-07
-1.4235e-06
2.66603e-12
1.07411e-07
-1.42347e-06
3.89462e-12
1.07407e-07
-1.42335e-06
1.07415e-07
-1.42353e-06
-5.01735e-13
5.18601e-08
-1.21747e-07
1.55053e-13
5.18618e-08
-1.21759e-07
4.81131e-13
5.18629e-08
-1.21762e-07
8.55739e-13
5.18611e-08
-1.21749e-07
1.36619e-12
5.18612e-08
-1.21754e-07
5.18676e-08
-1.21798e-07
-9.83236e-14
4.29653e-08
-1.69861e-08
1.38548e-13
4.2966e-08
-1.6989e-08
2.99573e-13
4.29665e-08
-1.6988e-08
4.63759e-13
4.2966e-08
-1.69887e-08
4.62805e-13
4.29661e-08
-1.699e-08
4.29669e-08
-1.69854e-08
2.06278e-13
3.48271e-08
3.19895e-09
2.51652e-14
3.48277e-08
3.20028e-09
3.67077e-14
3.4828e-08
3.20013e-09
-1.35136e-13
3.48276e-08
3.20042e-09
-5.74905e-13
3.48276e-08
3.20091e-09
3.48272e-08
3.19974e-09
4.19183e-08
0.0487521
0.00131376
-2.09905e-08
0.0487566
0.00131388
-1.74775e-09
0.0487554
0.00131387
-1.12141e-07
0.0487557
0.00131383
-3.39456e-07
0.0487568
0.00131383
0.0487553
0.00131385
-1.58884e-07
0.21242
0.00344418
-2.5631e-06
0.21244
0.00344851
-2.11835e-06
0.212434
0.00344656
-2.26125e-06
0.212435
0.00344635
-3.32144e-06
0.212441
0.003447
0.212422
0.00344599
9.25656e-06
0.133243
0.00350382
-1.28758e-05
0.133289
0.00351186
-6.23379e-06
0.133278
0.0035103
-5.94053e-06
0.133279
0.00350947
-2.18131e-05
0.133294
0.00351222
0.133239
0.0035072
0.000101492
-0.269328
0.468289
9.67222e-06
-0.269258
0.468465
-1.9951e-06
-0.269262
0.468376
-6.72657e-06
-0.269256
0.468367
-6.88514e-05
-0.26922
0.468403
-0.26934
0.468335
9.38902e-05
-0.431931
0.424751
1.38415e-05
-0.431907
0.425052
1.50049e-05
-0.431888
0.424921
9.87783e-06
-0.431882
0.424931
-2.93314e-05
-0.431863
0.425006
-0.431943
0.424813
0.000115349
-0.349392
-0.435967
3.53834e-05
-0.349244
-0.435784
2.45825e-05
-0.349261
-0.435849
3.56452e-06
-0.349266
-0.435823
-4.33617e-05
-0.349223
-0.435792
-0.349364
-0.435937
-5.23328e-05
-1.09585
-3.23501e-05
-1.09573
-1.75328e-05
-1.09576
5.63003e-06
-1.09578
6.11679e-05
-1.09576
-1.09583
-1.12122e-11
-2.30807e-07
-3.27547e-07
-5.26343e-12
-2.30745e-07
-3.27406e-07
3.60066e-12
-2.30775e-07
-3.27459e-07
5.11691e-12
-2.30767e-07
-3.27493e-07
6.09236e-12
-2.30732e-07
-3.27458e-07
-2.30831e-07
-3.2762e-07
-1.94092e-11
-2.12928e-07
-1.47486e-06
-4.8307e-12
-2.12892e-07
-1.47471e-06
3.49408e-12
-2.1291e-07
-1.4748e-06
9.71916e-12
-2.12898e-07
-1.47479e-06
2.92767e-11
-2.12877e-07
-1.47462e-06
-2.12965e-07
-1.47492e-06
-4.25733e-12
-1.39351e-08
-3.90768e-07
-2.52823e-12
-1.39389e-08
-3.90688e-07
-1.81784e-12
-1.39373e-08
-3.90719e-07
-4.97864e-13
-1.39376e-08
-3.90701e-07
3.3072e-12
-1.39411e-08
-3.90667e-07
-1.39384e-08
-3.90861e-07
-1.02097e-12
1.06095e-09
-3.7348e-08
-6.52259e-13
1.06097e-09
-3.73572e-08
-7.26553e-13
1.061e-09
-3.73552e-08
-3.10519e-13
1.06071e-09
-3.73574e-08
8.68652e-13
1.06067e-09
-3.7362e-08
1.06133e-09
-3.73521e-08
-1.58145e-12
2.07697e-07
-2.04692e-07
-1.81808e-12
2.07908e-07
-2.04903e-07
-1.86355e-12
2.07883e-07
-2.04878e-07
-1.32856e-12
2.07908e-07
-2.04903e-07
-2.11206e-13
2.07974e-07
-2.0497e-07
2.07799e-07
-2.04795e-07
-3.28291e-08
0.00131637
-2.32478e-06
-7.50306e-08
0.00131648
-2.3153e-06
-7.12474e-08
0.00131643
-2.31741e-06
-5.94621e-08
0.00131638
-2.31954e-06
-4.31019e-08
0.00131637
-2.31763e-06
0.00131637
-2.3212e-06
1.50758e-06
0.00443645
1.137e-05
-5.78291e-07
0.00444449
1.14041e-05
-4.40269e-07
0.00444019
1.13976e-05
-2.60108e-07
0.0044399
1.13856e-05
-6.69514e-07
0.00444114
1.13918e-05
0.00443909
1.13638e-05
3.90882e-06
-0.0108394
0.000875901
8.72257e-09
-0.0108321
0.000879112
-1.79541e-07
-0.0108378
0.000877862
-1.74121e-07
-0.0108342
0.0008773
-2.25223e-06
-0.0108313
0.000878344
-0.0108376
0.000876457
7.42577e-05
-0.115933
-0.00834267
9.49494e-06
-0.115809
-0.00835845
-1.47592e-05
-0.115868
-0.00834934
-1.74873e-06
-0.115866
-0.00835124
-3.61283e-05
-0.115834
-0.00835529
-0.115892
-0.00834741
0.00026208
-0.147925
0.0402722
1.61813e-05
-0.147566
0.0406626
-1.10473e-05
-0.147716
0.0404855
1.4655e-05
-0.147726
0.0404592
-0.00013765
-0.147623
0.0405756
-0.147824
0.0403741
0.000473878
-0.12697
-0.523973
4.09953e-05
-0.126729
-0.522689
-4.59618e-05
-0.126782
-0.523231
1.35727e-05
-0.126813
-0.523329
-0.000171197
-0.126798
-0.522945
-0.126864
-0.523625
-0.000159137
-1.2271
-2.40362e-05
-1.22704
2.64956e-05
-1.22704
3.62709e-05
-1.22705
0.000104331
-1.22706
-1.22703
6.57268e-12
-1.38872e-08
-6.29749e-08
3.8326e-12
-1.38153e-08
-6.29175e-08
-7.72858e-14
-1.38219e-08
-6.2938e-08
-3.73029e-12
-1.38254e-08
-6.29397e-08
-6.43081e-12
-1.38141e-08
-6.29079e-08
-1.38876e-08
-6.29901e-08
2.3834e-11
-4.74226e-08
-9.91881e-07
4.72402e-12
-4.74207e-08
-9.91656e-07
-8.43241e-12
-4.74163e-08
-9.91759e-07
-2.07347e-11
-4.74191e-08
-9.91745e-07
-3.13524e-11
-4.74363e-08
-9.91541e-07
-4.74339e-08
-9.91967e-07
-5.476e-12
-7.41565e-08
-3.25798e-07
-5.86988e-12
-7.41304e-08
-3.25687e-07
-6.56276e-12
-7.41373e-08
-3.25718e-07
-5.69738e-12
-7.41362e-08
-3.25703e-07
-1.03125e-12
-7.41311e-08
-3.25668e-07
-7.41751e-08
-3.25878e-07
-1.84546e-12
-1.09299e-07
-5.96117e-09
-1.25378e-12
-1.09315e-07
-5.95875e-09
-1.31413e-12
-1.09315e-07
-5.95919e-09
-7.98098e-13
-1.09328e-07
-5.95864e-09
7.74472e-13
-1.0934e-07
-5.95795e-09
-1.09332e-07
-5.96103e-09
-1.13444e-10
-2.80347e-07
-3.9956e-08
-6.36061e-11
-2.80719e-07
-3.99754e-08
-6.11397e-11
-2.80652e-07
-3.99723e-08
-3.34795e-11
-2.80712e-07
-3.99755e-08
4.37026e-11
-2.80834e-07
-3.99821e-08
-2.8055e-07
-3.99632e-08
-2.51618e-09
-3.87666e-06
5.86532e-08
-2.04292e-09
-3.87426e-06
5.98055e-08
-1.96013e-09
-3.87474e-06
5.93986e-08
-1.29225e-09
-3.8772e-06
5.91113e-08
4.64392e-10
-3.87742e-06
5.93043e-08
-3.87698e-06
5.89589e-08
1.13163e-07
-2.79447e-05
-1.96733e-06
1.31083e-09
-2.7703e-05
-1.94085e-06
-3.97299e-09
-2.78125e-05
-1.95632e-06
9.96191e-09
-2.78395e-05
-1.96205e-06
-1.83962e-08
-2.77918e-05
-1.9599e-06
-2.78583e-05
-1.96817e-06
8.81499e-07
0.000651005
-0.000156489
3.8162e-07
0.000656502
-0.000157101
2.13511e-07
0.000654379
-0.000156767
3.51399e-07
0.000653388
-0.000156673
1.80591e-07
0.000654681
-0.000156554
0.000652897
-0.000156701
1.73666e-05
-0.194713
-0.000257669
3.86196e-06
-0.195138
-0.000258829
-2.28666e-06
-0.194986
-0.000258875
-1.71915e-06
-0.194896
-0.000258701
-5.31271e-06
-0.194981
-0.000256771
-0.194855
-0.000258346
0.000204467
-0.424977
-0.0124745
5.19805e-05
-0.425455
-0.0125342
-4.19956e-06
-0.425283
-0.0125116
1.5074e-05
-0.425204
-0.0125108
-2.91226e-05
-0.425282
-0.0125227
-0.42517
-0.0124997
-0.000848301
-0.179054
-0.119764
0.000148346
-0.178146
-0.12003
0.000174551
-0.178523
-0.119914
-2.85088e-05
-0.178654
-0.119924
0.000356227
-0.178454
-0.119994
-0.178721
-0.119869
-0.000526555
-0.529227
3.79006e-08
-0.529376
0.000120116
-0.5293
3.11636e-05
-0.529432
0.000125092
-0.529532
-0.529213
-1.48877e-23
-7.86331e-17
4.55361e-19
-2.31343e-23
-7.75351e-17
4.49283e-19
-2.15131e-23
-8.33391e-17
4.82661e-19
-1.88382e-23
-7.17546e-17
4.15639e-19
-1.44376e-23
-7.0204e-17
4.13752e-19
-9.04991e-17
5.23492e-19
-4.08705e-21
-2.51824e-16
8.42847e-17
-5.86015e-21
-2.4822e-16
8.31056e-17
-5.35691e-21
-2.67096e-16
8.93255e-17
-4.84375e-21
-2.29617e-16
7.69083e-17
-3.89421e-21
-1.90839e-16
7.52455e-17
-2.88451e-16
9.6997e-17
-5.34507e-19
-3.76586e-14
7.67937e-15
-8.43422e-19
-3.72808e-14
7.56864e-15
-7.80873e-19
-3.9221e-14
8.14996e-15
-7.87921e-19
-3.52174e-14
6.98892e-15
-6.60525e-19
-3.42703e-14
6.73392e-15
-4.14185e-14
8.86242e-15
-8.24143e-17
-2.36122e-12
9.23862e-13
-1.8476e-16
-2.32698e-12
9.10445e-13
-1.17828e-16
-2.5039e-12
9.80683e-13
-2.00657e-16
-2.15093e-12
8.40275e-13
-1.92986e-16
-2.07206e-12
8.09437e-13
-2.72122e-12
1.06687e-12
-5.43587e-17
-1.72846e-10
7.88906e-11
-2.36105e-14
-1.70623e-10
7.7586e-11
2.55144e-15
-1.82041e-10
8.39657e-11
-4.07838e-14
-1.59134e-10
7.13553e-11
-6.01443e-14
-1.54042e-10
6.87965e-11
-1.97419e-10
9.16746e-11
2.73442e-12
-1.22841e-08
5.30941e-09
-3.26188e-12
-1.2082e-08
5.2203e-09
4.24113e-12
-1.30623e-08
5.66874e-09
-8.96675e-12
-1.11268e-08
4.78001e-09
-1.43175e-11
-1.07265e-08
4.60381e-09
-1.42549e-08
6.21319e-09
6.76353e-10
-6.21589e-07
2.93256e-07
-5.48171e-10
-6.09535e-07
2.86594e-07
3.4779e-09
-6.6349e-07
3.09494e-07
-2.1039e-09
-5.57958e-07
2.67019e-07
-8.38106e-09
-5.38015e-07
2.62637e-07
-7.26917e-07
3.33925e-07
5.3741e-08
-0.000508102
6.46005e-06
-1.67009e-08
-0.000500513
6.41798e-06
6.60163e-07
-0.000537675
6.64444e-06
-1.57245e-07
-0.000464618
6.12043e-06
-1.53553e-06
-0.000446753
6.00879e-06
-0.000583095
6.95231e-06
5.00037e-07
-0.000116319
-0.00405562
8.50199e-08
-0.000116034
-0.00401596
1.45681e-05
-0.000126907
-0.00423493
-2.19706e-06
-0.000102607
-0.00379691
-3.42544e-05
-9.37942e-05
-0.00364236
-0.000142803
-0.00453271
-4.98925e-07
0.000363328
-0.000753471
1.23458e-06
0.000362984
-0.000757013
9.01299e-06
0.00037226
-0.000801375
-9.31774e-07
0.000350547
-0.000696873
-2.48286e-05
0.000339599
-0.000643444
0.00038916
-0.000856941
-3.46833e-08
4.85994e-05
0.000104861
1.0834e-07
4.7355e-05
0.000103298
7.40008e-07
4.64242e-05
9.59779e-05
-6.69507e-08
4.53828e-05
0.000114659
-2.10328e-06
4.4991e-05
0.000123952
4.66912e-05
7.57829e-05
2.03728e-09
6.69328e-06
7.39613e-09
6.51991e-06
1.50275e-08
6.86645e-06
-6.79799e-11
6.20917e-06
-2.64496e-08
5.82533e-06
7.47612e-06
-9.69782e-23
-3.08478e-16
5.76126e-18
-1.32717e-22
-3.05828e-16
5.69706e-18
-1.22307e-22
-3.15115e-16
5.93685e-18
-1.00349e-22
-2.96678e-16
5.51197e-18
-6.93617e-23
-2.92463e-16
5.39033e-18
-3.26036e-16
6.22687e-18
-1.16494e-20
-1.3802e-15
4.67127e-16
-1.50101e-20
-1.36529e-15
4.6178e-16
-1.36029e-20
-1.41627e-15
4.80223e-16
-1.14581e-20
-1.26804e-15
4.46035e-16
-7.15792e-21
-1.24392e-15
4.36511e-16
-1.47697e-15
5.02364e-16
-1.43879e-18
-1.02452e-13
7.1441e-14
-2.76319e-18
-1.01028e-13
7.06375e-14
-2.03028e-18
-1.05365e-13
7.31246e-14
-2.89377e-18
-9.73756e-14
6.8454e-14
-2.09242e-18
-9.51742e-14
6.71274e-14
-1.10669e-13
7.60898e-14
8.7605e-17
-1.64921e-11
1.08651e-11
-4.43776e-16
-1.63045e-11
1.07381e-11
-8.91124e-17
-1.68977e-11
1.1169e-11
-8.0658e-16
-1.57815e-11
1.03455e-11
-7.27914e-16
-1.54684e-11
1.01228e-11
-1.76029e-11
1.16868e-11
1.21732e-13
-1.42178e-09
1.03961e-09
-1.10727e-13
-1.40151e-09
1.02407e-09
-1.63465e-14
-1.4511e-09
1.06342e-09
-2.66694e-13
-1.36482e-09
9.93776e-10
-7.66954e-14
-1.34706e-09
9.80866e-10
-1.50456e-09
1.10604e-09
2.21405e-11
-1.05557e-07
8.55013e-08
-3.06632e-11
-1.03688e-07
8.3151e-08
5.99522e-11
-1.07279e-07
8.54628e-08
-7.69284e-11
-1.01555e-07
8.34507e-08
-1.47581e-10
-1.01303e-07
8.55841e-08
-1.10544e-07
8.59539e-08
3.33461e-09
-6.2348e-06
5.01742e-06
-2.60202e-09
-6.05254e-06
4.8559e-06
2.72485e-08
-6.22171e-06
4.96186e-06
-1.10048e-08
-6.09562e-06
4.95458e-06
-6.18262e-08
-6.27764e-06
5.1721e-06
-6.24646e-06
4.921e-06
4.12635e-07
-0.000168758
0.000125026
-6.77878e-08
-0.000163237
0.000120975
1.19532e-06
-0.000166381
0.000121025
-5.09769e-07
-0.00016731
0.000127157
-2.94312e-06
-0.000174269
0.000135517
-0.000165433
0.000116898
8.03122e-06
-0.0243013
-0.00244976
9.94491e-07
-0.024131
-0.00239342
-4.49073e-05
-0.0246632
-0.00246841
2.39781e-06
-0.0236465
-0.0023734
9.95194e-05
-0.0231557
-0.00238828
-0.0254749
-0.00253094
-1.27744e-05
-0.00344858
-0.068191
5.95164e-06
-0.00344659
-0.0679919
-7.80617e-05
-0.00362186
-0.0689462
7.57363e-05
-0.00322617
-0.0669754
0.000209413
-0.00299727
-0.0655167
-0.0039602
-0.070914
-1.64188e-07
0.000116332
-0.00427564
2.70313e-06
0.000115839
-0.00434956
2.02782e-06
0.00011404
-0.00471421
4.51436e-06
0.000112295
-0.0038021
4.6743e-06
0.000110932
-0.00347264
0.000114406
-0.00552589
5.32486e-08
7.9659e-05
2.05179e-08
7.96243e-05
-1.95023e-07
7.94507e-05
7.26382e-08
7.78708e-05
4.6748e-07
7.63657e-05
8.04929e-05
-1.1819e-23
-5.42552e-17
1.70934e-18
-1.38962e-23
-5.33745e-17
1.68591e-18
-1.16531e-23
-5.44731e-17
1.72139e-18
-8.02899e-24
-5.32873e-17
1.67666e-18
-3.42684e-24
-5.34369e-17
1.67362e-18
-5.54322e-17
1.75444e-18
-1.64939e-21
-2.42025e-16
1.87196e-16
-1.64503e-21
-2.39231e-16
1.84153e-16
-1.0467e-21
-2.46359e-16
1.87943e-16
-6.61789e-22
-2.34025e-16
1.83851e-16
1.16691e-22
-2.3133e-16
1.84367e-16
-2.54478e-16
1.91253e-16
-1.30083e-19
-2.74384e-14
4.40718e-15
-2.00278e-19
-2.71114e-14
4.32976e-15
-1.39732e-20
-2.75269e-14
4.3899e-15
-8.04507e-20
-2.70598e-14
4.37353e-15
-8.88491e-21
-2.71043e-14
4.41897e-15
-2.78873e-14
4.42558e-15
2.35869e-17
1.00638e-11
3.66455e-13
-2.96687e-17
9.92462e-12
3.57979e-13
2.80151e-17
1.03363e-11
3.97482e-13
-2.38813e-17
9.56534e-12
3.72945e-13
1.04373e-17
9.38524e-12
3.84894e-13
1.07972e-11
4.58325e-13
7.10266e-15
9.67906e-10
1.08636e-10
-1.97273e-14
9.46056e-10
1.06616e-10
-1.161e-14
9.78088e-10
1.08652e-10
-1.94554e-14
9.33672e-10
1.07108e-10
1.98845e-14
9.40179e-10
1.07877e-10
9.972e-10
1.10227e-10
2.96317e-13
7.71313e-08
6.73512e-09
-6.81654e-12
7.49405e-08
6.62171e-09
6.89039e-13
7.7139e-08
6.72698e-09
-9.43262e-12
7.513e-08
6.66556e-09
-8.46201e-12
7.71663e-08
6.7208e-09
7.75507e-08
6.81392e-09
4.68032e-10
4.87157e-06
1.08247e-07
-7.22652e-10
4.71879e-06
1.02725e-07
-9.57468e-10
4.82591e-06
1.02303e-07
-1.4835e-09
4.80594e-06
1.08471e-07
4.90004e-10
5.01463e-06
1.12286e-07
4.78578e-06
1.03872e-07
7.17588e-08
0.000118599
7.48269e-06
-6.38885e-08
0.000115018
7.21786e-06
-6.04149e-07
0.000115978
6.85127e-06
-3.94995e-08
0.000119381
8.14626e-06
1.03346e-06
0.000126505
8.84497e-06
0.000113046
6.23858e-06
1.73899e-06
-0.0041988
-5.14957e-05
-2.34269e-06
-0.00399571
-4.79648e-05
-2.57437e-05
-0.00394204
-4.86299e-05
1.43358e-06
-0.00438333
-5.17391e-05
4.98353e-05
-0.0047694
-5.59299e-05
-0.00365803
-4.78301e-05
-1.22357e-06
-0.109562
-0.0262219
-5.07693e-05
-0.108861
-0.0259575
-0.000326387
-0.109423
-0.0261092
7.00512e-05
-0.109189
-0.0261556
0.000753711
-0.108163
-0.0260098
-0.110807
-0.0264236
-6.5131e-05
-2.20116e-05
-0.189648
-2.62149e-05
-2.2068e-05
-0.189269
-0.000438437
-2.14166e-05
-0.190948
2.64054e-05
-2.03987e-05
-0.18766
0.00130568
-1.9483e-05
-0.184068
-2.23028e-05
-0.194937
2.13344e-09
4.96547e-05
1.21759e-08
5.06068e-05
6.52324e-08
4.7329e-05
3.37058e-08
4.76862e-05
-5.85781e-08
4.7534e-05
4.67966e-05
-4.0677e-25
-3.78192e-18
2.43351e-19
-2.9013e-25
-3.73666e-18
2.40665e-19
2.90683e-26
-3.76875e-18
2.44149e-19
2.97092e-25
-3.76454e-18
2.4019e-19
3.98403e-25
-3.78622e-18
2.40186e-19
-3.78123e-18
2.46764e-19
-3.26046e-23
-1.20994e-17
1.96332e-17
-1.49622e-24
-1.19218e-17
1.93978e-17
3.96352e-23
-1.19781e-17
1.95644e-17
6.53087e-23
-1.21634e-17
1.95426e-17
8.77859e-23
-1.22918e-17
1.96552e-17
-1.19329e-17
1.96297e-17
7.66139e-22
-1.12243e-15
5.13802e-16
1.5029e-21
-1.10012e-15
5.00342e-16
1.00408e-20
-1.05189e-15
5.24722e-16
9.2729e-21
-1.21479e-15
5.21042e-16
1.25063e-20
-1.28258e-15
5.35205e-16
-9.78777e-16
5.19276e-16
1.09029e-18
-7.93454e-14
7.99396e-14
-2.25402e-19
-7.86067e-14
7.82287e-14
7.81531e-19
-8.64472e-14
7.89574e-14
2.16569e-19
-8.02619e-14
7.99302e-14
2.57545e-18
-8.13171e-14
8.13958e-14
-9.95235e-14
7.88141e-14
8.91582e-18
1.27366e-11
7.09891e-12
-1.14144e-15
1.18955e-11
6.94756e-12
-1.06984e-15
1.04916e-11
7.02138e-12
-8.9883e-16
1.52274e-11
7.08308e-12
1.0952e-15
1.75702e-11
7.20482e-12
7.81157e-12
7.02739e-12
-7.28881e-14
2.02184e-09
4.60046e-10
-2.75088e-13
1.96487e-09
4.50839e-10
-2.3806e-13
1.90926e-09
4.54921e-10
-2.54106e-13
2.13895e-09
4.60267e-10
7.82744e-14
2.26776e-09
4.67963e-10
1.78875e-09
4.54375e-10
-5.7689e-12
1.1449e-07
1.01653e-08
-2.02419e-11
1.12881e-07
1.00114e-08
-4.70381e-11
1.09822e-07
1.00155e-08
-1.51471e-11
1.22236e-07
1.03004e-08
5.68437e-11
1.26081e-07
1.04058e-08
1.04278e-07
9.98016e-09
1.58693e-09
1.50857e-06
4.21072e-07
-4.64027e-09
1.58066e-06
4.14553e-07
-3.19964e-08
1.66412e-06
3.96653e-07
2.15144e-09
1.34193e-06
4.42474e-07
4.94604e-08
1.16748e-06
4.47349e-07
1.82474e-06
3.48917e-07
-7.4605e-09
-6.54646e-05
4.2414e-06
-9.92962e-08
-6.19712e-05
4.23682e-06
-6.23517e-07
-6.2016e-05
4.21346e-06
6.66889e-09
-6.66173e-05
4.37016e-06
3.69237e-07
-6.9644e-05
4.22452e-06
-6.09438e-05
4.23942e-06
-5.12815e-06
-0.0246391
-0.00173022
-1.20946e-05
-0.024369
-0.00173061
-3.59584e-05
-0.0244958
-0.00173981
-1.22323e-05
-0.0246042
-0.00172994
3.11554e-05
-0.0245206
-0.00168738
-0.0247626
-0.00178102
-0.000192203
-0.233207
-0.0596184
-0.000185652
-0.23302
-0.0595468
-0.000652673
-0.234378
-0.0597776
-0.000246203
-0.232024
-0.0595603
0.00146692
-0.229135
-0.0587605
-0.237402
-0.0606554
-0.000626338
-0.451095
-0.000169738
-0.451883
-0.00190098
-0.454343
-0.000984011
-0.447471
0.00382085
-0.441741
-0.460418
2.27416e-13
-4.65668e-09
-1.90634e-08
6.95124e-14
-4.63517e-09
-1.90651e-08
-6.69282e-15
-4.64245e-09
-1.90671e-08
-8.35039e-14
-4.63975e-09
-1.9067e-08
-2.54019e-13
-4.62303e-09
-1.90625e-08
-4.65933e-09
-1.90655e-08
5.11383e-14
2.52624e-16
-9.28036e-17
1.46118e-14
2.76669e-16
-9.05392e-17
-3.88338e-15
2.83995e-16
-9.07663e-17
-2.11832e-14
2.77681e-16
-9.01139e-17
-5.69862e-14
2.76039e-16
-8.92123e-17
2.82676e-16
-9.17533e-17
-5.18638e-21
2.51808e-17
-1.76211e-21
2.7574e-17
7.6483e-23
2.83068e-17
1.86276e-21
2.76765e-17
5.79587e-21
2.75116e-17
2.81794e-17
1.77911e-11
-4.58862e-14
-6.2381e-08
4.75192e-12
-4.47664e-14
-6.23423e-08
-3.21984e-12
-4.48785e-14
-6.23548e-08
-1.11973e-11
-4.45562e-14
-6.23521e-08
-2.42292e-11
-4.41111e-14
-6.23265e-08
-4.53674e-14
-6.23881e-08
3.07834e-20
1.53445e-15
-4.75135e-14
8.80616e-21
1.68054e-15
-4.65374e-14
-2.83624e-21
1.72517e-15
-4.66945e-14
-1.41666e-20
1.68677e-15
-4.6333e-14
-3.73088e-20
1.67679e-15
-4.58771e-14
1.71725e-15
-4.71764e-14
-3.15775e-20
3.98126e-16
-1.13466e-20
4.37088e-16
-2.15907e-22
4.48996e-16
1.01235e-20
4.38745e-16
3.40941e-20
4.36077e-16
4.46904e-16
1.5732e-12
-8.66129e-12
-1.73599e-08
5.94377e-13
-8.48336e-12
-1.73455e-08
-6.98355e-13
-8.51201e-12
-1.73479e-08
-2.14774e-12
-8.44619e-12
-1.7345e-08
-3.27705e-12
-8.36312e-12
-1.734e-08
-8.60005e-12
-1.73578e-08
4.94452e-18
8.39137e-15
-8.7172e-12
1.20111e-18
9.21402e-15
-8.53911e-12
-9.10814e-19
9.46479e-15
-8.56816e-12
-2.78295e-18
9.2487e-15
-8.50177e-12
-6.35143e-18
9.19276e-15
-8.41819e-12
9.41945e-15
-8.65665e-12
-1.67498e-19
-2.5645e-15
-5.7519e-20
-2.56179e-15
8.50433e-21
-2.56244e-15
7.04221e-20
-2.56224e-15
2.16035e-19
-2.55954e-15
-2.56335e-15
1.66571e-14
-9.54133e-11
-2.32229e-08
2.06491e-14
-9.33108e-11
-2.32245e-08
9.17167e-15
-9.36439e-11
-2.32244e-08
-1.14276e-14
-9.28347e-11
-2.3228e-08
-3.47574e-14
-9.18363e-11
-2.32293e-08
-9.46862e-11
-2.32268e-08
3.19215e-16
-1.32835e-13
-7.83478e-11
4.53327e-17
-1.32509e-13
-9.12649e-11
-9.28697e-17
-1.32602e-13
-8.92137e-11
-1.95239e-16
-1.32418e-13
-9.4112e-11
-4.13746e-16
-1.31984e-13
-1.00252e-10
-1.32739e-13
-8.25479e-11
3.2921e-19
-1.30432e-13
6.9389e-20
-1.30832e-13
-6.63481e-20
-1.30822e-13
-1.98934e-19
-1.30875e-13
-4.92553e-19
-1.31672e-13
-1.30598e-13
-5.5233e-13
-9.79264e-10
-6.55088e-08
2.16246e-12
-9.80166e-10
-6.55306e-08
1.72379e-12
-9.80038e-10
-6.55254e-08
9.04855e-13
-9.79993e-10
-6.55316e-08
6.71346e-13
-9.80123e-10
-6.55393e-08
-9.79455e-10
-6.55189e-08
6.4696e-15
-4.61167e-13
-1.07956e-09
6.25546e-15
-4.67444e-13
-1.09338e-09
5.48186e-15
-4.65755e-13
-1.09121e-09
2.46831e-15
-4.66607e-13
-1.09607e-09
-5.9186e-15
-4.68509e-13
-1.10242e-09
-4.62378e-13
-1.08395e-09
1.21021e-16
-1.53413e-11
3.39859e-17
-1.53004e-11
-2.95412e-19
-1.53068e-11
-3.67123e-17
-1.53053e-11
-1.32916e-16
-1.52969e-11
-1.53333e-11
3.84585e-11
5.7935e-08
-2.61589e-07
7.48816e-11
5.78546e-08
-2.60251e-07
6.44207e-11
5.79074e-08
-2.607e-07
4.83749e-11
5.78878e-08
-2.60965e-07
3.19971e-11
5.78582e-08
-2.60739e-07
5.78873e-08
-2.61072e-07
3.14844e-12
2.54691e-09
-2.98116e-08
1.54778e-12
2.54187e-09
-2.96977e-08
1.68634e-12
2.54488e-09
-2.97602e-08
1.48261e-12
2.54471e-09
-2.97832e-08
-5.95196e-13
2.54378e-09
-2.97815e-08
2.54529e-09
-2.97815e-08
1.9421e-14
-3.74555e-10
1.59482e-15
-3.73038e-10
-1.45485e-15
-3.73861e-10
-2.27194e-15
-3.7403e-10
-1.05333e-14
-3.73909e-10
-3.74118e-10
6.34808e-09
1.31598e-06
-7.53394e-06
1.94304e-09
1.31481e-06
-7.48784e-06
1.86773e-09
1.31552e-06
-7.51223e-06
1.56333e-09
1.31547e-06
-7.51777e-06
-9.89712e-10
1.31589e-06
-7.51241e-06
1.31569e-06
-7.5259e-06
1.62153e-10
4.2373e-08
3.2237e-07
1.99899e-11
4.24406e-08
3.23402e-07
1.58576e-11
4.24154e-08
3.22689e-07
1.47981e-11
4.2408e-08
3.22307e-07
-6.49484e-11
4.24227e-08
3.22924e-07
4.24051e-08
3.22063e-07
3.99962e-14
2.78566e-08
-9.64822e-13
2.79402e-08
-1.13509e-12
2.79069e-08
-4.93756e-13
2.7899e-08
-1.69498e-13
2.79164e-08
2.78948e-08
-4.08168e-08
2.84747e-05
-0.000249629
4.2183e-08
2.87663e-05
-0.000250435
2.23755e-08
2.87082e-05
-0.000250006
4.10325e-09
2.87838e-05
-0.000249996
2.00034e-08
2.90902e-05
-0.000250192
2.87709e-05
-0.000250032
-1.60775e-08
3.79071e-06
2.24967e-05
2.56132e-09
3.79464e-06
2.26035e-05
2.16075e-09
3.79103e-06
2.26227e-05
-1.99822e-09
3.79003e-06
2.29129e-05
4.76157e-10
3.79091e-06
2.3071e-05
3.78982e-06
2.28958e-05
-4.6152e-10
2.04088e-06
2.0788e-12
2.04255e-06
2.46224e-11
2.03975e-06
-8.25726e-11
2.0394e-06
-3.22962e-11
2.04032e-06
2.0391e-06
1.71298e-07
5.67039e-05
-0.000456734
-1.87785e-07
5.64891e-05
-0.000458656
-2.49298e-07
5.57466e-05
-0.000457775
-1.39137e-07
5.69855e-05
-0.000457562
-1.61159e-07
5.76848e-05
-0.000457915
5.68924e-05
-0.000457249
-4.08931e-09
3.17659e-05
5.01998e-05
-1.72055e-08
3.1904e-05
4.99535e-05
-8.25278e-09
3.18291e-05
4.93274e-05
-4.46961e-09
3.17897e-05
5.07823e-05
-2.20591e-08
3.1813e-05
5.15412e-05
3.17758e-05
5.06627e-05
-3.79253e-10
1.45896e-05
-1.07753e-09
1.45723e-05
-5.98506e-10
1.44764e-05
-7.67998e-10
1.44271e-05
-1.25414e-09
1.44217e-05
1.44181e-05
-1.88889e-06
-6.13451e-05
-0.0128591
7.46699e-08
-6.07674e-05
-0.0129263
4.59016e-07
-6.10474e-05
-0.0129001
1.18315e-07
-6.08246e-05
-0.0128986
4.03172e-07
-5.96782e-05
-0.0129145
-6.07135e-05
-0.0128872
7.06462e-09
2.81374e-06
-8.34019e-06
-3.48131e-09
2.75519e-06
-8.26251e-06
-5.61776e-10
2.6977e-06
-8.18903e-06
3.70387e-10
2.71078e-06
-8.22412e-06
-4.69742e-09
2.71907e-06
-8.18809e-06
2.7093e-06
-8.23535e-06
1.08078e-09
1.71859e-05
-3.23672e-09
1.8169e-05
-4.65709e-09
1.8459e-05
-1.97228e-09
1.54105e-05
1.14977e-08
1.43056e-05
1.50852e-05
-8.23747e-06
-0.000375278
-0.132287
1.48482e-06
-0.000375191
-0.132637
4.61216e-06
-0.000376269
-0.132486
2.10666e-06
-0.000376602
-0.132489
3.66557e-06
-0.000373997
-0.132579
-0.000375906
-0.132422
1.99087e-08
-0.000363014
-1.02101e-05
6.0021e-09
-0.000363878
-1.02015e-05
4.07063e-09
-0.000364773
-1.03301e-05
4.46958e-09
-0.000363727
-1.04246e-05
5.1283e-09
-0.000363471
-1.04486e-05
-0.000363761
-1.04627e-05
4.35788e-07
3.86105e-05
2.21484e-08
3.75977e-05
-1.08614e-07
3.83409e-05
8.37114e-08
3.81357e-05
3.56482e-07
3.7344e-05
3.89972e-05
-5.75128e-05
-0.000494476
-0.165198
-5.13825e-05
-0.000494762
-0.165197
-2.08988e-05
-0.000494612
-0.165196
1.31712e-05
-0.000495274
-0.16524
7.16193e-05
-0.000499149
-0.165372
-0.000490646
-0.165091
1.17431e-08
-3.11699e-05
-0.000478643
-2.3212e-10
-3.07477e-05
-0.000479046
-3.47935e-09
-3.10181e-05
-0.000479099
1.45403e-09
-3.09918e-05
-0.000479939
-2.96983e-10
-3.07145e-05
-0.000483838
-3.12092e-05
-0.000475461
7.83416e-10
6.40356e-24
2.48129e-10
8.81584e-24
1.76768e-10
8.00822e-24
4.12543e-12
1.02859e-23
-8.94712e-10
1.76861e-23
2.2033e-21
-0.000406155
-0.000113144
-0.641753
0.560872
-0.000269323
-0.000111202
-0.641993
0.561208
-0.000282472
-0.000109876
-0.642342
0.561604
-5.00073e-05
-0.000112366
-0.640692
0.560125
0.00134028
-0.000101329
-0.64044
0.559474
-9.82046e-05
-0.642352
0.561523
1.31255e-08
-5.14553e-05
-6.81886e-05
1.23689e-05
2.16571e-08
-4.87584e-05
-6.81099e-05
1.22662e-05
1.14208e-08
-4.77495e-05
-6.79442e-05
1.20799e-05
3.78919e-08
-5.00792e-05
-6.88064e-05
1.16459e-05
1.66071e-07
-3.97242e-05
-6.96699e-05
1.06304e-05
-4.21725e-05
-6.77949e-05
1.03006e-05
-2.04294e-08
2.86589e-24
1.89724e-05
7.58681e-08
1.14471e-24
1.65449e-05
2.03913e-07
5.56609e-24
1.61557e-05
3.42669e-08
2.14061e-24
2.52088e-05
-1.72783e-07
1.41375e-24
4.58688e-05
2.10518e-24
1.49648e-05
-0.000196724
-0.00109375
-0.692571
-0.000224503
-0.00109684
-0.692445
-0.00057404
-0.00109364
-0.692475
2.78213e-05
-0.0011014
-0.692231
0.00168675
-0.00111681
-0.69174
-0.00108293
-0.693121
-5.58381e-08
6.98141e-24
-0.00116188
9.06985e-08
2.859e-24
-0.0011651
2.4833e-07
1.38701e-23
-0.00116174
1.46733e-07
5.13787e-24
-0.00117011
1.46372e-07
3.39098e-24
-0.00118648
5.19155e-24
-0.00115058
1.11948e-26
6.20216e-25
-9.41827e-27
4.26526e-25
-1.77955e-25
3.42205e-25
-1.00858e-26
2.7163e-25
6.89171e-26
1.43402e-24
1.31379e-25
-8.19617e-05
-0.0202478
-0.497644
-8.8931e-05
-0.0202701
-0.497656
-0.000142053
-0.0201869
-0.497719
2.60258e-05
-0.0204004
-0.497472
0.000541031
-0.0206969
-0.497105
-0.0199133
-0.498053
-1.28742e-08
1.25493e-24
-0.0214097
-6.38981e-07
8.67904e-25
-0.0214346
-3.40032e-06
6.9041e-25
-0.0213459
3.79179e-07
6.91833e-24
-0.0215743
9.50877e-06
2.9125e-24
-0.0218925
1.17126e-23
-0.0210544
-2.78375e-27
1.07426e-23
-2.6048e-27
1.34666e-23
-5.14599e-28
1.46151e-23
-2.16972e-27
1.50005e-23
-2.43384e-26
1.4341e-23
1.05081e-23
-1.54369e-05
-0.0136014
-0.30153
-5.81976e-05
-0.0136047
-0.301521
3.56834e-05
-0.0137827
-0.301561
-7.91493e-06
-0.0135453
-0.301435
-0.000156414
-0.0133475
-0.301169
-0.0140335
-0.301713
-2.1757e-05
4.72411e-23
-0.0263278
-1.18433e-05
5.9631e-23
-0.0264036
-5.31756e-05
6.43724e-23
-0.0263232
-5.64148e-06
6.59375e-23
-0.0264607
0.00017267
6.35864e-23
-0.026807
4.57752e-23
-0.0259666
5.3003e-26
2.05281e-24
-8.7215e-27
2.59157e-24
-6.11748e-28
2.83388e-24
2.66364e-27
2.85854e-24
-1.60532e-25
2.70966e-24
2.07319e-24
3.18491e-05
-0.0113308
-0.107744
-1.27904e-05
-0.0112219
-0.107785
0.000186718
-0.0114912
-0.107821
-2.2197e-05
-0.0110585
-0.107727
-0.000861406
-0.0102503
-0.10764
-0.0122782
-0.107856
-4.17233e-05
8.78375e-23
0.0138853
-1.78113e-05
1.10908e-22
0.013903
-7.05896e-05
1.19861e-22
0.0138922
-1.03454e-06
1.22456e-22
0.013939
0.000276337
1.18028e-22
0.0140893
8.50708e-23
0.0137461
3.5327e-26
-1.54221e-23
3.79384e-27
-1.94586e-23
8.0372e-26
-2.10531e-23
5.49728e-28
-2.14772e-23
-3.53829e-25
-2.06674e-23
-1.49534e-23
-0.00013055
-0.013407
-1.87271e-05
-0.0134238
-3.4743e-05
-0.0134135
1.21455e-05
-0.0134583
7.59001e-05
-0.0136032
-0.013273
-4.30086e-07
2.49313e-23
-2.08252e-07
3.43485e-23
-6.45648e-07
3.11676e-23
9.35488e-08
4.00465e-23
2.34995e-06
6.87348e-23
8.59281e-21
1.09325e-26
8.64791e-28
1.66034e-26
6.73391e-27
-1.44445e-25
2.41439e-26
2.31737e-20
-2.14429e-19
2.35155e-26
2.29887e-20
-2.12718e-19
2.64562e-26
2.31549e-20
-2.12308e-19
2.77974e-26
2.2892e-20
-2.12563e-19
1.51698e-26
2.27765e-20
-2.11837e-19
2.34947e-20
-2.14601e-19
2.42302e-27
2.29534e-21
-1.56435e-20
1.05745e-27
2.28436e-21
-1.55707e-20
1.23164e-27
2.29155e-21
-1.55219e-20
7.65818e-28
2.27503e-21
-1.55357e-20
-1.291e-27
2.24547e-21
-1.52995e-20
2.33621e-21
-1.58153e-20
5.06258e-30
-5.17311e-22
2.28861e-29
-5.15978e-22
4.13279e-29
-5.15323e-22
-9.39739e-30