/*--------------------------------*- C++ -*----------------------------------*\
| =========                 |                                                 |
| \\      /  F ield         | OpenFOAM: The Open Source CFD Toolbox           |
|  \\    /   O peration     | Version:  v1612+                                |
|   \\  /    A nd           | Web:      www.OpenFOAM.com                      |
|    \\/     M anipulation  |                                                 |
\*---------------------------------------------------------------------------*/
FoamFile
{
    version     2.0;
    format      ascii;
    class       surfaceScalarField;
    location    "8.6";
    object      alphaPhi;
}
// * * * * * * * * * * * * * * * * * * * * * * * * * * * * * * * * * * * * * //

dimensions      [0 3 -1 0 0 0 0];

internalField   nonuniform List<scalar> 
816
(
-2.86117e-06
-1.00705e-05
5.33769e-06
-1.38098e-05
-1.75954e-05
3.90017e-05
6.71016e-06
2.1848e-06
-1.26237e-05
1.46517e-07
7.15617e-07
-9.51502e-06
7.5943e-07
2.12006e-06
3.00611e-06
-6.45323e-06
-1.13415e-05
4.52318e-06
-1.23704e-06
5.26189e-06
7.93475e-09
-3.35988e-09
1.09148e-06
-2.21635e-10
3.91825e-09
8.27848e-09
3.22611e-07
5.80172e-09
-3.57549e-09
-1.52422e-09
-3.90946e-06
5.39085e-10
1.12819e-08
1.95941e-10
-6.06109e-06
7.88699e-09
-5.79819e-09
4.62926e-09
1.25631e-06
8.77919e-09
-6.3097e-09
-2.10886e-09
5.35229e-07
3.91113e-09
5.69091e-09
5.06174e-10
8.21277e-07
6.41123e-09
-3.19261e-09
7.31875e-09
-4.03707e-07
2.49286e-09
-1.35595e-09
-1.01701e-09
-4.95749e-06
5.21499e-09
5.23062e-09
-6.20845e-10
-1.22525e-05
2.99617e-09
-2.82012e-09
-7.49703e-09
-7.3765e-06
8.59495e-11
-4.12581e-09
-5.79341e-07
-4.40628e-09
-2.44685e-09
1.96593e-05
1.52461e-07
-3.16877e-05
-1.22062e-06
1.49445e-05
3.34817e-05
-3.87703e-05
1.83387e-05
6.01477e-06
-1.84771e-07
-5.12159e-06
-1.54567e-07
3.5408e-05
-7.0723e-06
2.1974e-05
2.77322e-06
-1.47037e-05
1.20999e-05
-1.454e-05
1.21147e-05
-1.18334e-05
2.33291e-06
-2.39207e-05
8.57427e-06
2.728e-05
1.01675e-05
-3.02664e-05
1.55991e-05
1.00544e-05
2.61527e-05
-8.84207e-06
-9.71702e-06
1.65081e-06
1.13409e-05
-5.2824e-05
2.1609e-05
3.81313e-05
2.55134e-05
-3.70124e-05
1.30896e-05
-2.52114e-06
-1.75254e-05
5.65336e-05
4.77958e-06
-3.34118e-05
-2.05618e-05
-3.29163e-06
5.23579e-06
-1.28758e-05
2.84509e-06
-1.62718e-05
-6.40376e-09
-2.20193e-05
-1.65614e-05
-1.093e-05
1.52995e-07
-2.36952e-06
-8.36786e-07
-2.4093e-05
3.56277e-06
1.02291e-05
-4.34612e-06
-5.80253e-06
-6.9573e-06
-9.55823e-06
3.43535e-06
-1.21075e-05
-6.67877e-06
-1.4371e-05
-1.46276e-07
-1.49882e-05
-7.16704e-06
-9.13338e-06
-3.80105e-06
4.73956e-06
-4.86045e-06
-2.39657e-05
-1.37911e-05
-1.93512e-05
-1.55339e-05
-1.71153e-05
-7.13147e-06
5.33438e-06
2.47588e-05
-2.90801e-06
-1.11459e-05
3.93416e-07
-1.65347e-06
-2.35209e-06
-5.56498e-06
3.38204e-06
-7.17889e-06
-5.88828e-06
3.78023e-06
9.55124e-07
-8.71116e-06
1.74879e-06
-4.95263e-06
9.41568e-07
1.18634e-06
2.98001e-07
-6.39271e-06
1.92076e-06
2.05479e-06
-7.30356e-06
1.295e-06
-1.10698e-06
-5.80427e-06
-1.26091e-05
-7.30988e-06
-3.00848e-06
9.47435e-08
-1.14992e-06
-1.34353e-05
-5.0896e-07
3.64344e-06
-2.64713e-06
5.95778e-07
-2.68041e-06
-5.13527e-06
-1.89846e-06
2.39533e-06
-4.83017e-06
-8.44532e-06
-3.91466e-06
-1.51563e-07
-4.57167e-06
-5.95666e-06
-4.53869e-06
3.57605e-06
-2.05426e-06
-2.11156e-06
-8.21518e-06
-1.089e-05
-7.26787e-06
-8.84025e-06
-3.97411e-06
-5.25525e-06
2.93082e-06
-1.25544e-06
7.05699e-06
-6.58294e-07
-1.65043e-06
-4.61357e-06
4.91766e-09
-4.27221e-10
-2.47527e-06
-1.23391e-09
8.0761e-09
-2.42381e-06
-1.59972e-09
4.5581e-09
7.22892e-11
1.28548e-09
8.76361e-09
-1.68864e-06
-7.94468e-10
5.0505e-10
-1.27953e-06
-5.49833e-09
-1.14094e-09
-2.50146e-09
5.6576e-11
-1.65003e-09
-4.81452e-09
4.65033e-07
-4.20358e-09
-8.0586e-09
7.19776e-07
-4.76663e-09
-3.3939e-09
5.68285e-07
-3.21178e-10
5.42269e-09
-1.02245e-06
-8.13543e-09
-2.87515e-09
-4.5267e-10
5.80475e-11
-3.41781e-09
-4.57754e-09
-2.08973e-06
-3.17043e-09
3.44198e-09
2.55934e-07
-4.13515e-10
1.03352e-09
-1.93692e-06
-3.2016e-09
7.58383e-10
-1.51236e-06
-7.93039e-09
-7.54547e-09
-3.50829e-09
-2.28329e-06
-6.45515e-09
-9.09867e-09
-7.78505e-06
-5.94667e-09
-9.73344e-09
-3.94208e-06
-4.93376e-09
-2.74661e-09
-2.84655e-06
-3.15735e-09
-3.05991e-06
-3.93549e-09
-4.84153e-09
-1.57945e-05
8.69289e-06
2.30256e-06
5.63757e-06
1.05866e-05
-3.15556e-05
-1.9732e-06
1.03111e-05
2.88132e-06
1.93476e-05
9.61328e-06
-3.62733e-06
7.64342e-06
2.00834e-05
6.1747e-05
-3.98843e-05
-3.51617e-05
-1.2613e-06
7.97399e-05
-2.06174e-05
-2.29822e-05
7.54309e-05
-4.82405e-05
-5.48193e-05
9.83062e-05
-5.23956e-05
-3.008e-05
-8.1404e-06
-6.4048e-06
3.92035e-05
-1.37385e-05
-3.17803e-05
-2.32819e-05
1.06933e-06
8.33526e-05
-1.459e-05
-3.23903e-05
7.85582e-05
-3.52463e-05
1.34808e-05
-5.10266e-05
-3.61974e-06
4.04682e-06
5.17108e-05
-2.31126e-05
2.85387e-05
5.39761e-05
-4.90211e-05
-3.24564e-05
-2.89979e-06
6.84476e-05
-1.66863e-06
-3.21217e-05
6.66757e-05
-3.40391e-05
-2.32058e-05
1.36113e-05
-2.45871e-05
-5.03666e-06
-1.11222e-05
-9.07232e-06
6.29065e-05
-2.60021e-05
-3.42557e-05
7.67621e-06
-4.10061e-06
1.40354e-06
-2.27641e-06
-9.36955e-06
-1.461e-05
1.04948e-07
-9.84928e-06
3.15214e-06
-1.07599e-05
-6.55493e-06
-1.24442e-06
-6.5254e-06
-1.28646e-05
2.92785e-05
2.05168e-05
1.83107e-05
3.31195e-07
3.54199e-05
7.01604e-06
1.24368e-05
3.34432e-05
2.55241e-05
2.94993e-05
4.33877e-05
2.82924e-05
1.59887e-05
-3.31976e-06
2.00589e-06
-1.84314e-05
-3.40719e-06
1.33062e-05
1.07676e-05
4.98078e-06
3.63646e-05
9.19516e-06
2.08174e-05
3.46727e-05
2.08743e-05
-4.16458e-06
-2.31623e-05
1.85583e-06
-8.39323e-07
2.36788e-05
1.09254e-05
-1.55958e-05
2.4092e-05
2.69711e-05
1.76559e-05
2.22071e-06
2.94447e-05
1.85783e-06
1.58687e-05
3.00689e-05
1.58166e-05
1.0122e-05
6.65235e-06
9.78452e-06
-7.76613e-07
-5.39409e-06
3.5297e-06
2.80049e-05
1.15422e-05
1.8531e-05
3.83119e-06
-2.13829e-06
1.28337e-06
-2.18363e-06
-5.97387e-06
-4.8121e-06
-1.11227e-06
-6.21935e-06
3.10879e-06
-7.03032e-06
-3.4818e-06
-9.32489e-07
-4.17058e-06
-6.12684e-06
1.00502e-05
1.15315e-05
1.03147e-05
2.47596e-07
1.31426e-05
2.45802e-06
6.81363e-06
1.09659e-05
1.32628e-05
1.52903e-05
1.43908e-05
1.53798e-05
7.98177e-06
-8.81549e-07
3.24403e-08
-9.12915e-06
1.24052e-06
6.96547e-06
5.51841e-06
3.92943e-06
1.04149e-05
4.43649e-06
1.20725e-05
1.127e-05
1.0671e-05
-3.05927e-06
-5.22422e-06
7.54373e-07
-7.43647e-07
7.34227e-06
5.80251e-06
-8.49429e-06
7.0486e-06
1.46183e-05
1.01423e-05
1.0071e-06
9.23638e-06
-2.00388e-07
8.51562e-06
9.41642e-06
9.16529e-06
5.19333e-06
3.08729e-06
5.61208e-06
-1.26896e-06
-1.59064e-06
9.82306e-07
7.56527e-06
6.04809e-06
1.10259e-05
-2.02461e-06
-3.07027e-06
2.06496e-06
-2.8654e-06
3.181e-06
-5.31398e-07
-2.92866e-06
-5.39191e-06
-5.67279e-08
2.6786e-06
-3.9289e-06
3.78415e-06
-6.97888e-06
3.02974e-06
1.96412e-07
-6.97605e-06
-3.55868e-06
1.42943e-07
1.16963e-07
-7.76416e-06
3.49967e-07
-2.52201e-06
-1.37592e-06
-4.09388e-06
1.78603e-06
-3.03545e-06
-4.04177e-06
6.66554e-07
-1.06667e-06
-2.22095e-06
7.64768e-07
-2.17836e-06
-2.60174e-06
-4.71429e-06
-4.21893e-06
-5.45778e-07
1.0789e-06
-1.0983e-06
-1.32405e-06
8.22688e-07
4.87295e-07
1.82666e-07
-6.93983e-07
-4.43836e-06
3.0836e-07
-2.61599e-06
-2.29582e-06
-2.66583e-06
-7.66266e-07
-2.23092e-06
4.49586e-06
5.11202e-06
1.37434e-06
1.7723e-06
4.10715e-06
5.71351e-06
8.33472e-06
6.0697e-06
3.79214e-06
6.11778e-07
-2.14297e-06
3.13465e-06
4.03456e-06
2.48235e-06
1.76073e-06
6.67701e-06
6.00241e-06
7.09153e-07
1.49283e-06
1.07828e-06
4.37675e-06
-3.72135e-06
6.73241e-06
5.11768e-06
1.87642e-08
7.37996e-07
3.95052e-06
4.93734e-06
3.62403e-06
2.30779e-06
5.76952e-07
2.26568e-06
3.28925e-06
5.07208e-06
4.92904e-09
-1.12171e-08
-9.15211e-06
7.70785e-09
-4.73357e-06
9.7122e-09
-1.11115e-05
3.49691e-09
-9.77925e-06
4.75609e-09
2.55672e-07
-1.66268e-09
-3.20118e-06
3.15399e-09
-2.70362e-07
-8.22722e-10
2.73169e-07
-5.4137e-09
5.48785e-06
-2.31176e-09
2.01522e-06
-1.84782e-09
-1.38395e-06
-1.3707e-10
6.04319e-07
2.96426e-10
2.63236e-06
3.56256e-10
1.8454e-06
-1.41032e-09
1.40146e-06
7.09471e-11
-3.82956e-07
-2.33976e-10
-3.65097e-06
1.71538e-09
-1.21816e-06
-5.38863e-10
8.16101e-07
-4.41136e-09
-3.37928e-06
3.27041e-09
1.49526e-06
-2.5549e-09
-1.68049e-06
-1.5652e-09
-2.85333e-06
-3.61031e-09
7.44545e-07
-7.29983e-09
2.64046e-06
-6.08192e-09
4.95936e-07
-8.27424e-09
-1.06396e-06
-3.89977e-07
1.79685e-05
-3.30301e-05
-7.12217e-06
9.94043e-06
6.15548e-06
2.96792e-05
-2.07703e-05
4.32737e-08
4.82901e-05
-2.48339e-05
4.18489e-05
-4.37262e-05
-1.60707e-05
3.21515e-05
-7.52528e-05
1.59626e-05
-2.05799e-05
-2.25932e-05
3.37273e-05
-9.30774e-06
-5.47289e-05
8.87032e-06
-7.60576e-05
1.53544e-05
-1.08317e-05
1.34843e-05
-1.8883e-05
-1.19858e-05
3.32564e-05
-3.28924e-06
-2.39395e-05
4.79708e-07
-1.78654e-05
7.77951e-07
-4.3631e-05
2.6165e-06
-8.3501e-06
-7.25456e-06
-1.00362e-05
-1.88556e-05
-4.4728e-05
3.72934e-05
-5.07292e-05
1.18347e-05
-1.01196e-05
-7.84842e-06
1.19814e-05
-2.8264e-06
-3.48649e-05
-1.24399e-05
-4.79193e-06
-1.87298e-05
-9.52263e-07
-2.20155e-05
-3.45214e-05
-4.64362e-05
-7.95356e-06
1.58356e-05
-3.47943e-06
-7.12235e-06
2.94931e-06
-1.87955e-05
-8.96439e-06
-4.26334e-06
2.29766e-05
1.3151e-05
1.78605e-05
2.40826e-05
-6.52354e-06
-1.88653e-05
-3.22961e-05
-1.05193e-05
-1.05994e-05
1.39838e-05
1.62438e-05
7.95645e-06
-2.31779e-05
-6.51254e-06
-3.33028e-05
-1.02741e-05
-5.06066e-06
-8.55611e-06
-7.27577e-06
1.00916e-05
1.46226e-05
7.16982e-06
-1.02633e-05
5.45935e-06
-6.9833e-06
1.8555e-06
-1.91593e-05
4.76732e-07
-5.11822e-06
7.29678e-06
-5.92635e-06
8.54719e-06
-1.90357e-05
-1.81938e-05
-2.39982e-05
-5.99395e-06
-4.63651e-06
1.60985e-06
6.25433e-06
-1.00697e-06
-1.64322e-05
5.81613e-06
-1.83403e-06
9.41398e-06
-1.04464e-06
9.53864e-06
-1.61038e-05
-2.09593e-05
-4.51436e-06
8.72044e-06
-1.58987e-06
-4.67608e-06
7.90267e-07
-1.072e-05
-4.00489e-06
-2.03375e-06
7.35008e-06
8.02299e-06
3.63234e-06
1.27338e-05
2.69187e-07
-1.00146e-05
-9.58266e-06
-6.32789e-06
-3.95855e-06
8.09871e-06
4.29431e-06
5.23994e-06
-7.04617e-06
-4.2343e-06
-8.44682e-06
-6.54557e-06
-2.72667e-06
-5.23466e-06
-1.6417e-06
6.29177e-06
3.11506e-06
4.88027e-06
-3.31579e-06
3.89055e-06
-1.57861e-06
1.6142e-06
-6.22842e-06
4.42287e-07
-3.20243e-06
3.98853e-06
-3.66253e-06
5.03323e-06
-5.4397e-06
-1.04141e-05
-8.60404e-06
-3.60524e-06
-1.37303e-06
1.64799e-06
7.9882e-07
-6.63701e-07
-4.94962e-06
2.62689e-06
4.90494e-07
5.01543e-06
-2.48416e-06
4.40065e-06
-4.52949e-06
-7.79773e-06
-3.37701e-06
5.09092e-06
-3.37613e-06
-7.11442e-06
-2.07021e-06
8.14722e-07
5.61885e-06
-3.97029e-06
-2.81885e-06
3.24908e-06
1.91858e-06
-4.5048e-07
-2.5611e-06
-1.10372e-06
1.99305e-06
2.72199e-06
2.90757e-06
2.68538e-06
9.49263e-07
1.63325e-06
2.96742e-06
-5.60696e-06
-1.90237e-06
-3.77106e-07
-3.85183e-07
2.4261e-06
2.18849e-06
2.65892e-06
-7.75316e-10
3.55926e-09
-6.86754e-07
-2.53457e-09
-4.51329e-07
2.11349e-10
-4.86656e-06
-1.53055e-06
-4.83671e-06
2.22889e-05
-1.11617e-05
8.80691e-06
)
;

boundaryField
{
    top_fluid_surface
    {
        type            calculated;
        value           nonuniform List<scalar> 
64
(
0
0
0
0
0
0
0
0
0
0
1.05359e-08
0
0
0
5.81725e-09
0
1.23845e-08
1.29537e-08
1.20725e-08
1.2384e-08
0
1.27056e-09
1.20973e-08
1.1616e-08
0
9.33242e-09
1.25482e-08
1.32421e-08
1.33084e-08
3.86584e-09
0
5.2956e-09
9.18062e-10
0
0
7.06285e-09
0
2.61633e-09
0
1.94062e-09
1.53826e-09
0
0
0
0
0
0
0
0
0
0
0
0
0
0
0
0
0
0
0
0
0
0
0
)
;
    }
    bottom_fluid_surface
    {
        type            calculated;
        value           uniform 0;
    }
    lateral_surface_1
    {
        type            calculated;
        value           uniform 0;
    }
    lateral_surface_2
    {
        type            calculated;
        value           uniform 0;
    }
    lateral_surface_3
    {
        type            calculated;
        value           uniform 0;
    }
    lateral_surface_4
    {
        type            calculated;
        value           uniform 0;
    }
}


// ************************************************************************* //
