/*--------------------------------*- C++ -*----------------------------------*\
| =========                 |                                                 |
| \\      /  F ield         | OpenFOAM: The Open Source CFD Toolbox           |
|  \\    /   O peration     | Version:  v1612+                                |
|   \\  /    A nd           | Web:      www.OpenFOAM.com                      |
|    \\/     M anipulation  |                                                 |
\*---------------------------------------------------------------------------*/
FoamFile
{
    version     2.0;
    format      ascii;
    class       volScalarField;
    location    "8.6";
    object      p;
}
// * * * * * * * * * * * * * * * * * * * * * * * * * * * * * * * * * * * * * //

dimensions      [1 -1 -2 0 0 0 0];

internalField   nonuniform List<scalar> 
320
(
14724.8
14724.8
14724.8
14724.8
5.00293
5.00191
5.00224
5.00222
5.0013
5.00066
5.00152
5.00239
5.0033
5.00401
5.00496
5.00343
4914.92
4914.9
4914.9
4914.91
4914.92
4914.91
4914.92
4914.92
4914.89
4914.91
4914.87
4914.92
14724.8
14724.8
14724.8
14724.8
14724.8
14724.8
14724.8
14724.8
14724.8
14724.8
14724.8
14724.8
24534.8
24534.8
24534.8
24534.8
24534.8
24534.8
24534.8
24534.8
24534.8
24534.8
24534.8
24534.8
24534.8
24534.8
24534.8
24534.8
5.00382
5.00337
5.00175
5.0017
5.00111
5.00059
5.00075
5.00048
4.99997
4.99986
5.00063
5.00227
5.00224
5.00287
5.00293
5.00325
5.00435
5.00366
5.00377
5.00367
4914.92
4914.9
4914.86
4914.89
4914.86
4914.87
4914.88
4914.88
4914.9
4914.85
4914.88
4914.89
4914.92
4914.88
4914.87
4914.87
4914.86
4914.89
4914.92
4914.9
14724.8
14724.8
14724.8
14724.8
14724.8
14724.8
14724.8
14724.8
14724.8
14724.8
14724.8
14724.8
14724.8
14724.8
14724.8
14724.8
14724.8
14724.8
14724.8
14724.8
24534.8
24534.8
24534.8
24534.8
24534.8
24534.8
24534.8
24534.8
24534.8
24534.8
24534.8
24534.8
24534.8
24534.8
24534.8
24534.8
24534.8
24534.8
24534.8
24534.8
34344.8
34344.8
34344.8
34344.8
34344.8
34344.8
34344.8
34344.8
34344.8
34344.8
34344.8
34344.8
34344.8
34344.8
34344.8
34344.8
34344.8
34344.8
34344.8
34344.8
34344.8
34344.8
34344.8
34344.8
34344.8
34344.8
34344.8
34344.8
34344.8
34344.8
34344.8
34344.8
34344.8
34344.8
34344.8
34344.8
5.004
5.00537
5.00654
5.00345
5.00029
5.00249
5.00029
4.99966
4.99858
4.9998
5.00055
4.99976
4.99915
4.99952
4.99952
5.00063
5.00231
5.0024
5.00247
5.00322
5.00247
5.00296
5.00334
5.00294
5.00225
5.00276
5.00317
5.00412
4914.86
4914.91
4914.89
4914.86
4914.93
4914.88
4914.87
4914.86
4914.85
4914.91
4914.91
4914.9
4914.9
4914.92
4914.89
4914.9
4914.9
4914.92
4914.92
4914.9
4914.91
4914.89
4914.9
4914.91
4914.9
4914.92
4914.91
4914.93
14724.8
14724.8
14724.8
14724.8
14724.8
14724.8
14724.8
14724.8
14724.8
14724.8
14724.8
14724.8
14724.8
14724.8
14724.8
14724.8
14724.8
14724.8
14724.8
14724.8
14724.8
14724.8
14724.8
14724.8
14724.8
14724.8
14724.8
14724.8
24534.8
24534.8
24534.8
24534.8
24534.8
24534.8
24534.8
24534.8
24534.8
24534.8
24534.8
24534.8
24534.8
24534.8
24534.8
24534.8
24534.8
24534.8
24534.8
24534.8
24534.8
24534.8
24534.8
24534.8
24534.8
24534.8
24534.8
24534.8
34344.8
34344.8
34344.8
34344.8
34344.8
34344.8
34344.8
34344.8
34344.8
34344.8
34344.8
34344.8
34344.8
34344.8
34344.8
34344.8
34344.8
34344.8
34344.8
34344.8
34344.8
34344.8
34344.8
34344.8
34344.8
34344.8
34344.8
34344.8
5.00229
5.00251
5.00313
5.00251
4914.9
4914.91
4914.89
4914.92
)
;

boundaryField
{
    top_fluid_surface
    {
        type            calculated;
        value           nonuniform List<scalar> 
64
(
-2.48436e-08
-5.96097e-09
-6.15379e-10
-1.62209e-09
-1.90009e-08
-5.25797e-09
-1.66436e-08
-1.79215e-08
-3.25565e-09
-1.72252e-10
0
-7.46839e-09
-1.24991e-08
-1.88413e-09
0
-7.75511e-10
0
0
0
0
-2.39409e-10
0
0
0
-1.27981e-08
0
0
0
0
0
-9.42297e-09
0
0
-1.82036e-09
-1.74851e-10
0
-9.20071e-10
0
-1.49179e-08
0
0
-2.72022e-08
-1.46669e-08
-2.25616e-09
-2.75155e-08
-9.07906e-12
-1.59077e-09
-8.18566e-09
-3.93518e-09
-1.96613e-09
-8.91707e-10
-6.95265e-09
-2.58231e-08
-1.29859e-09
-1.22253e-08
-7.22981e-09
-1.96109e-09
-6.32189e-09
-6.42779e-09
-8.03848e-08
-6.80027e-09
-1.36637e-08
-4.62362e-11
-3.31307e-08
)
;
    }
    bottom_fluid_surface
    {
        type            calculated;
        value           nonuniform List<scalar> 
64
(
39249.8
39249.8
39249.8
39249.8
39249.8
39249.8
39249.8
39249.8
39249.8
39249.8
39249.8
39249.8
39249.8
39249.8
39249.8
39249.8
39249.8
39249.8
39249.8
39249.8
39249.8
39249.8
39249.8
39249.8
39249.8
39249.8
39249.8
39249.8
39249.8
39249.8
39249.8
39249.8
39249.8
39249.8
39249.8
39249.8
39249.8
39249.8
39249.8
39249.8
39249.8
39249.8
39249.8
39249.8
39249.8
39249.8
39249.8
39249.8
39249.8
39249.8
39249.8
39249.8
39249.8
39249.8
39249.8
39249.8
39249.8
39249.8
39249.8
39249.8
39249.8
39249.8
39249.8
39249.8
)
;
    }
    lateral_surface_1
    {
        type            calculated;
        value           nonuniform List<scalar> 
40
(
5.004
5.00537
5.00654
5.00345
5.00029
5.00249
5.00029
5.00412
4914.86
4914.91
4914.89
4914.86
4914.93
4914.88
4914.87
4914.93
14724.8
14724.8
14724.8
14724.8
14724.8
14724.8
14724.8
14724.8
24534.8
24534.8
24534.8
24534.8
24534.8
24534.8
24534.8
24534.8
34344.8
34344.8
34344.8
34344.8
34344.8
34344.8
34344.8
34344.8
)
;
    }
    lateral_surface_2
    {
        type            calculated;
        value           nonuniform List<scalar> 
40
(
4.99952
4.99952
5.00063
5.00231
5.0024
5.00247
5.00322
5.00247
4914.92
4914.89
4914.9
4914.9
4914.92
4914.92
4914.9
4914.91
14724.8
14724.8
14724.8
14724.8
14724.8
14724.8
14724.8
14724.8
24534.8
24534.8
24534.8
24534.8
24534.8
24534.8
24534.8
24534.8
34344.8
34344.8
34344.8
34344.8
34344.8
34344.8
34344.8
34344.8
)
;
    }
    lateral_surface_3
    {
        type            calculated;
        value           nonuniform List<scalar> 
40
(
5.00029
4.99966
4.99858
4.9998
5.00055
4.99976
4.99915
4.99952
4914.87
4914.86
4914.85
4914.91
4914.91
4914.9
4914.9
4914.92
14724.8
14724.8
14724.8
14724.8
14724.8
14724.8
14724.8
14724.8
24534.8
24534.8
24534.8
24534.8
24534.8
24534.8
24534.8
24534.8
34344.8
34344.8
34344.8
34344.8
34344.8
34344.8
34344.8
34344.8
)
;
    }
    lateral_surface_4
    {
        type            calculated;
        value           nonuniform List<scalar> 
40
(
5.00247
5.00296
5.00334
5.00294
5.00225
5.00276
5.00317
5.00412
4914.91
4914.89
4914.9
4914.91
4914.9
4914.92
4914.91
4914.93
14724.8
14724.8
14724.8
14724.8
14724.8
14724.8
14724.8
14724.8
24534.8
24534.8
24534.8
24534.8
24534.8
24534.8
24534.8
24534.8
34344.8
34344.8
34344.8
34344.8
34344.8
34344.8
34344.8
34344.8
)
;
    }
}


// ************************************************************************* //
