/*--------------------------------*- C++ -*----------------------------------*\
| =========                 |                                                 |
| \\      /  F ield         | OpenFOAM: The Open Source CFD Toolbox           |
|  \\    /   O peration     | Version:  v1612+                                |
|   \\  /    A nd           | Web:      www.OpenFOAM.com                      |
|    \\/     M anipulation  |                                                 |
\*---------------------------------------------------------------------------*/
FoamFile
{
    version     2.0;
    format      ascii;
    class       volScalarField;
    location    "0.95";
    object      p_rgh;
}
// * * * * * * * * * * * * * * * * * * * * * * * * * * * * * * * * * * * * * //

dimensions      [1 -1 -2 0 0 0 0];

internalField   nonuniform List<scalar> 
1116
(
42083.6
42083.6
42083.6
42083.6
42083.6
42083.6
40459.6
40459.6
40459.6
40459.6
40459.6
40459.6
37072.6
37072.6
37072.5
37072.5
37072.5
37072.5
30051
30051
30051
30051
30051
30050.9
16334.7
16334.8
16334.7
16334.7
16334.6
16334.6
2681.2
2681.23
2681.21
2681.2
2681.19
2681.17
167.345
167.35
167.353
167.353
167.352
167.353
87.6072
87.6073
87.6074
87.6074
87.608
87.6077
86.702
86.7015
86.701
86.7004
86.7002
86.6997
71.6448
71.6448
71.6444
71.6437
71.6428
71.642
60.188
60.1878
60.1873
60.1866
60.1859
60.1854
54.6765
54.6763
54.6758
54.6752
54.6746
54.6743
43352.2
43352.2
43352.2
43352.2
43352.1
43352.1
41595.6
41595.6
41595.6
41595.6
41595.6
41595.6
38139.2
38139.1
38139.1
38139.1
38139.1
38139.1
28996.3
28996.3
28996.3
28996.3
28996.3
28996.3
6828.99
6829.06
6829.02
6828.98
6828.97
6828.89
-184.745
-184.736
-184.735
-184.738
-184.739
-184.726
-0.270206
-0.265721
-0.266995
-0.269157
-0.269935
-0.268888
77.3334
77.3326
77.3312
77.33
77.3302
77.3293
72.5805
72.5807
72.5812
72.5817
72.5822
72.5821
60.2964
60.2964
60.2967
60.297
60.2971
60.2972
52.501
52.5012
52.5012
52.501
52.5009
52.5007
47.8195
47.8196
47.8193
47.8188
47.8182
47.8178
46050
46050
46050
46050
46049.9
46049.9
44198.8
44198.8
44198.8
44198.8
44198.8
44198.8
40978.2
40978
40978
40978
40978
40978
30019.8
30019.7
30019.7
30019.7
30019.7
30019.8
1626.24
1626.29
1626.29
1626.28
1626.28
1626.31
-35.5524
-35.5523
-35.5512
-35.551
-35.5516
-35.5501
14.9993
14.9992
14.9974
14.9963
14.9965
14.9974
46.7147
46.7145
46.7147
46.7157
46.7173
46.7187
47.5314
47.5312
47.5317
47.5325
47.5334
47.534
44.9817
44.9817
44.9819
44.9822
44.9826
44.9829
41.0303
41.0306
41.0307
41.0307
41.0306
41.0305
37.6306
37.6306
37.6304
37.6299
37.6294
37.6289
47740.4
47740.4
47740.4
47740.4
47740.3
47740.3
48091.2
48091.1
48091.1
48091
48091
48091
44802.9
44802.9
44802.9
44802.9
44802.9
44802.9
20299.1
20299.1
20299.1
20299.2
20299.3
20299.4
306.191
306.2
306.205
306.211
306.22
306.236
17.6535
17.6538
17.6532
17.6527
17.6522
17.6522
19.462
19.4623
19.462
19.4619
19.4622
19.4629
32.2446
32.2425
32.2418
32.2422
32.2432
32.2442
32.6441
32.6434
32.6433
32.6437
32.6445
32.6453
32.1133
32.1139
32.1148
32.1157
32.1167
32.1174
29.8069
29.8074
29.8079
29.8085
29.8089
29.8091
26.9682
26.9682
26.9681
26.9678
26.9675
26.9673
0.0828742
0.0828462
0.0828386
0.0828393
0.0828406
0.082843
0.0870703
0.0870455
0.0870393
0.087041
0.0870454
0.0870549
0.095711
0.0956813
0.0956737
0.0956759
0.0956823
0.0956932
0.109131
0.109093
0.109084
0.109087
0.109096
0.10911
0.12781
0.127764
0.127753
0.127758
0.127771
0.127789
0.152276
0.152224
0.152211
0.152219
0.152236
0.152259
0.182955
0.182897
0.182883
0.182894
0.182916
0.182944
0.219915
0.219852
0.219838
0.219851
0.219877
0.219911
0.262498
0.262431
0.262417
0.262433
0.262464
0.262502
0.308857
0.308788
0.308777
0.308797
0.308833
0.308876
0.353367
0.353301
0.353298
0.353324
0.353364
0.353413
0.391837
0.391804
0.391813
0.391845
0.391892
0.391945
0.0788643
0.0788448
0.0788416
0.0788443
0.0788487
0.0788579
0.0830729
0.0830561
0.0830539
0.0830579
0.0830655
0.0830809
0.0917532
0.0917329
0.0917303
0.0917358
0.0917464
0.0917646
0.105312
0.105287
0.105284
0.105292
0.105307
0.105329
0.124346
0.124316
0.124313
0.124324
0.124344
0.124374
0.149572
0.149537
0.149535
0.14955
0.149576
0.149613
0.181697
0.181658
0.181657
0.181676
0.181708
0.181753
0.221114
0.221072
0.221072
0.221094
0.221132
0.221184
0.267447
0.267403
0.267405
0.267431
0.267473
0.267531
0.319121
0.319076
0.319081
0.319111
0.319158
0.319222
0.3746
0.374559
0.374571
0.374607
0.374662
0.374733
0.42783
0.427818
0.427843
0.427889
0.427954
0.42804
0.0710364
0.0710211
0.07102
0.0710235
0.071029
0.0710383
0.0750752
0.0750617
0.0750614
0.0750666
0.0750751
0.07509
0.0834451
0.0834292
0.0834289
0.0834361
0.0834478
0.0834651
0.0966507
0.096631
0.096631
0.0966409
0.0966568
0.0966791
0.11548
0.115457
0.115458
0.115471
0.115493
0.115522
0.141006
0.14098
0.140983
0.141
0.141028
0.141064
0.174619
0.17459
0.174594
0.174615
0.174649
0.174693
0.218131
0.218099
0.218105
0.218131
0.218169
0.21822
0.274165
0.27413
0.274139
0.274168
0.274213
0.27427
0.347349
0.347315
0.347327
0.347362
0.347413
0.347477
0.426371
0.426344
0.426365
0.426407
0.426465
0.426536
0.511852
0.511853
0.511885
0.511935
0.512002
0.512085
0.0596547
0.0596435
0.0596435
0.0596473
0.0596527
0.0596612
0.063296
0.0632862
0.0632869
0.0632923
0.0633005
0.0633136
0.0708958
0.0708844
0.0708854
0.0708928
0.0709037
0.070919
0.0830519
0.0830381
0.0830399
0.0830497
0.0830647
0.0830845
0.100765
0.100749
0.100752
0.100765
0.100785
0.100811
0.125545
0.125526
0.125531
0.125548
0.125574
0.125606
0.159476
0.159455
0.159462
0.159483
0.159513
0.159552
0.20497
0.204947
0.204956
0.20498
0.205016
0.205061
0.263788
0.263764
0.263776
0.263804
0.263846
0.263898
0.3353
0.335278
0.335294
0.335328
0.335376
0.335434
0.430666
0.430652
0.430676
0.430718
0.430772
0.430836
0.552763
0.552774
0.552809
0.552856
0.552916
0.552989
59261.2
59261
59261
59260.9
59260.9
59260.9
46291.3
46291.2
46291.2
46291.1
46291
46291
49686.7
49686.2
49686.2
49686.2
49686.2
49686.2
58196.2
58196.2
58196.1
58196.1
58196.1
58196.1
45675
45675
45675
45674.9
45674.9
45675
17128.3
17128.5
17128.5
17128.5
17128.5
17128.8
35929.2
35929.3
35929.3
35929.3
35929.3
35929.4
2968.03
2968.05
2968.03
2968.03
2968.08
2968.14
-133.761
-133.759
-133.756
-133.754
-133.753
-133.749
949.359
949.378
949.373
949.377
949.406
949.416
-117.514
-117.516
-117.512
-117.508
-117.506
-117.503
-106.695
-106.693
-106.692
-106.691
-106.689
-106.688
-17.8075
-17.8072
-17.8067
-17.806
-17.8052
-17.8054
17.2634
17.2657
17.2668
17.2673
17.2674
17.267
-15.8659
-15.8649
-15.8639
-15.8635
-15.8636
-15.864
12.3352
12.3353
12.3362
12.3366
12.336
12.3349
-9.446
-9.44531
-9.44485
-9.44511
-9.44609
-9.44743
-9.51723
-9.5164
-9.51641
-9.51697
-9.51774
-9.5186
12.0998
12.0996
12.0992
12.0988
12.0983
12.0979
2.31197
2.31222
2.31171
2.31083
2.30991
2.30901
-1.78508
-1.78507
-1.78553
-1.78621
-1.78696
-1.78772
22.43
22.4297
22.429
22.4283
22.4279
22.4277
11.6994
11.6993
11.699
11.6988
11.6985
11.6983
2.32565
2.32536
2.32506
2.32482
2.32459
2.32438
20.9698
20.9698
20.9701
20.9706
20.9711
20.9715
11.5245
11.5245
11.5246
11.5248
11.5251
11.5254
3.52637
3.52629
3.52629
3.52635
3.52644
3.52654
21.4674
21.4678
21.4685
21.4692
21.4701
21.4706
12.1507
12.1508
12.1511
12.1514
12.1518
12.152
3.69658
3.69664
3.69674
3.69686
3.69698
3.69709
19.4583
19.4585
19.4589
19.4593
19.4596
19.4599
11.1719
11.172
11.1721
11.1723
11.1724
11.1725
3.65485
3.65489
3.65494
3.65498
3.65503
3.65507
16.0193
16.0193
16.0193
16.0193
16.0193
16.0192
9.33814
9.33817
9.3382
9.33822
9.33821
9.33821
3.07695
3.07696
3.07697
3.07697
3.07697
3.07697
1.71532
1.7153
1.71531
1.71533
1.71535
1.71537
1.24978
1.24978
1.24979
1.2498
1.24982
1.24983
0.489095
0.489095
0.4891
0.489105
0.48911
0.489114
2.42917
2.42917
2.42918
2.42919
2.4292
2.42921
1.76599
1.766
1.76601
1.76601
1.76602
1.76603
0.680854
0.680856
0.68086
0.680863
0.680865
0.680867
3.40999
3.40999
3.41
3.41
3.41
3.41
2.46322
2.46322
2.46322
2.46322
2.46322
2.46322
0.93647
0.936471
0.936473
0.936472
0.93647
0.93647
4.77423
4.77422
4.77422
4.7742
4.77418
4.77417
3.40507
3.40507
3.40507
3.40506
3.40504
3.40504
1.27202
1.27202
1.27202
1.27202
1.27201
1.27201
6.58587
6.58585
6.58585
6.58582
6.58578
6.58575
4.65007
4.65006
4.65005
4.65004
4.65001
4.64999
1.70055
1.70054
1.70054
1.70053
1.70052
1.70052
8.76401
8.76401
8.764
8.76397
8.76391
8.76389
6.27186
6.27186
6.27186
6.27185
6.27182
6.27182
2.23456
2.23456
2.23455
2.23455
2.23454
2.23454
0.0451809
0.0451739
0.0451747
0.0451782
0.0451831
0.0451902
0.0282481
0.0282452
0.0282463
0.0282489
0.0282527
0.0282579
0.00978642
0.00978641
0.00978724
0.00978847
0.00979025
0.00979301
0.0480815
0.0480756
0.048077
0.0480818
0.0480887
0.0480995
0.0301174
0.0301151
0.0301167
0.0301201
0.0301252
0.0301329
0.0104562
0.0104564
0.0104575
0.010459
0.0104612
0.0104648
0.0541843
0.0541775
0.0541794
0.0541858
0.0541952
0.0542077
0.034075
0.0340725
0.0340747
0.0340793
0.0340861
0.0340949
0.0118827
0.0118831
0.0118844
0.0118864
0.0118894
0.0118934
0.0641004
0.0640923
0.0640953
0.064104
0.0641166
0.0641327
0.0405842
0.0405814
0.0405845
0.0405909
0.0405998
0.0406112
0.0142574
0.0142579
0.0142598
0.0142625
0.0142663
0.0142714
0.0789253
0.0789159
0.0789205
0.0789321
0.0789487
0.0789698
0.0505013
0.0504982
0.0505028
0.0505112
0.0505228
0.0505376
0.0179394
0.01794
0.0179425
0.017946
0.0179509
0.0179575
0.100537
0.100526
0.100533
0.100547
0.100568
0.100595
0.0653492
0.0653457
0.0653517
0.0653624
0.065377
0.0653955
0.0235765
0.0235773
0.0235805
0.0235849
0.0235909
0.0235991
0.132258
0.132246
0.132254
0.132272
0.132297
0.132329
0.0878584
0.0878545
0.087862
0.087875
0.0878928
0.0879152
0.0323389
0.0323399
0.0323437
0.0323491
0.0323564
0.0323665
0.18049
0.180477
0.180487
0.180508
0.180538
0.180576
0.123052
0.123047
0.123057
0.123072
0.123094
0.123121
0.0463711
0.0463724
0.0463771
0.0463836
0.0463925
0.0464046
0.257944
0.25793
0.257944
0.257969
0.258005
0.258048
0.17996
0.179957
0.179968
0.179987
0.180012
0.180043
0.0695895
0.0695915
0.0695972
0.069605
0.0696154
0.0696293
0.389766
0.389757
0.389773
0.389804
0.389844
0.389892
0.274802
0.274802
0.274817
0.274839
0.274867
0.274901
0.109301
0.109304
0.109311
0.10932
0.109331
0.109346
0.622873
0.622871
0.622893
0.622927
0.622971
0.623023
0.442078
0.442083
0.442099
0.442123
0.442153
0.442187
0.179707
0.179711
0.179718
0.179727
0.179739
0.179753
1.02273
1.02274
1.02276
1.0228
1.02284
1.02289
0.737483
0.737493
0.73751
0.737532
0.737559
0.737589
0.303032
0.303037
0.303043
0.303051
0.303061
0.303072
)
;

boundaryField
{
    seabed_topleft_surface
    {
        type            fixedFluxPressure;
        gradient        uniform 0;
        value           nonuniform List<scalar> 
72
(
42083.6
42083.6
42083.6
42083.6
42083.6
42083.6
40459.6
40459.6
40459.6
40459.6
40459.6
40459.6
37072.6
37072.6
37072.5
37072.5
37072.5
37072.5
30051
30051
30051
30051
30051
30050.9
16334.7
16334.8
16334.7
16334.7
16334.6
16334.6
2681.2
2681.23
2681.21
2681.2
2681.19
2681.17
167.345
167.35
167.353
167.353
167.352
167.353
87.6072
87.6073
87.6074
87.6074
87.608
87.6077
86.702
86.7015
86.701
86.7004
86.7002
86.6997
71.6448
71.6448
71.6444
71.6437
71.6428
71.642
60.188
60.1878
60.1873
60.1866
60.1859
60.1854
54.6765
54.6763
54.6758
54.6752
54.6746
54.6743
)
;
    }
    seabed_topright_surface
    {
        type            fixedFluxPressure;
        gradient        uniform 0;
        value           nonuniform List<scalar> 
72
(
0.0828742
0.0828462
0.0828386
0.0828393
0.0828406
0.082843
0.0870703
0.0870455
0.0870393
0.087041
0.0870454
0.0870549
0.095711
0.0956813
0.0956737
0.0956759
0.0956823
0.0956932
0.109131
0.109093
0.109084
0.109087
0.109096
0.10911
0.12781
0.127764
0.127753
0.127758
0.127771
0.127789
0.152276
0.152224
0.152211
0.152219
0.152236
0.152259
0.182955
0.182897
0.182883
0.182894
0.182916
0.182944
0.219915
0.219852
0.219838
0.219851
0.219877
0.219911
0.262498
0.262431
0.262417
0.262433
0.262464
0.262502
0.308857
0.308788
0.308777
0.308797
0.308833
0.308876
0.353367
0.353301
0.353298
0.353324
0.353364
0.353413
0.391837
0.391804
0.391813
0.391845
0.391892
0.391945
)
;
    }
    breakwater_top_surface
    {
        type            fixedFluxPressure;
        gradient        uniform 0;
        value           nonuniform List<scalar> 
36
(
1.71532
1.7153
1.71531
1.71533
1.71535
1.71537
2.42917
2.42917
2.42918
2.42919
2.4292
2.42921
3.40999
3.40999
3.41
3.41
3.41
3.41
4.77423
4.77422
4.77422
4.7742
4.77418
4.77417
6.58587
6.58585
6.58585
6.58582
6.58578
6.58575
8.76401
8.76401
8.764
8.76397
8.76391
8.76389
)
;
    }
    breakwater_left_surface
    {
        type            fixedFluxPressure;
        gradient        uniform 0;
        value           nonuniform List<scalar> 
24
(
54.6765
54.6763
54.6758
54.6752
54.6746
54.6743
47.8195
47.8196
47.8193
47.8188
47.8182
47.8178
37.6306
37.6306
37.6304
37.6299
37.6294
37.6289
26.9682
26.9682
26.9681
26.9678
26.9675
26.9673
)
;
    }
    breakwater_right_surface
    {
        type            fixedFluxPressure;
        gradient        uniform 0;
        value           nonuniform List<scalar> 
24
(
0.391837
0.391804
0.391813
0.391845
0.391892
0.391945
0.42783
0.427818
0.427843
0.427889
0.427954
0.42804
0.511852
0.511853
0.511885
0.511935
0.512002
0.512085
0.552763
0.552774
0.552809
0.552856
0.552916
0.552989
)
;
    }
    water_front_surface
    {
        type            fixedFluxPressure;
        gradient        uniform 0;
        value           nonuniform List<scalar> 
186
(
42083.6
40459.6
37072.6
30051
16334.7
2681.2
167.345
87.6072
86.702
71.6448
60.188
54.6765
43352.2
41595.6
38139.2
28996.3
6828.99
-184.745
-0.270206
77.3334
72.5805
60.2964
52.501
47.8195
46050
44198.8
40978.2
30019.8
1626.24
-35.5524
14.9993
46.7147
47.5314
44.9817
41.0303
37.6306
47740.4
48091.2
44802.9
20299.1
306.191
17.6535
19.462
32.2446
32.6441
32.1133
29.8069
26.9682
0.0828742
0.0870703
0.095711
0.109131
0.12781
0.152276
0.182955
0.219915
0.262498
0.308857
0.353367
0.391837
0.0788643
0.0830729
0.0917532
0.105312
0.124346
0.149572
0.181697
0.221114
0.267447
0.319121
0.3746
0.42783
0.0710364
0.0750752
0.0834451
0.0966507
0.11548
0.141006
0.174619
0.218131
0.274165
0.347349
0.426371
0.511852
0.0596547
0.063296
0.0708958
0.0830519
0.100765
0.125545
0.159476
0.20497
0.263788
0.3353
0.430666
0.552763
59261.2
46291.3
49686.7
58196.2
45675
17128.3
35929.2
2968.03
-133.761
949.359
-117.514
-106.695
-17.8075
17.2634
-15.8659
12.3352
-9.446
-9.51723
12.0998
2.31197
-1.78508
22.43
11.6994
2.32565
20.9698
11.5245
3.52637
21.4674
12.1507
3.69658
19.4583
11.1719
3.65485
16.0193
9.33814
3.07695
1.71532
1.24978
0.489095
2.42917
1.76599
0.680854
3.40999
2.46322
0.93647
4.77423
3.40507
1.27202
6.58587
4.65007
1.70055
8.76401
6.27186
2.23456
0.0451809
0.0282481
0.00978642
0.0480815
0.0301174
0.0104562
0.0541843
0.034075
0.0118827
0.0641004
0.0405842
0.0142574
0.0789253
0.0505013
0.0179394
0.100537
0.0653492
0.0235765
0.132258
0.0878584
0.0323389
0.18049
0.123052
0.0463711
0.257944
0.17996
0.0695895
0.389766
0.274802
0.109301
0.622873
0.442078
0.179707
1.02273
0.737483
0.303032
)
;
    }
    water_back_surface
    {
        type            fixedFluxPressure;
        gradient        uniform 0;
        value           nonuniform List<scalar> 
186
(
42083.6
40459.6
37072.5
30050.9
16334.6
2681.17
167.353
87.6077
86.6997
71.642
60.1854
54.6743
43352.1
41595.6
38139.1
28996.3
6828.89
-184.726
-0.268888
77.3293
72.5821
60.2972
52.5007
47.8178
46049.9
44198.8
40978
30019.8
1626.31
-35.5501
14.9974
46.7187
47.534
44.9829
41.0305
37.6289
47740.3
48091
44802.9
20299.4
306.236
17.6522
19.4629
32.2442
32.6453
32.1174
29.8091
26.9673
0.082843
0.0870549
0.0956932
0.10911
0.127789
0.152259
0.182944
0.219911
0.262502
0.308876
0.353413
0.391945
0.0788579
0.0830809
0.0917646
0.105329
0.124374
0.149613
0.181753
0.221184
0.267531
0.319222
0.374733
0.42804
0.0710383
0.07509
0.0834651
0.0966791
0.115522
0.141064
0.174693
0.21822
0.27427
0.347477
0.426536
0.512085
0.0596612
0.0633136
0.070919
0.0830845
0.100811
0.125606
0.159552
0.205061
0.263898
0.335434
0.430836
0.552989
59260.9
46291
49686.2
58196.1
45675
17128.8
35929.4
2968.14
-133.749
949.416
-117.503
-106.688
-17.8054
17.267
-15.864
12.3349
-9.44743
-9.5186
12.0979
2.30901
-1.78772
22.4277
11.6983
2.32438
20.9715
11.5254
3.52654
21.4706
12.152
3.69709
19.4599
11.1725
3.65507
16.0192
9.33821
3.07697
1.71537
1.24983
0.489114
2.42921
1.76603
0.680867
3.41
2.46322
0.93647
4.77417
3.40504
1.27201
6.58575
4.64999
1.70052
8.76389
6.27182
2.23454
0.0451902
0.0282579
0.00979301
0.0480995
0.0301329
0.0104648
0.0542077
0.0340949
0.0118934
0.0641327
0.0406112
0.0142714
0.0789698
0.0505376
0.0179575
0.100595
0.0653955
0.0235991
0.132329
0.0879152
0.0323665
0.180576
0.123121
0.0464046
0.258048
0.180043
0.0696293
0.389892
0.274901
0.109346
0.623023
0.442187
0.179753
1.02289
0.737589
0.303072
)
;
    }
    water_left_surface
    {
        type            fixedFluxPressure;
        gradient        uniform 0;
        value           nonuniform List<scalar> 
42
(
42083.6
42083.6
42083.6
42083.6
42083.6
42083.6
43352.2
43352.2
43352.2
43352.2
43352.1
43352.1
46050
46050
46050
46050
46049.9
46049.9
47740.4
47740.4
47740.4
47740.4
47740.3
47740.3
59261.2
59261
59261
59260.9
59260.9
59260.9
46291.3
46291.2
46291.2
46291.1
46291
46291
49686.7
49686.2
49686.2
49686.2
49686.2
49686.2
)
;
    }
    water_right_surface
    {
        type            fixedFluxPressure;
        gradient        uniform 0;
        value           nonuniform List<scalar> 
42
(
0.0828742
0.0828462
0.0828386
0.0828393
0.0828406
0.082843
0.0788643
0.0788448
0.0788416
0.0788443
0.0788487
0.0788579
0.0710364
0.0710211
0.07102
0.0710235
0.071029
0.0710383
0.0596547
0.0596435
0.0596435
0.0596473
0.0596527
0.0596612
0.0451809
0.0451739
0.0451747
0.0451782
0.0451831
0.0451902
0.0282481
0.0282452
0.0282463
0.0282489
0.0282527
0.0282579
0.00978642
0.00978641
0.00978724
0.00978847
0.00979025
0.00979301
)
;
    }
    water_top_surface
    {
        type            totalPressure;
        rho             rho;
        psi             none;
        gamma           1;
        p0              uniform 0;
        value           nonuniform List<scalar> 
180
(
0
0
0
0
0
0
0
0
0
0
0
0
-101.433
-101.425
-101.423
-101.425
-101.425
-101.396
-54.1711
-54.1614
-54.1677
-54.1701
-54.1658
-54.1593
-1.76255
-1.76222
-1.76376
-1.76519
-1.7658
-1.76655
0
0
0
0
0
0
0
0
0
0
0
0
0
0
0
0
0
0
0
0
0
0
0
0
0
0
0
0
0
0
0
0
0
0
0
0
0
0
0
0
0
0
0
0
0
0
0
0
0
0
0
0
0
0
0
0
0
0
0
0
0
0
0
0
0
0
0
0
0
0
0
0
0
0
0
0
0
0
0
0
0
0
0
0
0
0
0
0
0
0
0
0
0
0
0
0
0
0
0
0
0
0
0
0
0
0
0
0
0
0
0
0
0
0
0
0
0
0
0
0
0
0
0
0
0
0
0
0
0
0
0
0
0
0
0
0
0
0
0
0
0
0
0
0
0
0
0
0
0
0
)
;
    }
}


// ************************************************************************* //
