/*--------------------------------*- C++ -*----------------------------------*\
| =========                 |                                                 |
| \\      /  F ield         | OpenFOAM: The Open Source CFD Toolbox           |
|  \\    /   O peration     | Version:  v1612+                                |
|   \\  /    A nd           | Web:      www.OpenFOAM.com                      |
|    \\/     M anipulation  |                                                 |
\*---------------------------------------------------------------------------*/
FoamFile
{
    version     2.0;
    format      ascii;
    class       volVectorField;
    location    "0.95";
    object      U;
}
// * * * * * * * * * * * * * * * * * * * * * * * * * * * * * * * * * * * * * //

dimensions      [0 1 -1 0 0 0 0];

internalField   nonuniform List<vector> 
1116
(
(0.242058 1.28882e-07 -0.249587)
(0.242059 -9.64184e-08 -0.249588)
(0.242059 -5.82817e-07 -0.249588)
(0.242059 -6.85027e-07 -0.249589)
(0.242059 -4.23093e-07 -0.249589)
(0.242059 -1.02083e-07 -0.249589)
(0.636608 5.09855e-07 -0.360992)
(0.636611 7.368e-07 -0.360994)
(0.636612 1.04275e-06 -0.360993)
(0.636611 1.31848e-06 -0.360993)
(0.63661 1.12137e-06 -0.360991)
(0.636609 2.0236e-07 -0.36099)
(1.67873 1.17049e-06 -0.579954)
(1.67874 2.5104e-06 -0.579955)
(1.67874 3.47891e-06 -0.579952)
(1.67874 3.62487e-06 -0.57995)
(1.67873 2.39816e-06 -0.579948)
(1.67873 4.18028e-07 -0.579946)
(2.68469 6.07702e-07 -0.890759)
(2.68469 1.56579e-06 -0.890764)
(2.68469 2.94251e-06 -0.890763)
(2.68468 3.98625e-06 -0.890763)
(2.68468 3.17498e-06 -0.890762)
(2.68468 1.19577e-06 -0.890759)
(4.07888 1.06731e-05 -1.28466)
(4.0789 1.06278e-05 -1.28465)
(4.0789 -2.67283e-06 -1.28465)
(4.0789 -2.1765e-06 -1.28465)
(4.0789 -7.94629e-06 -1.28466)
(4.07889 -5.88358e-06 -1.28465)
(6.27467 3.13424e-05 -1.60019)
(6.27474 2.91776e-05 -1.60013)
(6.27473 -1.43805e-05 -1.60011)
(6.27473 -1.75738e-05 -1.60012)
(6.27475 -4.42062e-05 -1.60014)
(6.27471 -3.11438e-05 -1.60013)
(10.8889 -5.26957e-06 -0.260929)
(10.8889 -1.46725e-05 -0.260845)
(10.8889 -5.71554e-05 -0.26082)
(10.8889 -3.94087e-05 -0.260817)
(10.8892 -0.000113679 -0.26084)
(10.8888 -6.62611e-05 -0.260795)
(8.54513 4.26276e-05 0.897734)
(8.54469 1.25646e-05 0.897855)
(8.54457 -0.000109699 0.897832)
(8.54455 -0.000100347 0.897776)
(8.54471 -7.83822e-05 0.897712)
(8.54438 -1.09033e-05 0.897602)
(3.82904 3.20912e-05 1.245)
(3.82903 5.7159e-05 1.24495)
(3.82898 3.40791e-05 1.2449)
(3.82899 4.88876e-05 1.24491)
(3.82903 6.85771e-05 1.24496)
(3.82901 4.54478e-05 1.245)
(2.52807 1.75979e-05 0.748923)
(2.52823 8.67461e-05 0.748853)
(2.52822 0.000151439 0.748868)
(2.52822 0.000171334 0.748937)
(2.52821 0.00015301 0.74904)
(2.52817 6.85841e-05 0.749168)
(1.49969 2.96547e-05 0.491093)
(1.49983 8.8995e-05 0.491166)
(1.4998 0.000127542 0.491217)
(1.49976 0.00013524 0.491266)
(1.4997 0.000110498 0.491315)
(1.49961 4.71071e-05 0.491363)
(0.571249 2.91729e-05 0.482561)
(0.571286 8.14813e-05 0.482618)
(0.571262 0.000111641 0.48263)
(0.571231 0.000113979 0.482633)
(0.571195 8.98564e-05 0.482632)
(0.571148 3.59958e-05 0.482618)
(0.152165 -4.68886e-07 -0.62647)
(0.152165 -1.64495e-06 -0.626471)
(0.152164 -2.70712e-06 -0.626472)
(0.152162 -2.69122e-06 -0.626472)
(0.152161 -1.88185e-06 -0.626472)
(0.15216 -6.52749e-07 -0.626471)
(0.361653 4.15163e-07 -0.925354)
(0.361655 1.58063e-07 -0.925356)
(0.361652 -4.2014e-07 -0.925354)
(0.361648 -4.73864e-07 -0.925352)
(0.361645 -9.39474e-07 -0.92535)
(0.361643 -7.51824e-07 -0.925346)
(1.27565 1.72171e-06 -1.49923)
(1.27565 5.35648e-06 -1.49923)
(1.27565 6.4595e-06 -1.49922)
(1.27564 5.09106e-06 -1.49922)
(1.27564 4.32428e-06 -1.49921)
(1.27563 2.05177e-06 -1.49921)
(1.63858 2.38513e-06 -2.25984)
(1.6386 7.66218e-06 -2.25985)
(1.63859 7.23252e-06 -2.25984)
(1.63859 6.3723e-06 -2.25984)
(1.63858 2.95641e-06 -2.25984)
(1.63857 2.2762e-06 -2.25983)
(2.95195 1.64824e-05 -3.47944)
(2.95197 1.69889e-05 -3.47943)
(2.95197 2.77401e-06 -3.47943)
(2.95196 7.87478e-07 -3.47943)
(2.95195 -1.78896e-05 -3.47945)
(2.95194 -2.01672e-05 -3.47943)
(4.37557 7.44847e-05 -5.97809)
(4.37581 6.92615e-05 -5.97779)
(4.37577 -4.60726e-05 -5.97773)
(4.37576 -2.40892e-05 -5.97773)
(4.37579 -9.611e-05 -5.97786)
(4.37561 -0.000100366 -5.97794)
(9.84238 -1.00946e-05 3.29927)
(9.84183 -5.93888e-05 3.29938)
(9.84172 -0.000133417 3.29938)
(9.84164 -6.23528e-05 3.29933)
(9.84195 -0.000112275 3.29925)
(9.8411 -6.22719e-05 3.29911)
(3.20565 6.21122e-05 4.36815)
(3.20571 9.99872e-05 4.36843)
(3.20563 4.82448e-05 4.36838)
(3.20554 7.44523e-05 4.36832)
(3.20563 9.2962e-05 4.36829)
(3.20532 5.87998e-05 4.36807)
(2.62785 2.92867e-05 2.90196)
(2.62784 6.08579e-05 2.90182)
(2.6277 4.66334e-05 2.90168)
(2.62767 6.33864e-06 2.90166)
(2.62772 -2.24193e-05 2.90173)
(2.62774 -1.26469e-05 2.90175)
(1.91293 -2.923e-06 1.72682)
(1.91302 -2.65318e-05 1.72671)
(1.913 -5.94533e-05 1.72675)
(1.913 -8.29471e-05 1.72688)
(1.91305 -9.1041e-05 1.72708)
(1.91305 -4.3734e-05 1.72726)
(1.14353 -2.49388e-05 1.2566)
(1.14365 -3.43381e-05 1.25672)
(1.14364 -1.28649e-05 1.25682)
(1.1436 -4.14272e-06 1.25692)
(1.14354 -3.46864e-06 1.25703)
(1.14346 -2.43049e-06 1.25712)
(0.573915 8.8732e-06 1.20837)
(0.573948 6.06516e-05 1.20844)
(0.57392 0.000117943 1.20846)
(0.573878 0.000133588 1.20846)
(0.573825 0.000119998 1.20845)
(0.573754 5.14949e-05 1.20842)
(-0.0285899 -6.45506e-08 -0.695213)
(-0.0285914 -1.06622e-06 -0.695213)
(-0.0285933 -1.94729e-06 -0.695212)
(-0.028595 -1.64526e-06 -0.695211)
(-0.0285956 -8.36832e-07 -0.69521)
(-0.0285949 -2.20324e-07 -0.695208)
(-0.138277 1.56668e-06 -1.27968)
(-0.138278 2.92174e-06 -1.27968)
(-0.138282 2.25892e-06 -1.27968)
(-0.138285 1.44959e-06 -1.27968)
(-0.138285 1.44558e-06 -1.27967)
(-0.138282 9.18325e-07 -1.27967)
(0.487901 4.49171e-06 -2.16159)
(0.487907 1.16404e-05 -2.16159)
(0.487903 7.78741e-06 -2.16159)
(0.4879 4.47107e-06 -2.16158)
(0.4879 3.87677e-06 -2.16158)
(0.487902 3.19023e-06 -2.16157)
(0.461886 4.43156e-06 -3.32385)
(0.461962 1.17901e-05 -3.32386)
(0.461962 7.57367e-06 -3.32386)
(0.461961 6.68629e-06 -3.32385)
(0.46196 4.86948e-06 -3.32385)
(0.461972 5.7168e-06 -3.32384)
(1.96877 4.24844e-05 -4.82335)
(1.96885 2.60063e-05 -4.82339)
(1.96885 1.25226e-05 -4.82336)
(1.96884 8.78179e-06 -4.82336)
(1.96885 1.00286e-05 -4.82337)
(1.96885 -8.65355e-06 -4.82335)
(1.64969 -5.78858e-05 -3.75938)
(1.65025 -9.36667e-05 -3.75869)
(1.65012 -8.74714e-05 -3.75864)
(1.65005 1.6144e-05 -3.75863)
(1.65009 -1.8874e-05 -3.75874)
(1.64991 -6.57235e-05 -3.75908)
(-1.53771 -5.33801e-05 4.03188)
(-1.53767 -8.98012e-07 4.03221)
(-1.53772 0.000132646 4.03219)
(-1.53768 0.000221558 4.03224)
(-1.53747 0.00018802 4.03232)
(-1.53736 6.89073e-05 4.03203)
(0.102865 -3.66265e-05 4.49206)
(0.102834 5.22406e-05 4.49233)
(0.102775 0.000172069 4.49234)
(0.102832 0.000150932 4.49233)
(0.103018 0.000124412 4.49232)
(0.103186 5.4721e-05 4.49211)
(0.947626 2.90616e-05 2.91563)
(0.947473 2.33884e-05 2.91559)
(0.947412 -7.22936e-05 2.9155)
(0.947462 -0.000174375 2.91544)
(0.947609 -0.000195123 2.91542)
(0.947753 -8.88368e-05 2.91524)
(0.922083 6.47368e-07 2.02706)
(0.922025 -8.56053e-05 2.027)
(0.922017 -0.000214232 2.02703)
(0.922048 -0.000272708 2.02712)
(0.92213 -0.000261397 2.02728)
(0.922176 -0.000117489 2.02732)
(0.712527 -4.35157e-05 1.62322)
(0.712527 -9.22169e-05 1.62326)
(0.712505 -0.000100893 1.62334)
(0.71248 -9.86835e-05 1.62344)
(0.712452 -7.90012e-05 1.62356)
(0.712401 -3.28093e-05 1.62363)
(0.501344 6.08758e-06 1.56551)
(0.501337 4.64498e-05 1.56552)
(0.50131 8.99115e-05 1.56553)
(0.501274 0.000101276 1.56553)
(0.50123 9.43401e-05 1.56553)
(0.501177 4.22018e-05 1.56551)
(-0.368126 2.17026e-06 -0.807342)
(-0.368125 3.58097e-06 -0.807337)
(-0.368125 3.26327e-06 -0.807335)
(-0.368124 2.99841e-06 -0.807333)
(-0.368123 2.90588e-06 -0.807332)
(-0.368121 1.26837e-06 -0.80733)
(-0.937471 3.9106e-06 -1.59551)
(-0.937471 9.01937e-06 -1.59551)
(-0.937474 5.26814e-06 -1.59551)
(-0.937474 2.94858e-06 -1.59551)
(-0.937471 3.29224e-06 -1.59551)
(-0.937465 3.00649e-06 -1.5955)
(-0.758723 -2.02112e-06 -2.58206)
(-0.758667 1.97388e-06 -2.58206)
(-0.758663 -2.10231e-06 -2.58206)
(-0.758659 1.67396e-08 -2.58206)
(-0.758656 -1.55616e-06 -2.58205)
(-0.758641 2.96592e-06 -2.58204)
(-0.403226 1.98801e-05 -4.13859)
(-0.403219 4.34971e-06 -4.13863)
(-0.403219 1.76459e-05 -4.13862)
(-0.403219 1.29932e-05 -4.13862)
(-0.403221 3.65495e-05 -4.13862)
(-0.403212 5.10995e-06 -4.13861)
(3.18268 4.61661e-05 -4.68478)
(3.18289 1.67922e-06 -4.68491)
(3.18287 3.89898e-05 -4.68488)
(3.18287 6.0292e-06 -4.68486)
(3.18289 3.66261e-05 -4.68488)
(3.1829 -2.47752e-05 -4.68485)
(-3.20922 -0.000130649 0.255134)
(-3.20898 -0.000150825 0.255442)
(-3.20915 -5.16063e-05 0.255264)
(-3.20912 2.8775e-05 0.255312)
(-3.20892 8.76017e-05 0.255311)
(-3.20894 7.12052e-05 0.254717)
(-1.31032 -8.63289e-05 3.226)
(-1.31041 -3.09579e-05 3.2261)
(-1.31043 0.000127165 3.22607)
(-1.31032 0.000140215 3.22623)
(-1.31016 0.000151435 3.22643)
(-1.31 7.68623e-05 3.22624)
(-0.431722 -6.72386e-05 2.81821)
(-0.431935 -2.43852e-05 2.81838)
(-0.43187 5.43892e-05 2.81853)
(-0.431694 2.0048e-05 2.81858)
(-0.431493 4.45385e-05 2.81856)
(-0.431342 3.59846e-05 2.8184)
(0.34291 5.01789e-05 2.34964)
(0.342799 6.95275e-05 2.34983)
(0.342882 1.63288e-05 2.34981)
(0.343013 -2.4291e-05 2.34971)
(0.343145 -1.39259e-05 2.34957)
(0.343266 6.99251e-06 2.34933)
(0.510709 2.61531e-07 1.91965)
(0.510705 -7.35188e-05 1.91965)
(0.51075 -0.000177851 1.91964)
(0.510809 -0.000212744 1.91966)
(0.510882 -0.000180627 1.9197)
(0.510942 -7.23049e-05 1.91964)
(0.506319 -3.86338e-05 1.69183)
(0.506312 -9.89574e-05 1.69181)
(0.506327 -0.000133203 1.69185)
(0.506349 -0.00014037 1.69193)
(0.506376 -0.000112609 1.69202)
(0.506388 -4.51389e-05 1.69207)
(0.457859 4.09485e-06 1.7075)
(0.457848 1.81251e-05 1.7075)
(0.457842 2.799e-05 1.7075)
(0.457837 2.84805e-05 1.70751)
(0.457832 2.56656e-05 1.70753)
(0.457823 1.16714e-05 1.70753)
(0.000367 4.16466e-08 0.000370881)
(0.000367025 2.03805e-07 0.000370856)
(0.00036704 1.53806e-07 0.00037083)
(0.000367053 -3.12297e-08 0.000370812)
(0.000367073 -1.48579e-08 0.000370789)
(0.000367088 8.06667e-09 0.000370765)
(0.00111567 -2.05859e-09 0.000385571)
(0.0011157 1.33833e-07 0.000385549)
(0.00111571 1.0231e-07 0.000385526)
(0.00111573 -9.39258e-08 0.00038551)
(0.00111576 -8.64775e-08 0.000385487)
(0.00111577 -2.49495e-08 0.000385464)
(0.00190637 3.33827e-09 0.000413757)
(0.00190638 1.39777e-07 0.00041373)
(0.00190639 9.03954e-08 0.000413702)
(0.00190641 -1.13593e-07 0.000413684)
(0.00190642 -9.42193e-08 0.00041366)
(0.00190642 -2.54119e-08 0.000413634)
(0.00276201 2.09531e-08 0.000452037)
(0.00276203 1.43078e-07 0.000451996)
(0.00276206 7.16624e-08 0.00045196)
(0.00276207 -1.22819e-07 0.000451939)
(0.00276208 -1.09777e-07 0.000451911)
(0.00276208 -3.60715e-08 0.000451885)
(0.00369643 2.43036e-08 0.000493139)
(0.00369648 1.23392e-07 0.000493069)
(0.0036965 5.4835e-08 0.000493028)
(0.00369649 -1.22366e-07 0.000493007)
(0.00369649 -1.26358e-07 0.000492984)
(0.00369648 -4.68274e-08 0.000492968)
(0.00470455 1.80283e-08 0.000522408)
(0.00470461 1.03955e-07 0.000522283)
(0.00470462 6.80795e-08 0.000522238)
(0.0047046 -8.92502e-08 0.000522215)
(0.00470458 -1.09482e-07 0.000522209)
(0.00470452 -3.6677e-08 0.000522213)
(0.00574863 -9.25433e-10 0.000511363)
(0.0057487 6.71707e-08 0.000511148)
(0.00574869 6.95834e-08 0.000511096)
(0.00574866 -5.77183e-08 0.000511083)
(0.0057486 -7.95267e-08 0.000511114)
(0.00574848 -1.91593e-08 0.000511164)
(0.0067355 -4.23629e-08 0.000415229)
(0.00673558 2.67217e-08 0.000414907)
(0.00673552 9.15514e-08 0.000414832)
(0.00673545 4.47859e-09 0.000414824)
(0.00673533 3.92057e-09 0.000414872)
(0.00673511 2.23748e-08 0.000414961)
(0.00748245 -6.56281e-08 0.000167996)
(0.00748258 6.80007e-08 0.000167519)
(0.00748247 1.98026e-07 0.000167399)
(0.00748235 1.13882e-07 0.000167413)
(0.00748215 1.32202e-07 0.000167511)
(0.00748181 8.19754e-08 0.000167668)
(0.0076669 -5.13975e-08 -0.000311157)
(0.00766706 1.67633e-07 -0.000311706)
(0.00766695 3.41517e-07 -0.00031181)
(0.00766673 2.43465e-07 -0.000311714)
(0.0076664 2.63091e-07 -0.000311505)
(0.00766585 1.3923e-07 -0.000311208)
(0.00684803 2.01736e-07 -0.00119361)
(0.00684819 5.22241e-07 -0.00119361)
(0.00684817 5.69412e-07 -0.00119355)
(0.00684803 4.34548e-07 -0.00119339)
(0.00684772 3.74589e-07 -0.00119313)
(0.00684698 1.82354e-07 -0.00119271)
(0.00354108 2.59955e-07 -0.00279655)
(0.00354115 4.37298e-07 -0.00279627)
(0.00354121 2.29298e-07 -0.00279625)
(0.00354122 -4.5693e-08 -0.00279624)
(0.00354113 -2.33827e-07 -0.0027962)
(0.00354076 -1.36584e-07 -0.00279601)
(0.000359268 -1.14454e-08 0.00108202)
(0.00035929 9.98095e-08 0.001082)
(0.0003593 6.69479e-08 0.00108196)
(0.00035931 -1.11871e-07 0.00108194)
(0.000359327 -1.00101e-07 0.00108192)
(0.00035934 -3.35253e-08 0.00108189)
(0.00109383 -4.45117e-08 0.00112726)
(0.00109387 4.86142e-08 0.00112724)
(0.00109388 3.12331e-08 0.00112721)
(0.0010939 -1.62369e-07 0.00112719)
(0.00109393 -1.60393e-07 0.00112717)
(0.00109394 -5.98649e-08 0.00112714)
(0.00187548 -4.37803e-08 0.00121474)
(0.0018755 4.41135e-08 0.00121472)
(0.00187552 1.36957e-08 0.00121467)
(0.00187553 -1.84225e-07 0.00121465)
(0.00187555 -1.76493e-07 0.00121463)
(0.00187555 -6.64191e-08 0.0012146)
(0.00273289 -2.34503e-08 0.00133604)
(0.00273292 4.70513e-08 0.00133598)
(0.00273294 -4.95068e-09 0.00133593)
(0.00273294 -1.93248e-07 0.0013359)
(0.00273295 -1.94267e-07 0.00133587)
(0.00273295 -7.6435e-08 0.00133585)
(0.00368959 -8.24075e-09 0.00147249)
(0.00368964 5.57912e-08 0.00147237)
(0.00368965 3.2173e-09 0.00147231)
(0.00368964 -1.78537e-07 0.00147228)
(0.00368964 -2.04104e-07 0.00147226)
(0.00368961 -8.63566e-08 0.00147226)
(0.00475769 -5.16467e-09 0.00158713)
(0.00475777 6.71625e-08 0.00158691)
(0.00475777 2.80119e-08 0.00158683)
(0.00475774 -1.51785e-07 0.0015868)
(0.0047577 -1.89189e-07 0.00158682)
(0.00475762 -8.16964e-08 0.00158685)
(0.00592049 -2.41879e-08 0.00161142)
(0.0059206 5.26755e-08 0.00161103)
(0.00592059 5.01896e-08 0.00161092)
(0.00592054 -1.03475e-07 0.00161091)
(0.00592046 -1.29107e-07 0.00161098)
(0.00592032 -5.22478e-08 0.00161109)
(0.00710387 -2.25339e-08 0.00142156)
(0.00710412 6.44627e-08 0.0014209)
(0.00710411 6.6285e-08 0.00142072)
(0.00710403 -9.12235e-08 0.00142072)
(0.00710387 -1.13302e-07 0.00142084)
(0.00710359 -4.27701e-08 0.00142106)
(0.0081292 -7.4568e-08 0.000792529)
(0.00812979 3.35042e-08 0.000791489)
(0.00812984 1.40084e-07 0.000791204)
(0.00812968 4.78803e-08 0.000791235)
(0.00812935 4.96595e-08 0.000791456)
(0.0081288 3.34909e-08 0.000791839)
(0.00877411 -1.30335e-07 -0.000723824)
(0.00877502 9.9888e-09 -0.000724981)
(0.00877511 2.69587e-07 -0.000725217)
(0.00877487 2.73651e-07 -0.000725054)
(0.00877436 3.07691e-07 -0.000724641)
(0.00877348 1.62153e-07 -0.000723999)
(0.00848985 1.11499e-07 -0.00319435)
(0.00849084 3.43093e-07 -0.00319438)
(0.00849097 4.16011e-07 -0.00319424)
(0.00849072 3.05976e-07 -0.00319389)
(0.00849011 2.03933e-07 -0.00319327)
(0.00848885 7.96915e-08 -0.00319222)
(0.00540539 1.94173e-07 -0.00800541)
(0.00540585 2.00809e-07 -0.00800489)
(0.00540596 -1.70838e-07 -0.00800478)
(0.00540588 -5.31556e-07 -0.00800468)
(0.00540559 -7.73376e-07 -0.00800447)
(0.00540485 -4.07492e-07 -0.00800387)
(0.000336175 -1.97615e-08 0.00174929)
(0.00033619 7.50687e-08 0.0017493)
(0.000336201 4.02724e-08 0.00174927)
(0.000336205 -1.21921e-07 0.00174927)
(0.000336219 -9.78972e-08 0.00174927)
(0.000336227 -3.14165e-08 0.00174926)
(0.00102713 -4.14053e-08 0.00182977)
(0.00102715 3.19143e-08 0.00182978)
(0.00102717 1.08892e-08 0.00182976)
(0.00102718 -1.58603e-07 0.00182976)
(0.0010272 -1.48525e-07 0.00182976)
(0.0010272 -5.22894e-08 0.00182975)
(0.00177438 -4.42046e-08 0.00198775)
(0.0017744 2.03596e-08 0.00198775)
(0.00177441 -4.65678e-09 0.00198772)
(0.00177441 -1.74003e-07 0.00198772)
(0.00177442 -1.60203e-07 0.00198772)
(0.00177441 -5.5355e-08 0.00198771)
(0.00261758 -3.03826e-08 0.00221381)
(0.0026176 2.69618e-08 0.00221377)
(0.00261761 -1.10362e-08 0.00221374)
(0.00261761 -1.79691e-07 0.00221374)
(0.00261761 -1.78774e-07 0.00221374)
(0.00261759 -6.741e-08 0.00221374)
(0.00359822 -1.38455e-08 0.00248388)
(0.00359826 4.23893e-08 0.00248379)
(0.00359826 -5.4284e-09 0.00248375)
(0.00359824 -1.76228e-07 0.00248374)
(0.00359823 -1.95082e-07 0.00248376)
(0.00359819 -8.05289e-08 0.00248378)
(0.00475608 -2.05548e-09 0.00274339)
(0.00475614 5.9553e-08 0.00274322)
(0.00475614 4.91252e-09 0.00274315)
(0.00475611 -1.68668e-07 0.00274315)
(0.00475607 -1.96548e-07 0.0027432)
(0.00475599 -8.47821e-08 0.00274327)
(0.00612748 1.04266e-08 0.00287987)
(0.00612762 6.73662e-08 0.00287951)
(0.00612762 1.07747e-08 0.0028794)
(0.00612757 -1.56354e-07 0.00287942)
(0.00612751 -1.93961e-07 0.0028795)
(0.00612739 -8.43481e-08 0.00287964)
(0.00775053 9.83423e-09 0.00270187)
(0.00775088 6.20214e-08 0.00270115)
(0.00775093 1.198e-08 0.00270094)
(0.00775087 -1.44782e-07 0.00270097)
(0.00775075 -1.8342e-07 0.00270114)
(0.00775054 -7.9759e-08 0.00270143)
(0.00969742 -3.68811e-08 0.00193153)
(0.00969817 1.4162e-08 0.0019303)
(0.00969831 4.1876e-08 0.00193)
(0.00969822 -6.98163e-08 0.00193008)
(0.00969799 -9.89593e-08 0.00193041)
(0.00969758 -3.90469e-08 0.00193095)
(0.0113744 3.27177e-08 0.000220455)
(0.0113758 1.15577e-07 0.000218931)
(0.011376 9.66126e-08 0.00021873)
(0.0113758 -2.48232e-08 0.000219039)
(0.0113753 -1.09198e-07 0.000219711)
(0.0113744 -6.97224e-08 0.000220751)
(0.0124036 5.45904e-08 -0.00342376)
(0.0124054 1.27578e-07 -0.00342395)
(0.0124055 4.35164e-08 -0.0034236)
(0.012405 -1.36582e-07 -0.00342285)
(0.012404 -2.57832e-07 -0.00342166)
(0.0124023 -1.47865e-07 -0.00341976)
(0.00862749 -3.51011e-08 -0.0120275)
(0.00862839 -2.54272e-07 -0.0120272)
(0.00862847 -6.54828e-07 -0.012027)
(0.00862815 -1.03207e-06 -0.0120268)
(0.00862752 -1.20309e-06 -0.0120262)
(0.00862643 -5.71735e-07 -0.0120251)
(0.000295235 -2.31669e-08 0.00234381)
(0.000295245 4.55445e-08 0.00234383)
(0.000295254 1.7074e-08 0.0023438)
(0.000295255 -1.11673e-07 0.00234381)
(0.000295266 -8.98673e-08 0.00234382)
(0.000295271 -3.05668e-08 0.0023438)
(0.000906641 -3.66844e-08 0.00246538)
(0.000906662 1.38693e-08 0.0024654)
(0.000906674 -4.43915e-09 0.00246537)
(0.000906677 -1.37751e-07 0.00246538)
(0.00090669 -1.28841e-07 0.00246539)
(0.00090669 -4.60006e-08 0.00246538)
(0.00158354 -4.27389e-08 0.00270893)
(0.00158355 3.45062e-09 0.00270894)
(0.00158356 -1.398e-08 0.00270891)
(0.00158356 -1.50422e-07 0.00270892)
(0.00158356 -1.38496e-07 0.00270893)
(0.00158355 -4.81292e-08 0.00270892)
(0.0023799 -3.38453e-08 0.0030719)
(0.00237991 1.02249e-08 0.00307189)
(0.00237991 -1.60579e-08 0.00307185)
(0.00237991 -1.56771e-07 0.00307186)
(0.0023799 -1.5678e-07 0.00307187)
(0.00237988 -5.99638e-08 0.00307186)
(0.00336812 -7.97002e-09 0.00353992)
(0.00336812 3.19171e-08 0.00353987)
(0.00336811 -1.96286e-08 0.00353983)
(0.00336809 -1.62227e-07 0.00353983)
(0.00336807 -1.78307e-07 0.00353986)
(0.00336803 -7.5302e-08 0.00353987)
(0.00464974 2.22544e-08 0.0040657)
(0.00464973 6.3617e-08 0.00406559)
(0.0046497 -1.45332e-08 0.00406553)
(0.00464965 -1.66595e-07 0.00406555)
(0.00464962 -1.98685e-07 0.0040656)
(0.00464955 -8.75263e-08 0.00406564)
(0.00633909 6.92845e-08 0.00452266)
(0.00633908 1.20554e-07 0.0045224)
(0.00633903 1.46923e-08 0.0045223)
(0.00633896 -1.52061e-07 0.00452232)
(0.00633891 -2.13388e-07 0.0045224)
(0.00633882 -9.74298e-08 0.00452249)
(0.00850916 1.22538e-07 0.00458749)
(0.00850922 1.9681e-07 0.00458692)
(0.00850915 5.51703e-08 0.00458673)
(0.00850905 -1.32466e-07 0.00458674)
(0.00850895 -2.31504e-07 0.00458687)
(0.00850877 -1.18377e-07 0.00458708)
(0.0110529 1.8837e-07 0.0035152)
(0.0110532 3.16165e-07 0.00351414)
(0.0110531 1.55424e-07 0.00351386)
(0.0110529 -5.41312e-08 0.00351389)
(0.0110526 -2.06053e-07 0.00351415)
(0.0110522 -1.26907e-07 0.00351462)
(0.0142272 1.65712e-07 -0.000444537)
(0.014228 3.20643e-07 -0.000446016)
(0.0142279 2.12128e-07 -0.000446237)
(0.0142274 2.25488e-08 -0.000445954)
(0.0142267 -1.18238e-07 -0.000445317)
(0.0142255 -9.06771e-08 -0.000444265)
(0.0182431 7.23249e-08 -0.0114355)
(0.0182439 9.21489e-08 -0.0114357)
(0.0182435 -4.8651e-09 -0.0114354)
(0.0182427 -1.43678e-07 -0.0114346)
(0.0182412 -1.47352e-07 -0.0114334)
(0.0182387 -5.36471e-08 -0.0114313)
(0.0171806 -4.80711e-07 -0.0374802)
(0.0171813 -1.1918e-06 -0.0374817)
(0.0171811 -1.57102e-06 -0.0374815)
(0.0171805 -1.86315e-06 -0.0374808)
(0.0171795 -1.89889e-06 -0.0374797)
(0.0171778 -9.21345e-07 -0.0374783)
(-0.886333 7.95808e-06 1.01005)
(-0.886337 1.44502e-05 1.01006)
(-0.886338 9.10954e-06 1.01005)
(-0.88634 4.88329e-06 1.01005)
(-0.886341 5.34651e-06 1.01005)
(-0.886339 4.01012e-06 1.01005)
(-1.32853 8.24021e-06 1.20091)
(-1.32849 1.60594e-05 1.20096)
(-1.32849 7.81556e-06 1.20096)
(-1.32849 6.69784e-06 1.20096)
(-1.32849 5.13725e-06 1.20096)
(-1.32849 7.08114e-06 1.20096)
(-2.80033 -8.45236e-06 9.86776)
(-2.80028 6.97838e-06 9.86776)
(-2.80028 1.25073e-05 9.86775)
(-2.80028 1.33967e-05 9.86775)
(-2.80028 2.5688e-05 9.86775)
(-2.80025 2.42242e-05 9.86774)
(-1.97428 6.40162e-09 -0.306353)
(-1.97424 5.48812e-06 -0.306343)
(-1.97424 3.152e-07 -0.306346)
(-1.97424 2.9816e-06 -0.306346)
(-1.97424 -4.40755e-07 -0.306346)
(-1.97423 3.78558e-06 -0.306344)
(-4.80495 -1.15961e-06 -1.10271)
(-4.80492 -9.68204e-07 -1.10271)
(-4.80492 -1.98874e-06 -1.10271)
(-4.80492 4.90101e-06 -1.10271)
(-4.80492 5.63641e-06 -1.10271)
(-4.80489 5.64124e-06 -1.10271)
(-8.86579 9.13962e-06 7.01792)
(-8.8657 -8.23709e-06 7.01802)
(-8.86571 1.7986e-06 7.01802)
(-8.86571 -3.00078e-06 7.01802)
(-8.86571 1.6405e-05 7.01802)
(-8.86561 -4.2839e-06 7.01807)
(-2.81655 8.44904e-06 -2.90958)
(-2.81654 -6.67435e-06 -2.90959)
(-2.81654 4.24515e-06 -2.90959)
(-2.81654 4.13375e-06 -2.90959)
(-2.81654 1.35484e-05 -2.90958)
(-2.81652 -7.29688e-06 -2.90956)
(-7.49981 9.11114e-05 -7.00884)
(-7.49986 -1.49958e-05 -7.00882)
(-7.49987 4.09291e-05 -7.00882)
(-7.49988 1.50579e-06 -7.00882)
(-7.49985 5.97659e-05 -7.00878)
(-7.49987 -7.87052e-05 -7.00867)
(-12.2862 5.36414e-05 -14.2393)
(-12.2863 -4.65534e-05 -14.2393)
(-12.2863 2.43518e-05 -14.2393)
(-12.2863 -0.000107882 -14.2393)
(-12.2863 -6.87877e-05 -14.2393)
(-12.2862 -0.000114599 -14.2394)
(1.7344 0.000103187 -7.98986)
(1.73439 -2.18063e-05 -7.98989)
(1.73439 8.04921e-05 -7.98988)
(1.73438 1.65537e-05 -7.98989)
(1.73439 0.000111029 -7.98985)
(1.73426 -7.4574e-05 -7.98975)
(4.75856 0.000107462 -12.289)
(4.75876 2.71744e-05 -12.2891)
(4.75872 0.00023665 -12.2891)
(4.75873 4.43769e-05 -12.2892)
(4.75889 0.00021193 -12.2891)
(4.7587 -8.48243e-06 -12.2888)
(-5.46733 -5.36085e-06 -10.4055)
(-5.46733 -4.91169e-05 -10.4055)
(-5.46733 -0.000100001 -10.4056)
(-5.46732 -0.000119745 -10.4057)
(-5.46731 -0.000152705 -10.4058)
(-5.46729 -7.74191e-05 -10.4059)
(6.59981 9.83842e-05 -2.52294)
(6.59994 -2.07784e-05 -2.52326)
(6.59992 7.84892e-05 -2.52319)
(6.59997 -8.77024e-06 -2.52318)
(6.60006 0.000147196 -2.5233)
(6.5999 -2.08882e-05 -2.52333)
(-3.35312 8.17943e-05 3.23545)
(-3.35281 -4.78429e-05 3.23554)
(-3.3527 -5.99806e-05 3.23555)
(-3.35262 -9.76072e-05 3.23552)
(-3.35239 -1.359e-05 3.23549)
(-3.35224 -1.66415e-05 3.2355)
(-5.85272 -1.07372e-05 -1.87672)
(-5.85273 -6.68907e-06 -1.87669)
(-5.85272 8.04862e-07 -1.87669)
(-5.85268 -1.10047e-05 -1.87671)
(-5.85261 -2.36899e-05 -1.87673)
(-5.85246 -3.5584e-06 -1.87666)
(-2.89307 -5.04544e-05 1.4643)
(-2.89301 -1.19347e-05 1.46444)
(-2.89298 4.44336e-05 1.46438)
(-2.89297 2.16558e-05 1.46442)
(-2.89291 8.08425e-05 1.46447)
(-2.89279 7.83988e-05 1.4643)
(-1.39325 -8.01585e-05 3.69642)
(-1.39323 -4.41438e-05 3.69647)
(-1.39324 -8.57502e-06 3.69644)
(-1.39329 -3.66266e-05 3.69645)
(-1.39331 -2.17429e-05 3.69646)
(-1.39333 2.15358e-05 3.69642)
(-1.9772 -1.76725e-06 1.10468)
(-1.97721 -1.69255e-05 1.10466)
(-1.97725 -3.91306e-05 1.10471)
(-1.97729 -3.54161e-05 1.10477)
(-1.97731 -3.30282e-05 1.10481)
(-1.97732 -1.09569e-05 1.10489)
(0.287463 -4.14101e-05 1.80817)
(0.28745 -6.2215e-05 1.80816)
(0.287416 -5.84584e-05 1.80816)
(0.287426 -8.18281e-05 1.80828)
(0.287436 -3.104e-05 1.80842)
(0.287461 7.55812e-06 1.8084)
(-0.717697 1.56068e-06 1.75943)
(-0.71774 -2.24949e-05 1.75943)
(-0.71773 -5.10055e-05 1.75945)
(-0.717705 -4.73664e-05 1.75948)
(-0.71769 -2.39869e-05 1.75951)
(-0.717617 -1.32922e-06 1.7595)
(-1.6045 -2.29705e-06 0.898292)
(-1.60454 -1.34945e-05 0.898275)
(-1.60454 -1.7258e-05 0.898287)
(-1.60454 -1.50934e-05 0.89829)
(-1.60454 -1.1012e-05 0.898289)
(-1.60449 -4.86379e-06 0.898303)
(-0.524657 -2.62649e-05 2.14719)
(-0.524686 -5.1224e-05 2.14727)
(-0.524635 -4.87825e-05 2.14736)
(-0.524561 -3.92156e-05 2.1474)
(-0.524493 -7.21426e-06 2.1474)
(-0.524432 8.36005e-06 2.14733)
(-0.242994 -9.56192e-06 2.22332)
(-0.243015 -3.83762e-05 2.22334)
(-0.243006 -5.06192e-05 2.22336)
(-0.242996 -3.73268e-05 2.22337)
(-0.242985 -2.0343e-05 2.22338)
(-0.24296 -5.36601e-06 2.22335)
(-0.443373 -8.58419e-06 1.1436)
(-0.443387 -1.98977e-05 1.14358)
(-0.443383 -1.63777e-05 1.14359)
(-0.443379 -1.21305e-05 1.14359)
(-0.443374 -6.1167e-06 1.14358)
(-0.443357 -3.70161e-06 1.14359)
(0.204534 -1.49036e-06 1.9311)
(0.20453 2.08276e-05 1.93124)
(0.204568 5.61154e-05 1.93122)
(0.204603 6.96007e-05 1.93115)
(0.204628 7.78334e-05 1.93106)
(0.204654 4.15389e-05 1.93092)
(0.00262091 -1.74185e-05 1.8046)
(0.00261316 -1.31414e-05 1.80462)
(0.0026245 1.42233e-05 1.80461)
(0.00263138 2.68915e-05 1.80459)
(0.00263517 3.54097e-05 1.80457)
(0.00265091 2.05557e-05 1.80453)
(-0.344519 -4.6815e-06 1.46502)
(-0.344529 -2.81432e-06 1.46502)
(-0.344525 3.94812e-06 1.46502)
(-0.344521 5.50516e-06 1.46501)
(-0.344517 8.19457e-06 1.46501)
(-0.344501 5.16048e-06 1.465)
(0.326596 -2.16587e-06 1.74927)
(0.326598 -4.72868e-06 1.74929)
(0.326591 -9.65227e-06 1.74927)
(0.326577 -1.5528e-05 1.74925)
(0.326561 -2.43609e-06 1.74924)
(0.326551 5.59827e-06 1.7492)
(0.203111 -2.61631e-06 1.63805)
(0.203114 3.30536e-06 1.63806)
(0.203109 1.11824e-05 1.63806)
(0.2031 1.0907e-05 1.63806)
(0.203089 1.48219e-05 1.63805)
(0.203083 9.37368e-06 1.63804)
(-0.038531 4.92724e-07 1.38209)
(-0.0385335 2.66847e-06 1.3821)
(-0.0385342 4.89632e-06 1.3821)
(-0.0385352 4.37662e-06 1.3821)
(-0.0385367 5.43688e-06 1.3821)
(-0.0385335 2.81625e-06 1.3821)
(0.476598 -4.07878e-06 1.57951)
(0.4766 -2.3389e-05 1.5795)
(0.476597 -4.64062e-05 1.57952)
(0.476595 -5.50162e-05 1.57956)
(0.476595 -4.36217e-05 1.5796)
(0.476589 -1.62498e-05 1.57962)
(0.289227 4.41998e-07 1.41623)
(0.289228 -2.94337e-06 1.41624)
(0.289225 -9.36089e-06 1.41625)
(0.289223 -1.21963e-05 1.41626)
(0.28922 -8.68308e-06 1.41628)
(0.289216 -2.22678e-06 1.41627)
(0.0393338 8.37588e-07 1.27005)
(0.0393321 6.6523e-07 1.27006)
(0.0393311 -6.80809e-07 1.27006)
(0.0393302 -1.44567e-06 1.27007)
(0.0393293 -1.05077e-06 1.27008)
(0.0393301 -2.65863e-07 1.27007)
(0.893976 6.29933e-07 1.51801)
(0.893982 -3.78163e-06 1.51801)
(0.893988 -1.14952e-05 1.51802)
(0.893996 -1.47858e-05 1.51804)
(0.894005 -1.30055e-05 1.51806)
(0.894003 -5.18796e-06 1.51806)
(0.490732 7.14905e-07 1.16699)
(0.490735 -1.36643e-06 1.16699)
(0.490737 -5.72396e-06 1.167)
(0.49074 -7.25829e-06 1.167)
(0.490743 -6.2545e-06 1.16701)
(0.490742 -2.15248e-06 1.16701)
(0.125344 1.73703e-07 1.03799)
(0.125344 -4.4336e-07 1.038)
(0.125344 -1.45736e-06 1.038)
(0.125344 -1.82858e-06 1.038)
(0.125344 -1.53964e-06 1.03801)
(0.125344 -5.84019e-07 1.038)
(0.16122 2.45454e-07 0.0385149)
(0.161221 2.02469e-07 0.0385151)
(0.161221 -2.9085e-07 0.0385151)
(0.161221 -4.157e-07 0.0385151)
(0.16122 -3.82261e-07 0.0385152)
(0.161219 -6.34526e-08 0.0385149)
(0.114609 2.02392e-07 0.103227)
(0.114609 1.14501e-07 0.103228)
(0.114609 -1.94628e-07 0.103228)
(0.114609 -2.59505e-07 0.103228)
(0.114609 -2.33586e-07 0.103228)
(0.114608 -7.34158e-08 0.103227)
(0.0418603 3.97621e-08 0.14573)
(0.0418605 2.34323e-08 0.14573)
(0.0418605 -3.87553e-08 0.14573)
(0.0418605 -5.6393e-08 0.145731)
(0.0418604 -2.57391e-08 0.145731)
(0.0418602 -6.16913e-10 0.14573)
(0.221828 3.33017e-07 0.0565954)
(0.22183 3.25352e-07 0.0565957)
(0.22183 -3.24306e-07 0.0565957)
(0.22183 -4.62601e-07 0.0565958)
(0.22183 -4.86742e-07 0.0565958)
(0.221829 -1.317e-07 0.0565954)
(0.15628 2.82656e-07 0.149051)
(0.156281 1.49813e-07 0.149052)
(0.156281 -3.08779e-07 0.149052)
(0.156281 -3.69799e-07 0.149052)
(0.156281 -3.85422e-07 0.149052)
(0.156281 -1.86785e-07 0.149051)
(0.0563449 5.72071e-08 0.205313)
(0.0563452 5.32326e-08 0.205315)
(0.0563452 -4.26198e-08 0.205315)
(0.0563453 -9.34448e-08 0.205315)
(0.0563454 -9.07656e-08 0.205315)
(0.0563451 -5.0873e-08 0.205314)
(0.310663 4.63658e-07 0.0830152)
(0.310665 4.21631e-07 0.0830157)
(0.310665 -5.82708e-07 0.0830157)
(0.310666 -7.92737e-07 0.0830158)
(0.310666 -8.483e-07 0.0830158)
(0.310664 -2.86083e-07 0.0830152)
(0.213408 4.4349e-07 0.213531)
(0.213409 2.69384e-07 0.213532)
(0.213409 -4.49806e-07 0.213532)
(0.21341 -6.20964e-07 0.213532)
(0.21341 -6.86008e-07 0.213532)
(0.213409 -3.47042e-07 0.213531)
(0.0746044 1.19363e-07 0.285961)
(0.0746048 6.37531e-08 0.285963)
(0.0746049 -1.75648e-07 0.285963)
(0.0746051 -2.79818e-07 0.285963)
(0.0746052 -3.08405e-07 0.285963)
(0.0746049 -1.75174e-07 0.285961)
(0.434702 3.44214e-07 0.122623)
(0.434706 6.43725e-08 0.122624)
(0.434706 -1.43384e-06 0.122624)
(0.434707 -1.81409e-06 0.122624)
(0.434708 -1.6846e-06 0.122624)
(0.434706 -5.18158e-07 0.122623)
(0.28904 5.38108e-07 0.306385)
(0.289042 1.99568e-07 0.306387)
(0.289042 -8.79798e-07 0.306387)
(0.289043 -1.18602e-06 0.306388)
(0.289043 -1.24951e-06 0.306388)
(0.289042 -6.23822e-07 0.306386)
(0.0964758 1.56857e-07 0.394407)
(0.0964765 -6.68206e-09 0.394409)
(0.0964767 -4.21294e-07 0.39441)
(0.0964769 -5.75619e-07 0.39441)
(0.0964771 -5.99219e-07 0.39441)
(0.0964768 -3.25256e-07 0.394408)
(0.615967 -2.11895e-07 0.177479)
(0.615973 -7.35731e-07 0.177481)
(0.615974 -2.55847e-06 0.177481)
(0.615975 -3.19302e-06 0.177481)
(0.615977 -3.08348e-06 0.177481)
(0.615974 -9.19543e-07 0.17748)
(0.388687 4.33229e-07 0.438841)
(0.38869 -2.2824e-07 0.438844)