/*--------------------------------*- C++ -*----------------------------------*\
| =========                 |                                                 |
| \\      /  F ield         | OpenFOAM: The Open Source CFD Toolbox           |
|  \\    /   O peration     | Version:  v1612+                                |
|   \\  /    A nd           | Web:      www.OpenFOAM.com                      |
|    \\/     M anipulation  |                                                 |
\*---------------------------------------------------------------------------*/
FoamFile
{
    version     2.0;
    format      ascii;
    class       volVectorField;
    location    "3.55";
    object      U;
}
// * * * * * * * * * * * * * * * * * * * * * * * * * * * * * * * * * * * * * //

dimensions      [0 1 -1 0 0 0 0];

internalField   nonuniform List<vector> 
320
(
(-4.02254e-06 -8.7184e-06 5.36831e-06)
(-1.00415e-06 -5.79622e-06 -6.17241e-06)
(-5.10383e-06 -7.58004e-07 -1.08772e-05)
(1.65472e-08 3.40679e-06 -6.77029e-06)
(0.000126237 -0.000144974 -5.61798e-05)
(0.000105222 -0.000150698 -0.00013061)
(0.000329948 -8.87325e-05 -0.000163961)
(0.000120033 0.000126815 3.63934e-05)
(0.000373498 1.58092e-05 1.052e-05)
(0.000269567 6.60373e-05 -4.43302e-05)
(0.000147269 -6.24185e-05 -5.78916e-05)
(0.000331088 -0.000120668 -3.98654e-05)
(6.36547e-06 5.91549e-05 -0.000215264)
(8.0391e-05 -0.000372623 -0.000178199)
(-0.000124316 -0.000298215 1.02471e-05)
(-4.89873e-05 -0.000351904 -4.8608e-05)
(1.78764e-06 2.37816e-06 2.27032e-05)
(3.36388e-06 -5.01086e-07 1.89642e-05)
(7.4971e-06 -3.73773e-06 4.28365e-06)
(-6.43007e-06 -6.95754e-07 -5.28201e-06)
(5.6226e-06 -6.98766e-06 -1.47787e-05)
(8.959e-06 6.75887e-06 9.94726e-06)
(-7.79394e-06 -6.42476e-07 -2.50999e-06)
(4.96616e-06 -1.13811e-05 -1.62537e-06)
(1.44663e-06 4.23715e-06 2.37053e-05)
(2.5723e-06 -1.18245e-05 1.24908e-05)
(-2.31079e-06 -3.41402e-06 -7.53568e-07)
(-2.12574e-06 -7.21146e-06 -1.1978e-05)
(3.9209e-06 -2.84343e-06 1.72689e-05)
(-5.15076e-06 -3.98747e-06 1.53871e-05)
(-5.8597e-06 -1.69287e-06 2.11298e-06)
(-6.12642e-08 -3.55098e-06 -4.33879e-06)
(-2.39904e-06 3.13843e-06 -1.24203e-05)
(-1.05818e-07 2.77424e-06 5.34331e-06)
(2.89226e-06 1.03533e-06 -4.06876e-06)
(-5.01176e-06 6.64596e-06 -1.1064e-06)
(2.59371e-06 -1.73098e-06 1.43836e-05)
(1.02706e-07 4.39607e-06 8.8866e-06)
(5.40991e-06 3.22802e-06 -3.30925e-07)
(7.10224e-06 3.50576e-06 -8.31632e-06)
(-2.06646e-06 -4.65554e-06 5.70659e-07)
(-8.30874e-07 -3.8408e-06 -2.82798e-06)
(-2.64112e-06 -1.42933e-07 -2.52524e-06)
(-4.60209e-07 1.1869e-06 -2.83545e-06)
(3.52306e-06 -1.75493e-06 4.02289e-06)
(-2.58825e-06 -2.43532e-06 1.44517e-06)
(-3.96002e-06 -1.41315e-06 -4.97524e-08)
(-8.97549e-07 -2.5275e-06 -2.95091e-07)
(-1.74871e-06 2.42152e-06 -2.5027e-06)
(-5.52504e-07 1.51485e-06 1.56544e-06)
(1.73358e-06 2.21923e-07 -6.89027e-07)
(-3.54852e-06 3.67643e-06 -2.85352e-07)
(1.79115e-06 -1.24858e-06 2.94401e-06)
(7.33685e-07 2.66894e-06 1.03482e-06)
(3.39346e-06 2.32339e-06 4.23623e-08)
(4.78751e-06 2.49524e-06 -1.54608e-06)
(-0.000106372 -0.000308324 0.000183108)
(-4.85444e-05 1.67334e-05 8.78989e-06)
(9.05678e-05 -0.000315467 -8.42185e-05)
(7.099e-05 -0.000221498 -7.27842e-06)
(7.55094e-05 8.99055e-05 0.000113206)
(0.000336606 -0.000101696 0.000178771)
(-2.57076e-05 2.28053e-05 0.000114182)
(8.39803e-05 -4.66003e-05 0.00026252)
(0.00022387 -0.000165667 8.8434e-05)
(0.00032449 -3.86995e-06 6.86439e-05)
(0.000270395 7.75632e-05 4.88234e-05)
(0.000383754 -0.000112739 0.000105488)
(0.000282178 1.25322e-06 -0.000118587)
(4.98316e-05 3.41504e-05 3.69488e-05)
(0.000184569 -1.89456e-05 -7.28097e-06)
(-9.70095e-05 -8.91317e-05 2.97749e-05)
(0.000170403 -0.000115929 5.30978e-05)
(8.57177e-05 -9.42277e-05 4.50059e-05)
(0.000137013 -0.000125737 4.80508e-05)
(0.000305046 1.15906e-05 0.00012156)
(-4.04822e-06 -8.31344e-06 -2.11014e-05)
(2.00508e-06 -1.02645e-06 6.63313e-06)
(5.04539e-06 -1.00821e-05 8.35438e-06)
(-1.70719e-06 -5.4166e-06 2.44163e-07)
(-7.61102e-06 9.71755e-06 -1.21571e-05)
(3.0588e-06 -5.22494e-06 -1.64916e-05)
(-9.8146e-06 1.09081e-06 -1.26212e-05)
(-6.24487e-06 -1.83449e-07 -3.36567e-05)
(7.51951e-06 -1.25493e-05 -1.04336e-05)
(5.10776e-06 -1.14933e-05 1.94748e-05)
(-6.28399e-06 9.56785e-06 -1.45437e-06)
(1.07303e-05 4.26977e-06 -1.50162e-05)
(3.28792e-06 -5.40532e-06 1.99142e-05)
(-4.09906e-06 -1.50822e-06 -4.01782e-06)
(9.81599e-07 -1.33538e-06 -1.47186e-06)
(-9.20433e-06 -4.71066e-06 -3.72744e-06)
(6.49734e-06 -4.02103e-06 -9.18166e-06)
(9.15513e-06 5.38031e-06 -2.14419e-05)
(4.25347e-06 6.39971e-07 -1.07099e-05)
(9.8355e-06 -3.00836e-06 2.12631e-07)
(1.48019e-06 1.74178e-06 -1.34031e-05)
(3.47046e-06 1.27927e-06 4.86793e-06)
(-2.15471e-06 3.62961e-06 9.63348e-06)
(-1.57959e-06 1.31492e-06 1.5032e-06)
(3.63929e-06 -5.40784e-06 -5.85922e-06)
(-1.73118e-06 -2.46871e-06 -9.65574e-06)
(1.51427e-06 -2.33528e-06 -8.31432e-06)
(8.2453e-06 3.36251e-06 -2.19072e-05)
(3.03828e-06 1.08269e-05 -5.02031e-06)
(-1.01045e-06 6.64603e-06 1.58064e-05)
(7.39221e-06 -2.86209e-06 1.52501e-07)
(-3.8554e-06 1.96325e-06 -1.09666e-05)
(-2.33711e-06 1.62639e-06 1.45113e-05)
(3.87476e-06 -1.24429e-06 -2.88054e-06)
(-5.12851e-07 3.96233e-06 -2.25736e-06)
(8.20026e-06 2.87395e-06 -4.61705e-06)
(-5.53894e-07 2.05831e-06 -7.17539e-06)
(-7.49003e-07 -1.71846e-06 -1.58412e-05)
(-1.75852e-06 -6.77331e-06 -8.35007e-06)
(-8.53e-06 -4.79721e-06 3.88394e-07)
(7.57541e-07 2.94445e-07 -2.89771e-06)
(2.86409e-06 7.34099e-07 1.89298e-06)
(-1.17267e-06 2.70514e-06 6.54622e-08)
(-1.569e-06 1.90329e-06 4.91963e-07)
(2.17302e-06 -2.90414e-06 -1.436e-06)
(-1.63362e-06 -1.76389e-06 -3.19332e-06)
(4.71569e-07 -1.62947e-06 -2.75874e-06)
(4.58559e-06 1.53195e-06 -5.1551e-06)
(7.46315e-07 5.94239e-06 -8.64191e-07)
(-1.37828e-06 4.11456e-06 2.95071e-06)
(3.97173e-06 -1.42264e-06 -6.51039e-07)
(-2.62181e-06 1.65902e-06 -2.64478e-06)
(-1.1706e-06 1.0412e-06 2.49815e-06)
(2.81073e-06 -1.38662e-06 -7.78149e-07)
(-2.86454e-07 1.97385e-06 -2.58556e-07)
(5.13204e-06 1.59939e-06 -1.83629e-06)
(-2.05519e-07 1.45938e-06 -2.05992e-06)
(-1.07051e-07 -6.0173e-07 -3.44621e-06)
(-1.22103e-06 -4.39089e-06 -1.24696e-06)
(-5.38482e-06 -3.58439e-06 6.95702e-07)
(-1.24119e-06 -2.2451e-06 2.12513e-07)
(-1.88822e-08 -1.51082e-06 -5.38651e-07)
(-1.16035e-06 7.46064e-08 -6.10863e-07)
(-2.2158e-07 9.00934e-07 -4.99413e-07)
(1.04404e-06 -1.37135e-06 1.8333e-06)
(-1.3113e-06 -8.60244e-07 1.81789e-06)
(-1.29658e-06 -7.97778e-07 4.32186e-07)
(-3.39553e-07 -1.15538e-06 -5.55601e-07)
(-3.95666e-07 9.91092e-07 -9.73595e-07)
(-2.99389e-08 5.63731e-07 7.04046e-07)
(8.97602e-07 5.07444e-07 -4.50311e-07)
(-1.55454e-06 1.31185e-06 -3.61346e-08)
(1.09406e-06 -9.19895e-08 1.60281e-06)
(6.74894e-07 1.21429e-06 9.59072e-07)
(1.4704e-06 6.93568e-07 3.11257e-07)
(2.18944e-06 9.97021e-07 -7.32242e-07)
(4.94132e-07 3.013e-07 -1.43197e-06)
(6.16077e-07 -9.97403e-08 4.55683e-07)
(-5.92455e-07 7.14888e-07 8.94697e-07)
(-6.21228e-08 1.66768e-07 -1.18576e-08)
(7.69889e-07 -1.39534e-06 -5.94151e-07)
(-5.54405e-07 -1.13767e-06 -8.82622e-07)
(2.83977e-07 -6.09901e-07 -1.22886e-06)
(1.57159e-06 1.21054e-06 -2.02823e-06)
(5.95827e-07 2.58708e-06 -1.0512e-06)
(-4.97278e-08 1.90785e-06 1.23481e-06)
(1.68397e-06 -5.31919e-07 -2.21197e-07)
(-9.69698e-07 8.60503e-07 -9.76468e-07)
(-5.60913e-07 6.20165e-07 1.56617e-06)
(1.10119e-06 -1.1316e-07 -3.12588e-07)
(-1.77492e-07 1.33791e-06 -1.15387e-07)
(2.00492e-06 8.8555e-07 -7.60474e-07)
(-1.86584e-07 4.50945e-07 -7.62503e-07)
(6.74892e-09 -7.30549e-07 -1.79165e-06)
(-7.02249e-07 -2.34762e-06 -1.02054e-06)
(-2.58621e-06 -1.79769e-06 9.9579e-08)
(0.00030543 9.96641e-05 -5.68884e-05)
(-5.42484e-05 -5.92188e-05 0.000152898)
(0.000135359 4.76552e-05 -0.000133372)
(0.000344667 -0.000243409 0.000257555)
(-7.52261e-05 -0.000205766 0.000263661)
(-4.5659e-05 -9.72367e-05 8.32447e-05)
(-0.000272664 -8.43523e-05 -0.000125725)
(-0.000260448 0.000159455 -4.35049e-05)
(-0.000202759 -0.00018958 0.000113503)
(-0.000347976 -0.00012442 -0.000250502)
(-0.000350043 0.000266208 -0.000196501)
(-3.71261e-05 0.000306751 3.98274e-05)
(0.000122105 0.000185384 0.000267664)
(0.000151277 -0.000164761 0.000118238)
(0.000331572 -0.000194005 3.71459e-05)
(0.00037895 -0.000171375 -6.54957e-05)
(0.000223523 -0.000301753 -0.000170438)
(0.000184187 -1.22822e-05 -5.19521e-05)
(2.65793e-05 -0.000204095 -7.92335e-05)
(-2.80333e-05 1.13885e-05 2.39702e-05)
(0.000104248 8.70589e-06 -3.95496e-05)
(0.000101178 -3.43137e-05 -6.24828e-05)
(8.84232e-05 4.50662e-05 -1.76112e-05)
(0.000234618 -0.000190334 -0.000248447)
(1.30915e-05 -0.000331494 3.51897e-05)
(-1.89286e-06 -0.000134192 -7.08069e-05)
(5.40557e-06 -0.000137828 -3.40473e-05)
(-0.000151593 -5.69561e-05 -9.16349e-06)
(3.48848e-06 8.85239e-07 6.98485e-06)
(-4.1074e-06 -2.05173e-07 -1.46428e-05)
(3.55551e-06 9.44573e-07 1.17413e-05)
(7.75402e-06 -1.75597e-06 -1.32763e-05)
(-1.23027e-05 -1.76431e-06 -1.75277e-05)
(-1.19812e-05 8.83939e-06 6.391e-06)
(-8.9348e-06 2.60663e-06 1.63272e-05)
(-1.51674e-05 9.6233e-06 1.81011e-05)
(-9.0298e-06 -5.94212e-06 -1.2277e-05)
(-1.58846e-05 -9.99972e-06 1.85068e-06)
(-2.01183e-05 1.03449e-05 3.55994e-05)
(-5.35562e-06 1.81105e-05 1.79671e-05)
(1.05404e-05 5.40719e-06 -2.30248e-05)
(1.1545e-05 -5.31815e-06 -7.50746e-06)
(3.35752e-06 -6.32269e-06 1.90658e-05)
(-6.80564e-06 -3.56787e-06 -6.10286e-06)
(7.17897e-06 -5.80179e-06 3.42509e-06)
(1.07443e-05 -1.68894e-08 2.42762e-06)
(-2.62343e-06 -1.3258e-05 6.43583e-06)
(-3.2636e-06 -1.49298e-06 1.90907e-06)
(4.30753e-06 -9.01308e-06 1.58704e-05)
(-3.21232e-06 -7.4496e-06 -4.72231e-06)
(-1.80587e-06 9.7525e-06 -2.06942e-05)
(1.12511e-05 6.53445e-06 1.53322e-05)
(8.74995e-06 -5.65816e-06 7.13282e-06)
(2.11988e-07 -6.52878e-06 -4.2646e-06)
(1.58028e-06 -9.07857e-06 1.72788e-05)
(-5.8578e-06 -6.55331e-06 1.19688e-05)
(-8.51081e-06 -1.55145e-06 5.56426e-06)
(1.02596e-06 2.49086e-07 -8.6034e-06)
(2.03255e-06 -1.09739e-06 5.92411e-06)
(-5.18659e-06 1.68711e-06 -4.98513e-06)
(3.17818e-06 1.93454e-06 -1.16815e-05)
(4.79395e-06 -3.07045e-06 5.09874e-06)
(2.94958e-06 7.79657e-07 1.03534e-05)
(6.79971e-06 -5.21005e-06 1.25546e-05)
(3.14773e-06 -3.81768e-06 -8.79188e-06)
(5.4506e-06 6.4254e-06 -5.24729e-06)
(1.1908e-05 4.66271e-06 2.31334e-05)
(6.75104e-06 -6.4814e-06 1.39143e-05)
(-5.39997e-06 -4.64124e-06 -1.29416e-05)
(-4.53561e-06 2.24976e-06 -3.88741e-06)
(1.25972e-06 1.38547e-06 1.21342e-05)
(4.57721e-06 -2.04345e-08 -4.46883e-06)
(-1.59612e-06 4.20066e-06 2.18962e-06)
(-1.80435e-06 -2.27947e-06 1.8574e-07)
(2.57752e-07 3.66781e-06 1.36196e-07)
(-1.23824e-06 1.33759e-06 1.18333e-06)
(-2.92236e-06 4.39323e-06 9.27399e-06)
(1.33258e-07 8.19438e-06 -2.67732e-06)
(1.30934e-06 -1.77183e-06 -1.7455e-05)
(-4.5125e-06 -4.55278e-06 5.76639e-06)
(-5.30158e-06 2.02328e-06 2.92588e-06)
(-7.70425e-07 -4.27616e-06 -5.13311e-06)
(-2.8042e-06 -5.01117e-06 1.28149e-05)
(-9.84415e-07 2.68333e-07 1.28476e-05)
(-4.89607e-06 -1.31811e-06 1.51063e-06)
(4.69014e-07 -6.18239e-07 -3.40791e-06)
(1.11237e-06 -1.02958e-06 2.26564e-06)
(-3.75745e-06 1.13348e-06 -1.66601e-06)
(1.64926e-06 1.55519e-06 -1.21109e-06)
(3.84145e-06 -2.08475e-06 7.65236e-07)
(2.05137e-06 -1.13265e-07 2.39125e-06)
(4.02285e-06 -3.57178e-06 3.38476e-06)
(1.38373e-06 -3.1146e-06 -1.31868e-06)
(2.67214e-06 3.69163e-06 6.78579e-07)
(6.70479e-06 2.69623e-06 4.02212e-06)
(3.83643e-06 -4.44894e-06 3.9199e-06)
(-3.68653e-06 -2.1188e-06 -1.59227e-06)
(-2.39688e-06 1.67873e-06 7.518e-09)
(5.01637e-08 3.89132e-07 3.67688e-06)
(1.90306e-06 2.50288e-07 -8.87547e-07)
(-7.3026e-07 2.45779e-06 3.73482e-07)
(-5.0287e-07 -1.64124e-06 5.36774e-07)
(8.58498e-07 1.79007e-06 1.70629e-06)
(-1.26e-07 3.10977e-07 6.61103e-07)
(-1.30109e-06 1.62961e-06 2.93265e-06)
(1.75366e-08 3.87142e-06 -4.19923e-07)
(5.96474e-07 -1.16766e-06 -3.31824e-06)
(-2.74949e-06 -2.57013e-06 1.2618e-06)
(-3.43302e-06 1.30788e-06 3.57998e-07)
(-8.39888e-07 -2.78258e-06 -7.43102e-07)
(-1.82475e-06 -3.38062e-06 2.8194e-06)
(-6.3612e-07 -1.29486e-07 2.51751e-06)
(-2.6961e-06 -7.15657e-07 6.75889e-07)
(4.91492e-07 -2.10205e-08 -9.40264e-07)
(6.30453e-07 -7.13016e-07 8.11803e-07)
(-1.5778e-06 -3.53956e-08 -2.617e-07)
(8.13645e-07 2.72338e-07 -1.31203e-06)
(1.1379e-06 -9.11163e-07 5.88237e-07)
(1.25258e-06 -9.56766e-08 1.3432e-06)
(2.06807e-06 -1.52554e-06 1.37926e-06)
(1.12238e-06 -1.28369e-06 -7.04635e-07)
(1.92205e-06 9.70612e-07 -5.2656e-07)
(2.7029e-06 1.30294e-06 1.94949e-06)
(2.01444e-06 -1.05758e-06 7.75856e-07)
(-9.41771e-07 -7.61296e-07 -1.53449e-06)
(-6.54691e-07 7.74788e-07 -5.60556e-07)
(3.66452e-07 4.87718e-07 1.08471e-06)
(1.0174e-06 3.5861e-07 -2.45081e-07)
(-2.54478e-07 1.15428e-06 3.29857e-07)
(-5.80875e-07 -3.56605e-07 2.81534e-07)
(3.76313e-07 1.17425e-06 2.91624e-07)
(-1.12336e-08 3.6827e-07 -1.91436e-07)
(-7.17684e-07 1.00799e-06 4.11365e-07)
(-7.79639e-08 1.90299e-06 -1.94933e-07)
(-1.52601e-07 -1.01082e-07 -1.52363e-06)
(-1.06459e-06 -7.83881e-07 8.6906e-07)
(-1.38742e-06 1.779e-07 1.8897e-07)
(-1.56142e-07 -1.59594e-06 -3.60692e-07)
(-6.35755e-07 -1.69256e-06 1.28521e-06)
(-5.10103e-08 -1.30917e-07 1.3321e-06)
(0.000152308 3.45701e-05 -9.4781e-05)
(0.000146752 -2.15114e-05 -1.45271e-05)
(0.000404016 1.53377e-05 0.000217407)
(0.000196698 -0.000196538 7.61289e-05)
(8.71515e-06 1.00792e-05 7.54768e-06)
(-1.0704e-06 2.96721e-06 -1.36548e-05)
(8.1684e-06 -2.63983e-07 -1.66966e-05)
(-7.41004e-06 -1.55716e-05 -1.09535e-05)
)
;

boundaryField
{
    top_fluid_surface
    {
        type            pressureInletOutletVelocity;
        value           nonuniform List<vector> 
64
(
(0 0 -5.61798e-05)
(0 0 -0.00013061)
(0 0 -0.000163961)
(0.000120033 0.000126815 3.63934e-05)
(0.000373498 1.58092e-05 1.052e-05)
(0 0 -4.43302e-05)
(0 0 -5.78916e-05)
(0 0 -3.98654e-05)
(0 0 -0.000215264)
(0 0 -0.000178199)
(-0.000124316 -0.000298215 1.02471e-05)
(0 0 -4.8608e-05)
(-0.000106372 -0.000308324 0.000183108)
(-4.85444e-05 1.67334e-05 8.78989e-06)
(0 0 -8.42185e-05)
(0 0 -7.27842e-06)
(7.55094e-05 8.99055e-05 0.000113206)
(0.000336606 -0.000101696 0.000178771)
(-2.57076e-05 2.28053e-05 0.000114182)
(8.39803e-05 -4.66003e-05 0.00026252)
(0.00022387 -0.000165667 8.8434e-05)
(0.00032449 -3.86995e-06 6.86439e-05)
(0.000270395 7.75632e-05 4.88234e-05)
(0.000383754 -0.000112739 0.000105488)
(0 0 -0.000118587)
(4.98316e-05 3.41504e-05 3.69488e-05)
(0 0 -7.28097e-06)
(-9.70095e-05 -8.91317e-05 2.97749e-05)
(0.000170403 -0.000115929 5.30978e-05)
(8.57177e-05 -9.42277e-05 4.50059e-05)
(0.000137013 -0.000125737 4.80508e-05)
(0.000305046 1.15906e-05 0.00012156)
(0 0 -5.68884e-05)
(-5.42484e-05 -5.92188e-05 0.000152898)
(0 0 -0.000133372)
(0.000344667 -0.000243409 0.000257555)
(-7.52261e-05 -0.000205766 0.000263661)
(-4.5659e-05 -9.72367e-05 8.32447e-05)
(0 0 -0.000125725)
(0 0 -4.35049e-05)
(-0.000202759 -0.00018958 0.000113503)
(0 0 -0.000250502)
(0 0 -0.000196501)
(-3.71261e-05 0.000306751 3.98274e-05)
(0.000122105 0.000185384 0.000267664)
(0.000151277 -0.000164761 0.000118238)
(0.000331572 -0.000194005 3.71459e-05)
(0 0 -6.54957e-05)
(0 0 -0.000170438)
(0 0 -5.19521e-05)
(0 0 -7.92335e-05)
(-2.80333e-05 1.13885e-05 2.39702e-05)
(0 0 -3.95496e-05)
(0 0 -6.24828e-05)
(0 0 -1.76112e-05)
(0 0 -0.000248447)
(1.30915e-05 -0.000331494 3.51897e-05)
(0 0 -7.08069e-05)
(0 0 -3.40473e-05)
(0 0 -9.16349e-06)
(0 0 -9.4781e-05)
(0 0 -1.45271e-05)
(0.000404016 1.53377e-05 0.000217407)
(0.000196698 -0.000196538 7.61289e-05)
)
;
    }
    bottom_fluid_surface
    {
        type            noSlip;
    }
    lateral_surface_1
    {
        type            noSlip;
    }
    lateral_surface_2
    {
        type            noSlip;
    }
    lateral_surface_3
    {
        type            noSlip;
    }
    lateral_surface_4
    {
        type            noSlip;
    }
}


// ************************************************************************* //
