/*--------------------------------*- C++ -*----------------------------------*\
| =========                 |                                                 |
| \\      /  F ield         | OpenFOAM: The Open Source CFD Toolbox           |
|  \\    /   O peration     | Version:  v1612+                                |
|   \\  /    A nd           | Web:      www.OpenFOAM.com                      |
|    \\/     M anipulation  |                                                 |
\*---------------------------------------------------------------------------*/
FoamFile
{
    version     2.0;
    format      ascii;
    class       surfaceScalarField;
    location    "9.45";
    object      alphaPhi;
}
// * * * * * * * * * * * * * * * * * * * * * * * * * * * * * * * * * * * * * //

dimensions      [0 3 -1 0 0 0 0];

internalField   nonuniform List<scalar> 
2916
(
-0.00612139
-0.069287
0.0512469
0.00262853
-0.0855841
0.0525226
0.019844
-0.0901448
0.0499241
0.0088154
-0.0592269
0.0474575
-0.0205553
-0.044334
0.0493301
-0.088459
0.0465298
0.00126554
-0.189829
0.0655496
0.00146055
-0.203581
0.0624004
-0.00142153
-0.207607
0.0636828
-0.000316215
-0.187454
0.0719835
-0.00666814
-0.176656
0.0821621
-0.213166
0.0617626
-2.72953e-05
-0.201761
-0.00138419
-0.00096305
-0.208475
-0.00637117
-0.00573944
-0.209988
-0.0051101
-0.004169
-0.203271
0.000658588
-0.00259259
-0.199016
0.00589599
-0.22053
-0.0072229
-0.00242265
-0.150143
-0.0261689
-0.00206486
-0.155632
-0.0302481
-0.00326622
-0.156387
-0.0294948
-0.00413601
-0.152097
-0.0273159
-0.00398722
-0.149804
-0.026366
-0.167854
-0.0335639
-0.00160392
-0.0767956
-0.0487438
-0.00143664
-0.0825072
-0.0503452
-0.00165715
-0.0830945
-0.0501625
-0.00261589
-0.0775109
-0.0506803
-0.00369385
-0.0742926
-0.0514729
-0.0923916
-0.0561994
-0.000485922
0.0183132
-0.0716958
-0.000338794
0.0122414
-0.0720014
2.85463e-05
0.0115935
-0.0721895
-0.000747078
0.0184035
-0.0722752
-0.00305315
0.0234691
-0.0725891
0.0043707
-0.0769386
0.00148868
0.101703
-0.0619884
0.000449253
0.0982928
-0.0621459
0.000582484
0.0968006
-0.0624949
0.000170357
0.103105
-0.0614577
-0.00103928
0.108636
-0.0611294
0.0907099
-0.0645413
0.0029264
0.184294
-0.0626509
0.00052374
0.185226
-0.0616853
-0.000808065
0.183462
-0.0624974
-0.00010381
0.185755
-0.0605259
0.00126971
0.18688
-0.0567899
0.179145
-0.0643379
-0.000661406
0.160665
-0.0409465
0.000112377
0.159959
-0.0391553
0.000153635
0.158502
-0.0402388
-0.00195835
0.160297
-0.0384762
-0.00281597
0.159082
-0.0368148
0.156443
-0.044481
-0.00612952
0.0741098
0.0758049
-0.000152096
0.0627083
0.0760806
0.00248152
0.0639506
0.0776598
-0.000750252
0.0751693
0.0727806
-0.00456212
0.0778031
0.0691901
0.0593585
0.0787459
-0.00896295
-0.126226
0.192714
-0.000400476
-0.146307
0.184018
0.0022266
-0.141293
0.187975
-0.000213799
-0.124111
0.18635
0.000703041
-0.119227
0.180494
-0.145945
0.190584
0.0143798
-0.123792
0.000178641
-0.108754
-0.00357006
-0.116955
0.00923153
-0.119149
0.0114749
-0.101439
-0.114318
0.00197767
-0.00751705
0.000227063
-0.0086291
0.00242179
0.000261824
-0.0213793
0.00305815
0.0005451
-0.0100736
-0.0172125
0.000220013
0.0115338
-0.023735
0.000193339
0.000195897
0.000560586
-0.00153682
0.00529047
0.000317221
0.00247201
0.0147925
0.000141243
0.00964588
0.0136664
6.02015e-05
0.00315212
0.0035756
0.000231191
-0.00470778
0.00392537
0.000218392
0.0125558
6.31182e-06
-0.00411979
0.0371574
-0.00080365
0.00333537
0.0461867
-0.000691625
0.0168176
0.0428875
-0.00066142
0.00798013
0.0396311
-0.000706216
-0.00712402
0.0438979
-0.000598489
0.046536
-0.000636595
-0.00436666
0.152626
-6.10901e-05
0.0016381
0.159921
-5.18112e-05
0.0108398
0.157713
-4.98043e-05
0.00576541
0.156793
-5.39443e-05
-0.00411593
0.161082
-4.58823e-05
0.16635
-4.85601e-05
-0.00194166
0.340105
-6.20465e-06
-9.02658e-05
0.345167
-5.21998e-06
0.00127571
0.345096
-5.03123e-06
0.000675161
0.343651
-5.4658e-06
0.00140911
0.345904
-4.63034e-06
0.357023
-4.96654e-06
-0.00095406
0.566326
-8.27711e-07
-0.000418318
0.569169
-6.75612e-07
-0.00199287
0.570374
-6.47668e-07
-0.00117981
0.567338
-7.28922e-07
0.00251611
0.566706
-8.76563e-07
0.582038
-6.76367e-07
-0.00112802
0.790004
-3.7125e-07
-0.000297631
0.792131
-1.21402e-07
-0.000936327
0.793585
-1.54026e-07
-0.00117447
0.788153
-2.41643e-07
0.00222057
0.784668
-5.56151e-07
0.801268
-1.33048e-07
0.00156315
0.923588
-1.48794e-07
0.000132326
0.928874
-7.02047e-09
-0.000116208
0.928302
-1.11965e-07
0.000516915
0.921915
-1.5165e-07
0.00264821
0.918031
-1.82418e-07
0.931726
-1.24042e-07
0.00355761
0.842632
0.0505113
0.000118926
0.852107
0.0528409
0.000608833
0.847731
0.0523445
0.000733035
0.847542
0.0501586
-0.00126217
0.850702
0.0482068
0.846148
0.0534659
-0.00183519
0.569526
0.360029
0.0001326
0.584112
0.351391
0.00587379
0.573979
0.354937
-0.000480699
0.585002
0.350918
-0.0143252
0.596933
0.346049
0.561066
0.358738
-0.00947646
0.119428
0.354489
-0.000785797
0.118879
0.361335
0.00514276
0.115677
0.357492
-0.00461017
0.134017
0.356471
-0.0233266
0.139715
0.370543
0.104083
0.341106
0.00753228
0.00432956
-0.00207616
0.0172793
-0.00858837
0.011184
0.0061825
0.00846979
0.0163363
0.0193952
0.0129293
2.54287e-05
0.000552797
-0.000270563
3.35427e-05
0.000612766
-0.000262375
-2.45216e-05
0.000652901
-5.01182e-05
-1.04053e-05
0.000535964
-0.000246241
6.94417e-05
0.000455563
-0.000261495
0.000658474
-2.79561e-05
1.13859e-06
0.000871209
-2.19017e-06
5.08498e-06
0.00075008
-1.83989e-08
7.33569e-07
0.000717486
-3.38899e-08
1.50074e-06
0.000766388
-7.74566e-10
2.55763e-05
0.000649881
3.90148e-11
0.000690363
-2.00636e-10
-6.41543e-07
6.82132e-05
-1.08998e-08
-4.09038e-08
5.78543e-05
-1.38734e-10
3.90237e-07
5.56352e-05
-2.44678e-10
3.18642e-07
6.02441e-05
-5.62634e-12
4.83583e-07
5.12267e-05
3.83596e-13
5.42512e-05
-1.383e-12
-3.34687e-08
7.1566e-06
-1.14065e-10
-8.8036e-09
6.01844e-06
-2.13553e-13
1.98033e-08
5.80233e-06
-3.17279e-12
1.56206e-08
6.30404e-06
-7.04235e-14
3.70354e-08
5.32303e-06
-6.93699e-11
5.72812e-06
-9.48189e-12
-1.13201e-09
9.53339e-07
-2.77662e-10
-1.28515e-10
7.97474e-07
-1.55839e-11
8.75887e-10
7.70089e-07
-8.5642e-13
1.98219e-09
8.37388e-07
-2.58938e-10
4.90764e-09
7.03819e-07
-1.55772e-08
7.69081e-07
-2.68389e-09
-9.88332e-12
1.63868e-07
-2.62638e-08
1.17725e-10
1.27564e-07
-5.57085e-09
2.4529e-11
1.23086e-07
-3.88174e-10
3.37599e-10
1.42393e-07
-2.35687e-08
1.05579e-09
1.84957e-07
-3.50099e-07
1.38589e-07
-4.66246e-08
-1.04196e-10
8.57428e-08
-3.0315e-07
2.19206e-11
3.19258e-08
-3.59284e-08
7.9913e-11
3.76432e-08
-6.90593e-08
1.07469e-10
6.13931e-08
-1.60909e-07
2.72451e-10
1.02979e-07
-4.72334e-07
3.19844e-08
-2.63606e-08
-9.81429e-11
-7.46375e-08
1.37966e-09
-2.07421e-12
1.04007e-08
6.29828e-10
8.39774e-11
-8.19087e-08
6.35745e-10
3.16826e-11
-9.15687e-08
7.55898e-10
-3.35663e-11
-8.09793e-08
1.39287e-09
-9.26595e-08
5.68514e-10
-2.48708e-05
0.0475508
0.00245758
-7.85675e-06
0.0492288
0.00256477
2.88321e-05
0.0492149
0.0025445
6.76799e-06
0.047094
0.00250124
-5.90957e-05
0.0452863
0.00242908
0.0502098
0.00261055
0.000261103
0.354081
0.0214999
-0.00017959
0.339719
0.0250379
0.00021569
0.339881
0.0252564
-0.000119271
0.334662
0.0257471
-0.0010116
0.329285
0.0256633
0.341
0.0256719
-0.023066
0.257829
0.111737
-0.00984892
0.257418
0.147887
0.000242956
0.253765
0.141562
-0.0049827
0.263107
0.143432
-0.0153751
0.281595
0.144538
0.232354
0.140406
0.00574119
0.272827
-0.00297099
0.290337
-0.0120578
0.279
0.0017888
0.266305
0.029084
0.276006
0.281039
3.2501e-06
-2.79106e-08
-9.68836e-05
5.06548e-07
-2.10782e-10
-4.95646e-05
-1.20172e-06
2.27137e-10
-4.84134e-05
-1.09935e-06
-8.83019e-12
-6.15062e-05
3.62595e-06
9.17664e-12
-8.64643e-05
2.00639e-10
-2.43496e-05
5.57873e-10
-1.94676e-11
-2.21819e-06
-1.3101e-12
-3.61518e-13
-1.80579e-08
5.58992e-12
-7.68654e-13
-3.37607e-08
1.21643e-13
-1.34748e-14
-7.77011e-10
3.01826e-17
2.47443e-14
5.39864e-11
-3.72202e-15
-2.56619e-20
3.89493e-12
-2.39604e-13
-1.09145e-08
6.73673e-14
-7.91442e-15
-1.37233e-10
-1.21538e-15
-9.01371e-15
-2.46621e-10
2.53183e-15
-3.53079e-15
-5.64003e-12
-1.75222e-14
-2.02175e-13
2.55329e-12
-2.5919e-14
-1.37833e-12
1.15539e-14
-1.12201e-12
-1.14183e-10
-3.39275e-16
-3.77666e-14
-1.35428e-12
-7.51554e-16
-7.75106e-15
-4.02351e-12
-1.37388e-14
-5.19364e-13
-5.9719e-14
3.86142e-15
-6.97166e-11
1.27137e-13
-9.48393e-12
-1.03526e-14
-9.38255e-16
-2.78738e-10
-1.44103e-12
-3.30284e-16
-1.58201e-11
-3.2363e-14
-9.81226e-14
-7.67373e-13
-3.09575e-14
-8.55556e-12
-2.51017e-10
-1.2147e-15
-9.60081e-14
-1.56545e-08
-3.30716e-13
-1.37737e-09
-1.31691e-09
1.15477e-11
3.9314e-09
-7.71116e-09
-3.77918e-14
4.8943e-11
-5.62563e-09
-4.452e-11
1.31257e-11
-3.57375e-10
-6.15881e-10
9.8242e-10
-3.38523e-09
-1.62417e-12
2.15863e-08
-2.41001e-07
1.91852e-09
-3.12802e-08
-5.73103e-09
2.86491e-07
-5.48868e-07
-3.71578e-10
2.94963e-08
-7.10458e-08
2.62539e-09
6.73565e-08
-1.55289e-07
-1.34115e-09
1.4233e-07
-3.23688e-07
-6.4588e-10
3.23285e-07
-5.01229e-07
2.10267e-08
-4.71462e-08
-1.77896e-10
3.55263e-07
-8.58685e-08
-8.51863e-11
1.46801e-08
-2.84192e-09
1.88529e-10
1.19915e-07
-6.32097e-08
-1.56652e-11
1.93394e-07
-5.05326e-08
1.0865e-10
3.78914e-07
-5.74206e-08
-1.48143e-08
-4.92954e-10
1.4735e-06
0.00223214
0.000225417
-1.51028e-06
0.00237996
0.000188631
1.83655e-06
0.00236058
0.000181662
-5.06575e-08
0.00231729
0.000187705
-4.17006e-06
0.00225265
0.000181944
0.00240962
0.00019867
0.000705618
0.0195119
0.00346045
0.000137908
0.0246186
0.0033045
9.02307e-06
0.0244348
0.00325274
7.65473e-06
0.0245854
0.00341726
8.71448e-05
0.0243236
0.00345311
0.0246246
0.0034815
0.00419031
0.127399
-0.000838178
0.000526397
0.143259
0.033102
2.62519e-05
0.136624
0.0301538
-0.000127573
0.139714
0.0287368
-2.38023e-06
0.13677
0.0321083
0.135334
0.0300332
0.00934857
0.359377
0.00152029
0.403199
-0.00317397
0.388019
0.000956616
0.391296
0.00993697
0.384539
0.386225
0.00734379
0.0315488
-0.0388951
0.000245305
0.0342852
-0.0281999
-0.00989801
0.0335795
-0.0246849
-0.0320583
0.0344909
-0.011673
-0.0262647
0.0254012
-0.0248095
0.0234168
-0.0392763
0.011579
0.0612596
-0.0416089
0.00383812
0.0606914
-0.0198244
0.00571538
0.0524645
-0.0221627
-0.0013466
0.040675
0.0003287
-0.0133694
0.0452877
-0.00646315
0.0460159
-0.0229438
0.0120888
0.0773626
-0.0293746
0.00178849
0.0919616
-0.0222854
0.0177966
0.0589376
-0.0237771
0.0217283
0.0337747
0.00172822
-0.00956985
0.0704907
0.00491289
0.0629976
-0.0192205
0.0307867
0.0784078
-0.0332777
0.0230592
0.105598
-0.00747167
0.0247758
0.0435467
0.0123458
0.00715953
0.0387114
0.0114188
-0.0232694
0.0968759
0.00286739
0.0722728
-0.0338335
0.0485103
0.0799863
-0.0517033
0.0477483
0.0927331
0.0119853
0.00609442
0.00962139
0.0249666
-0.0221177
0.0342527
0.00755226
-0.036549
0.11214
-0.00213614
0.0889018
-0.0545703
0.0474604
0.0905028
-0.059603
0.0433052
0.0752358
0.0200369
-0.00991887
-0.00663301
0.0145862
-0.0386632
0.0176493
0.00221001
-0.0460225
0.130038
-0.0119371
0.107171
-0.0659859
0.0575496
0.105411
-0.0740496
0.0716957
0.0692152
-0.00975157
0.053864
-0.00524086
0.0148481
-0.0313317
0.0250461
0.00372488
-0.0525515
0.189704
-0.0401615
0.123562
-0.0700499
0.0323886
0.104098
-0.0693935
0.0703921
0.0792363
-0.0498637
0.0154839
0.0058619
-0.00624171
-0.0368556
0.0154781
0.0273762
-0.0370688
0.0822353
-0.0361726
0.0398922
-0.132434
-0.0343006
0.00173356
0.00873916
-0.00302435
0.00173949
-0.0615938
0.00657136
0.00120155
-0.0209231
-0.0164902
0.0177745
0.0179317
-0.0339832
0.00677085
0.0118417
0.00342913
-0.032654
-0.0107972
0.00060506
0.0124454
-0.032286
0.00329802
-0.00308599
-0.0106658
-0.0107824
-0.005879
-0.00501247
0.00475915
0.00951999
-0.00754003
0.0035974
0.0126286
-0.0089031
-0.000797907
0.000155595
0.00355827
0.00914282
-0.0116364
0.002734
0.00720048
-0.0256521
-0.00567507
0.00436787
-0.00842805
-0.00763297
0.00185318
0.0050195
-0.0068995
0.000471273
-0.0045385
0.00174349
0.00443666
7.72237e-05
-0.000474472
0.00243219
-0.00840132
0.00307816
-0.00779089
-0.00152569
-1.4677e-05
-0.00592772
-0.000769067
-0.00119545
0.00622191
-2.5245e-07
-0.0111498
0.00754622
-3.12915e-08
-0.0281001
0.0034137
0.00018929
-0.0128879
0.00498529
-4.52497e-07
-0.0014179
0.00375042
-1.10103e-06
0.00336176
-3.61473e-07
-0.0124092
0.0157833
-1.9714e-06
-0.0269421
0.0203803
-9.29449e-06
-0.0384657
0.00984346
-0.00161592
-0.00822185
0.0110331
-3.52514e-07
0.00502111
0.0108953
-1.49437e-06
0.00522976
-2.94071e-07
-0.0172322
0.0360064
-0.000734265
-0.0185017
0.0307795
-0.000453693
-0.0274919
0.0157857
-7.67336e-06
-0.00602022
0.0214031
-5.73536e-08
0.010221
0.0275371
-4.12524e-07
0.018153
5.552e-05
-0.0210277
0.0691758
-0.00209248
-0.0239414
0.0545734
-5.88414e-06
0.000332003
0.0347676
-5.6457e-08
0.00747603
0.0307458
-2.09295e-08
0.0137504
0.0321883
-1.47581e-06
0.0362751
-1.96628e-05
-0.0205495
0.126575
-0.00931469
-0.0180988
0.0681045
0.000156438
0.000390573
0.0313996
0.00143552
0.0177693
0.0566552
-0.00125948
0.018598
0.0364035
-2.29559e-05
0.051562
-8.4514e-05
-0.0422505
0.149588
-0.0149166
-0.0267064
0.107408
0.000316664
-0.0307995
0.0528037
0.00149459
0.0204707
0.100752
-0.00296489
0.0228221
0.070958
-8.45104e-05
0.0924248
-3.19127e-06
-0.057829
0.144524
-0.0114361
-0.0531836
0.184168
-0.0336625
-0.070674
0.117877
0.00022824
-0.0112034
0.115851
-0.0283772
0.0305257
0.177371
-0.0137982
0.175825
-0.00049354
-0.0155653
0.0617073
-0.0135722
-0.0383263
0.195447
-0.0425439
-0.101364
0.121992
0.00286449
-0.0382151
0.0285363
0.00446239
-0.0114347
0.16286
-0.0867164
0.0914059
-0.127415
0.02338
0.00604958
-0.0067202
0.0475179
0.194916
-0.0861933
-0.0127304
0.0722968
0.0316125
-0.0180803
0.00745219
0.0264976
-0.0173992
0.0282581
0.0157094
0.0733391
-0.128761
0.0150702
0.00653069
0.00494634
0.042101
0.00153773
-0.0138576
0.00563641
0.000163432
0.0241189
-0.000824641
0.0109744
0.0193332
-7.13058e-07
0.00119739
0.012229
0.00356254
-0.0113072
0.00377276
0.0057215
0.00513251
0.00463293
-0.000303591
0.00919115
-0.000973791
0.00011362
0.00295823
-0.000854766
0.00231249
-0.000374106
0.00022821
-9.67479e-05
-0.000372458
0.00338964
0.00118084
0.00161818
0.00187779
0.000721893
0.00434523
-0.000369787
0.00295761
-0.000674812
-0.00021966
-0.00119177
-0.00678076
0.000310311
3.04134e-08
-2.1851e-09
-4.41663e-07
4.12374e-08
9.97326e-09
-2.13074e-07
-2.01514e-09
-9.41432e-07
8.16673e-07
-1.40677e-08
-1.27761e-09
-4.22277e-07
-6.48846e-09
-3.53734e-09
-1.08765e-06
4.98541e-10
-3.47175e-07
-1.55172e-08
7.6093e-08
-2.19013e-06
-7.60702e-06
1.59631e-07
-2.94581e-07
-2.82948e-09
4.69913e-06
-1.90236e-07
-7.9754e-09
2.16114e-09
-3.38043e-07
-3.64088e-09
9.93901e-09
-1.49303e-06
1.0079e-08
-2.83752e-07
0.000458193
0.00261938
-1.20084e-05
3.02266e-06
6.05716e-06
-2.93317e-06
4.66324e-08
3.14963e-08
-1.69439e-08
1.36895e-09
3.74093e-09
-6.79132e-09
2.17842e-09
1.1571e-08
-4.02201e-07
9.13519e-05
-3.58416e-05
-6.71367e-08
0.00224443
-2.99471e-07
-1.06506e-09
2.00687e-07
-3.2642e-08
2.04948e-09
2.15506e-09
-1.81765e-08
2.57566e-09
5.93229e-09
-1.10078e-08
8.87059e-09
3.23515e-08
-1.49091e-06
8.10636e-05
-9.31846e-06
-0.00733522
0.000264981
3.77768e-06
-0.00393641
0.00514874
-4.34391e-08
0.0013147
0.00180663
-2.32997e-06
2.36996e-05
3.18767e-05
-3.3202e-07
3.83361e-07
7.23541e-07
-2.83728e-07
9.37308e-07
-4.14136e-06
-0.0150905
0.000447053
4.79961e-06
-0.00937345
0.0119392
-2.38618e-05
0.0032215
0.00966269
-1.38416e-05
8.87126e-05
0.000199974
-1.84662e-07
2.55995e-06
3.03833e-06
-7.01888e-07
7.81843e-08
1.96234e-08
-0.011366
0.000420991
-3.80913e-06
-0.0205806
0.0203442
-2.53688e-05
0.00195049
0.0646078
-2.60346e-06
0.016495
0.0392132
-9.65949e-08
0.000557026
0.00214292
-6.7002e-08
6.25949e-05
6.00827e-07
-0.00601597
0.0125647
0.000124374
-0.0695961
0.106353
-8.35722e-06
-0.0229379
0.130621
-0.000148538
0.00614842
0.055318
-0.0332136
0.0117103
0.0720828
-0.00626147
0.109219
-0.000141704
-0.0536231
0.0655402
0.00624749
-0.0999658
0.177925
-0.0249086
-0.0388151
0.058408
0.00976278
-0.0018024
4.45882e-05
0.0227789
0.0107744
0.0559868
0.00576733
0.138594
-0.053421
0.0135191
0.0402328
-0.00301717
0.00634062
0.0494616
0.00637725
-0.00284561
0.00426478
0.0338711
0.000565999
-0.0013846
0.0185577
-0.00178855
-0.001031
0.0361734
0.0363429
-0.0102549
0.0105116
0.00540859
0.00193427
0.00327385
0.00342055
0.0233914
-0.00175248
-0.00024308
0.00841471
-0.000519049
-0.00430816
0.00531701
-0.000938495
-0.0100808
0.00745248
-0.000364311
0.0165727
0.0019302
0.00317258
0.0035586
0.00455224
0.00188463
0.00280336
0.00302941
0.000592988
-0.00461902
-0.00541513
0.00317719
-6.10978e-08
2.79468e-08
-6.76872e-07
5.85823e-08
1.84506e-08
-8.67197e-07
2.02116e-06
-1.43464e-09
-1.19009e-06
3.65832e-06
-2.82846e-07
8.32936e-07
-5.39112e-08
1.1532e-08
-2.15552e-07
2.25244e-09
-4.57899e-07
-3.04136e-07
1.65896e-06
-4.18149e-06
4.04355e-08
8.57957e-08
-1.06225e-06
6.31767e-09
2.12177e-09
-1.49746e-07
1.12307e-07
1.51412e-08
-2.52552e-07
-4.74176e-08
1.57196e-07
-1.47112e-06
3.11689e-06
-2.93571e-06
-4.03204e-07
2.72465e-07
-4.97552e-06
-5.27292e-08
7.23702e-07
-1.74293e-06
1.82908e-10
4.74078e-09
-6.54602e-08
1.63959e-08
2.50384e-09
-5.53128e-09
-1.51006e-06
1.58933e-07
-1.38695e-06
4.22901e-05
-1.55136e-06
-6.70502e-09
3.90308e-08
-3.20838e-08
-7.1008e-09
5.23651e-08
-2.77908e-08
6.13929e-10
2.38787e-08
-1.94728e-07
9.06424e-08
1.08675e-08
-1.31446e-07
-3.98424e-06
2.02715e-06
-1.20762e-06
3.81017e-05
-9.48915e-08
-2.8035e-10
3.00082e-06
8.01944e-07
-1.96961e-08
3.19099e-08
-1.14201e-08
-2.72827e-09
6.50137e-08
-2.48491e-06
-8.1976e-09
2.10099e-08
-3.63954e-07
2.69182e-07
4.66668e-07
-6.11271e-07
5.5432e-07
9.78321e-06
5.78897e-07
7.79612e-06
-1.14106e-07
-4.2636e-09
8.36927e-07
-2.40398e-05
5.9228e-08
3.42662e-07
-1.41837e-05
6.74764e-09
1.96828e-08
-1.3297e-07
3.85718e-08
7.74641e-08
-3.46229e-07
1.83089e-07
3.99495e-07
4.39832e-06
2.3774e-06
-1.95762e-06
2.90436e-07
9.24804e-07
-2.12966e-05
6.31952e-08
1.00701e-07
-2.13617e-06
9.31737e-09
2.5108e-08
-6.6883e-08
9.61005e-09
3.83407e-08
-3.01491e-08
8.45697e-07
3.42832e-09
4.6321e-06
-5.49958e-05
0.000179989
-9.15692e-07
6.64503e-07
-1.08716e-06
1.05896e-06
2.23311e-05
-0.000172691
0.00821672
0.0254261
-0.0012831
0.000169322
0.00256881
-0.000782778
2.86555e-05
-5.23089e-09
-0.00012366
0.00347984
-0.000439488
-0.0280278
0.00575866
-0.00275964
-0.00684516
0.0326746
-0.000238243
0.00237744
0.00771877
0.00241332
0.00970554
0.0171687
-0.000310852
0.0321306
-0.00566744
-0.0140646
0.0257246
4.88023e-06
-0.0312021
0.0308016
-0.00449006
-0.00889943
0.000681329
0.00848491
-0.00118721
-0.00810088
0.0239606
0.0103027
-0.00287479
0.0226603
0.03952
0.000791324
0.00101706
0.00765761
0.0013904
0.00299909
0.00151077
0.0267051
6.9119e-05
-0.00376251
0.0108369
-4.05346e-05
-0.0131228
0.0118864
-0.00256487
-0.0112851
0.0136875
0.000134325
0.0235117
0.00615513
0.00755389
0.00677445
0.0100183
0.0214882
0.0052834
0.0135027
0.000796522
-0.00664666
-0.00451284
0.00717159
3.88727e-06
-6.25175e-05
-6.06128e-06
6.17689e-06
-3.09233e-05
-5.2179e-07
-1.35916e-06
-1.10348e-05
-9.63619e-07
3.85418e-06
-4.71399e-05
-2.35773e-08
6.70602e-06
-7.00235e-05
4.19666e-12
3.63081e-06
-7.19559e-14
-2.61492e-05
-3.96423e-06
-9.13043e-09
-3.68004e-06
-2.72993e-05
2.76525e-06
3.18325e-05
-1.83333e-48
3.22584e-06
6.46346e-05
-7.19709e-05
3.94937e-07
1.30322e-05
-1.00446e-05
-2.12631e-10
1.52498e-05
-2.2484e-17
-3.75542e-05
-3.89543e-09
-8.41791e-50
4.05096e-07
2.68618e-48
5.88976e-51
9.71678e-05
-6.56444e-10
4.51252e-05
-1.15857e-12
-5.51657e-16
2.40828e-08
-3.98839e-10
1.11488e-08
-6.76781e-11
-5.14902e-07
-7.90012e-10
5.98469e-11
-9.98615e-07
-1.47268e-09
9.44321e-13
-2.42595e-08
-3.58841e-11
-7.95153e-22
-3.93594e-11
-8.30723e-12
-9.22092e-19
-7.1955e-14
-9.37318e-09
-1.67245e-10
8.07132e-12
-3.08136e-09
-2.92564e-07
7.77655e-10
3.95589e-08
-5.79732e-08
1.72163e-09
8.31536e-10
-1.40813e-11
2.64975e-11
-8.22976e-21
-5.01847e-14
-3.24416e-14
-2.34058e-17
3.87906e-20
-4.06272e-09
4.28422e-14
-1.39434e-10
7.73171e-11
6.71729e-10
1.31007e-10
1.20933e-12
-5.04218e-15
5.75055e-16
-1.12298e-20
-8.43868e-21
6.97397e-11
-8.1207e-12
1.46604e-10
8.60455e-13
-8.59268e-10
-1.33904e-12
3.42679e-12
-1.75154e-09
1.63054e-13
6.5609e-14
-3.70056e-11
1.19087e-14
-1.36649e-15
-5.5243e-14
-7.30054e-13
-2.71485e-17
2.56429e-13
6.12621e-15
-4.26653e-14
1.75757e-14
3.92473e-12
-7.72615e-11
1.72512e-12
8.17675e-12
-7.0393e-11
5.58821e-12
9.05656e-14
-1.83628e-14
4.50403e-14
1.20377e-16
-7.67281e-18
2.75551e-15
-2.09311e-18
2.16108e-18
4.49145e-18
1.70648e-16
3.69454e-15
5.29314e-14
2.23624e-14
4.81933e-14
1.06528e-17
6.98447e-17
2.54489e-21
1.15273e-19
3.95843e-20
1.23983e-13
-1.73662e-14
3.22764e-11
3.85715e-15
-1.42851e-12
6.06302e-13
1.24523e-14
-4.85961e-12
5.21812e-13
2.8687e-16
-6.48765e-14
2.42551e-14
-1.10147e-16
-6.93506e-17
-4.72854e-14
-1.16318e-19
2.45966e-13
6.68824e-19
-9.15671e-17
1.7049e-16
1.72541e-15
-5.28795e-14
3.44284e-13
7.99719e-15
-4.61587e-14
2.87494e-14
3.51721e-16
-1.69925e-16
7.00994e-16
9.24487e-20
-3.3048e-17
8.58099e-18
-6.10995e-19
1.48243e-20
-1.83049e-17
2.67169e-18
5.86743e-20
3.58497e-17
2.54514e-17
3.81622e-16
1.06529e-19
1.65116e-18
-4.92181e-22
9.50769e-19
1.76135e-20
2.59917e-15
4.37181e-15
3.08281e-11
4.62947e-17
-1.64042e-14
5.69269e-13
1.52602e-16
-2.22269e-14
5.01388e-13
1.26327e-18
-7.09506e-16
1.74902e-14
-6.5031e-12
1.75008e-18
6.1251e-12
-2.75573e-11
1.6802e-09
-9.19562e-18
-8.14011e-19
-6.38976e-16
6.38333e-18
-1.1106e-16
3.2797e-13
3.18851e-18
-1.41701e-16
6.32353e-15
7.60284e-19
-1.31011e-17
1.05147e-16
-2.04788e-21
-1.33501e-17
-2.57297e-19
-1.75463e-20
3.87693e-11
4.47111e-22
2.41264e-20
-1.6908e-20
3.44194e-18
9.50803e-21
3.67541e-18
2.10939e-21
3.96715e-19
-3.16156e-25
4.04096e-19
2.62297e-23
1.74721e-11
2.73731e-16
1.52058e-08
6.74143e-12
-2.01553e-09
4.89034e-09
1.25274e-12
-3.25369e-14
6.22746e-09
1.11774e-11
-1.04798e-17
1.74803e-08
-1.14952e-10
-8.29666e-12
8.13843e-08
-1.34419e-08
1.37035e-08
-3.07953e-19
-1.28491e-21
-4.23472e-17
1.26272e-12
-3.42228e-18
4.18054e-10
7.89134e-17
-1.95439e-19
1.23642e-12
3.31575e-21
-2.11185e-20
1.73608e-16
-1.07518e-11
-2.76094e-20
2.45519e-12
-5.41126e-23
1.47357e-09
1.56189e-24
2.28397e-20
-8.3073e-23
1.97291e-20
2.01921e-22
3.47966e-18
3.42448e-23
3.75764e-19
2.79449e-23
3.76488e-19
6.20412e-26
-1.58416e-10
-3.88076e-07
2.15903e-07
4.06323e-11
-4.66707e-08
2.06658e-08
3.34127e-10
-1.04989e-07
5.48132e-08
-1.92784e-09
-2.0407e-07
1.06193e-07
2.95454e-10
-3.18547e-07
1.81196e-07
-2.82366e-08
1.30488e-08
2.0041e-09
-2.50961e-08
2.20346e-08
2.76316e-11
-6.14176e-10
2.18859e-09
-7.17856e-11
-5.63358e-09
3.90566e-08
7.82894e-11
-8.4323e-09
5.93548e-08
2.20117e-09
-1.49811e-08
4.88356e-08
-6.82407e-11
1.49803e-09
4.66019e-11
-2.51427e-08
-1.74113e-11
-5.50162e-10
-1.85778e-12
-5.64913e-09
1.54358e-11
-8.4496e-09
2.84281e-11
-1.49941e-08
-3.98124e-11
-1.0378e-10
-2.21112e-06
2.36815e-06
1.63997e-11
-1.74311e-08
1.83576e-08
-3.77878e-11
-1.35381e-06
1.33857e-06
-1.54257e-09
-1.54406e-06
1.62035e-06
-1.87391e-11
-1.37823e-06
1.50286e-06
-2.4188e-09
1.46018e-08
-4.26614e-09
-1.30076e-06
1.36763e-07
9.15361e-09
-6.58956e-08
1.91029e-08
2.42318e-08
-1.65387e-06
-3.3271e-09
-9.92991e-08
-1.33882e-06
1.34749e-07
-2.57353e-08
-1.22958e-06
-7.50073e-10
-6.93599e-09
-1.89932e-08
1.11578e-08
-1.18869e-06
-1.41087e-08
-1.40444e-08
-9.61895e-10
-1.38729e-06
3.90582e-09
-1.25225e-06
7.64094e-09
-7.15807e-07
1.74297e-10
3.87984e-07
7.70404e-06
0.000219736
4.87402e-07
4.73381e-06
0.000183725
7.08552e-07
5.25067e-06
0.000177483
7.76069e-08
6.86383e-06
0.000183048
-1.28124e-06
5.82355e-06
0.000178998
8.29588e-06
0.000189183
-1.35679e-08
1.09712e-07
8.70225e-06
4.81127e-08
-4.87025e-07
5.17494e-06
6.893e-08
-9.73455e-07
6.82208e-06
-1.37135e-07
2.15834e-08
7.08203e-06
-9.25496e-08
-4.77622e-07
6.9923e-06
-5.24421e-12
8.18436e-06
-1.40861e-07
3.56683e-06
3.92178e-07
1.28911e-06
1.30739e-07
2.87169e-06
-1.72061e-06
4.25587e-06
-9.42351e-11
1.99481e-06
7.48235e-11
0.000238455
0.000435593
0.00300554
0.00010424
0.000271546
0.00335132
6.21523e-05
0.000373524
0.00309919
4.58266e-05
0.000579754
0.00303657
6.90655e-06
0.00050434
0.00316636
0.000507061
0.00317037
2.23715e-05
4.40487e-05
0.000379206
1.5292e-05
3.76116e-05
0.000246726
1.02485e-05
5.69775e-05
0.000329513
9.58386e-06
5.38223e-05
0.000533116
6.13425e-07
5.71432e-05
0.000464382
3.96976e-05
0.000476677
3.94874e-06
2.04221e-05
1.3397e-06
3.10457e-05
1.10458e-06
4.26405e-05
8.39314e-07
3.53318e-05
-3.30259e-07
5.47724e-05
3.21308e-05
0.00310511
0.0117728
-0.0140457
0.000343551
0.00217898
0.0370541
0.000144523
0.00265244
0.0308195
0.000223004
0.00330593
0.0284051
5.57549e-05
0.00274386
0.032711
0.00278939
0.0304846
0.000764536
0.0053763
-1.55757e-05
2.67708e-05
0.000951822
0.00217741
4.56554e-05
0.00158517
0.00161958
0.000183154
0.0018483
0.00169121
4.54574e-05
0.00171295
0.00204088
0.00129402
0.00175362
3.24506e-05
-2.90542e-06
-3.01406e-07
0.000191726
-8.07783e-06
0.000177795
1.53901e-05
0.000129474
1.30296e-05
0.000213317
0.00015982
0.0645109
-0.00365296
0.283935
-0.000921046
0.00923779
0.30343
-0.0278537
0.00737592
0.287474
0.0155475
0.00122309
0.29432
0.019191
0.00701038
0.293716
0.0041304
0.280762
-0.00362117
-0.000317431
0.000155282
-0.00394597
0.00092607
0.0107138
-0.00137224
0.000219137
0.00603281
-0.000696367
-0.000697541
0.00331802
0.000340946
0.000259787
0.00731918
0.00017839
0.00594987
-0.0004393
1.02215e-05
-0.000106984
0.000386946
-2.01335e-05
0.000123837
-7.86452e-05
2.95757e-05
-1.50786e-05
0.000163279
0.000156477
0.00167045
0.00183688
-0.00663483
0.00142617
0.00237371
0.000198075
-0.0068174
0.00347797
0.00141432
-5.59834e-05
-0.010892
0.00604052
6.90809e-05
-4.37718e-05
-0.00796244
0.00765587
-0.00069718
-2.58192e-05
-0.00745816
0.00854127
-0.00030873
-0.00689672
0.00426828
0.000276697
1.14555e-05
-1.75836e-05
-0.000750022
2.563e-05
-3.24855e-06
-1.26354e-05
-3.78313e-05
3.80826e-06
-8.14892e-07
-6.14031e-05
1.19528e-05
7.0725e-07
-4.21167e-06
-5.51343e-05
7.74784e-06
-4.23914e-06
-3.46768e-06
-2.98354e-05
1.57525e-06
-6.20108e-06
-2.73367e-06
-0.000776927
3.96912e-06
-5.29832e-07
-2.15654e-05
1.27267e-05
-1.61407e-06
-3.99916e-05
3.2963e-05
-3.57701e-06
-1.27139e-05
1.78875e-05
-2.053e-06
-2.35045e-05
2.67244e-09
4.10807e-06
-2.42761e-05
1.1735e-06
-2.25108e-05
0.00067816
-0.000455845
-0.00875393
0.00100329
-0.000599779
-0.00959022
0.000962775
-7.01389e-06
-0.0084291
9.32751e-05
-0.000587561
-0.010025
-0.000718185
-0.000564736
-0.0090406
-0.000634171
-0.00915753
6.44713e-06
1.23516e-05
-0.000518518
7.95031e-06
8.49729e-06
-0.000644226
5.90202e-07
6.54129e-06
-0.000277891
-1.34209e-05
6.93459e-06
-0.000645922
-8.51413e-06
7.3961e-06
-0.000619267
9.23102e-06
-0.00066945
2.84879e-08
-1.31989e-05
-1.55735e-07
-1.06113e-05
-4.67258e-07
-9.13373e-06
-3.75975e-07
-6.82217e-06
-1.08211e-07
-5.49961e-06
-6.16261e-06
0.000233555
0.00329294
-0.000307078
0.000557257
0.00326742
-0.00140163
0.000372932
0.00318617
-0.00178919
-1.4614e-06
0.00315917
-0.000324186
-0.000200233
0.00308024
-0.00018655
0.00290357
-0.00193957
8.29997e-05
-0.00014349
-0.000382106
9.32895e-05
-0.000101714
-0.000253081
6.33733e-06
-0.000107582
-0.000493048
-7.37712e-05
-0.000181092
-0.000495334
-7.52305e-05
-0.000171181
-0.000420778
-6.24416e-05
-0.000364613
-2.16241e-07
-0.000200546
-1.90692e-06
-0.000148719
-5.20275e-06
-0.000143625
-3.07411e-06
-0.000218341
-9.45687e-07
-0.00021251
-9.77379e-05
0.000278134
0.00737263
0.011138
0.000429593
0.00625804
0.0102693
0.00020256
0.00630206
0.0098843
0.000128825
0.00666022
0.0110343
0.000116247
0.00639291
0.0107583
0.00630642
0.00952416
1.18153e-05
0.00338125
-0.0265511
0.000337109
0.00237988
-0.0229311
-3.80667e-05
0.00218921
-0.0217742
-9.96069e-05
0.00359781
-0.0271629
0.00033478
0.00346273
-0.0275069
0.00182402
-0.0206305
-1.94647e-05
-0.000241065
-8.89691e-06
-0.000266852
-1.38343e-05
-0.000232165
-2.60216e-05
-0.000315114
-8.93572e-06
-0.000326613
-0.000211006
-0.000473574
0.0193149
-0.137165
0.000452651
0.0140805
-0.100788
0.000498512
0.0137526
-0.0978897
0.000292706
0.0158755
-0.119794
-7.97993e-05
0.0150182
-0.114402
0.0136206
-0.0952303
-0.00106837
-0.000483607
-0.0362766
0.000255124
0.000112763
-0.043078
-0.000166043
-5.92032e-06
-0.0364146
-0.000439785
-0.000159115
-0.0390829
0.00108476
-6.8955e-05
-0.0439931
3.15626e-05
-0.0352599
-6.12049e-05
-2.57538e-07
-1.49289e-05
-1.16216e-05
-2.66695e-06
-2.25164e-06
-3.23686e-05
-8.09926e-07
-1.96746e-05
-3.53655e-06
-2.81044e-06
0.00366247
0.0058269
-0.00776018
0.0288976
-0.00856213
0.017375
0.00206942
0.0120109
0.00465949
0.0215296
0.0173164
-0.00217851
-1.35253e-05
-0.00202467
-0.00050227
-0.00141396
-0.000121143
-0.00108033
-2.94266e-05
0.000975095
-0.000159178
-0.000153477
-3.58291e-06
-5.3292e-07
-9.2675e-08
-7.53488e-07
-1.89153e-07
3.90404e-09
-4.66819e-07
4.98262e-08
-1.52317e-06
-3.59976e-07
1.12389e-07
5.09701e-07
-7.63947e-07
3.89252e-07
2.21252e-07
-1.92429e-07
7.14285e-07
-8.89405e-08
-1.6328e-07
1.45406e-07
-5.52096e-07
1.26007e-07
1.49053e-08
-0
5.00041e-08
-4.12305e-07
-0
2.92722e-08
1.90288e-07
-0
2.34088e-07
-2.43323e-09
-0
2.92808e-10
-2.63755e-08
-0
1.72777e-08
-0
6.7969e-08
0
0
0
0
0
0
0
0
0
0
0
-9.93246e-09
-1.23268e-06
5.17244e-07
-4.37169e-08
-2.21153e-07
1.45136e-08
-9.53841e-10
-1.05902e-07
-1.31958e-09
2.78688e-08
-1.13942e-08
1.6107e-08
-1.58307e-08
-6.71805e-07
1.75997e-07
-1.40235e-06
2.84121e-07
6.75983e-08
-0
-2.771e-10
3.11282e-09
-1.8802e-12
3.53567e-09
6.61277e-11
-1.7702e-09
-3.47764e-09
2.48908e-09
-3.07054e-12
8.86411e-11
-7.5162e-08
-3.38918e-15
1.80608e-08
-8.25757e-19
2.96219e-08
0
0
-1.88278e-12
2.57403e-15
3.07754e-12
1.885e-11
3.39335e-15
3.61389e-15
8.26493e-19
3.34477e-18
7.36145e-22
-7.00559e-07
-1.46477e-06
4.48586e-07
-1.10963e-07
-8.15394e-08
2.12115e-08
2.24883e-09
-8.85101e-09
5.39158e-09
2.24575e-08
-5.02989e-09
2.09988e-10
8.89682e-08
-5.80938e-07
5.71551e-08
-6.30525e-07
7.96499e-08
7.77412e-08
-0
-5.18296e-11
-1.0955e-10
-1.1236e-10
-4.10086e-11
-3.84951e-12
-9.34352e-09
2.13748e-10
7.31576e-11
-7.94715e-10
3.58785e-10
-1.81788e-08
-7.87748e-12
-7.15946e-12
-7.35628e-22
-7.27302e-13
0
0
-1.12566e-10
2.08385e-13
1.5549e-10
4.81248e-10
7.88583e-12
1.5726e-11
-2.1653e-25
8.35662e-15