/*--------------------------------*- C++ -*----------------------------------*\
| =========                 |                                                 |
| \\      /  F ield         | OpenFOAM: The Open Source CFD Toolbox           |
|  \\    /   O peration     | Version:  v1612+                                |
|   \\  /    A nd           | Web:      www.OpenFOAM.com                      |
|    \\/     M anipulation  |                                                 |
\*---------------------------------------------------------------------------*/
FoamFile
{
    version     2.0;
    format      ascii;
    class       volScalarField;
    location    "9.45";
    object      p;
}
// * * * * * * * * * * * * * * * * * * * * * * * * * * * * * * * * * * * * * //

dimensions      [1 -1 -2 0 0 0 0];

internalField   nonuniform List<scalar> 
1116
(
6242.84
6251.85
6253.53
6244.06
6240.45
6253.02
6732.21
6738.06
6739.26
6741.08
6742.77
6745.65
7737.77
7739.81
7740.87
7741.81
7743.34
7744.15
8610.13
8607.1
8606.62
8609.6
8606.07
8602.75
9302.98
9298.19
9297.47
9303.86
9301.64
9297.11
9914.67
9911.16
9910.12
9916.84
9916.91
9920.25
10567
10563.4
10561.9
10562.4
10559.7
10554.6
11315.9
11315.9
11313.4
11309.6
11308.5
11309.1
12307.8
12307.2
12306.5
12303.8
12304.5
12304.8
13692.2
13693.2
13691.2
13687.3
13684.2
13691.1
13961
13982.2
13973.3
13965.4
13969.1
13977.2
14083.8
14077.7
14075.5
14074
14065.5
14077.4
1090.51
1105.53
1107.01
1094.63
1092.7
1108.37
1292.56
1299.26
1298.86
1298.75
1305.13
1296.12
1614.68
1605.58
1605.73
1621.35
1626.39
1598.64
2008.4
1999.87
1996.95
2005.71
2001.68
1984.19
2312.15
2304.07
2301.37
2313.9
2310.03
2296.42
2644.61
2635.26
2632.39
2647.86
2647.03
2638.5
2980.5
2974.33
2970.3
2978.51
2981.56
2972.71
3390.39
3386.51
3383.46
3380.96
3381.5
3378.79
4302.16
4297.29
4298.02
4289.9
4283.09
4301.15
5186.52
5190.67
5197.5
5190.15
5176.83
5211.61
5681.39
5692.21
5678.68
5671.4
5667.69
5696.78
7612.3
7617.53
7616.8
7615.69
7605.71
7629.03
-21.8097
-21.8499
-22.0072
-22.004
-21.9438
-22.2815
-24.2313
-24.0756
-23.9721
-24.2423
-24.2753
-24.0432
-28.2834
-27.8977
-27.7489
-27.9945
-28.1654
-27.3805
-26.4138
-26.3378
-26.2583
-26.3499
-26.3413
-26.1346
-18.8735
-18.9966
-19.004
-18.9947
-19.0359
-19.0427
-0.950764
-0.914215
-1.01446
-0.956549
-1.04911
-1.05211
32.7236
33.2551
33.1499
32.7947
32.7134
33.153
172.922
173.91
174.077
173.125
172.925
174.273
394.41
394.326
395.199
395.27
394.422
398.054
608.594
605.74
613.234
617.511
617.61
618.635
1647.67
1706.76
1716.38
1704.43
1694.1
1741.85
5520.62
5468.09
5464.21
5457.29
5440.27
5423.26
-22.4496
-22.4991
-22.5069
-22.3925
-22.2581
-22.5263
-22.2781
-22.285
-22.2947
-22.2963
-22.1433
-22.3575
-21.6075
-21.5406
-21.5895
-21.5752
-21.5656
-21.6686
-22.1561
-22.1506
-22.1866
-22.1466
-22.0629
-22.2567
-20.8643
-20.8503
-20.8996
-20.8822
-20.7903
-21.0205
-16.5637
-16.6224
-16.6366
-16.594
-16.6431
-16.7392
-10.4576
-9.9044
-9.79992
-10.2852
-10.1043
-10.3929
-9.92751
-9.58264
-9.27394
-9.4835
-9.09408
-9.62113
-36.1465
-39.1089
-38.4454
-36.9858
-36.9904
-37.6099
11.3403
-1.02981
-2.45545
-2.06089
-2.10699
-5.28255
265.468
214.902
209.068
209.171
207.301
199.311
1546.1
1450.98
1483.83
1468.76
1423.66
1479.37
876.116
878.343
880.017
782.616
749.385
733.361
879.24
885.686
853.415
783.906
729.827
684.377
920.451
910.175
866.743
842.047
796.232
767.944
972.445
936.135
931.844
917.398
869.674
883.961
1038.71
986.25
987.663
971.527
908.029
979.444
1084.19
1027.85
1023.16
1088.76
991.351
1094.64
1160.24
1086.15
1186.14
1278.52
1287.32
1307.52
1172.15
1153.27
1194.7
1124.78
1225.57
1365.1
969.099
1087.24
1065.61
932.386
1021.89
1132.59
832.904
855.03
846.483
824.793
843.86
906.327
695.212
687.522
681.486
703.146
682.602
695.947
610.521
602.072
590.99
589.141
593.902
581.132
147.016
199.387
196.614
103.769
79.7265
70.7207
147.62
206.259
195.05
116.786
82.7412
64.2721
202.963
207.1
193.344
183.475
135.189
91.8363
257.162
252.81
268.3
230.56
193.071
157.359
331.674
260.254
257.635
234.988
184.006
234.44
409.508
298.376
269.054
302.009
198.433
296.806
477.322
372.843
311.721
403.605
342.557
404.206
444.18
380.026
344.321
408.303
408.96
540.657
548.177
434.803
457.004
528.956
475.297
516.708
588.882
547.708
539.199
569.226
547.059
533.258
553.351
552.871
498.958
513.309
511.882
515.841
490.889
498.558
465.541
485.701
480.38
489.126
-22.3145
-23.5568
-24.2944
-24.4195
-22.2158
-20.9656
-20.9275
-22.6845
-22.6441
-21.6137
-20.0123
-19.9539
-16.5713
-20.8205
-20.1282
-20.4608
-19.7023
-19.333
-13.7401
-15.5042
-16.8099
-17.9383
-18.3379
-18.6087
-11.0112
-8.57326
-8.87424
-13.1682
-14.6152
-14.7943
-9.84074
-9.76204
-0.0325366
-8.58275
-9.43964
-7.47955
3.63523
-7.05114
25.0874
14.8493
1.32518
3.75817
46.682
41.2261
180.642
103.751
32.3524
56.9246
185.025
112.74
89.7667
232.653
83.0373
129.555
400.716
203.237
289.114
364.334
365.568
328.945
413.589
399.48
373.045
414.221
425.233
430.084
395.465
390.053
374.884
381.742
400.666
410.89
-32.2847
-33.1562
-34.0343
-32.9251
-31.3646
-30.3665
-31.5307
-32.3274
-33.3693
-32.5031
-30.8091
-29.1161
-32.1624
-31.9234
-31.6849
-31.4776
-31.1072
-29.5257
-33.5291
-33.3661
-32.0654
-31.167
-31.8386
-30.9548
-35.4927
-37.5752
-32.6188
-31.4644
-33.039
-31.9382
-36.6274
-42.5902
-32.0917
-31.8562
-34.1664
-34.3232
-34.995
-45.0365
-32.8811
-34.3979
-36.758
-35.8118
-28.8144
-41.9811
-24.2413
-15.6132
-30.3685
-29.4181
1.86891
-8.67363
26.3416
65.363
13.9753
4.50847
85.0516
41.5977
104.675
163.846
128.831
87.0088
199.166
160.808
173.261
205.989
212.575
234.379
283.697
272.684
261.363
252.61
255.67
274.066
-44.3201
-44.558
-44.8441
-44.5838
-44.4901
-44.682
-50.7775
-50.5641
-50.6696
-50.5161
-51.0028
-51.1474
-70.3326
-69.4855
-69.2867
-69.6201
-70.4954
-70.2224
-43.7937
-44.0056
-44.1179
-43.8847
-43.7804
-43.8551
-55.1974
-55.2803
-55.3204
-55.3066
-55.2737
-55.1749
-71.6636
-71.302
-71.2737
-71.5633
-72.0117
-72.0536
-42.7827
-42.7741
-42.7868
-42.7744
-42.7714
-42.7775
-54.2981
-54.3081
-54.3118
-54.2982
-54.3181
-54.3312
-70.4219
-70.4218
-70.4188
-70.4348
-70.4734
-70.4924
-42.9113
-42.9107
-42.9169
-42.911
-42.9181
-42.8925
-55.2755
-55.2886
-55.295
-55.3009
-55.3175
-55.3237
-71.7926
-71.786
-71.7873
-71.8117
-71.8496
-71.8455
-41.8252
-41.8249
-41.834
-41.839
-41.8407
-41.8405
-55.6814
-55.6949
-55.6985
-55.704
-55.7129
-55.7323
-72.9245
-72.9422
-72.9344
-72.9442
-72.9551
-72.9567
-41.706
-41.6872
-41.7031
-41.7101
-41.7349
-41.7309
-57.4844
-57.4644
-57.4768
-57.5097
-57.5279
-57.5148
-74.9631
-75.0104
-74.9747
-75.0155
-75.0433
-75.0701
-40.2975
-39.9476
-40.0134
-40.1568
-40.0798
-40.154
-60.4488
-60.3768
-60.3353
-60.5999
-60.4638
-60.6188
-77.6538
-78.0513
-77.739
-77.9294
-77.9733
-78.3346
-62.0422
-62.4851
-62.2984
-61.6544
-62.2105
-62.5855
-85.0373
-83.6164
-84.7094
-84.8894
-85.0166
-83.075
-81.5235
-82.9288
-81.9132
-82.2418
-82.8501
-83.773
-95.1703
-96.9235
-97.3314
-97.5125
-97.882
-97.2439
-91.8105
-92.6455
-93.2579
-92.4949
-92.9072
-92.5745
-88.0986
-90.1025
-90.2682
-91.1638
-91.1206
-90.8541
-51.6189
-68.9051
-71.432
-73.6711
-75.9974
-77.1026
-75.6905
-85.0265
-85.1255
-85.6078
-89.0018
-89.2434
-85.4896
-86.8777
-87.6594
-88.2964
-89.0718
-86.955
47.4927
25.3756
31.1198
31.2241
24.4755
22.8628
-68.8557
-67.2248
-62.3611
-61.5874
-64.4343
-64.7014
-80.3504
-72.1102
-70.3679
-70.4361
-68.9189
-68.4062
592.532
409.449
541.435
583.535
467.809
523.021
-124.874
-123.348
-108.511
-104.364
-102.565
-101.067
-74.5273
-64.6665
-59.4748
-58.2441
-53.6767
-55.1758
91.0338
83.0803
74.497
60.0744
54.3608
54.9435
-39.2042
-41.0565
-42.5782
-43.4808
-43.2422
-43.1515
-62.6983
-63.4224
-64.5336
-64.8878
-64.0216
-62.9521
65.5776
63.5516
61.2757
56.2852
54.1541
56.8868
-40.2433
-40.6554
-41.792
-42.6543
-42.0071
-41.5374
-61.0857
-61.0935
-61.6561
-61.3942
-60.6644
-60.5421
106.684
106.326
103.92
99.5927
97.0983
98.6008
-36.0451
-36.9753
-37.8312
-38.2118
-37.9216
-37.1176
-61.7613
-61.9476
-62.0177
-61.4573
-60.883
-60.8068
221.857
216.518
212.174
209.942
207.492
206.92
-19.3335
-19.5055
-20.9586
-21.2769
-21.8442
-21.5342
-68.8618
-68.0297
-67.7849
-68.3634
-67.8011
-66.4073
371.055
359.692
351.989
346.843
341.246
349.251
18.1378
26.6503
18.8106
16.3155
22.6219
17.9215
-70.6804
-68.8114
-68.514
-69.2031
-68.3425
-66.9252
452.122
445.738
474.137
470.378
436.629
475.149
-26.9224
-11.4807
-15.3328
-27.4932
-7.55118
-14.5433
-60.5153
-60.3555
-61.0876
-60.4699
-59.6182
-59.8472
-42.9442
-43.0695
-42.4899
-41.7222
-41.6192
-41.7411
-53.5046
-53.4017
-53.0703
-53.1788
-53.1654
-53.1699
-64.1693
-64.2039
-63.9482
-64.0913
-64.1713
-64.1766
-42.99
-42.9895
-43.0216
-42.7617
-42.1705
-41.951
-53.7936
-53.7878
-53.8302
-53.6912
-53.5605
-53.4215
-64.7278
-64.7967
-64.691
-64.7064
-64.7552
-64.7013
-43.8284
-42.8843
-42.3001
-42.3162
-42.1505
-42.1631
-53.9043
-53.759
-53.6374
-53.5928
-53.4961
-53.4573
-64.9182
-65.0166
-64.8868
-64.9346
-64.9561
-64.882
-44.8678
-43.3702
-42.4923
-41.8644
-42.2802
-42.2843
-53.806
-53.7016
-53.5755
-53.4873
-53.6155
-53.5803
-65.0827
-65.3128
-65.2395
-65.2531
-65.2635
-65.0553
-43.7798
-43.5804
-42.1959
-40.708
-42.1726
-41.31
-52.0842
-52.2608
-52.4395
-52.4481
-52.6572
-52.0337
-65.0236
-65.4601
-65.5303
-65.4168
-65.2323
-64.6653
-41.5392
-43.9819
-41.7505
-39.9574
-42.1201
-40.2843
-49.4995
-50.0789
-50.9131
-51.3432
-51.5974
-50.2431
-64.8944
-65.7435
-66.165
-66.0608
-65.8068
-65.1043
-36.6893
-41.4757
-39.5407
-38.7779
-40.2791
-38.8607
-44.7059
-45.5243
-47.4231
-48.6893
-49.7325
-49.2851
-64.9905
-65.9019
-66.8736
-66.5951
-66.3488
-65.8219
-39.8576
-44.0637
-40.38
-38.9586
-40.2302
-40.3497
-45.8226
-48.3373
-50.6499
-52.3041
-53.4603
-52.7394
-68.2848
-70.0446
-72.6412
-71.3875
-69.5198
-68.3181
-29.6885
-33.7727
-18.8292
-15.4665
-18.7959
-25.6299
-59.1446
-59.4245
-58.2744
-49.1162
-55.391
-56.3467
-78.9297
-79.9218
-81.9038
-79.2033
-78.1118
-75.8229
25.2398
-10.0248
12.3437
35.627
13.7726
-6.487
-60.4866
-61.8519
-52.0276
-47.4875
-53.7983
-53.2554
-90.0296
-88.4675
-87.1244
-99.45
-92.1928
-84.1663
56.4401
5.76429
25.7164
33.1887
31.3704
35.889
-62.0312
-70.5136
-59.1126
-56.0259
-55.1388
-56.1923
-88.6202
-86.2639
-84.537
-82.3013
-79.1302
-78.0232
131.465
133.606
120.322
84.4688
73.176
85.9366
-38.0791
-43.3294
-49.2355
-47.5457
-44.212
-38.3621
-70.6006
-73.4695
-76.4187
-72.7442
-69.547
-68.2647
)
;

boundaryField
{
    seabed_topleft_surface
    {
        type            calculated;
        value           nonuniform List<scalar> 
72
(
9916.49
9934.55
9940.98
9904.78
9891.93
9935.79
10701.5
10717.8
10729.5
10717.6
10726
10736.1
12332.8
12341.3
12346.2
12338
12337.1
12350.1
13285.5
13282.5
13282
13285.2
13281.7
13278.1
13979.3
13974.6
13973.9
13980.5
13978.4
13973.5
14592.1
14588.7
14587.7
14594.6
14594.8
14597.9
15245
15241.5
15240
15240.7
15238
15232.8
15993.9
15994
15991.6
15987.8
15986.8
15987.4
16587.2
16570.5
16578.6
16571.3
16575.9
16580.8
17520.6
17516.5
17516.5
17514.6
17513.2
17516.1
17789.9
17809
17800.1
17794.1
17798.6
17804.9
17438.9
17386.4
17410.6
17424.3
17383.2
17409.5
)
;
    }
    seabed_topright_surface
    {
        type            calculated;
        value           nonuniform List<scalar> 
72
(
1362.88
1366.32
1367.92
1269.47
1231.9
1211.39
1367.07
1374.38
1342.18
1271.32
1214.71
1149.39
1409.19
1399.59
1356.35
1331.76
1286.05
1249.25
1461.86
1425.84
1421.42
1407.05
1359.42
1373.62
1527.99
1475.71
1474.79
1421.91
1397.68
1468.95
1573.4
1517.14
1358.54
1557.43
1480.85
1583.39
1649.28
1575.35
1675.18
1658.27
1776.08
1795.13
1661.05
1642.33
1571.74
1212.38
1603.29
1838.17
1162.7
1352.76
1239.42
973.856
1108.66
1344.97
862.581
953.908
978.086
865.741
889.811
1087.84
740.483
710.674
783.93
817.616
773.215
858.339
667.728
632.452
673.652
704.491
710.829
700.456
)
;
    }
    breakwater_top_surface
    {
        type            calculated;
        value           nonuniform List<scalar> 
36
(
191.746
184.447
174.371
154.611
143.793
146.759
165.066
165.776
163.722
157.419
146.828
154.465
205.362
205.616
204.043
197.467
194.868
198.545
294.241
288.708
285.556
281.733
280.155
281.262
614.43
571.365
558.197
585.009
580.635
550.668
1274.11
1250.83
1278.16
1315.34
1278.39
1261.97
)
;
    }
    breakwater_left_surface
    {
        type            calculated;
        value           nonuniform List<scalar> 
24
(
14095.3
14089
14086.9
14085.5
14076.8
14088.8
7621.02
7626.23
7625.46
7624.4
7614.36
7637.72
5529.19
5476.65
5472.74
5465.84
5448.8
5431.78
1554.19
1458.83
1491.76
1476.71
1431.45
1487.34
)
;
    }
    breakwater_right_surface
    {
        type            calculated;
        value           nonuniform List<scalar> 
24
(
610.716
602.176
591.273
589.536
594.303
581.541
491.012
498.614
465.581
485.741
480.42
489.166
395.499
390.085
374.916
381.822
400.799
410.93
283.799
272.721
261.403
252.782
255.853
274.18
)
;
    }
    water_front_surface
    {
        type            calculated;
        value           nonuniform List<scalar> 
186
(
6242.84
6732.21
7737.77
8610.13
9302.98
9914.67
10567
11315.9
12307.8
13692.2
13961
14083.8
1090.51
1292.56
1614.68
2008.4
2312.15
2644.61
2980.5
3390.39
4302.16
5186.52
5681.39
7612.3
-21.8097
-24.2313
-28.2834
-26.4138
-18.8735
-0.950764
32.7236
172.922
394.41
608.594
1647.67
5520.62
-22.4496
-22.2781
-21.6075
-22.1561
-20.8643
-16.5637
-10.4576
-9.92751
-36.1465
11.3403
265.468
1546.1
876.116
879.24
920.451
972.445
1038.71
1084.19
1160.24
1172.15
969.099
832.904
695.212
610.521
147.016
147.62
202.963
257.162
331.674
409.508
477.322
444.18
548.177
588.882
553.351
490.889
-22.3145
-20.9275
-16.5713
-13.7401
-11.0112
-9.84074
3.63523
46.682
185.025
400.716
413.589
395.465
-32.2847
-31.5307
-32.1624
-33.5291
-35.4927
-36.6274
-34.995
-28.8144
1.86891
85.0516
199.166
283.697
-44.3201
-50.7775
-70.3326
-43.7937
-55.1974
-71.6636
-42.7827
-54.2981
-70.4219
-42.9113
-55.2755
-71.7926
-41.8252
-55.6814
-72.9245
-41.706
-57.4844
-74.9631
-40.2975
-60.4488
-77.6538
-62.0422
-85.0373
-81.5235
-95.1703
-91.8105
-88.0986
-51.6189
-75.6905
-85.4896
47.4927
-68.8557
-80.3504
592.532
-124.874
-74.5273
91.0338
-39.2042
-62.6983
65.5776
-40.2433
-61.0857
106.684
-36.0451
-61.7613
221.857
-19.3335
-68.8618
371.055
18.1378
-70.6804
452.122
-26.9224
-60.5153
-42.9442
-53.5046
-64.1693
-42.99
-53.7936
-64.7278
-43.8284
-53.9043
-64.9182
-44.8678
-53.806
-65.0827
-43.7798
-52.0842
-65.0236
-41.5392
-49.4995
-64.8944
-36.6893
-44.7059
-64.9905
-39.8576
-45.8226
-68.2848
-29.6885
-59.1446
-78.9297
25.2398
-60.4866
-90.0296
56.4401
-62.0312
-88.6202
131.465
-38.0791
-70.6006
)
;
    }
    water_back_surface
    {
        type            calculated;
        value           nonuniform List<scalar> 
186
(
6253.02
6745.65
7744.15
8602.75
9297.11
9920.25
10554.6
11309.1
12304.8
13691.1
13977.2
14077.4
1108.37
1296.12
1598.64
1984.19
2296.42
2638.5
2972.71
3378.79
4301.15
5211.61
5696.78
7629.03
-22.2815
-24.0432
-27.3805
-26.1346
-19.0427
-1.05211
33.153
174.273
398.054
618.635
1741.85
5423.26
-22.5263
-22.3575
-21.6686
-22.2567
-21.0205
-16.7392
-10.3929
-9.62113
-37.6099
-5.28255
199.311
1479.37
733.361
684.377
767.944
883.961
979.444
1094.64
1307.52
1365.1
1132.59
906.327
695.947
581.132
70.7207
64.2721
91.8363
157.359
234.44
296.806
404.206
540.657
516.708
533.258
515.841
489.126
-20.9656
-19.9539
-19.333
-18.6087
-14.7943
-7.47955
3.75817
56.9246
129.555
328.945
430.084
410.89
-30.3665
-29.1161
-29.5257
-30.9548
-31.9382
-34.3232
-35.8118
-29.4181
4.50847
87.0088
234.379
274.066
-44.682
-51.1474
-70.2224
-43.8551
-55.1749
-72.0536
-42.7775
-54.3312
-70.4924
-42.8925
-55.3237
-71.8455
-41.8405
-55.7323
-72.9567
-41.7309
-57.5148
-75.0701
-40.154
-60.6188
-78.3346
-62.5855
-83.075
-83.773
-97.2439
-92.5745
-90.8541
-77.1026
-89.2434
-86.955
22.8628
-64.7014
-68.4062
523.021
-101.067
-55.1758
54.9435
-43.1515
-62.9521
56.8868
-41.5374
-60.5421
98.6008
-37.1176
-60.8068
206.92
-21.5342
-66.4073
349.251
17.9215
-66.9252
475.149
-14.5433
-59.8472
-41.7411
-53.1699
-64.1766
-41.951
-53.4215
-64.7013
-42.1631
-53.4573
-64.882
-42.2843
-53.5803
-65.0553
-41.31
-52.0337
-64.6653
-40.2843
-50.2431
-65.1043
-38.8607
-49.2851
-65.8219
-40.3497
-52.7394
-68.3181
-25.6299
-56.3467
-75.8229
-6.487
-53.2554
-84.1663
35.889
-56.1923
-78.0232
85.9366
-38.3621
-68.2647
)
;
    }
    water_left_surface
    {
        type            calculated;
        value           nonuniform List<scalar> 
42
(
6255.43
6264.46
6266.15
6256.59
6252.96
6265.63
1094.17
1109.24
1110.74
1098.3
1096.36
1112.11
-21.7931
-21.8336
-21.991
-21.9874
-21.9271
-22.2654
-22.4328
-22.4832
-22.4911
-22.376
-22.2413
-22.5104
-44.3201
-44.558
-44.8441
-44.5838
-44.4901
-44.682
-50.7775
-50.5641
-50.6696
-50.5161
-51.0028
-51.1474
-70.3326
-69.4855
-69.2867
-69.6201
-70.4954
-70.2224
)
;
    }
    water_right_surface
    {
        type            calculated;
        value           nonuniform List<scalar> 
42
(
877.783
880.015
881.688
784.283
751.037
734.998
147.507
200.142
197.459
104.157
79.9934
70.9623
-22.2984
-23.5407
-24.2738
-24.4033
-22.1996
-20.9495
-32.2688
-33.1403
-34.0184
-32.9092
-31.3487
-30.3506
-42.9442
-43.0695
-42.4899
-41.7222
-41.6192
-41.7411
-53.5046
-53.4017
-53.0703
-53.1788
-53.1654
-53.1699
-64.1693
-64.2039
-63.9482
-64.0913
-64.1713
-64.1766
)
;
    }
    water_top_surface
    {
        type            calculated;
        value           nonuniform List<scalar> 
180
(
-77.1069
-70.8341
-71.1033
-69.7025
-76.9668
-76.9045
-78.0721
-77.6996
-77.6048
-77.9101
-78.3025
-78.2807
-76.1233
-76.1373
-76.1495
-76.1481
-76.1631
-76.2026
-78.535
-78.5491
-78.5572
-78.5562
-78.6172
-78.5867
-80.4906
-80.5239
-80.5238
-80.5195
-80.5436
-80.5416
-83.7177
-83.716
-83.7115
-83.7421
-83.7563
-83.706
-87.5198
-88.1896
-88.1406
-88.0909
-87.9239
-88.027
-87.0359
-95.7625
-91.0477
-88.4153
-89.612
-96.0702
-69.4795
-81.3893
-71.4974
-69.6869
-72.3798
-82.7492
-68.8785
-68.6929
-68.8622
-68.8814
-68.7313
-68.67
-84.8621
-71.8454
-75.7533
-76.5761
-76.9626
-73.9741
-73.206
-69.2637
-68.7914
-69.2733
-68.8292
-68.8243
-68.9334
-69.1741
-70.0065
-72.3679
-70.9438
-68.8219
-68.9252
-68.9007
-68.8673
-68.8366
-68.8197
-68.8197
-68.9334
-68.9252
-68.9007
-68.8698
-68.8462
-68.8197
-86.8496
-81.8203
-80.4406
-90.6388
-90.4523
-77.8585
-77.1577
-79.3531
-78.4677
-82.5872
-82.7014
-78.2137
-74.8953
-69.5335
-71.4358
-75.4203
-72.9916
-70.1608
-69.6463
-69.7353
-69.1682
-69.7033
-69.956
-69.8304
-70.5101
-70.6391
-70.7103
-70.7591
-70.6998
-70.549
-70.4685
-70.67
-70.8083
-70.9152
-70.8587
-70.7564
-70.3508
-70.6832
-71.0422
-71.2922
-71.2728
-70.936
-70.0333
-70.6569
-71.2907
-71.7019
-71.5721
-70.7193
-70.0661
-71.3038
-72.1404
-72.685
-72.4101
-71.003
-70.5613
-72.8412
-74.6284
-74.0128
-73.1943
-71.1307
-73.3321
-78.2474
-76.5346
-79.5238
-76.2161
-72.2213
-78.6834
-79.9061
-85.2597
-71.9722
-73.6378
-72.683
-131.09
-77.1425
-82.2903
-172.914
-127.257
-68.6886
-199.311
-78.1392
-81.1666
-80.5744
-79.3053
-70.8777
-75.957
-73.3298
-82.0417
-71.7362
-70.023
-68.8941
)
;
    }
}


// ************************************************************************* //
