/*--------------------------------*- C++ -*----------------------------------*\
| =========                 |                                                 |
| \\      /  F ield         | OpenFOAM: The Open Source CFD Toolbox           |
|  \\    /   O peration     | Version:  v1612+                                |
|   \\  /    A nd           | Web:      www.OpenFOAM.com                      |
|    \\/     M anipulation  |                                                 |
\*---------------------------------------------------------------------------*/
FoamFile
{
    version     2.0;
    format      ascii;
    class       volScalarField;
    location    "9.45";
    object      p_rgh;
}
// * * * * * * * * * * * * * * * * * * * * * * * * * * * * * * * * * * * * * //

dimensions      [1 -1 -2 0 0 0 0];

internalField   nonuniform List<scalar> 
1116
(
9916.49
9934.55
9940.98
9904.78
9891.93
9935.79
10701.5
10717.8
10729.5
10717.6
10726
10736.1
12332.8
12341.3
12346.2
12338
12337.1
12350.1
13285.5
13282.5
13282
13285.2
13281.7
13278.1
13979.3
13974.6
13973.9
13980.5
13978.4
13973.5
14592.1
14588.7
14587.7
14594.6
14594.8
14597.9
15245
15241.5
15240
15240.7
15238
15232.8
15993.9
15994
15991.6
15987.8
15986.8
15987.4
16587.2
16570.5
16578.6
16571.3
16575.9
16580.8
17520.6
17516.5
17516.5
17514.6
17513.2
17516.1
17789.9
17809
17800.1
17794.1
17798.6
17804.9
17438.9
17386.4
17410.6
17424.3
17383.2
17409.5
4354.6
4417.95
4431.92
4372.06
4358.37
4441.06
5150.03
5178.84
5182.27
5177.41
5192.56
5176.14
6435.93
6400.23
6405.01
6457.84
6474.95
6377.96
8055.22
8010.9
7999.12
8044.36
8025.57
7952.85
9234.88
9193.99
9181.69
9240.47
9225.18
9166.31
10495.8
10457.1
10444.9
10507.2
10504.2
10470.7
11712.8
11681.4
11668.1
11702.9
11714
11681.3
13412
13394.3
13382.5
13372.5
13371.5
13367.2
16493
16477.9
16477
16457.6
16454.3
16470.4
17380.6
17384.8
17391.5
17383.9
17370.3
17404.9
16578.7
16740.4
16686.3
16649.3
16735.3
16616.5
15393.3
15373.1
15337.9
15384.6
15319.9
15376.4
3.46417
2.80823
2.54156
3.06661
3.3044
2.26403
0.310259
0.465625
0.569136
0.298912
0.265854
0.497975
-3.7422
-3.35656
-3.20772
-3.45332
-3.62416
-2.83936
-1.87264
-1.7966
-1.71708
-1.8087
-1.80014
-1.5934
5.66765
5.54464
5.53718
5.54646
5.50524
5.49847
23.5904
23.627
23.5267
23.5847
23.4922
23.4891
57.2648
57.7963
57.6911
57.3359
57.2546
57.6942
197.463
198.451
198.619
197.666
197.466
198.814
422.125
423.75
424.017
423.54
422.257
426.842
1649.91
1659.93
1670.65
1657.14
1636.39
1694.25
8181.32
7993.82
8147.17
7812.78
7441.43
8434.14
18511.5
18433.7
18395.5
18427.2
18371.6
18351.3
13.8309
12.0195
11.8433
13.3108
13.949
11.8242
12.0728
12.0659
12.0562
12.0545
12.2076
11.9934
12.7434
12.8103
12.7613
12.7757
12.7853
12.6823
12.1948
12.2003
12.1642
12.2043
12.288
12.0941
13.4866
13.5006
13.4513
13.4687
13.5606
13.3303
17.7872
17.7284
17.7143
17.7569
17.7109
17.6119
23.8968
24.4469
24.5518
24.0676
24.2509
23.9582
24.4234
24.7683
25.077
24.8674
25.2568
24.7297
-1.80819
-4.83174
-4.16711
-2.70772
-2.71327
-3.34428
47.407
35.2017
33.7557
34.0634
33.9431
30.984
346.892
269.788
263.111
262.843
260.19
253.604
19056
18445.7
18640.8
18682.2
18271.4
18713.6
1362.88
1366.32
1367.92
1269.47
1231.9
1211.39
1367.07
1374.38
1342.18
1271.32
1214.71
1149.39
1409.19
1399.59
1356.35
1331.76
1286.05
1249.25
1461.86
1425.84
1421.42
1407.05
1359.42
1373.62
1527.99
1475.71
1474.79
1421.91
1397.68
1468.95
1573.4
1517.14
1358.54
1557.43
1480.85
1583.39
1649.28
1575.35
1675.18
1658.27
1776.08
1795.13
1661.05
1642.33
1571.74
1212.38
1603.29
1838.17
1162.7
1352.76
1239.42
973.856
1108.66
1344.97
862.581
953.908
978.086
865.741
889.811
1087.84
740.483
710.674
783.93
817.616
773.215
858.339
667.728
632.452
673.652
704.491
710.829
700.456
584.358
872.738
950.536
449.404
317.844
286.203
584.224
915.226
919.076
503.098
357.44
212.436
772.583
894.988
833.463
823.5
605.541
341.378
1019.3
1078.72
1140.71
977.041
832.459
643.664
1486.31
1131.63
1059.35
980.162
759.577
978.112
1856.05
1256.03
851.3
1316.35
759.809
1212.85
1939.54
1715.68
1134.5
1534.3
1321.52
1620.08
1606.14
1843.84
1468.7
1191.34
1709.74
1880.95
912.258
1885.52
1427.62
654.091
1242.51
1702.17
667.763
1048.26
946.193
690.251
617.853
726.092
622.127
603.945
571.026
580.38
548.145
551.645
600.437
548.348
501.21
521.446
516.185
524.93
2.22845
0.986153
6.97029
0.121822
2.32557
3.57586
3.61557
1.85772
1.89725
2.92763
4.52906
4.5876
80.3876
3.72223
4.4131
4.08052
4.83899
5.2084
62.8223
9.03712
7.73146
6.60304
6.2034
5.93282
13.5561
142.843
73.8651
11.3731
9.92633
9.74896
14.784
214.306
137.189
15.9587
15.1021
17.0639
28.3025
179.996
396.139
264.565
25.8666
28.3002
124.498
481.985
1437.33
897.439
388.853
435.918
719.734
1733.61
1125.11
429.182
1035.07
1584.57
1224.19
1626.77
782.821
476.911
630.164
1430.85
709.797
552.773
424.637
501.359
528.333
537.819
447.063
439.22
424.052
502.761
603.544
470.537
2.08134
1.20707
0.316837
1.64685
3.00559
3.99406
2.91961
2.03111
0.98176
1.85489
3.56869
5.24607
2.18919
2.45821
2.66615
2.87341
3.25297
6.16568
0.82236
0.985585
2.28586
3.18408
2.56371
4.88597
-1.14176
-3.22395
1.73244
2.8868
1.33188
2.66614
-2.27125
-8.23894
2.25952
2.49506
0.184834
0.028438
-0.63569
-10.6844
1.47007
-0.0467123
-2.40681
-1.46062
5.5481
-7.62342
10.1107
245.123
3.98271
4.93302
67.1755
25.6889
515.925
478.641
480.841
202.282
384.308
543.69
505.457
326.2
402.434
858.887
603.657
495.85
253.232
371.411
427.507
539.004
504.765
351.316
349.029
625.358
650.441
520.229
5.2719
4.49628
4.29664
4.82733
4.93698
2.53594
9.85468
6.29704
4.99013
9.96325
9.47653
5.95079
1.26665
-5.06
-5.5217
-2.17851
0.973769
1.18885
0.383108
0.139427
0.0271265
0.260281
0.364644
0.289924
-1.24239
-1.31342
-1.34139
-1.35116
-1.31867
-1.21992
-7.89863
-7.53346
-7.5082
-7.79829
-8.24673
-8.28863
1.36232
1.37085
1.3582
1.37061
1.37356
1.36746
-0.343097
-0.353115
-0.356843
-0.343222
-0.363067
-0.376162
-6.6569
-6.65678
-6.65382
-6.66975
-6.70845
-6.72739
1.23369
1.23426
1.22807
1.23395
1.22685
1.2525
-1.32047
-1.33355
-1.34001
-1.34594
-1.36245
-1.36866
-8.02757
-8.02102
-8.02227
-8.04666
-8.0846
-8.08052
2.31984
2.32012
2.31102
2.30601
2.30426
2.30453
-1.72641
-1.73987
-1.7435
-1.74901
-1.75793
-1.77725
-9.15948
-9.17721
-9.16938
-9.1792
-9.19008
-9.19166
2.43918
2.45788
2.44187
2.43493
2.4123
2.41464
-3.52938
-3.50941
-3.5218
-3.55474
-3.57294
-3.55967
-11.1981
-11.2454
-11.2097
-11.2505
-11.2783
-11.3051
3.85381
4.19821
4.13347
3.99213
4.07095
3.99154
-6.48896
-6.42146
-6.37951
-6.64369
-6.50551
-6.66357
-13.8888
-14.2863
-13.974
-14.1644
-14.2083
-14.5696
-17.8967
-18.3401
-18.1533
-17.509
-18.0655
-18.4405
-31.0532
-29.6613
-30.735
-30.9144
-31.0419
-29.12
-17.7396
-19.1629
-18.1267
-18.4654
-19.0765
-20.0079
-51.0271
-52.78
-53.1868
-53.3674
-53.7365
-53.0995
-37.8477
-38.6904
-39.2912
-38.5267
-38.9438
-38.6195
-24.1159
-26.3133
-26.2725
-27.1611
-27.2436
-27.0891
-7.29387
-24.5762
-27.1057
-29.3475
-31.683
-32.7717
-21.7144
-31.0642
-31.1497
-31.6154
-35.0285
-35.2819
-21.531
-23.0914
-23.7159
-24.335
-25.2499
-23.19
176.049
75.5149
81.1408
81.1477
74.3118
72.9983
80.7962
-5.16219
5.2688
18.2373
5.92866
6.27004
-1.54989
-5.39657
-0.0254994
0.670283
2.54638
0.283988
8072.66
8846.3
8979.58
8755.69
8692.52
8813.9
-66.9105
-65.3206
-50.1976
-48.4907
-43.1149
-42.242
-6.5503
-0.350195
4.40292
6.08115
10.2362
8.73249
997.447
995.377
973.367
910.908
859.253
881.287
39.3709
14.166
11.6133
10.6655
10.8968
11.989
1.31133
0.810739
0.472397
2.3109
1.85475
0.953959
960.969
983.569
983.29
966.488
888.216
935.086
13.9187
13.5002
13.4972
11.4557
12.0788
12.5352
2.91634
2.88572
2.29215
2.52546
3.23964
3.36197
994.787
999.935
1005.02
980.461
977.03
998.098
56.0758
56.2781
56.3592
50.7786
47.7593
48.9756
2.24834
2.05438
1.96149
2.49324
3.04562
3.09728
873.311
866.229
872.61
856.062
861.459
875.992
569.868
522.705
516.075
596.016
600.166
486.84
11.7843
7.94624
6.90993
15.8012
16.1903
5.88989
2561.43
2264.75
2207.87
2490.33
2495.75
2162
1316.88
1270.95
1214.62
1348.74
1380.41
1185.27
0.966043
4.8736
4.34888
7.48499
8.45164
5.70187
7850
7691.53
7710.33
8075.01
8012.45
7556.54
720.058
1000.82
874.804
785.714
899.237
896.752
3.24972
3.40953
2.67741
3.29507
4.1468
3.91779
1.24729
1.11734
1.97238
2.60858
2.53332
2.4425
0.47102
0.565491
1.16331
0.776203
0.796191
0.815668
-0.404255
-0.438904
-0.183173
-0.326271
-0.406266
-0.411627
1.34072
1.1905
1.12781
1.39171
2.02597
2.3125
0.224376
0.171322
0.128871
0.263828
0.405526
0.604848
-0.962843
-1.03165
-0.925978
-0.941394
-0.990239
-0.936322
0.468483
1.30201
1.84767
1.82896
2.03725
1.99343
0.0735678
0.195984
0.31788
0.362379
0.461473
0.511659
-1.1532
-1.25161
-1.12139
-1.16956
-1.19105
-1.11696
-0.718975
0.775754
1.65874
2.28459
1.88777
2.0411
0.148961
0.253412
0.379493
0.468222
0.339458
0.374716
-1.31774
-1.54776
-1.47451
-1.48805
-1.49852
-1.29029
0.365253
0.564873
1.9853
3.44542
1.99688
3.02185
1.87077
1.70409
1.51692
1.50997
1.30498
1.92164
-1.25859
-1.69508
-1.76534
-1.65184
-1.46593
-0.900286
2.85184
0.76999
2.56218
4.18804
2.03626
3.88903
4.46413
3.96225
3.13045
2.62428
2.37555
3.71216
-1.12937
-1.97851
-2.40004
-2.29177
-2.02296
-1.33927
8.36863
3.44034
4.60777
5.36724
3.86628
5.28468
11.9429
9.95512
6.53331
5.26587
4.22351
4.6734
-1.22546
-2.13693
-3.1086
-2.82998
-2.58181
-2.04692
4.29852
0.0888375
4.41869
5.18636
16.6538
3.79549
8.13243
5.61765
3.30505
1.65091
0.494713
1.21567
-4.51978
-6.27963
-8.87621
-7.62252
-5.7548
-4.4672
204.724
101.182
256.485
398.116
286.246
146.377
54.9468
52.1401
87.9671
197.185
107.486
21.8373
-15.1647
-16.1568
-2.73414
-7.15692
-11.7978
-12.0579
419.616
177.551
242.56
257.158
250.999
636.033
401.61
17.7391
53.3237
216.357
207.226
128.175
31.6972
-16.8351
-10.712
61.1132
25.9741
-20.4013
372.387
301.851
114.638
181.12
243.48
406.791
361.241
57.8393
13.0246
48.0751
99.2034
174.989
96.4546
-13.706
-9.16803
-7.48222
-5.4896
-12.2082
697.087
529.904
437.639
534.704
581.697
461.281
236.848
275.332
258.462
219.926
194.703
155.21
-0.0691413
-5.37758
-0.237117
-6.13204
-4.52563
-4.2916
)
;

boundaryField
{
    seabed_topleft_surface
    {
        type            fixedFluxPressure;
        gradient        uniform 0;
        value           nonuniform List<scalar> 
72
(
9916.49
9934.55
9940.98
9904.78
9891.93
9935.79
10701.5
10717.8
10729.5
10717.6
10726
10736.1
12332.8
12341.3
12346.2
12338
12337.1
12350.1
13285.5
13282.5
13282
13285.2
13281.7
13278.1
13979.3
13974.6
13973.9
13980.5
13978.4
13973.5
14592.1
14588.7
14587.7
14594.6
14594.8
14597.9
15245
15241.5
15240
15240.7
15238
15232.8
15993.9
15994
15991.6
15987.8
15986.8
15987.4
16587.2
16570.5
16578.6
16571.3
16575.9
16580.8
17520.6
17516.5
17516.5
17514.6
17513.2
17516.1
17789.9
17809
17800.1
17794.1
17798.6
17804.9
17438.9
17386.4
17410.6
17424.3
17383.2
17409.5
)
;
    }
    seabed_topright_surface
    {
        type            fixedFluxPressure;
        gradient        uniform 0;
        value           nonuniform List<scalar> 
72
(
1362.88
1366.32
1367.92
1269.47
1231.9
1211.39
1367.07
1374.38
1342.18
1271.32
1214.71
1149.39
1409.19
1399.59
1356.35
1331.76
1286.05
1249.25
1461.86
1425.84
1421.42
1407.05
1359.42
1373.62
1527.99
1475.71
1474.79
1421.91
1397.68
1468.95
1573.4
1517.14
1358.54
1557.43
1480.85
1583.39
1649.28
1575.35
1675.18
1658.27
1776.08
1795.13
1661.05
1642.33
1571.74
1212.38
1603.29
1838.17
1162.7
1352.76
1239.42
973.856
1108.66
1344.97
862.581
953.908
978.086
865.741
889.811
1087.84
740.483
710.674
783.93
817.616
773.215
858.339
667.728
632.452
673.652
704.491
710.829
700.456
)
;
    }
    breakwater_top_surface
    {
        type            fixedFluxPressure;
        gradient        uniform 0;
        value           nonuniform List<scalar> 
36
(
997.447
995.377
973.367
910.908
859.253
881.287
960.969
983.569
983.29
966.488
888.216
935.086
994.787
999.935
1005.02
980.461
977.03
998.098
873.311
866.229
872.61
856.062
861.459
875.992
2561.43
2264.75
2207.87
2490.33
2495.75
2162
7850
7691.53
7710.33
8075.01
8012.45
7556.54
)
;
    }
    breakwater_left_surface
    {
        type            fixedFluxPressure;
        gradient        uniform 0;
        value           nonuniform List<scalar> 
24
(
17438.9
17386.4
17410.6
17424.3
17383.2
17409.5
15393.3
15373.1
15337.9
15384.6
15319.9
15376.4
18511.5
18433.7
18395.5
18427.2
18371.6
18351.3
19056
18445.7
18640.8
18682.2
18271.4
18713.6
)
;
    }
    breakwater_right_surface
    {
        type            fixedFluxPressure;
        gradient        uniform 0;
        value           nonuniform List<scalar> 
24
(
667.728
632.452
673.652
704.491
710.829
700.456
600.437
548.348
501.21
521.446
516.185
524.93
447.063
439.22
424.052
502.761
603.544
470.537
504.765
351.316
349.029
625.358
650.441
520.229
)
;
    }
    water_front_surface
    {
        type            fixedFluxPressure;
        gradient        uniform 0;
        value           nonuniform List<scalar> 
186
(
9916.49
10701.5
12332.8
13285.5
13979.3
14592.1
15245
15993.9
16587.2
17520.6
17789.9
17438.9
4354.6
5150.03
6435.93
8055.22
9234.88
10495.8
11712.8
13412
16493
17380.6
16578.7
15393.3
3.46417
0.310259
-3.7422
-1.87264
5.66765
23.5904
57.2648
197.463
422.125
1649.91
8181.32
18511.5
13.8309
12.0728
12.7434
12.1948
13.4866
17.7872
23.8968
24.4234
-1.80819
47.407
346.892
19056
1362.88
1367.07
1409.19
1461.86
1527.99
1573.4
1649.28
1661.05
1162.7
862.581
740.483
667.728
584.358
584.224
772.583
1019.3
1486.31
1856.05
1939.54
1606.14
912.258
667.763
622.127
600.437
2.22845
3.61557
80.3876
62.8223
13.5561
14.784
28.3025
124.498
719.734
1224.19
709.797
447.063
2.08134
2.91961
2.18919
0.82236
-1.14176
-2.27125
-0.63569
5.5481
67.1755
384.308
603.657
504.765
5.2719
9.85468
1.26665
0.383108
-1.24239
-7.89863
1.36232
-0.343097
-6.6569
1.23369
-1.32047
-8.02757
2.31984
-1.72641
-9.15948
2.43918
-3.52938
-11.1981
3.85381
-6.48896
-13.8888
-17.8967
-31.0532
-17.7396
-51.0271
-37.8477
-24.1159
-7.29387
-21.7144
-21.531
176.049
80.7962
-1.54989
8072.66
-66.9105
-6.5503
997.447
39.3709
1.31133
960.969
13.9187
2.91634
994.787
56.0758
2.24834
873.311
569.868
11.7843
2561.43
1316.88
0.966043
7850
720.058
3.24972
1.24729
0.47102
-0.404255
1.34072
0.224376
-0.962843
0.468483
0.0735678
-1.1532
-0.718975
0.148961
-1.31774
0.365253
1.87077
-1.25859
2.85184
4.46413
-1.12937
8.36863
11.9429
-1.22546
4.29852
8.13243
-4.51978
204.724
54.9468
-15.1647
419.616
401.61
31.6972
372.387
361.241
96.4546
697.087
236.848
-0.0691413
)
;
    }
    water_back_surface
    {
        type            fixedFluxPressure;
        gradient        uniform 0;
        value           nonuniform List<scalar> 
186
(
9935.79
10736.1
12350.1
13278.1
13973.5
14597.9
15232.8
15987.4
16580.8
17516.1
17804.9
17409.5
4441.06
5176.14
6377.96
7952.85
9166.31
10470.7
11681.3
13367.2
16470.4
17404.9
16616.5
15376.4
2.26403
0.497975
-2.83936
-1.5934
5.49847
23.4891
57.6942
198.814
426.842
1694.25
8434.14
18351.3
11.8242
11.9934
12.6823
12.0941
13.3303
17.6119
23.9582
24.7297
-3.34428
30.984
253.604
18713.6
1211.39
1149.39
1249.25
1373.62
1468.95
1583.39
1795.13
1838.17
1344.97
1087.84
858.339
700.456
286.203
212.436
341.378
643.664
978.112
1212.85
1620.08
1880.95
1702.17
726.092
551.645
524.93
3.57586
4.5876
5.2084
5.93282
9.74896
17.0639
28.3002
435.918
1584.57
1430.85
537.819
470.537
3.99406
5.24607
6.16568
4.88597
2.66614
0.028438
-1.46062
4.93302
202.282
858.887
539.004
520.229
2.53594
5.95079
1.18885
0.289924
-1.21992
-8.28863
1.36746
-0.376162
-6.72739
1.2525
-1.36866
-8.08052
2.30453
-1.77725
-9.19166
2.41464
-3.55967
-11.3051
3.99154
-6.66357
-14.5696
-18.4405
-29.12
-20.0079
-53.0995
-38.6195
-27.0891
-32.7717
-35.2819
-23.19
72.9983
6.27004
0.283988
8813.9
-42.242
8.73249
881.287
11.989
0.953959
935.086
12.5352
3.36197
998.098
48.9756
3.09728
875.992
486.84
5.88989
2162
1185.27
5.70187
7556.54
896.752
3.91779
2.4425
0.815668
-0.411627
2.3125
0.604848
-0.936322
1.99343
0.511659
-1.11696
2.0411
0.374716
-1.29029
3.02185
1.92164
-0.900286
3.88903
3.71216
-1.33927
5.28468
4.6734
-2.04692
3.79549
1.21567
-4.4672
146.377
21.8373
-12.0579
636.033
128.175
-20.4013
406.791
174.989
-12.2082
461.281
155.21
-4.2916
)
;
    }
    water_left_surface
    {
        type            fixedFluxPressure;
        gradient        uniform 0;
        value           nonuniform List<scalar> 
42
(
9916.49
9934.55
9940.98
9904.78
9891.93
9935.79
4354.6
4417.95
4431.92
4372.06
4358.37
4441.06
3.46417
2.80823
2.54156
3.06661
3.3044
2.26403
13.8309
12.0195
11.8433
13.3108
13.949
11.8242
5.2719
4.49628
4.29664
4.82733
4.93698
2.53594
9.85468
6.29704
4.99013
9.96325
9.47653
5.95079
1.26665
-5.06
-5.5217
-2.17851
0.973769
1.18885
)
;
    }
    water_right_surface
    {
        type            fixedFluxPressure;
        gradient        uniform 0;
        value           nonuniform List<scalar> 
42
(
1362.88
1366.32
1367.92
1269.47
1231.9
1211.39
584.358
872.738
950.536
449.404
317.844
286.203
2.22845
0.986153
6.97029
0.121822
2.32557
3.57586
2.08134
1.20707
0.316837
1.64685
3.00559
3.99406
1.24729
1.11734
1.97238
2.60858
2.53332
2.4425
0.47102
0.565491
1.16331
0.776203
0.796191
0.815668
-0.404255
-0.438904
-0.183173
-0.326271
-0.406266
-0.411627
)
;
    }
    water_top_surface
    {
        type            totalPressure;
        rho             rho;
        psi             none;
        gamma           1;
        p0              uniform 0;
        value           nonuniform List<scalar> 
180
(
0
-2.16413
-2.4333
-1.03252
0
0
-9.40207
-9.0296
-8.93476
-9.24013
-9.63246
-9.61074
-7.45327
-7.46732
-7.47953
-7.47809
-7.49313
-7.53261
-9.86503
-9.87908
-9.88725
-9.88617
-9.94721
-9.91668
-11.8206
-11.8539
-11.8538
-11.8495
-11.8736
-11.8716
-15.0477
-15.046
-15.0415
-15.0721
-15.0863
-15.036
-18.8498
-19.5196
-19.4706
-19.4209
-19.2539
-19.357
-18.3659
-27.0925
-22.3777
-19.7453
-20.942
-27.4002
-0.809523
-12.7193
-2.82738
-1.01693
-3.70983
-14.0792
0
0
0
0
0
0
0
0
0
0
0
0
0
0
0
0
0
0
0
0
0
0
0
0
0
0
0
0
0
0
0
0
0
0
0
0
0
0
0
0
0
0
0
0
0
0
0
0
-6.22529
-0.863485
-2.7658
-6.75034
-4.32163
-1.49078
-0.97631
-1.06531
-0.498215
-1.03334
-1.28603
-1.16041
-1.84005
-1.96907
-2.04031
-2.0891
-2.0298
-1.87897
-1.79851
-1.99997
-2.13833
-2.24522
-2.18869
-2.08637
-1.68083
-2.0132
-2.37223
-2.62222
-2.6028
-2.26605
-1.36326
-1.98686
-2.62065
-3.03189
-2.90207
-2.04926
-1.39609
-2.63385
-3.47039
-4.01496
-3.74009
-2.33297
-1.89133
-4.17119
-5.95842
-5.34281
-4.52433
-2.46074
-4.6621
-9.57738
-7.86461
-10.8538
-7.54606
-3.55128
-10.0134
-11.2361
0
-3.30216
-4.96778
-4.01299
0
0
0
0
0
-0.018561
0
0
0
0
0
0
0
0
0
0
0
0
)
;
    }
}


// ************************************************************************* //
