/*--------------------------------*- C++ -*----------------------------------*\
| =========                 |                                                 |
| \\      /  F ield         | OpenFOAM: The Open Source CFD Toolbox           |
|  \\    /   O peration     | Version:  v1612+                                |
|   \\  /    A nd           | Web:      www.OpenFOAM.com                      |
|    \\/     M anipulation  |                                                 |
\*---------------------------------------------------------------------------*/
FoamFile
{
    version     2.0;
    format      ascii;
    class       surfaceScalarField;
    location    "9.45";
    object      phi;
}
// * * * * * * * * * * * * * * * * * * * * * * * * * * * * * * * * * * * * * //

dimensions      [0 3 -1 0 0 0 0];

internalField   nonuniform List<scalar> 
2916
(
-0.0083702
-0.0993604
0.107731
0.00350735
-0.121517
0.109639
0.0268869
-0.127484
0.104105
0.0119435
-0.0856632
0.100607
-0.0279207
-0.0650931
0.104957
-0.125349
0.0974281
0.00150586
-0.220148
0.119282
0.00171591
-0.234885
0.113158
-0.00184886
-0.238864
0.114945
-0.000474998
-0.217313
0.130276
-0.00818354
-0.205321
0.147936
-0.245083
0.11155
-5.75085e-05
-0.218068
-0.00202291
-0.00106766
-0.225372
-0.0085031
-0.00617123
-0.226896
-0.00686423
-0.00454446
-0.219691
0.000751336
-0.00273992
-0.215147
0.00802232
-0.238223
-0.00959955
-0.00248606
-0.163281
-0.0523005
-0.00215341
-0.16911
-0.0565943
-0.00347713
-0.169895
-0.0556774
-0.00432639
-0.165372
-0.0534698
-0.00410674
-0.162967
-0.0523998
-0.182155
-0.0601751
-0.0016247
-0.0865687
-0.075088
-0.00149477
-0.0926014
-0.0766384
-0.00180345
-0.0932236
-0.0763631
-0.00273345
-0.0873399
-0.0771018
-0.00380842
-0.0839675
-0.0779246
-0.103227
-0.0827361
-0.000476402
0.012747
-0.0988392
-0.000361622
0.00634939
-0.0990655
-3.21868e-05
0.00565368
-0.0992067
-0.000832929
0.0128779
-0.0994171
-0.00329879
0.0182455
-0.0997471
-0.0022424
-0.104284
0.00162604
0.0994518
-0.0883309
0.000502754
0.095891
-0.0884183
0.000596857
0.0942836
-0.088724
0.000215412
0.100999
-0.08774
-0.000996516
0.106917
-0.0874594
0.087763
-0.0910019
0.00310706
0.185787
-0.089442
0.000601641
0.186769
-0.0883728
-0.000815257
0.184938
-0.0892376
-8.7573e-05
0.187301
-0.0870294
0.00135564
0.188338
-0.0828645
0.180422
-0.091303
-0.000717055
0.229497
-0.042993
0.000156215
0.227047
-0.0411506
0.000195635
0.227136
-0.0422376
-0.00225746
0.230175
-0.0404211
-0.00322039
0.227992
-0.0386913
0.223686
-0.0464849
-0.00782656
0.117503
0.11982
-0.00015773
0.0985874
0.12079
0.00325741
0.100637
0.123085
-0.000937785
0.119173
0.115197
-0.00594528
0.123494
0.109506
0.0930568
0.124684
-0.0115697
-0.161116
0.29019
-0.000488512
-0.185779
0.273286
0.00295205
-0.180937
0.278133
-0.000257899
-0.157664
0.280047
0.000851211
-0.150284
0.272669
-0.187559
0.281468
0.0217498
-0.182866
0.000339957
-0.164369
-0.00522058
-0.175376
0.0138142
-0.176699
0.0169298
-0.153399
-0.17063
0.00808285
-0.038969
0.138617
-0.0385051
0.00596366
0.150263
-0.0939007
0.00819308
0.151307
-0.0450809
-0.0834043
0.135191
0.0500698
-0.113502
0.123309
-0.00234544
0.149843
-0.00606938
0.0116262
0.0747563
0.00928927
0.0411381
0.0626251
0.0362225
0.0376704
0.0585341
0.0116753
0.00638798
0.0650306
-0.0171103
0.00736007
0.0558591
0.0345001
0.0575947
-0.0120627
0.086596
-0.0649299
0.0102604
0.109724
-0.0994125
0.0503951
0.101655
-0.110984
0.0240112
0.0925452
-0.0590219
-0.0202584
0.102797
-0.0431449
0.111322
-0.10668
-0.0102568
0.30401
-0.259458
0.00419897
0.32041
-0.281735
0.0262556
0.31649
-0.292569
0.0142866
0.312744
-0.2617
-0.00927491
0.322262
-0.248303
0.335115
-0.293242
-0.0039573
0.608415
-0.375536
-0.000162558
0.619785
-0.379809
0.00269555
0.620362
-0.383093
0.00165361
0.614233
-0.377548
0.00337324
0.618643
-0.376025
0.641214
-0.385462
-0.00162174
0.900882
-0.389684
-0.000793236
0.907789
-0.387898
-0.0040298
0.910609
-0.386217
-0.00223047
0.902672
-0.389656
0.00499112
0.90122
-0.389546
0.927395
-0.385473
-0.00174456
1.12074
-0.306443
-0.000474069
1.12554
-0.307436
-0.00181832
1.1285
-0.305269
-0.00206549
1.12032
-0.305141
0.00394188
1.11425
-0.306496
1.13992
-0.299585
0.00223131
1.15087
-0.1218
0.000269302
1.15766
-0.118535
-0.000118213
1.15762
-0.117975
0.000743343
1.15165
-0.119222
0.00394886
1.14707
-0.118894
1.16396
-0.111398
0.00438886
1.00998
0.0935
0.000193113
1.02169
0.0990197
0.000842547
1.01652
0.098218
0.000962231
1.01718
0.0939266
-0.00155749
1.02092
0.0899775
1.01525
0.100666
-0.00218979
0.680458
0.451536
0.000114012
0.698283
0.44189
0.00710314
0.686273
0.44634
-0.000549666
0.699482
0.440552
-0.0173449
0.713728
0.433497
0.670905
0.451689
-0.0124951
0.205566
0.777576
-0.000837886
0.200076
0.759835
0.0071292
0.196195
0.760244
-0.00605547
0.227469
0.765245
-0.0314835
0.234221
0.777604
0.17858
0.742309
0.0140576
0.00864212
-0.00387529
0.0536393
-0.0160779
0.0330209
0.0116006
0.0230912
0.0306286
0.0617936
0.0385785
0.0479513
0.959342
-0.868677
0.0564255
0.994293
-0.852502
-0.0436441
1.05359
-0.802207
-0.0248878
0.967385
-0.85095
0.13962
0.905113
-0.946311
1.06176
-0.772298
0.00427187
2.55327
-1.52344
0.0185708
2.57165
-1.52902
0.00272393
2.61898
-1.49101
0.00475413
2.56507
-1.53468
0.0927572
2.52934
-1.65637
2.62871
-1.41659
-0.0483196
4.30091
-1.76425
-0.00337448
4.27976
-1.85247
0.0309817
4.31483
-1.84119
0.0219359
4.30562
-1.79052
0.0379747
4.26993
-1.79977
4.36518
-1.80518
-0.0357947
6.16001
-2.08276
-0.0105019
6.11024
-2.1375
0.0208422
6.12951
-2.13859
0.0136478
6.14732
-2.0962
0.0390464
6.10402
-2.1078
6.20328
-2.0923
-0.0124499
8.10285
-2.30593
-0.0025681
8.05427
-2.33372
0.00831368
8.06927
-2.33373
0.0176035
8.08017
-2.3197
0.053385
8.02981
-2.3376
8.16311
-2.29191
-0.000816299
10.0338
-2.31981
0.00858132
9.9673
-2.31032
0.00116505
9.99142
-2.30096
0.0231502
10
-2.3315
0.0567518
9.94152
-2.33487
10.1094
-2.27503
-0.0375544
12.0069
-2.24201
0.00845631
11.9286
-2.31474
0.0236514
11.9535
-2.28258
0.0212301
11.9578
-2.26051
0.0341951
11.9091
-2.28701
12.065
-2.22099
-0.107836
10.7814
1.21153
-0.00166142
10.7086
0.995283
0.103602
10.7358
0.994548
0.0256517
10.7519
1.16469
-0.0617287
10.7937
1.08388
10.7406
1.15133
-0.0366735
5.67213
5.23946
-0.0124926
5.59525
5.18818
0.0403943
5.58567
5.19541
0.010588
5.62009
5.2555
-0.0822085
5.69072
5.28572
5.54729
5.21172
0.00608962
2.31733
3.80026
-0.00519432
2.24724
3.80118
0.00533299
2.22058
3.80091
-0.00229774
2.25804
3.81023
-0.0240232
2.31071
3.83524
2.16772
3.80724
-0.0899963
0.598571
2.58633
-0.0382506
0.577801
2.37753
0.00185058
0.568092
2.37263
-0.0203043
0.60027
2.44517
-0.0623406
0.627222
2.50312
0.524264
2.32343
0.0114387
0.595775
-0.00547872
0.648357
-0.0225134
0.618147
0.00384512
0.597002
0.0549543
0.637907
0.617797
0.0780985
-0.383788
-0.562986
0.0650898
-0.436545
-0.402948
-0.0325628
-0.4217
-0.282854
-0.0224243
-0.391446
-0.469642
0.0663217
-0.391584
-0.643473
-0.471629
-0.234347
0.0212578
-0.133336
-1.79515
-0.00254276
-0.145505
-1.79626
0.00880031
-0.176022
-1.74803
0.00766382
-0.13698
-1.78801
-0.0143286
-0.120935
-1.90503
-0.229018
-1.67353
0.0257086
-0.16263
-1.76066
0.0265115
-0.17434
-1.82443
-0.0107752
-0.174672
-1.80525
0.0252853
-0.168807
-1.79475
0.0801269
-0.172746
-1.8028
-0.161163
-1.79291
0.0116562
-0.237181
-2.01986
-0.00708762
-0.250519
-2.04258
-0.0329293
-0.254249
-2.03317
-0.0208098
-0.24434
-2.03279
0.00296639
-0.246016
-2.0583
-0.243856
-2.00664
-0.00250009
-0.18675
-2.35386
-0.00911261
-0.212933
-2.3647
-0.0317935
-0.204795
-2.36051
-0.0264597
-0.208613
-2.36076
-0.00173319
-0.2278
-2.38054
-0.198653
-2.33885
0.00671338
0.159997
-2.67328
-0.00449771
0.151674
-2.66372
-0.0295422
0.172308
-2.65302
-0.00924922
0.123112
-2.68352
0.000561952
0.115675
-2.68815
0.164116
-2.63723
-0.10045
1.93416
-3.91572
-0.0147473
1.75728
-4.00605
0.0410069
1.79202
-3.95805
-0.0127828
1.86103
-3.94463
-0.00795605
1.7804
-3.95656
1.86817
-3.933
-0.196982
5.63814
-2.29547
-0.0434795
5.36316
-2.76409
0.0977087
5.39101
-2.74563
-0.00810586
5.57265
-2.44111
-0.0422853
5.4889
-2.59045
5.49646
-2.51925
0.00706868
6.11608
4.75445
-0.0226185
6.12825
4.45278
0.0116595
6.11903
4.43311
-0.00336234
6.24514
4.59802
-0.0406855
6.25712
4.55483
6.17654
4.49095
0.283548
3.50141
6.13138
0.0505653
3.80757
6.35485
-0.000991878
3.78903
6.18247
0.00272126
3.83975
6.21191
0.0371105
3.82139
6.23658
3.81586
6.20503
0.366012
0.810204
4.91152
0.0527019
1.0466
5.4518
0.00166203
0.962973
5.24972
-0.0128192
1.00426
5.29514
-0.00331425
1.03142
5.28359
0.931894
5.20407
0.0209921
1.38499
0.00356768
1.71239
-0.00525809
1.58995
0.00239622
1.59361
0.0190965
1.65262
1.56879
0.0724694
0.312738
-0.385207
0.00544089
0.341118
-0.274089
-0.0921176
0.334861
-0.237302
-0.309056
0.341457
-0.124519
-0.25775
0.252559
-0.303865
0.240285
-0.498035
0.115341
0.598129
-0.400732
0.0427726
0.595073
-0.181387
0.0673522
0.517245
-0.206964
-0.0054107
0.405261
0.00895837
-0.119596
0.442511
-0.0757663
0.453862
-0.333173
0.122409
0.755889
-0.280169
0.0216093
0.903432
-0.207559
0.184292
0.5949
-0.240338
0.228931
0.340858
0.019765
-0.0853817
0.677991
0.078832
0.591
-0.22252
0.309223
0.776454
-0.329788
0.232968
1.06163
-0.0819467
0.254805
0.451246
0.121816
0.0811176
0.391975
0.122571
-0.226907
0.935603
0.050412
0.695535
-0.331442
0.494309
0.80596
-0.523815
0.491272
0.94171
0.12296
0.0821277
0.132463
0.727928
-0.240753
0.428049
0.286807
-0.392686
1.10918
-0.0216476
0.863508
-0.560659
0.497188
0.918267
-0.609495
0.459422
0.771893
0.207584
-0.256873
-0.0681323
0.916891
-0.448031
0.536852
0.0823541
-0.480215
1.33972
-0.198357
1.07557
-0.692273
0.581442
1.08975
-0.752929
0.727445
0.730138
-0.104248
0.553316
-0.0593834
0.16538
-0.331436
1.34224
0.0793674
-0.546747
2.04562
-0.490589
1.32326
-0.794438
0.391938
1.4013
-0.703484
0.742453
0.866983
-0.487359
0.577544
0.177826
-0.0723006
-1.19773
2.32582
0.791691
-1.17258
2.43224
-0.411757
1.04401
-0.893333
-0.696318
1.89
0.207617
-0.00747181
0.927018
-0.748881
0.381737
0.152617
-0.363999
-1.53381
2.17769
2.06367
-1.40001
1.91939
0.379044
0.257758
-0.613761
-1.37424
1.5329
1.73134
-1.55024
1.37451
-0.271486
-0.898167
-0.242425
-0.257033
-0.729231
0.563331
1.44543
-0.557362
0.357852
1.38967
-0.202337
-0.0972663
-0.183817
0.459917
1.2568
-1.42295
1.10166
1.51199
-1.66259
-0.309837
0.307051
-0.684576
-0.551528
0.136845
0.134186
-0.559494
0.0985844
-0.144883
0.0767325
0.432835
0.0270815
-0.209941
1.74443
-0.835232
0.315454
-0.512135
-0.874625
0.00291912
-1.07455
-0.141964
-0.0628978
0.196371
-0.51868
-0.218126
0.158915
-0.277777
-0.573954
0.0687216
0.0498047
-0.491427
0.193213
-0.400259
-0.0776843
0.212113
-0.929721
0.233346
-0.809065
-0.391725
0.43929
-0.251926
-0.545993
0.396939
-0.265143
-0.760843
0.200614
-0.124008
-0.231936
0.305234
-0.63197
0.499485
0.429556
-1.02463
0.450993
-0.0513346
-0.422307
0.611085
-0.0296573
-0.43466
0.567063
-0.36533
-0.557056
0.307428
-0.224756
-0.101124
0.373747
-0.504681
0.670687
0.616542
-0.879966
0.624898
0.274262
-0.442071
0.787519
-0.0641514
-0.41496
0.803867
-0.345862
0.014871
0.572326
-0.572912
0.247506
0.514182
-0.2505
0.497217
0.698135
-0.280892
0.651205
0.139467
-0.23248
1.07102
-0.574831
-0.238803
0.916817
0.0163331
0.0259263
0.623956
0.411569
0.447735
0.827158
-0.447977
0.431443
0.798558
-0.105778
0.671611
-0.149622
-0.312758
1.43274
-0.65846
-0.378484
1.16301
0.0271199
-0.436702
0.952518
0.646546
0.334993
1.35161
-1.2138
0.501243
1.16728
-0.733335
0.97009
-0.489509
-0.491134
1.7628
-0.591859
-0.588771
1.75193
-0.595532
-0.890477
1.37501
0.0445967
-0.177222
1.88499
-1.16727
0.400132
1.91539
-1.81605
1.61212
-1.03634
-0.204371
1.58581
-0.322119
-0.412135
2.40107
-0.928741
-1.04188
1.83756
0.0948945
-0.801345
2.39284
0.0433151
-0.1918
2.43003
-1.53594
2.19718
-1.67019
0.499032
1.54147
-0.247074
0.558588
2.56851
-0.975875
-0.389298
1.90471
0.516733
-0.985989
2.46576
2.58744
-0.540354
2.13797
0.225466
2.39522
-1.35216
0.95389
1.83112
0.487797
1.29837
2.3226
-0.370054
0.669203
1.3982
0.878647
-0.155587
1.89689
2.83908
-0.0433676
1.3069
2.10852
2.648
-0.393416
1.00807
1.15885
0.921001
1.44386
1.33811
2.06068
-0.17122
0.43252
2.88781
-0.436677
0.707709
1.59149
0.146344
-0.0197615
0.842223
1.88812
0.982958
0.572765
0.61317
1.19952
2.45578
-0.306407
2.25391
-0.48466
0.0113394
-0.838445
-0.740522
0.907712
0.407773
-0.0219266
-0.904526
0.555654
0.13783
-0.563487
-0.302866
-0.0295873
0.937913
-0.708226
-0.13241
0.137511
-0.337571
-0.115863
-1.18451
0.0228674
-1.1695
-0.0574256
0.397829
-0.614256
-0.240791
0.751035
-0.694984
-0.303831
0.169937
-0.260493
-0.271114
0.232801
-1.0299
-0.185781
0.327538
-1.55337
0.486227
-0.700476
0.157813
0.848976
-0.638618
0.351187
0.722775
-0.530444
0.30098
0.243449
-0.248063
0.234089
0.682603
-0.887594
0.155678
0.89958
-1.3736
1.21092
-0.294752
-0.347278
1.16575
-0.0336438
-0.132262
0.460504
-0.298609
0.316813
0.321806
-1.10034
0.45985
1.06254
-0.773471
0.370415
1.35943
-0.65131
1.18727
0.533532
-1.4373
1.40227
0.625943
-0.945328
0.618421
-0.633558
0.503582
0.383038
-1.09857
0.942579
1.1629
-0.987336
0.847963
1.60076
-0.252491
0.657997
1.22761
-1.92812
1.48058
1.19135
-1.27947
1.242
-1.24511
0.648355
0.767778
-1.66602
1.45655
1.04724
-1.90634
1.55405
1.64237
-0.872455
0.560179
1.16236
-2.01411
1.06921
1.83362
-1.6298
1.73894
-1.47679
0.186314
1.60013
-2.60386
1.87759
1.76065
-3.57195
1.76947
1.81809
-1.88363
0.98036
0.312946
-2.74849
1.21648
2.27911
-2.11867
2.34778
-2.1674
-0.382829
2.3882
-2.42901
0.784348
2.07795
-1.44116
1.0052
2.22519
-2.16389
2.27105
-1.95568
-1.48111
1.98726
0.463261
-1.32527
2.7273
-1.51123
-1.37418
2.10446
0.849378
-0.293781
1.34729
2.2377
0.157737
1.67825
0.320883
2.6192
-1.54257
0.268652
2.39156
-0.185152
0.164087
2.29422
0.167592
-0.308174
0.861265
2.59411
-0.5673
-0.418111
4.86361
-0.0613745
-0.17345
3.4543
2.5533
-0.388897
1.21939
1.94073
0.15243
1.44026
1.63205
2.50198
-0.733573
-0.148381
6.07129
-0.843634
-1.04678
2.33022
-0.260147
-1.27066
1.35595
1.17703
2.09909
1.37011
1.1838
2.39245
3.0655
1.54541
2.95256
0.345584
0.164383
-1.03784
-0.627761
1.0469
-0.214881
0.0319687
-0.721615
0.103203
0.047622
-0.929195
0.607667
-0.138557
0.572004
0.74141
-0.141495
0.145263
0.397671
0.021698
-0.862472
0.00366553
-0.775499
-0.143813
0.548473
-0.986947
0.250079
0.322655
-1.36391
0.465759
0.384617
-0.999346
0.195115
0.293139
-1.19389
-0.154081
0.199424
-1.3819
0.228298
-1.07919
-0.43372
1.29628
-0.952701
-0.254676
0.950247
-1.33708
0.0686062
0.837858
-1.02459
0.185653
0.57096
-1.28246
-0.0913505
0.541278
-1.43845
0.904214
-1.06202
-0.261038
1.74238
-0.218716
-0.450618
1.88857
-1.04735
-0.365327
1.18107
-1.52885
-0.12564
1.01223
-1.45443
-0.183403
1.30597
-1.35825
1.27443
-0.0200883
-0.0435471
1.59047
0.821401
-0.548713
2.76061
-1.00043
-0.211737
1.68125
-1.93573
-0.0571215
1.47468
-1.6044
0.0740558
1.97101
-1.04871
1.27598
1.30012
0.0711816
1.01902
1.69162
-0.0719912
2.81489
-1.15622
0.288847
1.96221
-2.30782
0.506559
1.49355
-2.14292
0.701587
2.15724
-1.25371
1.78585
1.35407
0.442888
0.0478775
2.36188
0.666348
2.10669
-0.992049
1.11019
1.8089
-2.8944
0.876396
1.51293
-3.35753
0.816775
2.08696
-1.75374
2.27647
0.639105
0.0536136
-0.248855
2.52222
-0.293785
1.92848
-1.6418
0.180311
2.10627
-3.20047
1.14749
1.98842
-2.88384
1.02432
1.8044
-1.75816
1.95397
-0.608857
-1.03716
0.81203
0.439536
-2.28029
2.52701
-0.866634
-1.31593
2.09823
-0.106947
0.418786
0.859446
1.63195
0.968935
1.2134
0.36173
2.13675
-0.756422
-1.25937
1.85805
0.0281988
-2.12645
2.07679
1.48489
-1.50235
0.142457
3.92579
-0.284563
-1.2891
5.79437
0.518311
-0.557142
4.42197
2.05115
0.215015
0.394307
1.18985
0.426317
0.905561
0.551961
3.51555
0.801779
-1.32582
7.64335
-0.106933
-1.8342
3.78403
-0.783609
-1.55822
3.0337
0.641117
2.72552
1.72345
0.650206
3.04973
2.29118
2.93025
1.74622
1.10548
0.154952
-0.729005
-0.351491
0.959013
0.038078
-0.500737
-0.100327
0.0584126
-0.314266
-0.109017
-0.0109032
-0.12135
-0.09219
0.049452
-0.402437
-0.127561
0.122718
-0.567048
-0.149691
0.0501775
-0.161809
-0.444095
-0.0241983
-0.0324447
-0.0904242
-0.740726
0.0727874
0.387903
-0.726324
0.126645
0.546735
-0.572184
0.0109136
0.115447
-0.0757426
-0.0600197
0.17789
-0.0122669
-0.448074
-0.113909
-0.0620677
0.0400242
0.372811
0.0709059
0.639984
-0.0160818
0.267585
-0.136112
-0.138647
0.0291678
-2.23261
0.30797
-0.00291321
-2.20751
0.334311
0.0039462
-2.17701
0.329929
0.00277663
-2.22216
0.307751
-0.0476044
-2.29445
0.290116
-2.1647
0.28176
-0.0421903
-2.30694
0.0840739
-0.00634353
-2.27451
0.103939
0.0903791
-2.25539
0.108297
0.0793015
-2.29377
0.0936009
-0.0172504
-2.33032
0.0723959
-2.28378
0.0895614
-0.0685579
0.00475185
-0.00973263
0.0157207
0.0857138
0.0171413
0.102413
0.0099785
0.027847
-0.00498988
-0.00971572
0.015111
-1.98433
0.516525
0.0133785
-2.01416
0.525772
0.0247506
-2.01156
0.524866
0.0206541
-2.00071
0.517802
-0.00314066
-1.99908
0.510193
-2.01256
0.498272
0.0070951
-2.05937
0.152018
0.00669219
-2.06671
0.156893
0.00887767
-2.06678
0.161338
0.0152942
-2.06534
0.151816
0.012063
-2.06522
0.141772
-2.06634
0.155401
0.000360955
0.0472741
0.000389712
0.0530983
0.0025212
0.0539694
0.00447651
0.0483971
0.00120659
0.0410485
0.0385909
0.00505366
-2.26579
0.757401
0.00610305
-2.27515
0.757288
0.0164402
-2.27426
0.755616
0.00954619
-2.2664
0.758308
-0.0236265
-2.27617
0.761229
-2.26528
0.73328
0.00188085
-2.393
0.277347
0.00161409
-2.39502
0.277032
0.00622937
-2.39485
0.277315
0.0100129
-2.3945
0.276134
0.00329842
-2.4017
0.274015
-2.38774
0.281158
-0.00219043
0.0691879
9.44897e-05
0.0700798
0.0047536
0.069699
0.00473835
0.0691963
-0.00173349
0.0684783
0.068181
0.00466697
-2.53654
0.935414
0.00485179
-2.54369
0.936097
0.00835365
-2.54356
0.935163
0.00309094
-2.53579
0.938596
-0.01402
-2.54134
0.93914
-2.53839
0.918797
0.00539105
-2.62782
0.363229
0.00176705
-2.63193
0.368884
0.000405095
-2.63165
0.366768
0.00285847
-2.63046
0.368347
0.00331922
-2.63392
0.366131
-2.62747
0.373564
0.00148958
0.07796
-0.000305955
0.0816538
0.000342724
0.0790355
0.000556415
0.079756
-0.000920786
0.0798947
0.0833989
0.0044429
-2.91471
1.1724
0.00756807
-2.90449
1.17374
0.00428504
-2.90328
1.1887
0.00142064
-2.90915
1.16709
-0.00592277
-2.91466
1.17299
-2.89128
1.16692
0.00314074
-3.00856
0.453933
0.00326388
-3.00102
0.465281
0.00419061
-3.0039
0.466456
0.00175052
-3.00609
0.467727
-0.00477772
-3.00983
0.467828
-2.99081
0.468313
0.0037884
0.0361931
-0.00119414
0.0563929
0.00334296
0.0406709
0.00516788
0.0449956
0.00416233
0.0457228
0.0669028
-0.00252989
-3.66739
0.926594
0.0204489
-3.72664
0.871346
0.00326773
-3.71165
0.95949
-0.0134112
-3.69579
0.934929
0.00654322
-3.69396
0.890435
-3.68577
0.92624
0.0306405
-3.48545
0.241358
0.00470245
-3.53504
0.299621
-0.00420628
-3.5448
0.308514
0.00684717
-3.53448
0.29536
0.0477334
-3.51323
0.246212
-3.50566
0.335935
0.0433524
-0.173762
-0.016643
-0.0414032
-0.00230432
-0.147327
0.0271976
-0.15122
0.062958
-0.14864
-0.0104922
-0.105316
-4.08115
2.81759
0.0184255
-4.64885
2.63236
-0.00400754
-4.51377
2.75007
-0.106011
-4.26234
2.85816
-0.192964
-4.40757
2.79451
-4.50813
2.72216
-0.218105
-3.80483
0.183151
0.0981725
-4.42756
-0.237945
0.0454012
-4.16502
0.0125371
-0.161216
-3.95086
0.190498
-0.342615
-4.03407
0.0541105
-4.38322
-0.131591
0.0460658
-0.77658
-0.0424996
-0.453629
-0.00310726
-0.777149
0.0362032
-0.773116
0.10028
-0.778307
-0.338536
0.04228
2.41562
5.11414
0.0612371
1.6144
5.45178
0.0896749
1.73718
5.41756
-0.0013323
1.93458
5.61261
-0.179583
1.86978
5.65781
1.50221
5.53132
-0.0808858
0.407435
2.27222
0.322309
-1.25691
2.23017
0.137731
-0.366316
2.30061
-0.327452
-0.0107974
2.60106
-0.592492
-0.373239
2.56217
-1.43265
2.21077
-0.075991
0.481829
0.218245
0.76201
0.045934
0.403573
-0.370837
0.511748
-0.457407
0.498988
0.679316
1.10235
7.42847
2.7147
0.456019
7.64079
4.81217
0.267448
7.13765
4.65095
0.196005
7.15745
4.73851
0.0323531
7.13547
4.92258
7.04505
4.72366
1.40954
6.95309
1.33806
0.735983
6.82537
3.71915
0.389155
6.46415
3.32093
0.389067
6.5765
3.1821
0.0180014
6.41052
3.65819
5.98933
3.2845
0.86406
0.698059
0.642937
2.31119
0.266274
1.9388
0.184088
1.71577
-0.218881
2.04535
1.78428
1.09494
6.64128
-0.109998
0.351626
9.13383
1.87346
0.159098
8.64747
1.44574
0.23319
8.65078
1.30878
0.0531623
8.63472
1.75148
8.51666
1.46423
0.828904
7.63701
-0.48657
0.363714
10.4077
2.91044
0.143139
9.88853
2.30045
0.380679
9.93822
1.65713
0.179429
9.86851
2.62565
9.71557
2.26501
0.180649
-0.0834417
0.0288346
2.05804
-0.0566106
1.50603
0.136727
1.03846
0.137936
1.4736
1.39403
0.3598
-1.03668
1.95187
-0.00218272
1.95627
1.99156
-0.142883
1.29521
1.88118
0.0886739
0.757205
1.91363
0.0976572
1.47919
1.91592
1.26428
1.86639
-0.56671
-1.75527
0.798729
-1.02617
3.70655
1.61962
-0.74198
2.08134
1.23013
-0.170498
0.856606
0.986241
0.0932311
2.46725
1.37386
2.39064
1.23189
-2.1471
0.131608
-1.03461
1.01689
-0.563294
0.786917
-0.805737
0.518868
-0.139076
0.837428
0.902879
0.0900254
0.205301
-0.428184
0.132857
0.132626
0.0487909
-0.49661
0.405219
0.0947169
-0.289948
-0.541391
0.869248
0.00784526
-0.466369
-0.596574
1.14982
-0.0396615
-0.441233
-0.619301
1.10804
-0.00583631
-0.614926
0.581101
0.572391
0.455528
-0.432378
-0.390239
0.863799
0.427738
-0.666653
-0.00370369
0.614018
0.15889
-1.04291
0.843855
0.142522
0.201436
-1.17972
0.983409
-0.115146
0.256483
-0.730376
0.290326
0.492191
-0.193471
-0.419703
0.474885
-0.142764
-0.309473
0.882215
-0.285819
-0.236304
0.863521
-0.416255
-0.00517535
0.436257
-0.152765
-0.197139
-0.00812731
0.176793
-0.528346
0.255601
-0.472606
0.0342254
-0.0620701
-0.40034
0.051811
-0.0922363
-0.42196
0.0507256
-0.093967
-0.446339
0.00632146
-0.0868944
-0.465276
-0.0392304
-0.101691
-0.472058
-0.200666
-0.453491
0.165968
0.42138
-1.0818
0.232752
0.38851
-1.21418
0.0132909
0.375325
-1.29274
-0.302306
0.421092
-1.37211
-0.279983
0.426966
-1.28136
0.335045
-1.00916
0.0101211
-0.446911
-0.040161
-0.527675
-0.153037
-0.57417
-0.153958
-0.452171
-0.05448
-0.308848
-0.238927
0.0121833
0.371405
-0.783928
0.029788
0.36943
-0.808994
0.0223416
0.357521
-0.796414
0.00111496
0.358609
-0.802658
-0.0105578
0.343032
-0.803417
0.324929
-0.788977
0.0868445
0.771239
-1.56848
0.0975752
0.744353
-1.59984
0.0112647
0.732181
-1.58109
-0.0765999
0.737626
-1.66326
-0.0877222
0.747209
-1.67441
0.741365
-1.51332
-0.0052164
-0.593175
-0.0635503
-0.616075
-0.174001
-0.614943
-0.166905
-0.63066
-0.0661012
-0.612888
-0.506364
0.0228522
0.628042
-1.43482
0.0326203
0.556208
-1.37497
0.0161534
0.563489
-1.34344
0.0106842
0.567395
-1.36458
0.00801001
0.53608
-1.33682
0.564356
-1.34532
0.000949436
0.917131
-1.85852
0.0395412
0.803719
-1.88594
0.000339181
0.812968
-1.79137
-0.00790423
0.816481
-1.90411
0.0353252
0.770044
-1.9516
0.832854
-1.7465
-0.0748506
-0.768939
-0.035168
-0.902593
-0.0297336
-0.854109
-0.0689015
-0.890719
-0.0479526
-0.950975
-0.80155
-0.00662277
0.473528
-1.90173
0.00916417
0.376709
-1.76747
0.00909411
0.375979
-1.71935
0.00671452
0.383862
-1.74607
-0.000761594
0.360919
-1.69026
0.380889
-1.72697
-0.0493383
0.484446
-1.8201
0.0106638
0.43464
-2.00388
-0.00776016
0.404788
-1.80176
-0.0207271
0.352417
-1.85969
0.051943
0.317941
-1.9813
0.452721
-1.76638
-0.210025
-0.613758
-0.0602312
-1.1864
-0.00877168
-1.0143
-0.104065
-0.8953
-0.0806288
-1.07614
-1.04694
0.0251997
0.0249422
-0.0522077
0.301499
-0.0564468
0.166071
0.0137195
0.0973988
0.0308601
0.208517
0.17028
-0.13875
-0.857674
-0.129166
-0.0923465
-0.103479
-0.431244
-0.074964
-0.804569
0.0586943
-0.532577
-0.305519
-0.252034
-0.163718
-0.116801
-0.172274
-0.0426971
-0.213545
-0.557156
0.0490868
-0.442911
-0.821391
0.121563
0.112709
-0.0804151
0.0967997
0.523369
-0.492418
0.227021
0.307773
-0.886522
0.239647
-0.613217
0.145491
0.0193818
-0.680613
0.104075
-0.126932
-0.806658
0.13158
0.0423212
-0.326039
0.07637
0.0461147
-0.64007
0.143857
-0.0915414
-0.888328
0.139461
-0.809493
0.104734
-0.00290432
0.0788765
-0.0876116
0.068453
0.0597625
0.0688036
0.129935
0.0680609
0.0478481
0.0614071
0.0631548
-0.00918876
-1.04947
0.120802
-0.0911757
-1.1791
0.0187358
-0.0166855
-1.08689
0.109857
0.0240212
-1.1624
0.154825
-0.0114464
-1.25524
0.148457
-1.04863
0.103487
0.0877382
-1.0342
0.00105909
0.0687131
-1.0989
0.0704061
6.64337e-05
-1.04481
0.10293
-0.0419374
-1.08401
0.107464
-0.103645
-1.14417
0.0900951
-1.07677
0.029224
0.0132844
0.0692351
-0.0196972
0.0760791
0.0300668
0.0657567
0.0602986
0.0585773
0.01337
0.0541028
0.0490519
-0.196808
-0.948298
0.313207
-0.184508
-1.34873
0.0180787
0.0551745
-1.20143
0.0470135
0.125405
-1.23808
0.0402089
0.0877775
-1.32451
0.0721436
-1.13633
0.265576
0.189585
-0.994904
-0.141921
0.0804242
-1.10188
-0.0672811
-0.00526354
-1.0509
0.0380929
-0.0551992
-1.12817
0.0474938
-0.0943196
-1.17951
-0.0157867
-1.11607
-0.0853528
0.0260088
0.0756615
-0.0202175
0.103877
0.0283318
0.0852104
0.035068
0.07017
-0.0160182
0.0583409
0.0228608
0.0198594
-0.614903
0.689534
0.168979
-1.46339
0.284998
0.0744554
-1.48652
0.0992112
-0.0199014
-1.42948
0.109613
-0.151537
-1.51775
0.363282
-0.799413
0.893364
0.377877
-0.919569
-0.215133
0.204816
-1.16413
-0.193487
-0.0412996
-1.186
-0.0163135
-0.147544
-1.26381
-0.0119268
-0.266273
-1.32474
-0.0900699
-1.12649
-0.0245464
0.0860934
0.0651935
0.0088109
0.10632
-0.000276014
0.0884523
-0.0176947
0.0635952
-0.0770205
0.0279978
-0.0280955
0.634809
-0.0203354
0.896461
0.667438
-1.37851
0.63044
0.222559
-1.71879
0.327156
-0.160478
-1.55804
0.446285
-0.358177
-1.50699
1.01926
0.0856172
1.74969
0.607679
-0.753049
-0.0900996
0.374687
-1.21957
-0.119429
-0.0903529
-1.32508
0.0550102
-0.381166
-1.36764
0.0884857
-0.672008
-1.38977
0.0835482
-0.910754
0.299817
0.153829
0.0603303
0.0305879
0.0969803
-0.0652723
0.103353
-0.103607
0.0691646
-0.174884
0.0142198
-0.0157955
1.32928
0.502338
0.756467
1.26074
-1.27255
0.8153
0.57913
-1.9161
0.617052
-0.179202
-1.69425
0.755949
-0.480022
-1.58064
1.64702
0.189508
2.43423
0.853201
-0.633115
0.192152
0.660234
-1.40365
0.204644
0.0957869
-1.58101
0.284361
-0.346993
-1.5421
0.379114
-0.769072
-1.53512
0.460104
-0.937677
0.657928
0.240614
0.104695
0.0853341
0.103219
-0.0840738
0.126965
-0.133585
0.115044
-0.211821
0.0411614
0.0124429
2.01588
0.788602
0.31387
2.15524
-1.04214
0.726024
1.11292
-2.26925
1.03422
-0.437458
-2.06895
1.01775
-0.792725
-1.48876
1.73731
-0.0587992
2.33941
1.11739
-0.636534
0.499899
1.17339
-1.59903
0.705535
0.278809
-2.0429
0.952589
-0.506246
-1.74616
0.841381
-0.801956
-1.55686
0.823912
-0.904633
0.701805
0.313907
0.230312
0.194791
0.203424
-0.187574
0.345735
-0.286236
0.245526
-0.302771
0.137264
0.02155
2.06898
0.552767
0.214352
1.71755
-1.58604
1.02169
0.446362
-2.5976
1.70254
-0.326264
-2.82067
1.7272
-0.37409
-1.64368
1.67066
-0.200742
1.55721
1.40519
-1.03244
0.679913
1.51105
-2.26825
1.28189
0.0930969
-2.13803
1.91096
-0.96093
-2.45061
1.52535
-1.08164
-1.81186
1.11279
-0.971639
0.391066
0.482594
0.399653
0.360846
0.439909
-0.34591
1.0965
-0.698195
0.677253
-0.560301
0.297986
-0.0475402
0.0824301
-0.693688
1.26514
-0.571235
-1.45259
2.26131
-0.603954
-0.828453
2.45677
0.404798
0.446173
1.90423
0.670764
-0.0769844
1.84341
-0.364346
1.8359
0.520049
-1.61769
1.08387
0.406025
-2.06565
2.00898
-0.581409
-0.28589
2.35583
-0.214632
-0.585486
2.19023
-0.0835788
-0.852057
1.75681
-0.771168
0.714311
0.391477
0.849729
0.232305
1.13709
-0.94321
1.79658
-1.10032
1.6999
-0.89362
0.997482
-0.119111
-1.24091
0.242521
2.29173
-2.70782
2.51745
2.69568
-1.74532
4.24982
1.17024
0.183407
5.70991
0.0599599
0.996766
4.64177
0.810247
0.858642
2.18903
-1.53422
0.760882
2.09972
-2.40174
2.78748
2.60647
-1.44628
4.27702
1.37317
0.179204
5.15432
1.12033
1.0224
4.06153
1.49386
0.931147
1.6642
-1.41463
1.57716
-1.57942
1.76113
-0.711508
1.30416
-0.650403
1.27735
-0.721551
1.08517
0.326605
-0.154411
1.31494
1.55752
0.0278322
4.91628
1.11271
0.819769
8.94696
-0.925307
0.0718156
6.20476
-1.61281
-0.432652
5.19966
-0.851242
3.36265
1.11925
-0.854782
2.52469
1.74476
-0.882421
6.11396
1.43643
0.166586
9.43821
-0.167076
0.144606
7.66073
-0.313655
0.202416
6.35205
0.283664
4.12007
1.10919
-1.5061
1.31295
-1.3844
1.40996
-0.597496
0.680135
-0.236967
0.661235
0.063149
0.709213
0.534243
0.868289
1.47229
2.08
2.59739
1.87182
1.89834
0.534233
1.02954
-0.30235
0.74189
2.35702
0.61724
2.20957
1.49056
3.1568
1.29216
2.77351
0.670584
2.32087
-0.133489
2.11995
2.91302
0.430567
1.12118
0.910481
0.467598
-0.0949205
)
;

boundaryField
{
    seabed_topleft_surface
    {
        type            calculated;
        value           uniform 0;
    }
    seabed_topright_surface
    {
        type            calculated;
        value           uniform 0;
    }
    breakwater_top_surface
    {
        type            calculated;
        value           uniform 0;
    }
    breakwater_left_surface
    {
        type            calculated;
        value           uniform 0;
    }
    breakwater_right_surface
    {
        type            calculated;
        value           uniform 0;
    }
    water_front_surface
    {
        type            calculated;
        value           uniform 0;
    }
    water_back_surface
    {
        type            calculated;
        value           uniform 0;
    }
    water_left_surface
    {
        type            calculated;
        value           uniform 0;
    }
    water_right_surface
    {
        type            calculated;
        value           uniform 0;
    }
    water_top_surface
    {
        type            calculated;
        value           nonuniform List<scalar> 
180
(
0.537784
-1.16676
-1.23211
-0.823276
0.432767
0.584123
-2.35705
-2.30903
-2.29707
-2.33653
-2.38687
-2.38487
-2.10225
-2.10412
-2.10574
-2.10571
-2.10799
-2.11344
-2.41272
-2.41429
-2.41525
-2.41529
-2.42266
-2.41906
-2.63808
-2.64171
-2.64164
-2.64124
-2.64386
-2.64361
-2.97058
-2.97078
-2.97007
-2.97316
-2.97465
-2.97015
-3.31885
-3.37725
-3.37114
-3.36776
-3.35463
-3.36531
-3.24808
-3.92677
-3.57459
-3.36828
-3.46848
-3.95489
-0.77498
-2.76678
-1.37472
-0.878889
-1.56396
-2.90791
5.8728
5.49731
5.30559
5.45466
5.26712
4.66548
8.23786
10.8127
10.4068
10.4222
10.4391
10.2438
0.176778
3.63522
2.32914
1.61864
2.43676
2.74271
0.43288
0.54253
0.599014
0.978604
1.05242
0.701068
0.715405
0.680647
0.646116
0.721418
0.813129