/*--------------------------------*- C++ -*----------------------------------*\
| =========                 |                                                 |
| \\      /  F ield         | OpenFOAM: The Open Source CFD Toolbox           |
|  \\    /   O peration     | Version:  v1612+                                |
|   \\  /    A nd           | Web:      www.OpenFOAM.com                      |
|    \\/     M anipulation  |                                                 |
\*---------------------------------------------------------------------------*/
FoamFile
{
    version     2.0;
    format      ascii;
    class       volScalarField;
    location    "2.95";
    object      p;
}
// * * * * * * * * * * * * * * * * * * * * * * * * * * * * * * * * * * * * * //

dimensions      [1 -1 -2 0 0 0 0];

internalField   nonuniform List<scalar> 
320
(
14724.8
14724.8
14724.8
14724.8
4.94089
4.93983
4.94059
4.9414
4.94187
4.94185
4.94299
4.9422
4.9428
4.94216
4.94225
4.94078
4914.85
4914.78
4914.79
4914.86
4914.83
4914.83
4914.87
4914.86
4914.83
4914.83
4914.82
4914.88
14724.8
14724.8
14724.8
14724.8
14724.8
14724.8
14724.8
14724.8
14724.8
14724.8
14724.8
14724.8
24534.8
24534.8
24534.8
24534.8
24534.8
24534.8
24534.8
24534.8
24534.8
24534.8
24534.8
24534.8
24534.8
24534.8
24534.8
24534.8
4.94144
4.94117
4.94012
4.9404
4.94055
4.94072
4.94236
4.94059
4.93992
4.93951
4.94107
4.94279
4.94255
4.94194
4.94122
4.94319
4.94381
4.94272
4.94122
4.94127
4914.88
4914.84
4914.78
4914.83
4914.8
4914.82
4914.87
4914.83
4914.85
4914.85
4914.86
4914.83
4914.82
4914.86
4914.85
4914.82
4914.83
4914.88
4914.87
4914.82
14724.8
14724.8
14724.8
14724.8
14724.8
14724.8
14724.8
14724.8
14724.8
14724.8
14724.8
14724.8
14724.8
14724.8
14724.8
14724.8
14724.8
14724.8
14724.8
14724.8
24534.8
24534.8
24534.8
24534.8
24534.8
24534.8
24534.8
24534.8
24534.8
24534.8
24534.8
24534.8
24534.8
24534.8
24534.8
24534.8
24534.8
24534.8
24534.8
24534.8
34344.8
34344.8
34344.8
34344.8
34344.8
34344.8
34344.8
34344.8
34344.8
34344.8
34344.8
34344.8
34344.8
34344.8
34344.8
34344.8
34344.8
34344.8
34344.8
34344.8
34344.8
34344.8
34344.8
34344.8
34344.8
34344.8
34344.8
34344.8
34344.8
34344.8
34344.8
34344.8
34344.8
34344.8
34344.8
34344.8
4.93995
4.94159
4.94052
4.94039
4.94107
4.94195
4.94157
4.9409
4.94231
4.94312
4.9395
4.93905
4.93917
4.93918
4.93961
4.94153
4.94133
4.94388
4.94349
4.94067
4.94008
4.94056
4.94272
4.9445
4.94459
4.94195
4.94017
4.93953
4914.79
4914.81
4914.77
4914.81
4914.87
4914.85
4914.83
4914.84
4914.86
4914.8
4914.82
4914.85
4914.82
4914.8
4914.83
4914.8
4914.83
4914.81
4914.86
4914.86
4914.87
4914.81
4914.82
4914.84
4914.86
4914.81
4914.83
4914.79
14724.8
14724.8
14724.8
14724.8
14724.8
14724.8
14724.8
14724.8
14724.8
14724.8
14724.8
14724.8
14724.8
14724.8
14724.8
14724.8
14724.8
14724.8
14724.8
14724.8
14724.8
14724.8
14724.8
14724.8
14724.8
14724.8
14724.8
14724.8
24534.8
24534.8
24534.8
24534.8
24534.8
24534.8
24534.8
24534.8
24534.8
24534.8
24534.8
24534.8
24534.8
24534.8
24534.8
24534.8
24534.8
24534.8
24534.8
24534.8
24534.8
24534.8
24534.8
24534.8
24534.8
24534.8
24534.8
24534.8
34344.8
34344.8
34344.8
34344.8
34344.8
34344.8
34344.8
34344.8
34344.8
34344.8
34344.8
34344.8
34344.8
34344.8
34344.8
34344.8
34344.8
34344.8
34344.8
34344.8
34344.8
34344.8
34344.8
34344.8
34344.8
34344.8
34344.8
34344.8
4.94246
4.94066
4.94237
4.94247
4914.78
4914.79
4914.8
4914.81
)
;

boundaryField
{
    top_fluid_surface
    {
        type            calculated;
        value           nonuniform List<scalar> 
64
(
-1.50279e-08
0
0
-1.16292e-09
0
-4.13299e-10
-2.64266e-09
-2.88902e-09
-9.61205e-10
-2.2148e-09
0
-3.16645e-09
-2.3987e-11
-2.60713e-09
0
0
0
0
-1.4017e-09
0
0
-9.82176e-09
-9.06077e-10
0
-5.64177e-10
-3.1797e-11
-2.20013e-11
0
0
-5.51121e-12
-1.94406e-09
0
0
0
0
0
-1.81253e-10
-2.3887e-09
-1.77218e-10
-6.27967e-09
-2.8695e-10
0
-3.01945e-09
-2.03684e-08
0
0
-9.25128e-10
0
-2.93029e-10
0
-4.99097e-09
-1.42323e-09
-2.67426e-08
0
0
-1.45644e-09
-7.33683e-10
0
-6.83541e-10
0
0
0
0
0
)
;
    }
    bottom_fluid_surface
    {
        type            calculated;
        value           nonuniform List<scalar> 
64
(
39249.8
39249.8
39249.8
39249.8
39249.8
39249.8
39249.8
39249.8
39249.8
39249.8
39249.8
39249.8
39249.8
39249.8
39249.8
39249.8
39249.8
39249.8
39249.8
39249.8
39249.8
39249.8
39249.8
39249.8
39249.8
39249.8
39249.8
39249.8
39249.8
39249.8
39249.8
39249.8
39249.8
39249.8
39249.8
39249.8
39249.8
39249.8
39249.8
39249.8
39249.8
39249.8
39249.8
39249.8
39249.8
39249.8
39249.8
39249.8
39249.8
39249.8
39249.8
39249.8
39249.8
39249.8
39249.8
39249.8
39249.8
39249.8
39249.8
39249.8
39249.8
39249.8
39249.8
39249.8
)
;
    }
    lateral_surface_1
    {
        type            calculated;
        value           nonuniform List<scalar> 
40
(
4.93995
4.94159
4.94052
4.94039
4.94107
4.94195
4.94157
4.93953
4914.79
4914.81
4914.77
4914.81
4914.87
4914.85
4914.83
4914.79
14724.8
14724.8
14724.8
14724.8
14724.8
14724.8
14724.8
14724.8
24534.8
24534.8
24534.8
24534.8
24534.8
24534.8
24534.8
24534.8
34344.8
34344.8
34344.8
34344.8
34344.8
34344.8
34344.8
34344.8
)
;
    }
    lateral_surface_2
    {
        type            calculated;
        value           nonuniform List<scalar> 
40
(
4.93918
4.93961
4.94153
4.94133
4.94388
4.94349
4.94067
4.94008
4914.8
4914.83
4914.8
4914.83
4914.81
4914.86
4914.86
4914.87
14724.8
14724.8
14724.8
14724.8
14724.8
14724.8
14724.8
14724.8
24534.8
24534.8
24534.8
24534.8
24534.8
24534.8
24534.8
24534.8
34344.8
34344.8
34344.8
34344.8
34344.8
34344.8
34344.8
34344.8
)
;
    }
    lateral_surface_3
    {
        type            calculated;
        value           nonuniform List<scalar> 
40
(
4.94157
4.9409
4.94231
4.94312
4.9395
4.93905
4.93917
4.93918
4914.83
4914.84
4914.86
4914.8
4914.82
4914.85
4914.82
4914.8
14724.8
14724.8
14724.8
14724.8
14724.8
14724.8
14724.8
14724.8
24534.8
24534.8
24534.8
24534.8
24534.8
24534.8
24534.8
24534.8
34344.8
34344.8
34344.8
34344.8
34344.8
34344.8
34344.8
34344.8
)
;
    }
    lateral_surface_4
    {
        type            calculated;
        value           nonuniform List<scalar> 
40
(
4.94008
4.94056
4.94272
4.9445
4.94459
4.94195
4.94017
4.93953
4914.87
4914.81
4914.82
4914.84
4914.86
4914.81
4914.83
4914.79
14724.8
14724.8
14724.8
14724.8
14724.8
14724.8
14724.8
14724.8
24534.8
24534.8
24534.8
24534.8
24534.8
24534.8
24534.8
24534.8
34344.8
34344.8
34344.8
34344.8
34344.8
34344.8
34344.8
34344.8
)
;
    }
}


// ************************************************************************* //
