/*--------------------------------*- C++ -*----------------------------------*\
| =========                 |                                                 |
| \\      /  F ield         | OpenFOAM: The Open Source CFD Toolbox           |
|  \\    /   O peration     | Version:  v1612+                                |
|   \\  /    A nd           | Web:      www.OpenFOAM.com                      |
|    \\/     M anipulation  |                                                 |
\*---------------------------------------------------------------------------*/
FoamFile
{
    version     2.0;
    format      ascii;
    class       surfaceScalarField;
    location    "2.95";
    object      phi;
}
// * * * * * * * * * * * * * * * * * * * * * * * * * * * * * * * * * * * * * //

dimensions      [0 3 -1 0 0 0 0];

internalField   nonuniform List<scalar> 
816
(
-2.87571e-06
-6.41433e-07
1.68803e-06
1.29677e-06
1.94586e-06
-1.44933e-06
7.08969e-07
1.3684e-06
-6.09934e-07
4.72154e-06
-9.11298e-06
-1.91463e-06
2.86103e-06
1.99544e-06
2.70723e-06
-6.32984e-06
-2.15041e-06
2.19798e-06
6.47918e-08
-1.30484e-06
0.000217732
-5.51661e-05
7.10593e-06
1.75604e-05
0.000118798
4.93507e-05
4.65139e-06
4.27813e-05
-2.50702e-05
-3.73624e-05
-3.37843e-07
-2.55102e-05
-3.00785e-05
-1.48592e-05
1.37676e-06
-8.77496e-05
0.000158548
-6.34733e-05
-4.60508e-06
-2.24714e-05
3.42656e-05
-1.71763e-05
-7.16255e-06
-1.27877e-05
5.1672e-05
-1.84377e-05
-5.79443e-06
-7.0002e-05
0.00024329
1.25286e-05
1.10066e-06
-6.44018e-05
0.000165427
0.000128792
-1.11005e-05
-7.47351e-05
8.21681e-05
0.000154455
2.21969e-06
-0.000140366
0.000217488
0.000100578
-2.80035e-06
-7.70229e-05
7.20438e-05
7.39327e-06
0.00014663
8.74465e-06
-4.23517e-07
7.33511e-06
-1.22529e-05
1.65661e-07
8.16948e-06
6.68622e-06
-1.17802e-05
1.40638e-06
8.66631e-06
4.19509e-06
-3.45678e-06
-7.30027e-07
7.69278e-06
2.51681e-06
4.17208e-06
2.84211e-06
-2.32702e-06
-3.58889e-06
3.83582e-06
-7.11525e-06
7.65272e-07
3.91277e-06
-1.04204e-05
-9.69188e-06
-1.29982e-07
-1.74613e-06
-3.68382e-06
-4.83578e-06
3.93048e-06
-7.12104e-07
7.37139e-07
-3.45417e-06
3.3042e-06
1.49734e-06
-1.81382e-05
1.43083e-06
7.17411e-06
5.66573e-06
-4.3668e-06
2.80636e-06
5.35462e-06
4.19296e-06
-3.43476e-06
4.27384e-06
-3.07869e-06
9.67017e-06
5.77207e-06
1.91065e-06
5.25753e-07
-4.37477e-06
-6.3868e-06
-3.60008e-07
-3.33382e-06
-4.43643e-06
-2.11042e-06
-1.79763e-07
-1.15477e-06
-2.51638e-06
-2.98282e-06
8.57217e-07
1.45483e-06
1.10056e-06
1.76449e-06
1.03789e-06
-2.5572e-07
2.07317e-06
-4.68591e-06
-4.44336e-06
-1.6123e-06
2.82279e-06
-2.39843e-06
1.76005e-07
3.41773e-06
-6.05172e-07
3.60962e-06
-2.64611e-06
-8.39947e-06
-1.19416e-06
-2.50158e-06
-4.43452e-06
-1.79911e-06
1.18625e-06
-4.99147e-06
-1.96956e-06
3.68415e-07
3.67228e-06
-2.80398e-06
-5.37444e-07
-1.71117e-06
3.78486e-07
1.182e-06
1.61035e-06
4.78958e-07
1.14571e-06
2.82317e-07
1.60245e-07
1.43361e-06
-9.39778e-07
2.23391e-06
1.45951e-06
3.5878e-07
-1.5184e-06
1.4102e-06
3.47555e-07
-4.6992e-07
-2.01649e-06
-8.83972e-07
-1.81876e-06
-1.89399e-06
-1.70909e-06
-1.01664e-06
3.3951e-07
-1.67237e-06
-1.38114e-06
-3.4106e-07
7.73333e-07
7.50403e-07
4.13717e-07
7.19307e-07
-6.63196e-07
2.23609e-07
1.927e-06
-3.3357e-06
-1.30863e-06
-1.25793e-06
1.78421e-06
-4.12741e-07
-4.53492e-07
1.97475e-06
1.93457e-06
-5.42381e-07
-1.65354e-06
-5.42004e-07
-1.45238e-06
-2.78399e-06
-2.31259e-06
9.31751e-07
-6.21539e-07
-2.96051e-06
8.76435e-07
-5.94528e-07
-2.09216e-06
-4.35833e-07
1.20123e-06
-5.982e-06
-1.49536e-05
-1.36923e-06
0.000210407
7.32179e-05
-2.85426e-06
9.29757e-05
-6.71251e-05
6.1606e-06
0.000102171
-7.73108e-05
1.61097e-05
-4.02444e-05
7.06539e-06
1.02957e-05
-7.92741e-05
-0.00014721
-6.50581e-05
2.59178e-06
-0.000115996
-1.17241e-05
-2.5958e-06
-1.08966e-05
-0.000193458
-1.77524e-06
-0.000113366
-0.000143815
2.26177e-05
-9.80902e-05
1.5054e-05
1.08446e-05
9.38535e-05
-2.66749e-05
1.6807e-05
1.03062e-06
0.000116226
-9.31589e-05
-9.21913e-06
-6.38955e-05
-0.000103286
-7.20876e-06
3.31039e-05
-3.67958e-05
2.01388e-06
-0.000151674
9.07262e-05
2.87066e-06
-0.000115866
-2.18314e-05
3.09744e-05
-1.12871e-05
5.62502e-05
-2.92554e-06
-1.09331e-05
-8.38123e-05
1.36092e-05
-8.76131e-07
-9.83393e-05
5.40447e-05
5.35536e-06
6.85861e-05
-9.1109e-06
7.0742e-05
-2.41489e-05
-2.93414e-06
-6.61955e-06
1.3847e-05
3.29229e-06
-2.92197e-06
-3.36297e-06
-7.69548e-07
-4.8659e-07
1.23648e-06
5.65081e-06
-7.75676e-07
8.41903e-06
4.57963e-06
5.09386e-06
1.17234e-05
-1.81314e-06
-7.62778e-06
3.564e-06
8.57522e-06
3.86374e-06
-3.41184e-06
4.44418e-06
-9.1479e-07
-1.57793e-05
1.8972e-05
-1.63272e-05
-1.27223e-05
1.6949e-05
-1.12435e-05
8.67429e-06
-9.19729e-06
2.91645e-06
-4.38181e-06
6.18139e-06
2.07567e-06
2.80961e-06
-4.34016e-06
5.91855e-06
-1.00263e-05
-2.79333e-06
-1.43323e-05
-2.86287e-07
-8.75598e-07
2.05727e-06
2.08857e-06
9.91805e-06
-1.73369e-07
-5.85652e-06
-1.92936e-06
4.48642e-06
-4.41863e-06
4.43003e-06
-1.68205e-06
2.36095e-06
4.47226e-07
-8.95727e-06
1.24537e-05
-2.58627e-06
-7.43398e-06
8.21408e-06
-1.34907e-06
-2.77719e-06
-6.00388e-06
-1.35718e-05
6.48132e-07
3.97225e-06
5.76892e-06
6.7871e-07
-1.24108e-06
-1.58618e-06
-2.60361e-07
-2.17781e-06
2.05684e-06
-2.03277e-06
1.84265e-06
4.14535e-06
-2.2666e-06
-1.54813e-06
6.09327e-06
3.36946e-06
5.6702e-06
-7.60323e-07
3.69645e-06
1.10165e-06
-1.53683e-06
1.41815e-06
4.88858e-06
2.20159e-06
8.47847e-06
6.48913e-06
5.3498e-06
7.89831e-06
1.47086e-06
2.01779e-06
-4.31198e-06
-5.2107e-06
3.66604e-06
1.9479e-06
8.98647e-07
-3.64962e-07
4.47208e-06
2.77753e-06
7.83836e-07
-2.76447e-07
-6.59954e-06
6.30034e-07
-1.19195e-06
5.4226e-07
1.23723e-06
-4.94938e-07
-2.40886e-07
6.1251e-08
-6.93467e-07
-2.73113e-06
-2.17174e-06
-2.53119e-06
-3.28446e-06
6.79464e-07
3.42731e-06
3.51789e-07
4.80038e-06
4.41762e-06
2.22194e-06
3.01488e-06
2.81809e-06
-9.34863e-07
6.72368e-07
3.65974e-06
-2.16977e-07
2.25447e-06
1.82574e-06
-2.22665e-07
-1.28633e-06
-3.67747e-07
-1.07298e-06
-9.19926e-07
1.13451e-06
-1.14748e-06
1.30257e-06
1.20465e-06
-9.75597e-07
-3.18709e-07
1.79894e-06
2.2388e-06
3.65993e-06
-1.26341e-07
1.17516e-06
9.04895e-07
-1.25209e-06
9.65927e-07
2.29278e-06
9.64742e-07
2.40875e-06
3.18178e-06
3.21948e-06
2.40678e-06
-9.85543e-08
1.6007e-06
-5.13908e-07
-3.89204e-06
1.70516e-06
1.22551e-06
5.023e-07
-5.47023e-07
3.00743e-06
7.48655e-07
-1.71172e-07
1.52179e-07
-2.00122e-06
1.58706e-07
-6.87446e-07
2.52185e-08
7.78475e-07
-5.8605e-08
-9.13182e-08
-5.62087e-08
-7.29672e-07
-1.6095e-06
-5.98313e-07
-1.52577e-06
-1.88976e-06
1.3268e-07
1.75798e-06
-3.92946e-07
1.28524e-06
2.87277e-06
1.37635e-07
1.00801e-06
1.03743e-06
-1.13628e-07
-6.11859e-07
2.12365e-06
-1.22229e-06
5.05157e-07
1.56892e-07
1.04521e-06
7.58921e-07
-2.6524e-07
-3.05522e-07
-1.10094e-06
1.11209e-06
8.18852e-07
-1.02029e-06
1.00167e-06
-5.11387e-07
-6.94825e-07
-4.69119e-07
-8.63381e-07
-9.48259e-07
1.12369e-07
-6.73823e-07
-6.51449e-07
2.16411e-07
-1.50069e-08
1.65309e-07
-7.4615e-07
1.35379e-06
-1.84174e-06
-6.08929e-07
1.63017e-06
2.56919e-07
1.3955e-06
7.69472e-07
-1.21337e-06
7.26006e-08
-2.77491e-07
-1.54304e-06
4.99399e-07
-1.77087e-06
6.41501e-07
-1.27842e-06
-1.71723e-08
-3.09397e-07
1.2013e-06
-3.67852e-07
-8.89594e-07
-2.9801e-07
-3.06485e-07
-4.09511e-07
5.47992e-07
-3.33832e-07
-2.25517e-07
8.80744e-07
1.68519e-06
-1.70265e-07
4.59896e-07
-3.33103e-07
1.1134e-06
4.28064e-07
9.0151e-07
1.10805e-06
-1.15116e-07
1.35876e-06
-1.61476e-06
8.4665e-07
1.32142e-06
-8.19153e-08
1.96409e-06
3.42126e-07
4.46961e-07
2.64595e-07
-2.06697e-08
5.40735e-07
-2.52749e-07
2.24039e-07
-1.03042e-07
-9.49824e-07
-2.34653e-07
-1.17463e-06
8.1428e-07
-6.15885e-07
1.32727e-06
-2.182e-07
5.56888e-07
-2.49603e-07
1.09356e-06
4.02062e-05
-1.81708e-05
3.95547e-06
5.32115e-06
-2.88115e-06
2.18257e-05
-2.91167e-06
-0.000143264
2.38312e-06
-0.000133224
1.36126e-06
-4.34532e-05
-6.38941e-06
-4.42926e-06
-3.73694e-06
3.84329e-05
4.48808e-06
-2.69849e-07
-2.58642e-06
-5.03448e-05
-1.50474e-05
-7.16875e-05
7.16886e-06
0.000129181
2.84688e-05
9.3093e-05
1.74212e-05
-3.23651e-05
-1.86658e-06
4.34487e-07
1.76176e-06
-4.26322e-05
-7.10214e-06
-0.000142404
1.64861e-05
-0.000170905
-1.38517e-05
-8.17737e-05
-1.20213e-05
-0.000130005
7.05347e-06
0.000265612
1.77469e-05
0.000141705
3.83961e-06
-1.08195e-05
-7.54698e-06
7.89181e-05
-1.96677e-05
0.000170675
-1.51074e-05
0.000112981
-6.54236e-06
8.80385e-05
1.75946e-05
1.75066e-05
7.65109e-06
-8.1948e-06
1.63454e-08
-1.31996e-06
3.87377e-06
1.77567e-06
-4.1548e-06
2.33049e-06
7.78779e-06
-3.45516e-06
1.35954e-05
-7.7397e-06
-7.1739e-06
3.9266e-06
-1.30457e-05
1.12219e-05
-1.06149e-05
-1.44991e-06
3.83361e-06
-1.75881e-05
-1.04779e-05
-5.81947e-06
-2.13569e-05
1.07185e-05
-1.52208e-06
3.95351e-06
2.20959e-05
-1.83823e-06
6.01933e-06
6.77301e-06
-8.84351e-06
1.37097e-06
1.39743e-06
2.05752e-06
4.74941e-06
2.55791e-07
-7.30141e-06
-5.85701e-06
-9.15041e-06
-7.19999e-06
2.30565e-06
1.24859e-05
-2.56282e-06
1.04664e-05
6.23253e-06
1.17481e-06
8.43193e-06
-4.77152e-06
-1.38029e-05
-5.38326e-06
-1.09964e-05
-1.14455e-05
-2.35111e-06
-2.33032e-06
-6.44284e-06
-1.32681e-07
-1.55775e-06
1.48216e-06
7.2359e-07
8.33911e-07
2.13538e-06
-2.79127e-06
-7.85718e-07
-8.42792e-07
3.78973e-06
5.06248e-06
5.43814e-06
4.75423e-06
-3.51798e-06
-2.50344e-06
-5.79604e-06
-2.36751e-06
-5.08706e-06
1.61998e-06
9.04372e-07
6.65314e-07
-4.64272e-06
-5.46665e-06
-8.7347e-06
-5.99161e-06
4.79147e-07
4.1726e-07
1.04868e-05
2.89153e-06
3.53901e-06
1.19803e-06
-3.48178e-06
1.57098e-06
6.49284e-07
4.3018e-06
2.77339e-06
1.13626e-06
-3.52236e-06
-1.81156e-06
-4.99042e-06
-2.63536e-07
7.95296e-07
-1.92107e-06
-8.99154e-07
6.75773e-07
2.95287e-06
3.20478e-06
3.35585e-06
-1.01451e-06
-6.20245e-06
-1.90196e-06
-5.70803e-06
-7.89983e-07
-6.48714e-07
-8.10819e-07
-2.79688e-06
5.65107e-07
-7.05254e-07
6.30513e-07
2.02174e-07
6.33155e-08
1.10436e-06
-1.28415e-06
-5.12781e-07
2.19826e-07
1.13165e-06
3.17041e-06
1.48891e-06
2.51977e-06
-6.51173e-07
-1.26368e-06
-2.02181e-06
-1.12e-06
-1.6177e-06
6.2265e-07
5.38686e-08
-2.57649e-07
-1.47492e-06
-3.89898e-06
-1.90562e-06
-3.42141e-06
-7.23016e-08
-2.70019e-08
3.20044e-06
2.22376e-06
1.28047e-06
1.16772e-06
-7.27983e-07
1.18385e-06
1.09471e-07
3.38022e-06
3.88458e-07
1.32881e-06
-1.32814e-06
-1.1664e-06
-1.74714e-06
-3.96143e-07
-5.91807e-08
-9.38846e-07
-3.67761e-07
5.84826e-07
7.0534e-07
2.0676e-06
3.844e-07
-5.36941e-07
-1.87012e-06
-1.73671e-06
-1.68192e-06
-1.35001e-06
-2.57724e-08
-1.1474e-06
-9.06114e-07
3.99462e-08
-5.8162e-07
5.16099e-07
1.14788e-07
-7.07121e-07
6.98161e-09
1.15895e-06
1.38027e-06
-6.47947e-07
-5.90469e-07
-8.39234e-08
-4.4167e-07
-1.44234e-06
-1.64657e-06
-6.20115e-08
1.21511e-06
1.3165e-06
1.33617e-06
2.05376e-06
9.85233e-07
-2.21319e-07
-6.03871e-08
-4.4904e-07
1.06167e-07
2.20577e-07
-8.45588e-07
-1.21419e-06
-7.05793e-07
-5.48495e-07
7.52025e-05
8.99375e-05
2.31255e-05
-0.000178391
9.1441e-06
7.47462e-05
-2.63249e-06
-8.67984e-06
3.80591e-06
7.58791e-06
6.29605e-06
4.83044e-06
)
;

boundaryField
{
    top_fluid_surface
    {
        type            calculated;
        value           nonuniform List<scalar> 
64
(
-0.000316928
0.00013273
0.000143413
-9.74508e-05
5.52874e-05
-6.15155e-05
-0.000152646
-0.000150625
-9.11718e-05
-0.000124397
8.30632e-05
-0.000153749
-3.10414e-05
-0.000145788
7.75955e-05
7.31983e-06
0.000127312
0.000146136
-0.000116567
0.000288077
2.0505e-06
-0.000244905
-8.47842e-05
0.000160062
-6.79894e-05
-1.10331e-05
-6.06663e-06
0.000124524
4.28117e-05
-9.38416e-06
-0.000121666
3.5295e-05
3.27848e-05
0.000274209
7.77585e-05
0.000264816
-4.83135e-05
-0.000143696
-3.15441e-05
-0.000201117
-5.84434e-05
5.21569e-05
-0.000115597
-0.000340492
0.000117486
0.000125146
-6.90354e-05
0.00020306
-2.25e-05
0.000156931
-0.000214233
-9.35922e-05
-0.000420131
8.53149e-05
0.000223308
-0.000134236
-9.4837e-05
0.000136373
-2.81107e-05
4.57528e-05
2.63737e-05
0.000334686
0.000406386
0.000203411
)
;
    }
    bottom_fluid_surface
    {
        type            calculated;
        value           uniform 0;
    }
    lateral_surface_1
    {
        type            calculated;
        value           uniform 0;
    }
    lateral_surface_2
    {
        type            calculated;
        value           uniform 0;
    }
    lateral_surface_3
    {
        type            calculated;
        value           uniform 0;
    }
    lateral_surface_4
    {
        type            calculated;
        value           uniform 0;
    }
}


// ************************************************************************* //
