/*--------------------------------*- C++ -*----------------------------------*\
| =========                 |                                                 |
| \\      /  F ield         | OpenFOAM: The Open Source CFD Toolbox           |
|  \\    /   O peration     | Version:  v1612+                                |
|   \\  /    A nd           | Web:      www.OpenFOAM.com                      |
|    \\/     M anipulation  |                                                 |
\*---------------------------------------------------------------------------*/
FoamFile
{
    version     2.0;
    format      ascii;
    class       volVectorField;
    location    "2.95";
    object      U;
}
// * * * * * * * * * * * * * * * * * * * * * * * * * * * * * * * * * * * * * //

dimensions      [0 1 -1 0 0 0 0];

internalField   nonuniform List<vector> 
320
(
(-4.40407e-06 -3.07426e-06 -2.74888e-06)
(-7.66958e-07 -2.24155e-06 -7.49255e-06)
(-2.98469e-06 2.16129e-06 -4.40801e-06)
(-8.29337e-07 3.88528e-06 9.20475e-07)
(0.000170251 3.58388e-05 -0.000173366)
(0.000190457 -2.94691e-06 5.57177e-05)
(-5.74523e-05 -5.02221e-05 7.0655e-05)
(-0.000217355 -5.69141e-06 -4.82271e-05)
(-8.26467e-06 -2.66143e-05 3.56816e-05)
(2.09348e-05 -8.78542e-05 -2.87506e-05)
(4.04276e-06 -0.000155106 -7.27002e-05)
(6.03008e-05 -0.000215098 -7.60134e-05)
(-0.000100381 -7.90802e-05 -4.38453e-05)
(0.000185793 -0.000191459 -6.65553e-05)
(-1.76012e-05 -9.18349e-05 4.28448e-05)
(-3.72401e-05 -8.76579e-05 -7.95795e-05)
(-6.99646e-06 6.57886e-07 1.55077e-05)
(5.27072e-06 4.55981e-06 1.22977e-05)
(9.46419e-06 4.3792e-06 3.02581e-06)
(3.50797e-06 7.02439e-06 -3.90404e-06)
(-1.13566e-06 -3.77012e-06 -5.25265e-06)
(-6.03987e-06 -3.8023e-06 1.03624e-05)
(-3.68194e-06 -4.08108e-06 4.14403e-06)
(6.92604e-06 -7.33465e-06 -1.00245e-06)
(-4.80802e-06 6.74526e-07 1.8817e-05)
(-1.19853e-06 -4.56347e-06 4.32925e-06)
(-1.03787e-05 -4.41129e-06 3.0157e-06)
(-8.22476e-06 -6.41171e-06 -9.66807e-06)
(3.47116e-06 -1.00493e-06 1.04214e-05)
(-2.61587e-06 -1.48497e-07 8.42885e-06)
(-4.15627e-06 1.11356e-06 2.30938e-06)
(-3.34146e-07 -1.28771e-06 -2.94144e-06)
(-3.73994e-06 3.17124e-06 -1.68984e-06)
(-5.34332e-06 -3.57639e-07 8.57629e-06)
(2.42895e-07 5.1175e-07 4.46379e-06)
(-5.51374e-06 4.16092e-06 1.41783e-07)
(-5.27544e-07 -3.0037e-07 1.45992e-05)
(-6.02404e-07 4.99518e-06 3.36609e-06)
(1.29534e-06 4.21433e-06 3.3227e-06)
(4.33292e-06 5.02389e-06 -6.55715e-06)
(-3.24293e-06 -1.72799e-06 -2.01631e-07)
(9.95793e-08 -8.55349e-07 -1.87673e-06)
(-1.72608e-06 2.48944e-06 -4.89265e-07)
(-3.69253e-07 2.87905e-06 -9.19704e-07)
(1.29987e-06 -7.37322e-07 2.31667e-06)
(-2.01316e-06 4.25615e-07 1.32066e-06)
(-2.16949e-06 1.04662e-06 5.71254e-07)
(2.9419e-07 -8.4079e-08 -5.80883e-07)
(-2.4747e-06 1.64578e-06 -6.2511e-07)
(-3.72472e-06 -5.39283e-07 1.69789e-06)
(-7.44082e-07 1.06095e-07 2.39267e-07)
(-3.09284e-06 2.44086e-06 5.74317e-07)
(-2.59331e-07 3.79034e-08 3.7232e-06)
(-9.38789e-07 2.72896e-06 7.39513e-07)
(-3.22335e-07 2.17061e-06 6.78153e-07)
(2.10912e-06 3.23992e-06 -2.02937e-06)
(-8.63743e-05 -0.000238123 -6.92633e-06)
(7.72237e-05 -9.28481e-05 -7.22099e-05)
(3.28696e-05 -0.000103048 3.37143e-05)
(-0.000133489 9.26543e-05 -5.36755e-06)
(-4.22359e-05 9.79182e-05 6.00301e-05)
(-2.46193e-05 -8.66775e-05 7.53596e-05)
(6.06548e-05 9.32152e-06 -5.29472e-05)
(-5.45512e-05 -5.52372e-05 0.000156552)
(-5.24669e-05 -0.000272041 -1.02464e-05)
(7.73224e-05 -4.44614e-05 -0.000140155)
(-0.000125253 0.000168772 -4.25694e-05)
(7.41497e-05 -7.66395e-06 9.32376e-05)
(0.000146788 6.48041e-05 -3.3591e-05)
(3.39333e-05 -0.00011278 -7.97459e-06)
(5.34989e-05 -0.00015722 -6.63344e-06)
(-7.89707e-05 -6.25414e-05 7.19282e-05)
(0.000101531 -1.58149e-06 3.54035e-05)
(0.000156206 1.44258e-05 3.32e-06)
(2.0831e-05 -3.20427e-05 -6.23547e-05)
(0.000120632 -9.95813e-05 2.70736e-05)
(-2.92711e-07 -4.25307e-06 -1.47667e-05)
(-7.02842e-06 -8.85641e-07 4.29056e-06)
(-8.67788e-07 -7.58706e-06 -1.85706e-06)
(8.27513e-07 -3.72194e-06 -8.19446e-06)
(-3.53254e-06 3.54075e-06 -1.32039e-05)
(7.84944e-06 7.23955e-06 -9.78655e-06)
(2.60248e-06 1.99407e-06 -5.71579e-06)
(-1.42047e-05 -1.11282e-05 -2.15253e-05)
(-1.07986e-05 -1.69856e-05 -1.70369e-05)
(-2.56233e-06 -8.23618e-06 1.35843e-05)
(-1.40394e-05 4.03696e-06 -1.84439e-06)
(3.57554e-06 -8.23847e-06 -7.98418e-06)
(5.25272e-06 -1.70289e-06 1.37431e-05)
(-1.15351e-06 3.26771e-06 -1.66817e-06)
(3.34035e-06 -9.66612e-06 6.94504e-07)
(-9.13311e-06 -7.38048e-06 3.32422e-06)
(-3.72614e-06 -2.80469e-06 -3.35401e-06)
(-1.17059e-07 5.22611e-06 -1.45114e-05)
(3.65551e-06 1.07434e-05 -7.94136e-06)
(1.7075e-05 6.98301e-06 3.42823e-06)
(-7.9498e-08 1.81795e-07 -9.70394e-06)
(7.68467e-07 1.7076e-06 2.66913e-06)
(-2.88543e-06 3.89138e-06 -1.89474e-06)
(-9.918e-07 3.35854e-06 -7.58766e-06)
(4.63678e-06 -3.17686e-06 -1.01274e-05)
(-9.49107e-07 5.09309e-07 -6.01337e-06)
(3.08309e-06 -1.82506e-06 -1.44249e-06)
(3.52315e-06 -1.12353e-06 -1.44105e-05)
(-2.12329e-06 5.16808e-06 -1.41047e-05)
(-4.7025e-06 5.76051e-06 7.04431e-06)
(9.15945e-07 -2.08716e-06 -1.3539e-06)
(-5.34791e-06 -1.682e-07 -4.24707e-06)
(-2.17245e-06 2.02733e-06 1.21015e-05)
(2.36626e-06 -1.47049e-06 -1.3743e-06)
(5.64121e-07 -9.69429e-08 -2.62782e-08)
(4.77866e-06 1.19234e-06 4.29396e-06)
(-2.38459e-06 3.98424e-06 -9.38294e-07)
(-2.39949e-06 1.86104e-06 -8.14094e-06)
(-3.06918e-06 -2.38001e-06 -5.70171e-06)
(-6.23776e-06 -1.54935e-06 1.64151e-06)
(-3.20883e-07 9.65487e-07 -2.8751e-06)
(-4.28632e-07 2.34749e-06 6.25185e-07)
(-1.68437e-06 2.70235e-06 -1.34801e-06)
(-1.92464e-07 1.84895e-06 -1.35116e-06)
(3.01853e-06 -1.5668e-06 -2.3898e-06)
(-6.0629e-08 9.1226e-07 -2.023e-06)
(1.50933e-06 -1.16056e-06 -1.96999e-06)
(1.45711e-06 -1.13986e-06 -3.62157e-06)
(-1.99765e-06 3.07941e-06 -3.12653e-06)
(-3.37508e-06 3.12931e-06 4.63415e-07)
(4.98599e-07 -1.4856e-06 -8.51727e-07)
(-3.3494e-06 -7.80718e-07 -1.13115e-06)
(-1.65789e-06 7.89382e-07 2.53516e-06)
(1.09472e-06 -6.98695e-07 -8.41012e-08)
(6.21237e-07 -1.85409e-07 2.06077e-07)
(2.70665e-06 4.07348e-07 6.85975e-07)
(-1.33068e-06 2.42644e-06 -4.23687e-07)
(-1.68158e-06 1.31992e-06 -2.01584e-06)
(-1.13332e-06 -7.3588e-07 -1.45606e-06)
(-3.35256e-06 5.59324e-07 2.83586e-07)
(-1.91052e-06 -3.21342e-07 -5.84203e-07)
(-2.77993e-07 1.84967e-08 -7.59694e-07)
(-1.25033e-06 1.38425e-06 -2.76442e-07)
(-8.68957e-07 1.46886e-06 6.11109e-08)
(2.28842e-07 -5.01324e-08 1.15298e-06)
(-1.05443e-06 5.8515e-07 9.16956e-07)
(-8.82314e-07 4.45321e-07 9.4709e-08)
(-4.22487e-07 -1.35868e-07 -1.67101e-07)
(-1.31881e-06 6.49113e-07 1.18641e-07)
(-2.07398e-06 -4.35843e-07 6.88526e-07)
(-1.01313e-06 4.32514e-07 4.8262e-07)
(-2.16081e-06 8.78464e-07 5.02792e-07)
(-3.64373e-07 3.87605e-07 1.46325e-06)
(-4.38121e-07 1.71916e-06 5.11567e-07)
(-4.48909e-07 1.49767e-06 5.85488e-07)
(8.66619e-07 1.83328e-06 -2.16383e-07)
(-2.39622e-07 7.29826e-07 -1.02466e-06)
(-6.62389e-07 9.50459e-07 -1.18271e-08)
(-7.73447e-07 1.16276e-06 -7.23406e-07)
(6.0354e-08 7.61768e-07 -8.29493e-07)
(1.21241e-06 -5.71616e-07 -9.63081e-07)
(-1.57745e-07 1.02309e-07 -4.03772e-07)
(4.44015e-07 -4.17999e-07 -1.56706e-07)
(8.50524e-08 -1.82627e-07 -1.24946e-06)
(-1.08599e-06 9.66252e-07 -1.2357e-06)
(-1.66412e-06 1.31782e-06 7.87312e-07)
(-7.85073e-07 -5.16314e-07 -1.52218e-07)
(-2.18326e-06 1.84935e-07 -4.27798e-07)
(-1.20542e-06 5.04263e-07 1.1322e-06)
(3.11637e-08 -1.4008e-07 7.17758e-08)
(5.15886e-08 1.99828e-07 8.5724e-08)
(7.91887e-07 4.09178e-07 3.75149e-07)
(-7.29019e-07 1.29972e-06 1.45686e-07)
(-9.12018e-07 9.834e-07 -7.77045e-07)
(-7.95674e-07 1.59154e-07 -2.99017e-07)
(-1.70872e-06 3.48663e-07 -1.54382e-08)
(0.000166667 -1.7227e-05 1.22636e-05)
(-4.39198e-05 -0.000147373 0.000143451)
(3.64951e-05 -5.97064e-05 3.93356e-05)
(5.21161e-06 -0.000106271 0.000134916)
(-0.000258867 -3.20642e-05 -1.90396e-05)
(8.74552e-06 1.8444e-05 -6.91188e-05)
(-0.00011826 -8.2964e-05 -1.88265e-05)
(-0.000219944 5.85388e-05 -0.000112068)
(-0.000157051 5.31032e-05 -2.39562e-05)
(-8.0572e-05 -3.48166e-05 4.19715e-05)
(-0.000201526 -0.000138796 -7.77103e-05)
(-0.000165389 4.3869e-05 -0.000201833)
(0.000114096 0.000209423 5.25928e-05)
(8.7698e-05 -2.76423e-05 6.77269e-05)
(-1.17745e-05 -1.56368e-06 -4.30146e-05)
(-1.50517e-05 6.17911e-05 0.000110176)
(0.00010816 -0.000111006 -2.42086e-05)
(0.000165377 2.75447e-05 8.89719e-05)
(0.000121448 -0.000129591 -9.99097e-05)
(0.000107673 -5.97139e-05 -5.33523e-05)
(0.000127474 -0.000183603 -0.000231269)
(3.3082e-06 -0.000299342 4.20639e-05)
(-1.49122e-05 -3.1141e-05 0.000124856)
(3.45049e-05 4.3461e-05 -5.3971e-05)
(2.98141e-05 -0.000172906 -3.83062e-05)
(-0.000152772 -0.000123581 7.36995e-05)
(-6.12536e-05 -9.07748e-05 -3.69741e-05)
(-0.000144356 -9.99751e-05 4.93419e-06)
(1.58474e-05 3.52532e-06 6.06773e-07)
(-3.55873e-07 -3.85889e-07 -6.84553e-06)
(-3.66388e-06 3.58834e-06 5.2628e-06)
(8.10664e-06 -3.75065e-06 -9.72571e-06)
(-1.66259e-06 -5.38592e-06 -1.326e-05)
(-6.89459e-06 -1.25973e-06 7.20754e-06)
(-8.22901e-06 -2.02365e-06 1.36922e-05)
(-8.9927e-06 1.10225e-05 1.40128e-05)
(-7.47585e-07 1.05139e-05 -5.54983e-06)
(-5.71829e-06 -1.50301e-05 9.32907e-06)
(-1.77709e-05 -1.7172e-05 2.56314e-05)
(-1.17613e-05 7.83934e-06 6.06318e-06)
(7.05369e-06 1.0342e-05 -2.25455e-05)
(6.81728e-06 -2.1717e-06 -6.47387e-06)
(-4.49404e-06 -1.93486e-06 1.34637e-05)
(-6.03879e-06 -2.40119e-07 -2.91403e-06)
(2.05791e-06 -9.93658e-06 -5.00428e-06)
(-4.57996e-06 1.27766e-06 6.81687e-06)
(3.15519e-06 -1.03369e-07 9.51216e-06)
(9.52099e-06 -3.0315e-06 -1.15522e-06)
(5.00043e-06 -6.28409e-06 6.6614e-06)
(1.74804e-06 -1.53868e-05 -6.38527e-06)
(-7.19374e-07 -6.39228e-06 -1.12671e-05)
(2.73659e-06 4.45264e-06 1.30904e-05)
(6.53828e-06 2.97083e-06 1.18595e-05)
(4.80854e-07 1.07806e-05 2.16948e-06)
(6.57529e-06 7.93721e-06 1.02032e-05)
(1.4355e-06 -1.6149e-06 1.08703e-06)
(-3.21981e-06 2.94329e-07 -1.12566e-06)
(1.07598e-06 -1.07112e-06 -1.88143e-06)
(-2.38425e-07 -8.6115e-07 9.20554e-07)
(-4.26691e-06 -6.41597e-08 -6.32017e-06)
(2.91195e-06 5.20199e-07 -1.03186e-05)
(6.18248e-06 -3.96801e-06 6.94021e-06)
(3.32042e-06 -1.02559e-06 1.01144e-05)
(6.26285e-06 -3.77302e-06 8.27734e-06)
(2.72442e-06 -4.40103e-07 -1.61339e-06)
(5.3134e-06 3.18418e-06 8.81078e-06)
(7.73349e-06 -2.03533e-06 1.54367e-05)
(4.40193e-06 -8.58279e-06 -1.98588e-06)
(-6.01702e-06 -2.54947e-06 -1.88821e-05)
(-3.90777e-06 3.12141e-06 -6.28885e-06)
(-2.58561e-06 1.01216e-06 5.22419e-06)
(5.85707e-07 1.00452e-06 -8.4093e-07)
(-3.87157e-06 1.34265e-06 -5.27193e-06)
(-4.21158e-06 -4.71887e-07 5.94993e-06)
(1.59675e-06 3.38167e-06 8.30033e-06)
(1.71981e-06 2.97657e-07 -2.34475e-06)
(-9.53532e-07 2.22598e-06 3.56918e-08)
(9.74777e-07 1.58851e-06 -5.78431e-06)
(7.31655e-07 -3.24885e-06 -6.4517e-06)
(-3.46662e-06 -2.1829e-06 1.16724e-05)
(-5.43547e-06 3.52967e-06 1.02708e-05)
(-1.79801e-06 1.18544e-06 1.59871e-06)
(-1.87011e-06 3.11915e-08 3.59805e-06)
(-2.17491e-07 1.94695e-06 -1.1964e-06)
(-1.25374e-06 8.26269e-07 2.43997e-07)
(3.2095e-07 -3.10662e-07 -1.83314e-06)
(-4.36993e-07 1.8444e-07 1.24212e-06)
(-1.51462e-06 -3.023e-07 -1.57965e-06)
(2.09966e-06 1.46887e-08 -2.05312e-06)
(3.56364e-06 -2.59441e-06 5.17347e-07)
(1.70368e-06 -5.3044e-07 2.65329e-06)
(3.76765e-06 -1.77532e-06 2.08562e-06)
(1.49515e-06 -4.62579e-07 -3.03448e-07)
(2.39281e-06 1.43363e-06 1.83375e-06)
(4.08932e-06 -1.8612e-06 2.67436e-06)
(1.67147e-06 -5.37144e-06 5.70511e-07)
(-4.36154e-06 -1.50077e-06 -3.8854e-06)
(-2.9586e-06 1.35818e-06 -1.22258e-06)
(-2.01282e-06 -4.47383e-08 1.15287e-06)
(1.85313e-07 -4.08235e-09 1.79423e-08)
(-3.01905e-06 2.68542e-07 -1.5546e-07)
(-3.17486e-06 -3.34421e-07 1.93605e-06)
(7.15461e-07 1.78551e-06 2.29942e-06)
(1.28556e-06 4.48317e-08 2.82051e-07)
(-3.46162e-07 1.12118e-06 1.01291e-06)
(7.30189e-07 7.2239e-07 -6.01758e-07)
(5.61635e-07 -1.91402e-06 -3.21252e-07)
(-1.59117e-06 -1.65926e-06 2.27199e-06)
(-3.52405e-06 2.36797e-06 1.80589e-06)
(-5.43113e-07 1.56892e-06 3.11958e-08)
(-1.21927e-06 8.45059e-07 1.46802e-06)
(-2.57377e-07 1.78816e-06 3.78105e-07)
(-1.08683e-06 2.69976e-07 -5.89799e-07)
(2.64826e-07 1.70504e-07 -6.32965e-07)
(-2.04088e-07 -2.34469e-07 -4.01717e-07)
(-8.65738e-07 -2.87796e-07 -6.99778e-07)
(8.52059e-07 -1.42177e-07 -1.00371e-06)
(1.43849e-06 -1.0795e-06 5.52256e-07)
(1.14327e-06 -3.68263e-07 1.08421e-06)
(1.85451e-06 -8.34473e-07 9.64303e-07)
(8.80416e-07 -3.23074e-07 1.43991e-07)
(1.42913e-06 1.06927e-07 7.6457e-07)
(1.40534e-06 -8.809e-07 1.41206e-06)
(7.30857e-07 -2.18501e-06 -2.93178e-07)
(-1.74592e-06 -7.74703e-07 -1.85208e-06)
(-1.36166e-06 5.65623e-07 -9.99452e-07)
(-1.34438e-06 1.81363e-07 5.17444e-07)
(-9.41096e-07 2.45884e-07 -3.31463e-07)
(-2.03371e-06 3.37383e-07 -4.96671e-07)
(-1.8358e-06 9.63314e-08 7.00096e-07)
(-5.99389e-08 9.67759e-07 8.7081e-07)
(4.35284e-07 1.87432e-07 -6.9937e-08)
(-2.65239e-07 5.84061e-07 2.48274e-08)
(1.31391e-07 2.16522e-07 -4.97356e-07)
(-2.48544e-07 -3.93002e-07 -4.53774e-07)
(-6.70789e-07 1.52569e-08 1.01881e-06)
(-1.533e-06 1.43102e-06 1.16224e-06)
(-2.23172e-07 1.03657e-06 -1.61211e-09)
(-6.55588e-07 4.3867e-07 5.52351e-07)
(-1.33163e-07 7.92399e-07 -4.08425e-07)
(0.000160932 0.000236827 -8.94127e-06)
(-5.34438e-05 -4.05028e-05 0.000164635)
(0.000222925 -8.4004e-05 0.000210829)
(-5.3122e-05 -0.000293804 0.000112566)
(3.9443e-06 1.2253e-05 -1.64402e-06)
(2.85374e-06 1.25947e-05 -1.26648e-05)
(1.0009e-05 2.7656e-06 -9.84991e-06)
(4.29274e-08 -1.58003e-06 -4.25243e-06)
)
;

boundaryField
{
    top_fluid_surface
    {
        type            pressureInletOutletVelocity;
        value           nonuniform List<vector> 
64
(
(0 0 -0.000173366)
(0.000190457 -2.94691e-06 5.57177e-05)
(-5.74523e-05 -5.02221e-05 7.0655e-05)
(0 0 -4.82271e-05)
(-8.26467e-06 -2.66143e-05 3.56816e-05)
(0 0 -2.87506e-05)
(0 0 -7.27002e-05)
(0 0 -7.60134e-05)
(0 0 -4.38453e-05)
(0 0 -6.65553e-05)
(-1.76012e-05 -9.18349e-05 4.28448e-05)
(0 0 -7.95795e-05)
(0 0 -6.92633e-06)
(0 0 -7.22099e-05)
(3.28696e-05 -0.000103048 3.37143e-05)
(-0.000133489 9.26543e-05 -5.36755e-06)
(-4.22359e-05 9.79182e-05 6.00301e-05)
(-2.46193e-05 -8.66775e-05 7.53596e-05)
(0 0 -5.29472e-05)
(-5.45512e-05 -5.52372e-05 0.000156552)
(-5.24669e-05 -0.000272041 -1.02464e-05)
(0 0 -0.000140155)
(0 0 -4.25694e-05)
(7.41497e-05 -7.66395e-06 9.32376e-05)
(0 0 -3.3591e-05)
(0 0 -7.97459e-06)
(0 0 -6.63344e-06)
(-7.89707e-05 -6.25414e-05 7.19282e-05)
(0.000101531 -1.58149e-06 3.54035e-05)
(0 0 3.32e-06)
(0 0 -6.23547e-05)
(0.000120632 -9.95813e-05 2.70736e-05)
(0.000166667 -1.7227e-05 1.22636e-05)
(-4.39198e-05 -0.000147373 0.000143451)
(3.64951e-05 -5.97064e-05 3.93356e-05)
(5.21161e-06 -0.000106271 0.000134916)
(0 0 -1.90396e-05)
(0 0 -6.91188e-05)
(0 0 -1.88265e-05)
(0 0 -0.000112068)
(0 0 -2.39562e-05)
(-8.0572e-05 -3.48166e-05 4.19715e-05)
(0 0 -7.77103e-05)
(0 0 -0.000201833)
(0.000114096 0.000209423 5.25928e-05)
(8.7698e-05 -2.76423e-05 6.77269e-05)
(0 0 -4.30146e-05)
(-1.50517e-05 6.17911e-05 0.000110176)
(0 0 -2.42086e-05)
(0.000165377 2.75447e-05 8.89719e-05)
(0 0 -9.99097e-05)
(0 0 -5.33523e-05)
(0 0 -0.000231269)
(3.3082e-06 -0.000299342 4.20639e-05)
(-1.49122e-05 -3.1141e-05 0.000124856)
(0 0 -5.3971e-05)
(0 0 -3.83062e-05)
(-0.000152772 -0.000123581 7.36995e-05)
(0 0 -3.69741e-05)
(-0.000144356 -9.99751e-05 4.93419e-06)
(0.000160932 0.000236827 -8.94127e-06)
(-5.34438e-05 -4.05028e-05 0.000164635)
(0.000222925 -8.4004e-05 0.000210829)
(-5.3122e-05 -0.000293804 0.000112566)
)
;
    }
    bottom_fluid_surface
    {
        type            noSlip;
    }
    lateral_surface_1
    {
        type            noSlip;
    }
    lateral_surface_2
    {
        type            noSlip;
    }
    lateral_surface_3
    {
        type            noSlip;
    }
    lateral_surface_4
    {
        type            noSlip;
    }
}


// ************************************************************************* //
