/*--------------------------------*- C++ -*----------------------------------*\
| =========                 |                                                 |
| \\      /  F ield         | OpenFOAM: The Open Source CFD Toolbox           |
|  \\    /   O peration     | Version:  v1612+                                |
|   \\  /    A nd           | Web:      www.OpenFOAM.com                      |
|    \\/     M anipulation  |                                                 |
\*---------------------------------------------------------------------------*/
FoamFile
{
    version     2.0;
    format      ascii;
    class       volScalarField;
    location    "4.85";
    object      alpha.water;
}
// * * * * * * * * * * * * * * * * * * * * * * * * * * * * * * * * * * * * * //

dimensions      [0 0 0 0 0 0 0];

internalField   nonuniform List<scalar> 
1116
(
0.381939
0.381937
0.381937
0.381936
0.381937
0.381942
0.388462
0.388459
0.388459
0.388458
0.388459
0.388465
0.414795
0.414792
0.414791
0.414791
0.414793
0.414798
0.492967
0.492964
0.492965
0.492965
0.492966
0.492971
0.662638
0.662636
0.662638
0.662638
0.662638
0.662643
0.916226
0.916223
0.916224
0.916224
0.916224
0.916228
0.974341
0.974341
0.974341
0.974341
0.974341
0.974341
0.974337
0.974337
0.974337
0.974337
0.974337
0.974337
0.974326
0.974326
0.974326
0.974326
0.974326
0.974326
0.974312
0.974312
0.974312
0.974312
0.974312
0.974312
0.974195
0.974195
0.974195
0.974195
0.974195
0.974195
0.973799
0.973801
0.9738
0.9738
0.9738
0.9738
5.21018e-08
5.21017e-08
5.21017e-08
5.21017e-08
5.21018e-08
5.21026e-08
5.21023e-08
5.21018e-08
5.21017e-08
5.21018e-08
5.21026e-08
5.21037e-08
5.53718e-08
5.53703e-08
5.53704e-08
5.53711e-08
5.5371e-08
5.537e-08
0.00863191
0.00863043
0.00863087
0.00863134
0.00863077
0.00863079
0.0750629
0.0750621
0.0750611
0.0750602
0.0750594
0.0750584
0.408358
0.408401
0.408374
0.408366
0.408379
0.408359
0.89681
0.89683
0.896815
0.896812
0.896817
0.896812
0.974329
0.974329
0.974329
0.974329
0.974329
0.974329
0.974282
0.974284
0.974283
0.974283
0.974284
0.974283
0.95915
0.959215
0.959189
0.959181
0.959196
0.959176
0.932044
0.932105
0.932082
0.932065
0.93207
0.932082
0.942883
0.942816
0.942851
0.942842
0.942807
0.9429
7.99049e-08
7.99022e-08
7.98901e-08
7.99083e-08
7.99267e-08
7.99324e-08
5.60957e-08
5.60967e-08
5.60897e-08
5.6085e-08
5.60947e-08
5.60974e-08
2.52281e-07
2.52194e-07
2.52225e-07
2.52235e-07
2.52197e-07
2.52159e-07
7.4525e-06
7.44903e-06
7.45029e-06
7.45085e-06
7.44929e-06
7.4482e-06
0.000277022
0.000276961
0.000276976
0.000276981
0.000276953
0.000276941
0.0517552
0.051761
0.051756
0.0517493
0.0517526
0.0517444
0.420599
0.420736
0.420667
0.420658
0.420707
0.420608
0.629044
0.629354
0.629208
0.629198
0.629303
0.629109
0.59618
0.596564
0.596389
0.596377
0.596503
0.596276
0.374281
0.374524
0.374423
0.374402
0.374461
0.374373
0.270056
0.270145
0.27011
0.27008
0.270077
0.270124
0.292079
0.291884
0.291986
0.291957
0.29185
0.292139
5.215e-08
5.20875e-08
5.21021e-08
5.21032e-08
5.20804e-08
5.21647e-08
3.06118e-07
3.06143e-07
3.06143e-07
3.06115e-07
3.06107e-07
3.06107e-07
4.71859e-08
4.71158e-08
4.71334e-08
4.71797e-08
4.71643e-08
4.71876e-08
1.21008e-06
1.20736e-06
1.20824e-06
1.20936e-06
1.20834e-06
1.2091e-06
0.00011309
0.000111359
0.00011218
0.000112278
0.000111571
0.000112517
0.0302867
0.0302494
0.0302611
0.0302801
0.0302667
0.0302745
0.0614239
0.0614506
0.0614244
0.0614573
0.0614729
0.0614298
0.0596934
0.0597329
0.0597006
0.0597301
0.0597523
0.0597042
0.0129332
0.0129629
0.0129437
0.0129546
0.0129677
0.0129439
4.99147e-06
4.99057e-06
4.98924e-06
4.9902e-06
4.98916e-06
4.98811e-06
5.018e-06
5.0168e-06
5.0177e-06
5.01665e-06
5.01568e-06
5.01555e-06
9.97391e-06
9.97178e-06
9.97137e-06
9.97128e-06
9.96924e-06
9.9681e-06
2.97285e-07
3.1649e-07
2.7663e-07
3.09946e-07
3.83176e-07
1.98092e-07
5.54457e-07
5.91579e-07
5.19152e-07
5.72167e-07
7.14535e-07
3.77258e-07
1.04218e-05
1.10188e-05
9.88784e-06
1.06224e-05
1.29838e-05
7.67369e-06
0.000204296
0.000202786
0.000161631
0.000193341
0.000285427
0.000133137
0.0205516
0.020621
0.0192844
0.0206095
0.0237071
0.0165223
0.0440259
0.0446733
0.044406
0.0451445
0.0484111
0.044125
0.0490991
0.0498137
0.0504905
0.0501777
0.0511737
0.052256
0.0507822
0.0515271
0.0521488
0.0516897
0.0521678
0.0540567
0.0521338
0.052785
0.0536147
0.0535355
0.0544599
0.0555567
0.0487725
0.0495313
0.0503496
0.0470214
0.0498243
0.051845
0.0203905
0.0205425
0.0221747
0.0188884
0.0178901
0.0239253
0.000572735
0.000567368
0.000564096
0.000573224
0.000596012
0.00147762
2.44392e-08
2.62114e-08
2.26071e-08
2.61427e-08
3.28868e-08
1.59836e-08
2.0348e-07
2.17437e-07
1.90075e-07
2.13617e-07
2.66002e-07
1.36954e-07
0.000251684
0.000260178
0.000236079
0.000253937
0.000291343
0.00018813
0.00111405
0.0011207
0.0010879
0.00111185
0.00113974
0.00100132
0.000568301
0.000556332
0.000594399
0.00058037
0.000522301
0.000700385
1.75295e-07
1.71379e-07
1.66561e-07
1.62369e-07
1.62369e-07
1.64064e-07
4.7876e-07
5.03552e-07
5.12026e-07
4.34037e-07
2.28633e-07
4.91772e-07
0.00435747
0.00401333
0.0039326
0.00257556
0.000400617
0.00326467
0.0516245
0.0526536
0.0537666
0.0478024
0.040233
0.0556846
0.0715873
0.0729971
0.0745838
0.07534
0.0789273
0.0809564
0.0688385
0.0704534
0.0753077
0.05529
0.0262972
0.0818923
0.000567386
0.000564096
0.000564096
0.000564096
0.000573224
0.000596012
9.16907e-10
9.93674e-10
8.42228e-10
9.8706e-10
1.2889e-09
5.69855e-10
5.77446e-07
6.55219e-07
4.62175e-07
6.23599e-07
9.91623e-07
2.12479e-07
7.94254e-05
8.25888e-05
7.39355e-05
8.22335e-05
9.25847e-05
5.62308e-05
0.000184363
0.000183719
0.000185991
0.000185756
0.000179038
0.000193711
1.75295e-07
1.71379e-07
1.66561e-07
1.62369e-07
1.62369e-07
1.64064e-07
1.54046e-07
1.48389e-07
1.43028e-07
1.42386e-07
1.51814e-07
1.40204e-07
3.78125e-09
3.70138e-09
3.82549e-09
3.57619e-09
3.6008e-09
4.88504e-09
-3.52144e-08
-3.41095e-08
-3.15139e-08
-3.21011e-08
-2.19003e-08
-2.39109e-08
5.10499e-06
5.86834e-06
6.12585e-06
6.4368e-06
8.554e-06
7.60279e-06
0.049977
0.0513052
0.0544197
0.043952
0.0170006
0.055058
0.0997292
0.100219
0.100541
0.101368
0.10278
0.10361
0.0538653
0.0590856
0.0757912
0.0326829
0.000596012
0.0809928
4.87881e-11
5.26402e-11
4.50026e-11
5.23223e-11
6.84613e-11
3.04732e-11
1.81591e-08
2.30661e-08
1.23386e-08
2.08457e-08
4.72062e-08
3.08953e-09
6.58353e-08
7.27789e-08
5.88778e-08
7.18077e-08
9.91674e-08
3.89659e-08
3.51628e-07
3.51238e-07
3.56688e-07
3.56699e-07
3.50134e-07
3.69521e-07
9.9356e-07
9.93616e-07
9.53281e-07
9.47545e-07
8.93482e-07
8.05287e-07
3.32949e-07
3.30933e-07
3.48105e-07
3.46925e-07
3.41418e-07
4.49507e-07
-7.5004e-11
-6.58853e-11
-4.9896e-11
-7.01389e-11
-5.36042e-11
-2.42952e-11
4.84648e-11
4.71648e-11
4.93289e-11
4.95271e-11
5.58487e-11
5.36501e-11
-2.05719e-11
-5.28159e-11
-2.78055e-10
-4.34386e-10
-5.37368e-10
-1.02193e-10
5.24336e-06
6.02069e-06
6.2689e-06
6.6417e-06
1.40012e-05
7.75306e-06
0.0965675
0.0984985
0.100772
0.0996629
0.0882729
0.103793
0.188172
0.188385
0.188534
0.188534
0.188335
0.188017
9.36395e-09
9.34747e-09
9.35244e-09
9.35101e-09
9.33963e-09
9.36627e-09
5.43338e-11
5.32182e-11
5.35709e-11
5.35069e-11
5.28445e-11
5.45297e-11
3.16567e-12
3.16365e-12
3.15881e-12
3.15563e-12
3.15563e-12
3.15563e-12
1.39566e-07
1.39227e-07
1.39317e-07
1.39308e-07
1.39131e-07
1.39596e-07
1.02926e-11
9.63738e-12
9.80417e-12
9.81836e-12
9.49025e-12
1.03278e-11
3.17236e-12
3.16568e-12
3.16366e-12
3.15882e-12
3.15564e-12
3.16383e-12
8.21106e-10
8.19664e-10
8.20045e-10
8.20887e-10
8.2026e-10
8.20757e-10
1.54211e-11
1.53839e-11
1.53894e-11
1.53898e-11
1.53722e-11
1.54157e-11
8.46933e-12
8.44374e-12
8.44653e-12
8.44244e-12
8.43007e-12
8.46373e-12
3.91542e-08
3.90724e-08
3.9098e-08
3.91376e-08
3.91049e-08
3.91287e-08
9.85694e-10
9.86957e-10
9.86121e-10
9.86133e-10
9.85826e-10
9.85393e-10
1.54211e-11
1.53839e-11
1.53894e-11
1.53898e-11
1.53723e-11
1.54157e-11
8.67178e-05
8.57604e-05
8.6115e-05
8.6499e-05
8.61364e-05
8.65369e-05
5.15157e-06
5.10053e-06
5.11242e-06
5.15599e-06
5.13838e-06
5.15187e-06
1.37005e-09
1.36691e-09
1.36776e-09
1.36931e-09
1.36801e-09
1.36921e-09
0.0014483
0.00144326
0.00144528
0.00144754
0.00144543
0.00144722
3.19036e-06
3.18961e-06
3.18938e-06
3.19191e-06
3.19145e-06
3.19118e-06
7.7991e-07
7.73991e-07
7.76037e-07
7.78721e-07
7.76312e-07
7.78882e-07
2.12977e-06
2.12977e-06
2.12974e-06
2.12936e-06
2.12911e-06
2.12911e-06
1.04947e-05
1.05065e-05
1.05015e-05
1.0503e-05
1.05056e-05
1.0494e-05
4.56095e-06
4.55888e-06
4.55946e-06
4.56144e-06
4.56171e-06
4.56139e-06
1.48642e-06
1.49201e-06
1.48926e-06
1.48878e-06
1.48879e-06
1.48155e-06
6.82555e-06
6.82789e-06
6.82686e-06
6.82598e-06
6.82533e-06
6.82171e-06
4.29015e-06
4.30934e-06
4.30014e-06
4.29987e-06
4.30247e-06
4.28684e-06
4.22377e-07
4.27738e-07
4.25049e-07
4.24689e-07
4.2483e-07
4.17842e-07
4.83346e-07
4.93169e-07
4.88117e-07
4.87687e-07
4.87913e-07
4.74521e-07
2.89883e-07
2.92333e-07
2.9129e-07
2.9123e-07
2.91423e-07
2.90132e-07
1.68676e-09
1.68945e-09
1.6902e-09
1.69035e-09
1.69082e-09
1.68838e-09
8.44533e-10
8.44533e-10
8.45294e-10
8.4536e-10
8.45445e-10
8.45493e-10
1.67566e-11
1.96269e-11
1.80774e-11
1.62266e-11
1.65472e-11
2.00728e-11
1.9341e-08
2.16762e-08
2.15053e-08
2.13786e-08
2.16527e-08
1.99394e-08
1.82378e-09
1.8627e-09
1.84231e-09
1.81828e-09
1.82308e-09
1.86805e-09
3.05911e-06
3.05915e-06
3.05913e-06
3.05905e-06
3.05903e-06
3.05907e-06
0.0318346
0.0318335
0.0318389
0.0318345
0.0318434
0.0318353
6.07323e-21
6.04782e-21
6.06052e-21
6.03934e-21
6.01393e-21
6.11981e-21
1.44597e-06
1.43863e-06
1.44194e-06
1.43852e-06
1.43296e-06
1.45484e-06
0.275629
0.27564
0.275658
0.275649
0.275659
0.27571
1.15196e-20
2.05998e-20
2.30741e-20
2.35852e-18
1.19166e-14
4.82202e-20
-1.52361e-25
5.31924e-35
3.55455e-31
2.89679e-26
2.37132e-14
-1.48212e-25
0.275996
0.276007
0.276017
0.276027
0.27604
0.276044
4.82521e-05
8.98598e-05
9.94869e-05
5.16911e-26
4.73345e-22
0.000216804
-1.70896e-24
-7.32183e-25
-3.37347e-24
-1.26174e-24
-8.94047e-25
-1.29926e-24
0.274704
0.27471
0.274743
0.27465
0.274589
0.274855
-5.92748e-14
-4.78568e-14
-8.92542e-14
-8.227e-15
-5.63273e-13
-5.77032e-15
-1.94323e-24
-1.84031e-24
-1.93698e-24
-1.69569e-24
-3.28894e-24
-1.10555e-24
0.240175
0.24013
0.240356
0.239576
0.239141
0.240891
-7.34935e-18
-1.10878e-17
-5.04865e-16
-1.81837e-15
-5.46012e-24
-4.18814e-24
-3.6182e-24
-4.47654e-24
-4.90089e-24
-4.81644e-24
-4.60147e-24
-3.61272e-24
0.220071
0.220063
0.220207
0.219837
0.219631
0.22052
-1.87243e-16
-2.7061e-16
-1.23047e-14
-4.67994e-14
-4.07434e-24
-3.24003e-24
-8.7624e-25
-1.22917e-24
-1.19635e-24
-2.48764e-24
-3.50748e-24
-2.77283e-24
0.180563
0.18056
0.180646
0.18047
0.180404
0.180788
-4.23727e-17
-5.75093e-17
-2.45646e-15
-9.37183e-15
-2.0403e-18
-6.41403e-18
-1.76382e-25
-2.62624e-25
-2.41267e-25
-6.41899e-25
-9.62811e-25
-7.61873e-25
2.47003e-12
2.66193e-12
2.25789e-12
2.60339e-12
3.3763e-12
1.55492e-12
5.6617e-13
5.45939e-13
5.18962e-13
5.11677e-13
4.49575e-13
3.68475e-13
5.45928e-13
5.18953e-13
5.11664e-13
4.40075e-13
3.68469e-13
3.68463e-13
4.89597e-11
5.29764e-11
4.49402e-11
5.25646e-11
6.86999e-11
3.03966e-11
2.27051e-12
2.40717e-12
2.14202e-12
2.42103e-12
3.05077e-12
1.65035e-12
5.66174e-13
5.45943e-13
5.18967e-13
5.1168e-13
4.49577e-13
3.6848e-13
3.58623e-09
3.92369e-09
3.21949e-09
3.8857e-09
5.25867e-09
2.13719e-09
1.77922e-10
1.94472e-10
1.59571e-10
1.92307e-10
2.59781e-10
1.05173e-10
1.18115e-11
1.27616e-11
1.07154e-11
1.26524e-11
1.64108e-11
7.26297e-12
1.34561e-08
1.3465e-08
1.36477e-08
1.37095e-08
1.35237e-08
1.4107e-08
4.49469e-10
4.50499e-10
4.55053e-10
4.58472e-10
4.5388e-10
4.66759e-10
4.24301e-11
4.28635e-11
4.20487e-11
4.29504e-11
4.32879e-11
4.05122e-11
8.1799e-08
8.32392e-08
7.8015e-08
8.02731e-08
8.04804e-08
6.34107e-08
2.95045e-11
2.97053e-11
2.92937e-11
2.98314e-11
2.98502e-11
1.05897e-10
5.34793e-12
5.3517e-12
5.26428e-12
5.39254e-12
5.41275e-12
5.25589e-12
2.32084e-08
2.31172e-08
2.35991e-08
2.2921e-08
2.22633e-08
2.25212e-08
5.2941e-12
5.30063e-12
5.21321e-12
5.34262e-12
5.36223e-12
5.20659e-12
5.12025e-12
5.12179e-12
5.03795e-12
5.16149e-12
5.18092e-12
5.03919e-12
4.32438e-09
4.19046e-09
4.42743e-09
4.45223e-09
4.38185e-09
4.9462e-09
5.01007e-12
4.98272e-12
4.93267e-12
5.00339e-12
5.01469e-12
4.93709e-12
5.00191e-12
5.00967e-12
4.92455e-12
5.05099e-12
5.06945e-12
4.92908e-12
-1.17332e-13
-1.21671e-13
-1.80828e-13
7.46224e-13
3.30758e-12
1.26135e-12
9.30116e-12
9.30116e-12
9.30313e-12
9.49229e-12
9.49229e-12
9.18786e-12
2.66753e-12
2.70234e-12
2.6363e-12
2.74646e-12
2.80065e-12
2.65361e-12
-1.18577e-10
-4.9003e-11
-6.118e-11
-6.58849e-11
-2.73688e-15
-6.0777e-11
2.38939e-12
2.33139e-12
2.31343e-12
2.33601e-12
2.22965e-12
2.02438e-12
1.13765e-21
1.17773e-21
1.15706e-21
7.43532e-17
8.75482e-22
8.97853e-22
-9.25024e-08
-1.05559e-07
-1.07593e-07
-1.40658e-07
-1.67054e-07
-1.46007e-07
4.65299e-11
-2.31224e-12
-4.48457e-12
1.26794e-10
1.04748e-09
6.35569e-11
7.11941e-08
6.92588e-08
6.4744e-08
7.14147e-08
7.12943e-08
7.11911e-08
-8.44753e-09
-4.28525e-08
-1.06479e-07
-7.43141e-08
-7.3644e-08
-1.0944e-08
2.79276e-10
2.80997e-10
2.85484e-10
6.29533e-10
8.84156e-10
1.93836e-09
1.0154e-11
2.38384e-09
1.10635e-08
1.70159e-09
5.25347e-08
3.3367e-08
0.15394
0.153321
0.152625
0.159669
0.163792
0.154019
1.59326e-10
1.96326e-10
3.32729e-10
3.6066e-10
1.26375e-09
1.52355e-09
4.51417e-07
3.55047e-07
2.89721e-07
1.13266e-06
2.58988e-06
2.4626e-07
)
;

boundaryField
{
    seabed_topleft_surface
    {
        type            zeroGradient;
    }
    seabed_topright_surface
    {
        type            zeroGradient;
    }
    breakwater_top_surface
    {
        type            zeroGradient;
    }
    breakwater_left_surface
    {
        type            zeroGradient;
    }
    breakwater_right_surface
    {
        type            zeroGradient;
    }
    water_front_surface
    {
        type            zeroGradient;
    }
    water_back_surface
    {
        type            zeroGradient;
    }
    water_left_surface
    {
        type            zeroGradient;
    }
    water_right_surface
    {
        type            zeroGradient;
    }
    water_top_surface
    {
        type            inletOutlet;
        inletValue      uniform 0;
        value           nonuniform List<scalar> 
180
(
3.16567e-12
3.16365e-12
3.15881e-12
3.15563e-12
3.15563e-12
3.15563e-12
3.17236e-12
3.16568e-12
3.16366e-12
3.15882e-12
3.15564e-12
3.16383e-12
8.46933e-12
8.44374e-12
8.44653e-12
8.44244e-12
8.43007e-12
8.46373e-12
1.54211e-11
1.53839e-11
1.53894e-11
1.53898e-11
1.53723e-11
1.54157e-11
1.37005e-09
1.36691e-09
1.36776e-09
1.36931e-09
1.36801e-09
1.36921e-09
7.7991e-07
7.73991e-07
7.76037e-07
7.78721e-07
7.76312e-07
7.78882e-07
4.56095e-06
4.55888e-06
4.55946e-06
4.56144e-06
4.56171e-06
4.56139e-06
0
0
0
0
0
0
0
0
0
0
0
0
0
0
0
0
0
0
0
0
0
0
0
0
0
0
0
0
0
0
0
0
0
0
0
0
0
0
0
0
0
0
0
0
0
0
0
0
0
0
0
0
0
0
0
0
0
0
0
0
0
0
0
0
0
0
5.45928e-13
5.18953e-13
5.11664e-13
4.40075e-13
3.68469e-13
3.68463e-13
5.66174e-13
5.45943e-13
5.18967e-13
5.1168e-13
4.49577e-13
3.6848e-13
1.18115e-11
1.27616e-11
1.07154e-11
1.26524e-11
1.64108e-11
7.26297e-12
4.24301e-11
4.28635e-11
4.20487e-11
4.29504e-11
4.32879e-11
4.05122e-11
5.34793e-12
5.3517e-12
5.26428e-12
5.39254e-12
5.41275e-12
5.25589e-12
5.12025e-12
5.12179e-12
5.03795e-12
5.16149e-12
5.18092e-12
5.03919e-12
0
0
0
0
0
0
0
0
0
0
0
0
0
0
0
0
0
0
0
0
0
0
0
0
0
0
0
0
0
0
0
0
0
0
0
0
)
;
    }
}


// ************************************************************************* //
