/*--------------------------------*- C++ -*----------------------------------*\
| =========                 |                                                 |
| \\      /  F ield         | OpenFOAM: The Open Source CFD Toolbox           |
|  \\    /   O peration     | Version:  v1612+                                |
|   \\  /    A nd           | Web:      www.OpenFOAM.com                      |
|    \\/     M anipulation  |                                                 |
\*---------------------------------------------------------------------------*/
FoamFile
{
    version     2.0;
    format      ascii;
    class       volScalarField;
    location    "4.85";
    object      p_rgh;
}
// * * * * * * * * * * * * * * * * * * * * * * * * * * * * * * * * * * * * * //

dimensions      [1 -1 -2 0 0 0 0];

internalField   nonuniform List<scalar> 
1116
(
3805.5
3805.47
3805.48
3805.47
3805.47
3805.52
3871.72
3871.7
3871.7
3871.69
3871.7
3871.75
4125.27
4125.24
4125.23
4125.23
4125.25
4125.29
5271.34
5271.3
5271.31
5271.31
5271.32
5271.36
8282.32
8282.25
8282.28
8282.28
8282.27
8282.31
14219.5
14219.5
14219.5
14219.4
14219.4
14219.5
19741
19741
19741
19741
19740.9
19741
22307.2
22307.4
22307.3
22307.4
22307.4
22307.3
23205.1
23205.5
23205.3
23205.3
23205.4
23205.2
24489.6
24489.4
24489.4
24489.4
24489.4
24489.5
25689.4
25688.8
25689
25689
25688.9
25689.3
25248.1
25248.1
25248.2
25248.2
25248.2
25248.4
30.0016
30.0016
30.0014
30.0013
30.0011
30.0007
33.1272
33.1266
33.126
33.1263
33.1263
33.1253
63.4634
63.4623
63.4624
63.4626
63.4626
63.4638
264.672
264.631
264.646
264.651
264.639
264.654
1551.29
1551.01
1551.09
1551.1
1551.01
1551.13
8360.43
8361.11
8360.68
8360.51
8360.73
8360.42
19397.2
19396.9
19396.9
19396.9
19396.8
19397
22030.2
22030.2
22030.3
22030.3
22030.3
22030.3
22983.1
22982.9
22983.1
22983.1
22983
22983.2
23191.1
23190.8
23191
23190.9
23190.7
23191.3
22088.3
22088.8
22088.6
22088.3
22088.1
22089
22093.8
22092.7
22093.2
22093.1
22092.7
22094.1
47.505
47.5047
47.5043
47.5041
47.504
47.504
45.2759
45.2759
45.2758
45.2756
45.2753
45.275
53.4055
53.4038
53.4044
53.4039
53.4034
53.4031
64.0256
64.0277
64.024
64.0216
64.0232
64.0213
80.7773
80.7156
80.7263
80.7261
80.7119
80.744
1476.28
1476.28
1476.21
1476.05
1476.1
1475.99
12629.5
12632.5
12631
12630.7
12631.8
12629.5
19329.3
19337.5
19333.7
19333.5
19336.2
19331.1
18452.2
18464.3
18458.8
18458.4
18462.4
18455.4
11007.7
11014.7
11011.8
11011.2
11012.9
11010.4
7969.56
7972.17
7971.14
7970.29
7970.22
7971.51
8716.42
8710.75
8713.73
8712.83
8709.49
8718.34
33.3837
33.3802
33.3793
33.3791
33.3797
33.3832
38.515
38.5144
38.5142
38.5141
38.5141
38.5146
49.6883
49.6864
49.6867
49.6871
49.6864
49.6868
61.1127
61.1059
61.107
61.1078
61.1056
61.1081
34.5313
34.465
34.4934
34.5004
34.4767
34.5117
1063.43
1062.06
1062.49
1063.17
1062.7
1063
2353.78
2354.77
2353.78
2355.06
2355.64
2354.01
2352.74
2354.17
2352.97
2354.12
2354.95
2353.17
478.746
479.813
479.11
479.556
480.038
479.135
-91.6373
-91.6472
-91.6512
-91.6449
-91.6418
-91.6507
46.358
46.3631
46.3589
46.3585
46.3897
46.3369
222.227
222.2
222.206
222.194
222.148
222.253
86.2337
86.356
86.2615
86.2853
86.517
85.925
87.8886
88.0885
87.9721
88.067
88.5369
87.7423
82.9877
83.2379
82.9698
83.3096
84.295
83.0176
80.3728
81.0733
80.6511
81.9654
84.854
81.6926
194.621
197.719
191.915
201.982
222.737
181.055
377.671
385.096
384.796
396.074
416.849
382.32
460.229
463.291
463.964
462.996
439.72
470.666
1423.18
1415.05
1396.28
1353.67
1229.03
1337.63
3161.61
3165.52
3172.88
3191.04
3195
3144.89
2628.01
2627.75
2661.71
2539.39
2474.71
2730.7
1388.13
1385.76
1389.23
1350.31
1287.43
1393.86
1270.11
1268.58
1265.19
1261.93
1251.54
1266.9
72.2968
72.4103
72.3613
72.4366
72.7233
72.1618
69.3899
69.5914
69.6124
69.7637
70.1673
69.6497
35.7854
36.046
36.1271
36.7644
37.5425
36.8221
-54.06
-53.8312
-52.9569
-52.5185
-52.7977
-49.3879
-145.422
-145.393
-144.819
-144.373
-143.628
-143.951
-114.5
-114.945
-115.444
-115.104
-115.139
-116.839
-44.2824
-45.8429
-47.6048
-50.6298
-56.6631
-51.4052
114.812
109.324
106.87
82.5482
44.1044
93.8673
1080.71
1094.12
1109.61
995.564
819.914
1129.25
1744.43
1756.49
1777.96
1697.05
1596.42
1873.12
1665.14
1685.59
1770.86
1412.13
899.832
1876.66
1040.78
1038.05
1032.82
1029
1003
1016.85
45.1582
45.2084
45.2195
45.2653
45.4083
45.2229
36.5376
36.6474
36.6585
36.7509
36.9782
36.6568
1.96638
2.05196
2.07118
2.26536
2.36982
2.59862
-65.2751
-65.2813
-65.0941
-65.1661
-65.351
-64.633
-91.3548
-91.4709
-91.8467
-92.109
-92.2349
-93.2286
-74.8264
-74.9837
-75.2169
-74.927
-74.2003
-76.1324
-33.1534
-33.3489
-33.3251
-32.9915
-31.6306
-33.3892
-14.8145
-14.9497
-14.8348
-14.3478
-12.9979
-14.4344
6.12404
5.51165
4.65621
1.95515
-5.85084
1.2699
1380.19
1414.53
1495.74
1210.75
488.47
1502.92
3076.74
3096.91
3112.55
3121.15
3288.41
3205.55
2314.95
2447
2817.38
1741.63
963.19
2903.4
24.7525
24.7664
24.7811
24.7962
24.8303
24.8075
15.9557
15.9895
16.0039
16.0368
16.1154
16.0142
-7.51762
-7.52032
-7.45116
-7.46049
-7.46022
-7.16865
-47.2455
-47.3851
-47.286
-47.4576
-47.5702
-46.8674
-75.4388
-75.7495
-75.524
-75.6615
-75.6824
-74.764
-58.2493
-58.3727
-58.4529
-58.5297
-58.6933
-58.7599
-24.2692
-24.2944
-24.2863
-24.1706
-23.895
-24.3273
-10.7011
-10.6257
-10.4772
-10.0812
-9.291
-10.1851
-8.34003
-8.34949
-8.34296
-8.31573
-8.23732
-8.39312
10.9161
11.2968
11.9717
10.5254
8.92986
12.1159
3416.56
3491.35
3580.86
3495.15
3066.69
3676.12
5718.22
5754.69
5821.84
5910.89
6652.55
5957
29.5196
29.5231
29.5237
29.5237
29.523
29.5195
15.4406
15.4409
15.4411
15.4412
15.441
15.4407
5.70293
5.70304
5.70307
5.70311
5.7031
5.703
30.2496
30.2503
30.2504
30.2505
30.2505
30.2498
16.0846
16.0849
16.085
16.0851
16.0852
16.0852
5.3004
5.3005
5.30052
5.30058
5.30062
5.3005
34.2812
34.2813
34.2817
34.282
34.2817
34.2819
17.4126
17.4129
17.4132
17.4135
17.4137
17.4139
4.57658
4.57658
4.5767
4.57686
4.57698
4.57709
32.8671
32.8653
32.8674
32.8707
32.8696
32.8705
9.49282
9.49131
9.49293
9.49496
9.49475
9.49658
0.854081
0.854774
0.854935
0.855532
0.856147
0.85626
-14.1471
-14.1466
-14.1414
-14.1232
-14.1253
-14.1306
-13.53
-13.5154
-13.5199
-13.5177
-13.5126
-13.5221
-5.93208
-5.92706
-5.92823
-5.92816
-5.92647
-5.92985
-5.40836
-5.62316
-5.53221
-5.43822
-5.52847
-5.45424
-47.2596
-47.2671
-47.2627
-47.2652
-47.267
-47.2656
-19.8486
-19.8528
-19.8513
-19.8512
-19.8528
-19.8525
-62.4526
-62.4498
-62.4491
-62.4492
-62.4498
-62.4534
-59.2225
-59.2407
-59.2331
-59.2349
-59.2429
-59.2347
-18.9671
-18.9681
-18.9668
-18.9687
-18.97
-18.9702
-41.4228
-41.4122
-41.4138
-41.4128
-41.4097
-41.4092
-48.5615
-48.5603
-48.5592
-48.5595
-48.5598
-48.5575
-13.1042
-13.1007
-13.1023
-13.1043
-13.1043
-13.1081
-21.236
-21.23
-21.2309
-21.2291
-21.2266
-21.2223
-27.6812
-27.6823
-27.6798
-27.6783
-27.6783
-27.6733
-10.0827
-10.0803
-10.0818
-10.0833
-10.0831
-10.0855
-17.8866
-17.8846
-17.885
-17.8849
-17.8891
-17.8776
-1.6436
-1.63992
-1.63806
-1.63854
-1.63918
-1.63313
-7.05985
-7.05903
-7.05926
-7.05967
-7.0593
-7.05885
17.6408
17.629
17.6414
17.638
17.6321
17.6478
13.8157
13.8226
13.8275
13.8219
13.8201
13.8407
-3.2212
-3.22099
-3.22084
-3.22135
-3.22146
-3.21932
1498.84
1498.75
1499.03
1498.81
1499.22
1498.86
-1.15592
-1.16312
-1.16435
-1.15596
-1.15772
-1.17301
-11.9223
-11.9243
-11.925
-11.9263
-11.9315
-11.9221
13487.4
13488
13489.1
13489.2
13490.8
13491.8
3.08304
3.10819
3.13305
3.10685
3.11712
3.28493
-6.00844
-5.99043
-5.96168
-5.92615
-5.87539
-5.8802
13523.9
13524.6
13525.3
13524.7
13525.1
13527.1
3.42292
5.68423
6.21615
0.822426
0.822032
12.6759
-4.91498
-4.90482
-4.89238
-4.87793
-4.86473
-4.863
13460.3
13460.6
13462.3
13457.6
13454.7
13467.6
0.918502
0.907425
0.91077
0.899586
0.894388
0.90997
-4.11547
-4.11366
-4.11139
-4.11603
-4.10634
-4.11798
11771.6
11769.4
11780.3
11742.6
11721.7
11806.1
1.81853
1.81558
1.81706
1.80323
1.79959
1.82189
-5.20462
-5.198
-5.20141
-5.17881
-5.14972
-5.22289
10777.7
10777.4
10784.3
10766.4
10756.5
10799.4
3.40345
3.39832
3.40084
3.39787
3.39347
3.39638
-7.08859
-7.08424
-7.08769
-7.07996
-7.06298
-7.09989
8816.42
8816.33
8820.49
8811.92
8808.7
8827.36
4.53934
4.53808
4.53778
4.54274
4.54313
4.53057
-11.6389
-11.6388
-11.6396
-11.6407
-11.6393
-11.6413
13.892
13.897
13.903
13.9091
13.9188
13.9111
7.61036
7.61238
7.61491
7.61768
7.6215
7.6183
2.40238
2.40299
2.40383
2.40471
2.40577
2.40495
8.75777
8.76456
8.76955
8.77566
8.79427
8.77906
5.70893
5.71137
5.71409
5.71769
5.72401
5.71797
2.13796
2.1388
2.1399
2.14148
2.14335
2.14051
-1.59891
-1.59831
-1.58256
-1.58609
-1.57209
-1.49903
1.58248
1.58698
1.59231
1.59932
1.61279
1.60916
1.17183
1.1739
1.17565
1.17958
1.18486
1.17608
-17.6537
-17.7019
-17.662
-17.7221
-17.7605
-17.5085
-4.57068
-4.57108
-4.56367
-4.56309
-4.55501
-4.5407
-0.249935
-0.247317
-0.246483
-0.242241
-0.236003
-0.243997
-27.5923
-27.6654
-27.6455
-27.7202
-27.7762
-27.6982
-9.94852
-9.95775
-9.95887
-9.97343
-9.9741
-9.97062
-1.49986
-1.49927
-1.49885
-1.49682
-1.49156
-1.49616
-24.4072
-24.4622
-24.4481
-24.4898
-24.4907
-24.5178
-10.9136
-10.9246
-10.9282
-10.9418
-10.9443
-10.9486
-1.58971
-1.58911
-1.58679
-1.58349
-1.57926
-1.58395
-14.2265
-14.2328
-14.203
-14.1651
-14.071
-14.1718
-7.85805
-7.85877
-7.85411
-7.84918
-7.8398
-7.84926
-1.49625
-1.49463
-1.49104
-1.48643
-1.48022
-1.48537
-7.85974
-7.8446
-7.79653
-7.71765
-7.59669
-7.70186
-5.74029
-5.73118
-5.71175
-5.68739
-5.65968
-5.66492
-1.79359
-1.79016
-1.7839
-1.77629
-1.76821
-1.77061
-3.43663
-3.4902
-3.52474
-3.54025
-3.42392
-3.65413
-4.52769
-4.51637
-4.48949
-4.47211
-4.44156
-4.42891
-1.70008
-1.69956
-1.69602
-1.68963
-1.67861
-1.69162
-2.14091
-2.07195
-1.93034
-1.69065
-0.986645
-1.66942
-4.50543
-4.46944
-4.39251
-4.39807
-4.29717
-4.24367
-2.62765
-2.61738
-2.59732
-2.56084
-2.50939
-2.56066
-6.06041
-6.00959
-6.41809
-4.28855
1.4059
-5.31645
-3.31825
-3.25383
-3.13108
-2.98887
-2.51328
-2.75516
-4.10201
-4.07874
-4.03382
-3.90897
-3.76371
-3.90573
7487.38
7458.46
7425.73
7770.43
7974.53
7496.83
-0.376374
-0.31579
-0.218927
-0.237083
-0.0860687
-0.0243732
-12.2555
-12.1936
-12.1038
-11.9638
-11.7352
-11.8147
)
;

boundaryField
{
    seabed_topleft_surface
    {
        type            fixedFluxPressure;
        gradient        uniform 0;
        value           nonuniform List<scalar> 
72
(
3805.5
3805.47
3805.48
3805.47
3805.47
3805.52
3871.72
3871.7
3871.7
3871.69
3871.7
3871.75
4125.27
4125.24
4125.23
4125.23
4125.25
4125.29
5271.34
5271.3
5271.31
5271.31
5271.32
5271.36
8282.32
8282.25
8282.28
8282.28
8282.27
8282.31
14219.5
14219.5
14219.5
14219.4
14219.4
14219.5
19741
19741
19741
19741
19740.9
19741
22307.2
22307.4
22307.3
22307.4
22307.4
22307.3
23205.1
23205.5
23205.3
23205.3
23205.4
23205.2
24489.6
24489.4
24489.4
24489.4
24489.4
24489.5
25689.4
25688.8
25689
25689
25688.9
25689.3
25248.1
25248.1
25248.2
25248.2
25248.2
25248.4
)
;
    }
    seabed_topright_surface
    {
        type            fixedFluxPressure;
        gradient        uniform 0;
        value           nonuniform List<scalar> 
72
(
86.2337
86.356
86.2615
86.2853
86.517
85.925
87.8886
88.0885
87.9721
88.067
88.5369
87.7423
82.9877
83.2379
82.9698
83.3096
84.295
83.0176
80.3728
81.0733
80.6511
81.9654
84.854
81.6926
194.621
197.719
191.915
201.982
222.737
181.055
377.671
385.096
384.796
396.074
416.849
382.32
460.229
463.291
463.964
462.996
439.72
470.666
1423.18
1415.05
1396.28
1353.67
1229.03
1337.63
3161.61
3165.52
3172.88
3191.04
3195
3144.89
2628.01
2627.75
2661.71
2539.39
2474.71
2730.7
1388.13
1385.76
1389.23
1350.31
1287.43
1393.86
1270.11
1268.58
1265.19
1261.93
1251.54
1266.9
)
;
    }
    breakwater_top_surface
    {
        type            fixedFluxPressure;
        gradient        uniform 0;
        value           nonuniform List<scalar> 
36
(
13487.4
13488
13489.1
13489.2
13490.8
13491.8
13523.9
13524.6
13525.3
13524.7
13525.1
13527.1
13460.3
13460.6
13462.3
13457.6
13454.7
13467.6
11771.6
11769.4
11780.3
11742.6
11721.7
11806.1
10777.7
10777.4
10784.3
10766.4
10756.5
10799.4
8816.42
8816.33
8820.49
8811.92
8808.7
8827.36
)
;
    }
    breakwater_left_surface
    {
        type            fixedFluxPressure;
        gradient        uniform 0;
        value           nonuniform List<scalar> 
24
(
25248.1
25248.1
25248.2
25248.2
25248.2
25248.4
22093.8
22092.7
22093.2
22093.1
22092.7
22094.1
8716.42
8710.75
8713.73
8712.83
8709.49
8718.34
222.227
222.2
222.206
222.194
222.148
222.253
)
;
    }
    breakwater_right_surface
    {
        type            fixedFluxPressure;
        gradient        uniform 0;
        value           nonuniform List<scalar> 
24
(
1270.11
1268.58
1265.19
1261.93
1251.54
1266.9
1040.78
1038.05
1032.82
1029
1003
1016.85
2314.95
2447
2817.38
1741.63
963.19
2903.4
5718.22
5754.69
5821.84
5910.89
6652.55
5957
)
;
    }
    water_front_surface
    {
        type            fixedFluxPressure;
        gradient        uniform 0;
        value           nonuniform List<scalar> 
186
(
3805.5
3871.72
4125.27
5271.34
8282.32
14219.5
19741
22307.2
23205.1
24489.6
25689.4
25248.1
30.0016
33.1272
63.4634
264.672
1551.29
8360.43
19397.2
22030.2
22983.1
23191.1
22088.3
22093.8
47.505
45.2759
53.4055
64.0256
80.7773
1476.28
12629.5
19329.3
18452.2
11007.7
7969.56
8716.42
33.3837
38.515
49.6883
61.1127
34.5313
1063.43
2353.78
2352.74
478.746
-91.6373
46.358
222.227
86.2337
87.8886
82.9877
80.3728
194.621
377.671
460.229
1423.18
3161.61
2628.01
1388.13
1270.11
72.2968
69.3899
35.7854
-54.06
-145.422
-114.5
-44.2824
114.812
1080.71
1744.43
1665.14
1040.78
45.1582
36.5376
1.96638
-65.2751
-91.3548
-74.8264
-33.1534
-14.8145
6.12404
1380.19
3076.74
2314.95
24.7525
15.9557
-7.51762
-47.2455
-75.4388
-58.2493
-24.2692
-10.7011
-8.34003
10.9161
3416.56
5718.22
29.5196
15.4406
5.70293
30.2496
16.0846
5.3004
34.2812
17.4126
4.57658
32.8671
9.49282
0.854081
-14.1471
-13.53
-5.93208
-5.40836
-47.2596
-19.8486
-62.4526
-59.2225
-18.9671
-41.4228
-48.5615
-13.1042
-21.236
-27.6812
-10.0827
-17.8866
-1.6436
-7.05985
17.6408
13.8157
-3.2212
1498.84
-1.15592
-11.9223
13487.4
3.08304
-6.00844
13523.9
3.42292
-4.91498
13460.3
0.918502
-4.11547
11771.6
1.81853
-5.20462
10777.7
3.40345
-7.08859
8816.42
4.53934
-11.6389
13.892
7.61036
2.40238
8.75777
5.70893
2.13796
-1.59891
1.58248
1.17183
-17.6537
-4.57068
-0.249935
-27.5923
-9.94852
-1.49986
-24.4072
-10.9136
-1.58971
-14.2265
-7.85805
-1.49625
-7.85974
-5.74029
-1.79359
-3.43663
-4.52769
-1.70008
-2.14091
-4.50543
-2.62765
-6.06041
-3.31825
-4.10201
7487.38
-0.376374
-12.2555
)
;
    }
    water_back_surface
    {
        type            fixedFluxPressure;
        gradient        uniform 0;
        value           nonuniform List<scalar> 
186
(
3805.52
3871.75
4125.29
5271.36
8282.31
14219.5
19741
22307.3
23205.2
24489.5
25689.3
25248.4
30.0007
33.1253
63.4638
264.654
1551.13
8360.42
19397
22030.3
22983.2
23191.3
22089
22094.1
47.504
45.275
53.4031
64.0213
80.744
1475.99
12629.5
19331.1
18455.4
11010.4
7971.51
8718.34
33.3832
38.5146
49.6868
61.1081
34.5117
1063
2354.01
2353.17
479.135
-91.6507
46.3369
222.253
85.925
87.7423
83.0176
81.6926
181.055
382.32
470.666
1337.63
3144.89
2730.7
1393.86
1266.9
72.1618
69.6497
36.8221
-49.3879
-143.951
-116.839
-51.4052
93.8673
1129.25
1873.12
1876.66
1016.85
45.2229
36.6568
2.59862
-64.633
-93.2286
-76.1324
-33.3892
-14.4344
1.2699
1502.92
3205.55
2903.4
24.8075
16.0142
-7.16865
-46.8674
-74.764
-58.7599
-24.3273
-10.1851
-8.39312
12.1159
3676.12
5957
29.5195
15.4407
5.703
30.2498
16.0852
5.3005
34.2819
17.4139
4.57709
32.8705
9.49658
0.85626
-14.1306
-13.5221
-5.92985
-5.45424
-47.2656
-19.8525
-62.4534
-59.2347
-18.9702
-41.4092
-48.5575
-13.1081
-21.2223
-27.6733
-10.0855
-17.8776
-1.63313
-7.05885
17.6478
13.8407
-3.21932
1498.86
-1.17301
-11.9221
13491.8
3.28493
-5.8802
13527.1
12.6759
-4.863
13467.6
0.90997
-4.11798
11806.1
1.82189
-5.22289
10799.4
3.39638
-7.09989
8827.36
4.53057
-11.6413
13.9111
7.6183
2.40495
8.77906
5.71797
2.14051
-1.49903
1.60916
1.17608
-17.5085
-4.5407
-0.243997
-27.6982
-9.97062
-1.49616
-24.5178
-10.9486
-1.58395
-14.1718
-7.84926
-1.48537
-7.70186
-5.66492
-1.77061
-3.65413
-4.42891
-1.69162
-1.66942
-4.24367
-2.56066
-5.31645
-2.75516
-3.90573
7496.83
-0.0243732
-11.8147
)
;
    }
    water_left_surface
    {
        type            fixedFluxPressure;
        gradient        uniform 0;
        value           nonuniform List<scalar> 
42
(
3805.5
3805.47
3805.48
3805.47
3805.47
3805.52
30.0016
30.0016
30.0014
30.0013
30.0011
30.0007
47.505
47.5047
47.5043
47.5041
47.504
47.504
33.3837
33.3802
33.3793
33.3791
33.3797
33.3832
29.5196
29.5231
29.5237
29.5237
29.523
29.5195
15.4406
15.4409
15.4411
15.4412
15.441
15.4407
5.70293
5.70304
5.70307
5.70311
5.7031
5.703
)
;
    }
    water_right_surface
    {
        type            fixedFluxPressure;
        gradient        uniform 0;
        value           nonuniform List<scalar> 
42
(
86.2337
86.356
86.2615
86.2853
86.517
85.925
72.2968
72.4103
72.3613
72.4366
72.7233
72.1618
45.1582
45.2084
45.2195
45.2653
45.4083
45.2229
24.7525
24.7664
24.7811
24.7962
24.8303
24.8075
13.892
13.897
13.903
13.9091
13.9188
13.9111
7.61036
7.61238
7.61491
7.61768
7.6215
7.6183
2.40238
2.40299
2.40383
2.40471
2.40577
2.40495
)
;
    }
    water_top_surface
    {
        type            totalPressure;
        rho             rho;
        psi             none;
        gamma           1;
        p0              uniform 0;
        value           nonuniform List<scalar> 
180
(
0
0
0
0
0
0
0
0
0
0
0
0
0
0
0
0
0
0
0
0
0
0
0
0
0
0
0
0
0
0
0
0
0
0
0
0
0
0
0
0
0
0
-1.96509
-1.95295
-1.95945
-1.96151
-1.95859
-1.96914
-12.8848
-12.8718
-12.8792
-12.882
-12.8813
-12.889
-10.3894
-10.3839
-10.3867
-10.3892
-10.3895
-10.3888
-3.91462
-3.91336
-3.91501
-3.91694
-3.91737
-3.91505
-2.05742
-2.06109
-2.06004
-2.0603
-2.06382
-2.05645
-2.07765
-2.09844
-2.08148
-2.07546
-2.13778
-2.01769
-1.94204
-1.96583
-1.96858
-1.87443
-1.85579
-1.99214
-2.28314
-2.28399
-2.28065
-2.30134
-2.36043
-2.19466
-3.69464
-3.7079
-3.67438
-3.75726
-3.85215
-3.57713
-3.89606
-3.91195
-3.88377
-3.94043
-4.01685
-3.81298
-2.00651
-2.01434
-2.00623
-2.01806
-2.04187
-1.98218
0
0
0
0
0
0
0
0
0
0
0
0
0
0
0
0
0
0
0
0
0
0
0
0
0
0
0
0
0
0
0
0
0
0
0
0
-0.236906
-0.236585
-0.23617
-0.235607
-0.234825
-0.235455
-1.624
-1.62117
-1.61958
-1.61633
-1.61393
-1.61075
-1.28609
-1.28557
-1.28425
-1.27432
-1.26176
-1.28578
-4.77994
-4.7753
-4.75218
-4.75685
-4.7379
-4.70645
-5.57834
-5.57481
-5.5148
-5.46652
-5.40364
-5.38114
-2.36937
-2.3429
-2.33729
-2.27704
-2.09469
-2.27925
)
;
    }
}


// ************************************************************************* //
