/*--------------------------------*- C++ -*----------------------------------*\
| =========                 |                                                 |
| \\      /  F ield         | OpenFOAM: The Open Source CFD Toolbox           |
|  \\    /   O peration     | Version:  v1612+                                |
|   \\  /    A nd           | Web:      www.OpenFOAM.com                      |
|    \\/     M anipulation  |                                                 |
\*---------------------------------------------------------------------------*/
FoamFile
{
    version     2.0;
    format      ascii;
    class       surfaceScalarField;
    location    "4.85";
    object      phi;
}
// * * * * * * * * * * * * * * * * * * * * * * * * * * * * * * * * * * * * * //

dimensions      [0 3 -1 0 0 0 0];

internalField   nonuniform List<scalar> 
2916
(
-1.20839e-05
0.135681
-0.135669
-1.17232e-05
0.135683
-0.135684
-2.00859e-06
0.135683
-0.135693
-1.53655e-06
0.135684
-0.135685
-1.59482e-06
0.135683
-0.135683
0.13568
-0.135681
-9.47159e-06
0.243002
-0.107312
-1.08564e-05
0.243012
-0.107327
-1.20799e-06
0.24301
-0.107337
-1.74643e-06
0.243011
-0.107326
-5.5536e-06
0.243011
-0.107324
0.243003
-0.107329
-2.09845e-06
0.230455
0.0125496
-6.1751e-06
0.230472
0.0125435
-1.00143e-06
0.230469
0.0125363
-4.53845e-06
0.230468
0.0125463
-1.2256e-05
0.23047
0.0125483
0.230459
0.0125317
6.40865e-06
-0.006275
0.236723
-2.50825e-07
-0.00624086
0.23672
-3.49272e-06
-0.0062476
0.23672
-8.91194e-06
-0.00624822
0.236722
-1.36792e-05
-0.00624075
0.236716
-0.00626263
0.236708
1.35142e-05
-0.462007
0.455718
-9.12388e-07
-0.461973
0.455747
-6.64901e-06
-0.461976
0.455734
-9.14099e-06
-0.461975
0.455729
-1.72011e-05
-0.461966
0.455733
-0.461993
0.455713
7.35618e-06
-1.02151
0.559499
1.00131e-05
-1.02149
0.559515
3.84896e-06
-1.02148
0.559509
-5.7902e-06
-1.02148
0.559513
-1.40938e-05
-1.02147
0.559516
-1.02151
0.559504
-8.73245e-06
-1.52247
0.500966
2.00005e-05
-1.5225
0.500981
1.31824e-05
-1.52245
0.50098
-7.48587e-07
-1.52245
0.500985
-7.58388e-06
-1.52246
0.500991
-1.52249
0.500976
-3.78904e-05
-1.80683
0.284396
1.88169e-05
-1.80696
0.284402
1.40242e-05
-1.80686
0.284418
7.9327e-07
-1.80686
0.284424
1.0715e-05
-1.8069
0.284428
-1.80688
0.284392
4.27756e-05
-1.70179
-0.105082
2.20866e-05
-1.70199
-0.104952
-1.99548e-06
-1.70187
-0.104972
-6.28978e-06
-1.70187
-0.104981
-1.77872e-05
-1.70194
-0.104944
-1.70183
-0.105066
0.000281349
-1.23816
-0.463913
2.47879e-05
-1.23829
-0.463436
-4.90935e-05
-1.2382
-0.463593
-2.94906e-05
-1.23824
-0.463653
-0.000145436
-1.23831
-0.463512
-1.23815
-0.463824
0.000282235
-0.54098
-0.697461
-2.19453e-06
-0.540989
-0.69702
-6.49515e-05
-0.540958
-0.69718
-5.06239e-05
-0.541
-0.697256
-0.000202317
-0.541032
-0.697128
-0.540946
-0.697406
-8.49506e-05
-0.540895
-5.09803e-05
-0.541023
-2.16046e-05
-0.540988
-3.59296e-05
-0.540986
-6.43301e-05
-0.541003
-0.54101
-9.82297e-05
1.19105
-1.32662
-3.78015e-05
1.19103
-1.32677
1.03617e-05
1.19102
-1.32677
5.55637e-05
1.19102
-1.32675
0.00011206
1.19102
-1.32676
1.19105
-1.32662
-0.000131028
2.17998
-1.09611
-5.75275e-05
2.17993
-1.09631
-7.92923e-06
2.17995
-1.09631
6.68171e-05
2.1799
-1.09629
0.000156514
2.1799
-1.09629
2.18002
-1.09614
-6.71314e-05
1.88836
0.30423
-8.30922e-05
1.88853
0.303959
-5.31856e-05
1.88845
0.304004
-6.66811e-06
1.8884
0.30401
2.95037e-05
1.88844
0.303969
1.88844
0.304139
0.000102809
0.301013
1.82397
-2.11366e-05
0.301447
1.82393
-2.33452e-05
0.301251
1.82392
-1.83051e-05
0.301238
1.82388
-8.55996e-05
0.301373
1.82385
0.301131
1.82393
0.000320264
-0.839528
1.59594
-2.06442e-05
-0.839369
1.5969
-6.38596e-05
-0.839435
1.59646
-9.96429e-06
-0.839409
1.59632
-0.000183348
-0.839356
1.59664
-0.839485
1.59615
0.000186602
-1.30082
1.0206
2.89151e-05
-1.3007
1.02101
-7.31622e-06
-1.30074
1.02085
-1.39462e-05
-1.30073
1.02084
-0.000129477
-1.30069
1.02097
-1.3008
1.02069
0.000120974
-1.40325
0.603273
1.19705e-05
-1.40333
0.603711
1.05628e-06
-1.40327
0.603524
3.81115e-06
-1.40326
0.603509
-8.5722e-05
-1.40327
0.603663
-1.40329
0.603384
0.000128334
-1.30781
0.188832
9.94065e-07
-1.30803
0.189234
-1.39345e-05
-1.30791
0.189074
1.66628e-05
-1.3079
0.189038
-5.4325e-05
-1.30796
0.189181
-1.30788
0.188922
0.000423254
-1.07629
-0.337029
1.33646e-05
-1.07622
-0.336355
-3.78972e-05
-1.07622
-0.336613
2.76716e-05
-1.07627
-0.336684
-0.000175459
-1.07625
-0.33645
-1.07623
-0.336888
0.000422039
-0.735478
-0.805145
-1.99309e-06
-0.734693
-0.804537
-5.9775e-05
-0.734993
-0.804761
-4.43713e-06
-0.735114
-0.804861
-0.0001949
-0.734909
-0.80466
-0.735204
-0.805045
-0.00022769
-0.406055
-1.02666
-8.05061e-05
-0.405408
-1.02645
-3.88346e-05
-0.405649
-1.02657
-5.49535e-05
-0.405744
-1.02661
2.15554e-05
-0.405578
-1.02654
-0.405837
-1.02675
-0.00041247
-0.946537
-0.000105616
-0.946738
-5.74235e-05
-0.946684
-4.76133e-05
-0.94674
0.000178225
-0.946807
-0.946669
-2.08173e-05
-0.888937
-0.43766
1.59007e-05
-0.888905
-0.437904
2.21221e-05
-0.888918
-0.437857
3.34615e-05
-0.888907
-0.437858
6.14493e-05
-0.888885
-0.437909
-0.888904
-0.437656
-9.93873e-05
-1.48918
-0.49577
-1.86379e-05
-1.48924
-0.49605
6.04265e-06
-1.48925
-0.496004
4.62808e-05
-1.48923
-0.496001
0.00013779
-1.48922
-0.496046
-1.48912
-0.495787
9.55606e-05
-1.49794
0.312896
-2.54503e-06
-1.49756
0.312374
2.55023e-05
-1.49776
0.312492
0.000116003
-1.49782
0.312511
0.000117853
-1.49763
0.312382
-1.49751
0.312654
0.000360545
-2.22567
2.55134
7.38196e-05
-2.22487
2.55153
1.31369e-06
-2.22509
2.55132
2.4764e-05
-2.22523
2.55126
-0.000113313
-2.2249
2.55126
-2.2249
2.5512
0.00226069
-3.61923
2.98724
-0.000217515
-3.61908
2.9936
-0.000305424
-3.6192
2.99066
6.50878e-05
-3.61923
2.98995
-0.00132349
-3.6191
2.99222
-3.61906
2.98898
0.000975252
-2.73637
0.136771
-1.30285e-05
-2.7361
0.139013
-0.000142172
-2.73625
0.138028
-1.59197e-05
-2.73628
0.137772
-0.000607287
-2.73614
0.138589
-2.73634
0.13736
0.000542971
-1.76829
-0.365357
1.67337e-05
-1.76795
-0.363909
-2.53536e-05
-1.76811
-0.364575
3.23815e-05
-1.76816
-0.364667
-0.000308629
-1.76802
-0.364107
-1.76824
-0.365023
0.000209453
-1.16504
-0.414621
-6.09209e-06
-1.1645
-0.414003
-3.30291e-05
-1.16474
-0.414266
2.31423e-05
-1.16482
-0.414362
-0.000106633
-1.16463
-0.414083
-1.16495
-0.414479
-0.000661614
-0.548553
-0.952859
-4.01169e-05
-0.547635
-0.953837
6.8527e-05
-0.548068
-0.953397
-1.99157e-05
-0.548113
-0.953302
0.000286527
-0.547809
-0.953577
-0.548474
-0.953074
-0.00179393
0.0535314
-1.40544
-0.000118592
0.0547652
-1.40861
0.000212806
0.0540889
-1.40725
-9.23514e-05
0.0543368
-1.40701
0.000681192
0.0547689
-1.40801
0.0533493
-1.40619
-0.00170603
-0.133078
-0.838341
-0.000103542
-0.132451
-0.840838
0.000188891
-0.132836
-0.839934
-2.10341e-05
-0.132602
-0.839461
0.000800381
-0.132638
-0.839949
-0.133051
-0.83955
2.45832e-06
-1.07962
2.43331e-07
-1.07919
-6.43148e-05
-1.07946
-3.11786e-06
-1.0794
3.65795e-06
-1.07945
-1.07972
3.15657e-05
-0.530526
0.0928343
8.87362e-06
-0.530575
0.0926947
2.54985e-06
-0.530559
0.0927084
-4.97481e-06
-0.530557
0.0927061
-3.75751e-05
-0.530565
0.0926883
-0.530526
0.0928329
-4.98385e-05
-1.15684
0.130598
2.3034e-07
-1.15704
0.130363
4.5839e-06
-1.15696
0.130395
-1.87819e-06
-1.15694
0.130392
1.73848e-05
-1.15698
0.13035
-1.15688
0.130588
0.000292588
-1.52473
0.680494
4.11924e-05
-1.52445
0.680037
-3.27182e-05
-1.52455
0.680157
3.93076e-05
-1.52471
0.680205
-7.49593e-05
-1.52455
0.68007
-1.52464
0.680336
0.001098
-1.89689
2.9224
6.48634e-05
-1.89417
2.92229
-0.00017519
-1.89517
2.92219
8.642e-05
-1.89601
2.9223
-0.000361658
-1.89501
2.92217
-1.89603
2.92223
0.00072188
-3.34964
4.43928
-0.000295019
-3.34559
4.44603
-0.000573488
-3.3471
4.44287
-0.000163877
-3.34834
4.44186
-0.000409418
-3.34689
4.44434
-3.34858
4.44113
-0.000380628
-3.5428
0.330307
-0.000301523
-3.5413
0.334652
-0.000193144
-3.54196
0.332783
-2.54879e-07
-3.54247
0.331714
0.000162294
-3.54188
0.333423
-3.5426
0.331542
-0.00171928
-2.83635
-1.07009
-0.000176685
-2.83347
-1.07328
8.26949e-05
-2.8348
-1.072
-1.03369e-05
-2.8352
-1.07185
0.000906033
-2.83419
-1.07272
-2.8358
-1.07091
-0.00282435
-1.97425
-1.27389
-0.000196798
-1.97123
-1.27887
0.000194756
-1.97262
-1.27683
-0.000155146
-1.97292
-1.27629
0.00132593
-1.97185
-1.2779
-1.97377
-1.27519
-0.00339055
0.353813
-3.27753
-0.000293111
0.353626
-3.28179
0.000144674
0.353663
-3.28012
-0.000412365
0.353725
-3.27939
0.00139903
0.353638
-3.28088
0.353597
-3.27904
-0.00218615
2.13526
-3.1847
-0.000314185
2.13125
-3.1881
-0.000224384
2.1329
-3.18657
-0.000546147
2.13339
-3.18635
0.00118674
2.13156
-3.18767
2.13406
-3.18546
-0.0012412
0.970922
0.32724
-0.00012898
0.96468
0.324612
-0.000431861
0.967566
0.325698
-0.000234062
0.967872
0.325858
0.00529239
0.961397
0.324691
0.972972
0.326829
0.00315514
-0.111849
0.000438472
-0.111794
0.000393799
-0.111845
0.000850869
-0.111989
-0.00410776
-0.113099
-0.11085
-0.00165676
-1.36446
1.36612
0.0146398
-1.38286
1.36657
0.00700944
-1.35457
1.3622
0.0127659
-1.36626
1.3605
0.0692111
-1.41815
1.36171
-1.27774
1.34695
-0.00795262
-3.42785
2.07134
0.0339737
-3.49649
2.0717
0.0135297
-3.40565
2.07152
0.0278277
-3.44587
2.06532
0.15054
-3.59768
2.05681
-3.18849
2.06129
-0.00990429
-5.96932
2.55137
0.0493438
-6.09035
2.53461
0.0189588
-5.96131
2.58605
0.0334144
-6.0104
2.55007
0.196845
-6.21149
2.45038
-5.68965
2.698
-0.00821441
-7.79637
1.83527
0.031673
-7.94075
1.81052
0.00466005
-7.83416
1.89986
0.0118734
-7.86449
1.84688
0.148812
-8.02858
1.68015
-7.61471
2.07387
0.0199453
-7.81589
-0.000427037
0.040058
-7.95923
-0.00164067
0.067312
-7.87161
0.010197
0.0519103
-7.8758
0.0267113
-0.00747991
-7.9858
0.0166114
-7.68082
0.0586298
0.0413518
-7.07334
-0.783899
0.0741581
-7.19377
-0.798261
0.156861
-7.09968
-0.854632
0.0962961
-7.12451
-0.690724
-0.098243
-7.26906
-0.522206
-6.87552
-0.903546
0.0587045
-6.23176
-0.900286
0.104313
-6.27912
-0.96026
0.240271
-6.1836
-1.05204
0.172013
-6.21375
-0.842507
-0.222907
-6.3203
-0.553836
-5.93727
-1.16115
0.0344916
-5.075
-1.19125
0.0652881
-5.08279
-1.22713
0.188956
-5.03742
-1.26985
0.167502
-5.11719
-1.0751
-0.256871
-5.28438
-0.611552
-4.90499
-1.28915
-0.0241579
-2.27179
-2.77906
-0.0143114
-2.28539
-2.80724
0.0527884
-2.3004
-2.80412
-0.0548367
-2.21811
-2.79146
-0.152312
-2.30165
-2.88525
-2.27913
-2.77817
-0.0171152
0.95111
-3.20578
0.0227789
0.905898
-3.23119
0.320391
0.65032
-3.24833
-0.0180054
1.30156
-3.18127
-0.616558
1.62164
-3.32474
0.278603
-3.17429
0.035393
2.82264
-1.90692
0.0907074
2.81371
-1.96313
0.354854
2.53358
-2.14741
0.151224
3.05453
-1.54934
-0.549644
3.26966
-0.947145
1.97595
-2.24699
0.0547448
2.7679
0.171105
2.69735
0.272359
2.43233
-0.0326052
3.3595
-0.913216
4.15027
1.06273
-0.00475582
-1.30798
2.67885
0.00806414
-1.32693
2.68067
-0.0039002
-1.30235
2.67652
0.00852576
-1.32916
2.67723
0.0753942
-1.3876
2.68244
-1.23804
2.66038
-0.019644
-2.84694
3.62995
0.0103998
-2.92083
3.63555
-0.0167664
-2.83343
3.62977
0.0134997
-2.92944
3.63534
0.152486
-3.11477
3.64499
-2.62828
3.60402
-0.0355981
-4.54161
4.28163
-0.0333716
-4.66626
4.27782
-0.0467821
-4.54981
4.31584
-0.0377872
-4.68485
4.29648
0.00996342
-4.96282
4.25069
-4.30975
4.38944
-0.0357439
-5.59263
2.92204
-0.101658
-5.70458
2.91475
-0.112988
-5.62399
2.98537
-0.0971752
-5.79243
2.93864
-0.163135
-6.11812
2.9014
-5.54121
3.14219
-0.00685599
-5.80852
0.222313
-0.0574292
-5.87924
0.223593
-0.165001
-5.75536
0.249133
-0.132957
-6.04684
0.249079
0.0818871
-6.63386
0.317513
-5.72324
0.322552
0.0713742
-4.77396
-1.88983
0.0568269
-4.7751
-1.88785
-0.00518543
-4.58386
-1.96412
0.0429174
-4.98022
-1.80545
0.1648
-5.81562
-1.46233
-4.42083
-2.04116
0.0657635
-4.45452
-1.28549
0.0740842
-4.42575
-1.31793
0.141782
-4.29138
-1.41223
0.191762
-4.60616
-1.26654
-0.114679
-5.2645
-0.79852
-4.14073
-1.55594
-0.00719795
-4.32768
-1.31089
0.00460053
-4.32297
-1.34171
0.0613598
-4.2441
-1.37389
0.0389499
-4.47243
-1.18642
-0.142065
-4.96298
-0.732055
-4.16497
-1.40697
-0.0107896
-3.6143
-3.48165
-0.00458424
-3.61655
-3.51987
0.0395834
-3.56566
-3.52672
0.00603425
-3.68539
-3.54495
-0.135661
-3.80074
-3.9058
-3.51957
-3.55923
-0.0229475
-2.61392
-4.18322
-0.0572918
-2.62464
-4.18876
-0.054597
-2.62309
-4.19359
-0.0519274
-2.69757
-4.17176
-0.0735699
-2.72903
-4.37481
-2.60307
-4.16436
0.0258014
-1.78721
-2.75943
0.0241915
-1.7839
-2.80225
0.0960855
-1.92302
-2.91938
0.125605
-1.74768
-2.52875
0.0125262
-1.56647
-1.99662
-1.80615
-3.03138
0.352498
0.628183
0.755781
0.510167
1.19674
0.068352
1.45781
1.35074
-0.154731
4.19634
-0.898147
-0.00430058
-0.478107
3.16126
-0.000937602
-0.485251
3.16256
-0.00642184
-0.479288
3.16129
0.000504812
-0.491636
3.16194
0.0324927
-0.515575
3.16602
-0.461669
3.15454
-0.01618
-0.607878
3.7759
-0.00488516
-0.642966
3.78197
-0.0287212
-0.601274
3.77559
0.000909732
-0.671294
3.78536
0.100645
-0.773257
3.80294
-0.510364
3.75336
-0.0327862
-0.695774
4.40232
-0.0437423
-0.762547
4.40835
-0.04807
-0.696979
4.41587
-0.0347212
-0.811672
4.42351
-0.00507693
-0.978054
4.42584
-0.55346
4.42746
-0.0502239
-1.12381
3.4003
-0.0868278
-1.204
3.3928
-0.0848888
-1.14961
3.43606
-0.10533
-1.2575
3.40491
-0.11657
-1.45555
3.39014
-1.03631
3.50848
-0.0324371
-1.38713
0.518069
-0.0399081
-1.46423
0.491299
-0.059167
-1.43508
0.553868
-0.0707915
-1.49919
0.502403
0.00151324
-1.71125
0.500911
-1.39625
0.684
-0.0124297
-1.66248
-1.60204
-0.0362959
-1.71399
-1.61422
-0.139559
-1.69378
-1.60215
-0.115462
-1.69173
-1.63702
0.185198
-1.83864
-1.6356
-1.6714
-1.58081
-0.000661225
-1.28843
-1.65888
-0.0598282
-1.30799
-1.66477
-0.210019
-1.2896
-1.66622
-0.166542
-1.31668
-1.68507
0.279841
-1.43036
-1.65319
-1.26846
-1.67903
-0.000292407
-1.1611
-1.43793
-0.0420681
-1.16528
-1.44264
-0.122984
-1.14272
-1.43985
-0.117498
-1.14808
-1.36051
0.147314
-1.1553
-1.27193
-1.09454
-1.43358
-0.0065477
-2.21977
-2.41643
-0.00861866
-2.23651
-2.44657
0.0233666
-2.2317
-2.46972
0.0506009
-2.22744
-2.49282
-0.132232
-2.19383
-2.68444
-2.22896
-2.55705
-0.0252817
-2.37651
-4.0012
-0.0674137
-2.38692
-3.99621
-0.133984
-2.35934
-3.99939
-0.0894937
-2.50933
-3.93436
0.00396191
-2.91217
-3.74993
-2.40008
-3.98928
-0.0288276
-1.65791
-3.44921
-0.116982
-1.64615
-3.45487
-0.35177
-1.57971
-3.46421
-0.270076
-1.76436
-3.35541
0.416828
-2.47735
-3.11835
-1.57168
-3.44295
0.000937276
-1.03066
-0.0522706
-1.08277
-0.355274
-1.20836
0.135174
-0.904074
1.1689
0.68526
-1.30092
-0.00246748
0.0820274
3.0817
-0.00264505
0.0803216
3.08241
-0.00382289
0.079974
3.08249
-0.00215649
0.0774796
3.08279
0.00672406
0.0726557
3.08449
0.0805399
3.08072
-0.00780223
0.551313
3.31441
-0.0068782
0.544228
3.31714
-0.0172215
0.550374
3.31553
-0.00538129
0.531396
3.31961
0.0350772
0.507317
3.32782
0.561583
3.30739
-0.0186119
1.45993
3.51231
-0.0247507
1.44021
3.51851
-0.0356746
1.46103
3.51614
-0.0179652
1.40761
3.52958
0.0200739
1.35068
3.54444
1.50169
3.50743
-0.0230326
2.11551
2.76775
-0.0458998
2.08744
2.76844
-0.0369984
2.10955
2.77863
-0.0446888
2.0403
2.77992
-0.0631994
1.97318
2.78615
2.14742
2.79954
-0.00659745
1.89324
0.74694
-0.0333725
1.86455
0.740964
-0.0104953
1.88547
0.755072
-0.0434543
1.83328
0.742378
-0.120898
1.80377
0.747766
1.92214
0.788379
0.0136833
1.07734
-0.799827
0.00854751
1.05935
-0.803883
0.0250323
1.06533
-0.798497
-0.00750995
1.03811
-0.809302
-0.0698291
1.03299
-0.8025
1.06576
-0.794261
0.0116508
0.801433
-1.39462
0.0120474
0.78998
-1.39579
0.0208752
0.784196
-1.39391
-0.00340801
0.767717
-1.3904
-0.021558
0.766564
-1.36861
0.763916
-1.39875
-0.0175914
0.80421
-1.42312
-0.03862
0.78589
-1.41752
-0.077076
0.794381
-1.41158
-0.0843002
0.807813
-1.39338
0.0459985
0.719879
-1.35554
0.780412
-1.40408
-0.0024265
-0.219673
-1.39012
-0.00864038
-0.243373
-1.41109
-0.0232202
-0.24419
-1.41657
-0.00793831
-0.269375
-1.43092
0.0262343
-0.581825
-1.4169
-0.286186
-1.46421
-0.0243283
-1.61606
-2.58048
-0.051676
-1.64645
-2.56579
-0.0692865
-1.68367
-2.5423
-0.0286514
-1.64015
-2.60423
0.010447
-1.82342
-2.54744
-1.7359
-2.52911
-0.0288931
-1.3439
-3.69248
-0.0943227
-1.35775
-3.67814
-0.213502
-1.3761
-3.65259
-0.13797
-1.42419
-3.64689
0.119388
-1.71547
-3.48365
-1.4451
-3.61437
-0.0364182
-2.33814
-0.145459
-2.33148
-0.413842
-2.31608
-0.508643
-2.23347
0.492523
-2.03138
-2.2535
-4.03802e-05
0.324768
-0.231893
-1.19048e-05
0.324613
-0.231946
-1.78915e-05
0.324649
-0.231934
-1.99045e-05
0.324649
-0.231942
1.79456e-05
0.32461
-0.23196
0.324771
-0.231919
2.76169e-05
0.545622
-0.22088
1.06653e-06
0.545531
-0.220892
-1.01359e-05
0.545547
-0.220888
-1.72241e-05
0.54555
-0.220894
-4.31092e-05
0.545535
-0.220898
0.545628
-0.220898
5.57491e-06
0.00454364
9.46156e-07
0.0045451
-3.04733e-06
0.00454583
-6.14833e-06
0.00454372
-1.00092e-05
0.00454336
0.00453868
-9.45287e-05
0.473426
-0.574625
-3.81876e-05
0.473299
-0.574938
-4.30357e-05
0.473317
-0.57485
-4.86829e-05
0.473314
-0.574857
-8.96305e-06
0.473287
-0.574935
0.473427
-0.574764
-3.99938e-05
0.664715
-0.412128
-1.98849e-05
0.66464
-0.412254
-3.60535e-05
0.664649
-0.412204
-4.29095e-05
0.664652
-0.412225
-3.14132e-05
0.664639
-0.412261
0.664722
-0.412224
-5.234e-06
0.00883177
-4.7951e-06
0.0088228
-8.37342e-06
0.00883079
-9.98467e-06
0.00882566
-7.41642e-06
0.00882239
0.00881708
1.16928e-05
0.880964
-0.775104
-2.23094e-05
0.880779
-0.775647
-5.90673e-05
0.880821
-0.775478
-3.5358e-05
0.880838
-0.775514
-4.76463e-05
0.880789
-0.775643
0.880931
-0.775405
-0.000132555
0.907313
-0.438344
-5.3646e-05
0.907236
-0.438791
-5.80603e-05
0.907246
-0.438626
-4.42485e-05
0.907256
-0.438657
1.87615e-05
0.907242
-0.438778
0.90733
-0.438606
-2.25394e-05
0.00454965
-1.39126e-05
0.0044742
-2.82646e-05
0.00451939
-2.55031e-05
0.00449681
-2.06708e-05
0.00448351
0.00448312
0.0011004
2.11772
0.0284755
6.83039e-05
2.11757
0.0301104
-0.000308357
2.11754
0.0295471
-1.74131e-05
2.11778
0.0287126
-0.000432868
2.11763
0.0293093
2.11781
0.0285749
0.000182063
1.14661
0.532578
-2.28284e-05
1.14667
0.532303
-0.000160226
1.1466
0.532442
-5.87254e-05
1.14673
0.532295
-0.000127559
1.14672
0.5322
1.14683
0.532248
-0.000174037
0.238582
-2.44026e-05
0.23814
-3.92858e-05
0.238341
-4.44717e-05
0.238371
5.73604e-05
0.238212
0.238442
-0.000720625
4.98982
-0.521344
-4.1802e-05
4.99315
-0.517686
-0.000344247
4.99165
-0.518933
-0.000438563
4.99121
-0.520541
0.000340925
4.99213
-0.519251
4.99089
-0.520838
-0.000173892
3.56173
1.96084
-1.74035e-06
3.56277
1.9625
-7.17475e-05
3.56217
1.96199
-0.000211779
3.5624
1.96125
-9.54042e-05
3.56243
1.96179
3.56236
1.96068
0.000157646
1.64638
8.9827e-05
1.64687
3.1624e-05
1.6467
1.98061e-05
1.64655
-0.000131301
1.64675
1.64634
-0.000485473
2.71225
-2.9028
-0.000217949
2.71682
-2.90012
-0.000130666
2.71491
-2.90114
-0.000293116
2.71365
-2.90232
0.00011431
2.71545
-2.90168
2.71357
-2.90275
-3.2548e-05
3.94633
0.726789
-0.000141466
3.94987
0.729552
-4.54714e-05
3.94824
0.728559
-0.000225963
3.94758
0.727512
-0.000310313
3.94905
0.728276
3.9476
0.72634
-0.000104299
2.07837
-0.000161277
2.0798
-9.61733e-05
2.07914
-0.000212295
2.07882
-0.000369379
2.07939
2.07794
0.00043377
0.300625
-4.27394
-0.000199217
0.298173
-4.27094
-0.000188264
0.299029
-4.27218
-0.000302986
0.298846
-4.27289
-0.000658358
0.298408
-4.27245
0.299177
-4.27351
0.0021483
1.50291
-0.477639
1.72889e-05
1.50595
-0.476096
-0.000251346
1.50442
-0.476555
-0.000167425
1.50369
-0.477416
-0.00125167
1.50501
-0.477238
1.50257
-0.478306
8.63656e-05
1.46836
-5.55971e-05
1.46956
9.11367e-06
1.46896
-4.34106e-05
1.46866
-8.88208e-05
1.46902
1.46755
0.000427712
-1.67949
-3.86877
-0.000298671
-1.68176
-3.86732
-0.000390437
-1.68101
-3.8679
-0.000647276
-1.68081
-3.86812
-0.00128953
-1.6817
-3.86801
-1.68157
-3.86842
0.00212864
-1.5851
-0.574152
2.24239e-05
-1.58168
-0.574073
-0.000184129
-1.58347
-0.573889
7.5573e-05
-1.58413
-0.574348
-0.00124795
-1.58312
-0.574497
-1.58656
-0.574548
-0.000124197
0.925291
0.000194783
0.926313
0.000441205
0.925775
0.000415301
0.925594
0.00075514
0.925711
0.924639
0.000908008
-3.27782
-3.8694
-0.000225661
-3.27851
-3.86947
-0.000261935
-3.27831
-3.86967
-0.000385904
-3.2783
-3.86909
-0.0014721
-3.27878
-3.86902
-3.27896
-3.86996
0.00121566
-3.24108
-0.612097
4.39587e-05
-3.23934
-0.61207
-3.46164e-05
-3.24014
-0.611983
5.10699e-06
-3.24043
-0.612253
-0.000863731
-3.24007
-0.612345
-3.24157
-0.612801
-0.000377094
0.378999
0.000228421
0.379428
0.000421291
0.379186
0.000397048
0.37913
0.000788383
0.37909
0.378554
0.00111121
-2.52912
-4.52609
-1.51137e-05
-2.52914
-4.5273
-2.12059e-05
-2.52908
-4.52716
-6.28261e-06
-2.52935
-4.5261
-0.00131374
-2.52966
-4.52573
-2.52895
-4.52778
0.000273035
-2.65432
-0.487171
6.77292e-06
-2.6537
-0.487248
0.000124663
-2.65394
-0.487237
8.1686e-05
-2.65413
-0.48742
-0.000272611
-2.65405
-0.487594
-2.65424
-0.487789
-0.000207492
0.189796
9.98678e-05
0.18973
0.000135196
0.189747
0.000165781
0.189723
0.000430433
0.189603
0.189587
0.00120341
-0.73144
-3.4686
-8.36141e-05
-0.7316
-3.4698
-0.000220501
-0.731607
-3.46972
7.87714e-05
-0.732065
-3.46847
0.000357387
-0.733307
-3.468
-0.730366
-3.47023
-1.22455e-05
-1.32617
0.107569
0.000173471
-1.32605
0.107009
0.000900067
-1.32619
0.106616
0.000389152
-1.32652
0.107546
-0.00130473
-1.327
0.107791
-1.32558
0.106119
-3.28336e-05
0.418736
4.34062e-05
0.418339
-7.55461e-05
0.418616
7.79949e-05
0.418294
0.000359903
0.417615
0.419217
-0.000262838
-1.98183
-1.59836
-0.000573635
-1.98275
-1.59853
-0.00118426
-1.98228
-1.59866
-0.000179912
-1.98346
-1.598
0.00240648
-1.98643
-1.59726
-1.97927
-1.5994
0.000396335
-1.64762
-0.227044
0.000137774
-1.64849
-0.226995
0.000492788
-1.64816
-0.227862
-3.14655e-05
-1.64877
-0.226612
-0.00156482
-1.65076
-0.226346
-1.64612
-0.228594
0.000296986
-0.0528792
0.000349908
-0.0530512
0.000608775
-0.0530205
0.000171896
-0.0532074
-0.00154205
-0.0536685
-0.0527086
-0.000950781
-0.487483
-1.03659
1.52502
-0.00140544
-0.487923
-1.03645
1.52483
-0.00398813
-0.484778
-1.03667
1.52403
-0.00225543
-0.489129
-1.03521
1.5226
0.00460411
-0.488814
-1.03502
1.51698
-0.479823
-1.03602
1.52045
-0.00964414
-0.548954
-0.832895
0.904011
-0.000908955
-0.551228
-0.835209
0.889777
0.0151732
-0.548022
-0.839128
0.886289
-0.00822991
-0.550097
-0.809661
0.894031
-0.0381212
-0.554542
-0.800315
0.895933
-0.538147
-0.846744
0.866947
-0.00490785
-0.266428
0.428496
-0.00524735
-0.263712
0.422232
-0.00406871
-0.262326
0.419745
-0.00702678
-0.261663
0.419982
-0.00596214
-0.258484
0.41803
-0.257239
0.40935
-0.000162174
-0.254901
-0.781523
-0.000259375
-0.25469
-0.78166
-0.00022056
-0.255043
-0.781662
0.000181791
-0.254154
-0.781456
0.000817111
-0.254265
-0.781391
-0.253607
-0.781596
-0.00333904
-0.403783
-0.680676
-0.00263687
-0.407785
-0.682819
-0.00136568
-0.409481
-0.685963
-0.00401044
-0.392327
-0.668845
-0.00494939
-0.389875
-0.663767
-0.413715
-0.691585
-0.00254562
0.00746035
-0.00341846
0.00810311
-0.00520086
0.00905566
-0.00367204
0.00853467
0.000312635
0.00850302
0.011488
-0.000249391
-0.324923
-0.45635
-0.000422177
-0.325212
-0.456276
-0.000782518
-0.324658
-0.456643
-7.60959e-05
-0.326942
-0.455221
0.00145323
-0.328317
-0.454604
-0.323119
-0.457023
-0.000445971
-0.586699
-0.418455
-0.00360718
-0.58693
-0.417941
-0.00959949
-0.586604
-0.418028
3.4254e-05
-0.589069
-0.416354
0.0184904
-0.596849
-0.413694
-0.575566
-0.420651
-0.00057054
0.147354
-0.000984478
0.147711
-0.0011867
0.148266
-0.000617018
0.147674
0.00149237
0.147201
0.149786
-0.000336176
-0.379222
-0.0767923
-0.000199184
-0.379574
-0.0768386
0.000575932
-0.380618
-0.0768009
4.48916e-05
-0.377489
-0.0772002
-0.000717146
-0.376056
-0.0777857
-0.381412
-0.0763282
-0.00232455
-0.747995
-0.0473594
-0.00276371
-0.749413
-0.047665
-0.00697591
-0.746617
-0.0478215
-0.00159831
-0.754165
-0.0450599
0.0140076
-0.763483
-0.0418762
-0.737011
-0.0510478
-0.00048986
0.321386
-0.000319051
0.32119
-0.00161489
0.322018
-0.000410598
0.321125
0.00367481
0.319479
0.323907
-0.000402203
-0.480304
0.403914
-0.000602661
-0.480642
0.404004
-0.000749599
-0.480711
0.404057
-4.47711e-05
-0.4815
0.403595
0.0012996
-0.482191
0.403061
-0.479499
0.40447
-0.00102068
-0.789326
0.26268
-0.00146091
-0.790635
0.26277
-0.00475861
-0.788513
0.26328
-0.000649622
-0.793703
0.263033
0.0115869
-0.800253
0.263948
-0.782095
0.263136
-0.000330332
0.488519
-7.49263e-05
0.488226
-0.000886629
0.488984
-0.000268466
0.488004
0.00227342
0.486587
0.490544
-0.000298027
-1.19414
-0.000503216
-1.19433
-0.000778059
-1.19433
-7.14695e-05
-1.19512
0.00137058
-1.19565
-1.19356
-0.000506932
-1.15801
-0.000387848
-1.15867
-0.00137106
-1.15793
-0.000391571
-1.15968
0.003732
-1.16217
-1.15529
6.61517e-05
0.000257259
0.00064763
6.58447e-05
-0.00102742
-0.00118033
2.80015
0.282722
-0.00160729
2.80056
0.282277
-0.00176178
2.80079
0.281861
-0.00134481
2.80099
0.281381
0.000982757
2.80164
0.280522
2.80045
0.281262
-0.000482432
2.58644
0.214193
-0.000718207
2.5867
0.214097
-0.000761313
2.58685
0.213981
-0.000599755
2.587
0.213837
0.000130742
2.58722
0.213683
2.58683
0.213745
-0.000146547
0.0802143
-0.000233925
0.0801973
-0.000252394
0.0801694
-0.000195661
0.0801281
-3.84014e-06
0.080104
0.0801288
-0.00255254
2.83512
0.764567
-0.00340372
2.83599
0.764281
-0.00514216
2.83608
0.763053
-0.00323333
2.83692
0.762162
0.00474244
2.83909
0.761278
2.83483
0.758564
-0.000827741
2.53744
0.512708
-0.00125142
2.53777
0.512746
-0.00131025
2.53801
0.512115
-0.00127867
2.53818
0.51254
-0.000234901
2.53859
0.51314
2.53813
0.510209
-0.000229672
0.192725
-0.000358399
0.192692
-0.000359966
0.192606
-0.000328853
0.192578
-8.40197e-05
0.192592
0.192468
-0.00606163
2.67705
1.60589
-0.00883149
2.67962
1.60594
-0.0141668
2.67871
1.60582
-0.00678448
2.68381
1.60056
0.0108724
2.69074
1.59732
2.67562
1.60125
-0.00167144
2.24534
0.946089
-0.00256438
2.2461
0.947162
-0.00369134
2.24643
0.945523
-0.00274274
2.24732
0.948082
0.00135574
2.24882
0.950956
2.24668
0.940505
-0.000424299
0.321814
-0.000613175
0.321942
-0.000706826
0.321703
-0.000701979
0.322283
-0.000128005
0.322854
0.32102
-0.00640013
2.12743
2.25261
-0.0138685
2.13026
2.25159
-0.0131974
2.12951
2.25428
-0.012068
2.13709
2.24226
-0.0114583
2.14458
2.23828
2.13127
2.25807
-0.00199652
1.72072
1.35479
-0.00350536
1.72194
1.35699
-0.00533412
1.72173
1.35513
-0.003757
1.72416
1.35944
0.00104595
1.72667
1.36406
1.72226
1.35056
-0.000583352
0.438532
-0.000796973
0.439011
-0.00140427
0.438557
-0.000907235
0.440051
0.000804995
0.441199
0.437431
-0.00207658
0.936196
2.06543
-0.00941053
0.936212
2.06367
-0.00440195
0.937382
2.06696
-0.0150389
0.938933
2.05634
-0.0318026
0.944625
2.05819
0.942775
2.07187
-0.0012191
0.895983
1.39623
-0.00314314
0.896677
1.39845
-0.00410191
0.896348
1.39712
-0.00483939
0.898172
1.40093
-0.00125172
0.900152
1.40495
0.897544
1.39454
-0.000500206
0.424961
-0.000735823
0.425432
-0.00154294
0.424974
-0.000873849
0.426101
0.00137516
0.426774
0.424318
-0.000459367
-0.334271
1.60034
-0.00492918
-0.335746
1.6
-0.00180176
-0.335039
1.60038
-0.0115031
-0.337609
1.59435
-0.0142235
-0.337128
1.59554
-0.334157
1.59754
-0.000138808
0.032366
1.02973
-0.000586386
0.0323476
1.0308
-0.000796299
0.0324658
1.02982
-0.00142412
0.0330115
1.03094
-0.000127192
0.0339408
1.03258
0.0332779
1.02697
-0.000380901
0.323695
-0.000649504
0.323812
-0.00117777
0.323663
-0.000725706
0.323762
0.000690609
0.32384
0.323372
-0.00308518
-0.870435
1.07923
-0.00771469
-0.871355
1.0802
-0.0104519
-0.870486
1.07968
-0.0123668
-0.871207
1.07707
0.00621586
-0.869259
1.0776
-0.87026
1.07527
-0.000417929
-0.495267
0.654975
-0.000726026
-0.49512
0.654869
-0.000696767
-0.494636
0.65394
-0.00105128
-0.493587
0.653674
-0.000148123
-0.491628
0.654044
-0.494155
0.650723
-0.000650824
0.192043
-0.00121205
0.191957
-0.00171732
0.191904
-0.00125626
0.191629
0.000975625
0.191259
0.191976
-0.0075535
-1.03759
0.701265
-0.0140315
-1.03655
0.705701
-0.0220667
-1.03464
0.710776
-0.016559
-1.02979
0.707973
0.0107564
-1.02194
0.716684
-1.02997
0.711916
-0.00213931
-0.977324
0.596843
-0.00415155
-0.976138
0.596468
-0.00446618
-0.975517
0.595134
-0.00548471
-0.973049
0.597953
-0.00461325
-0.970723
0.601957
-0.972645
0.588783
-0.000895621
0.182838
-0.00144398
0.18275
-0.00161651
0.182479
-0.00144208
0.183366
-0.00067818
0.18403
0.181972
0.0109254
-0.803951
0.104172
0.00478247
-0.80471
0.105462
-0.0122444
-0.803434
0.114669
-0.00456588
-0.804718
0.0740979
0.0425009
-0.799368
0.0520816
-0.807803
0.0980083
-0.00323698
-0.796183
0.592312
-0.00576445
-0.796046
0.590331
-0.00293042
-0.796415
0.585283
-0.00658061
-0.792758
0.589645
-0.0116994
-0.786558
0.594268
-0.798858
0.56814
-0.00109015
0.251596
-0.00163296
0.250946
-0.0022518
0.249984
-0.00190047
0.250234
0.00164191
0.249689
0.248671
-0.0105549
-1.65817
-0.807576
-0.0157581
-1.65422
-0.800904
-0.0177381
-1.64345
-0.782206
-0.0455341
-1.66642
-0.835907
0.00416245
-1.65472
-0.890333
-1.64604
-0.780898
-0.0100734
-1.68903
0.633243
-0.014108
-1.68962
0.629771
-0.00814657
-1.68783
0.623708
-0.0175113
-1.68005
0.612639
-0.00897987
-1.66578
0.596802
-1.68792
0.601035
-0.0019585
0.22413
-0.00455524
0.222741
-0.00942435
0.221928
-0.0051557
0.22133
0.011936
0.21885
0.219832
0.0050181
-2.0593
-2.44578
0.0140898
-2.05775
-2.43037
0.0437777
-2.056
-2.40848
0.00449908
-1.9769
-2.46662
-0.0071966
-1.79409
-2.5682
-2.01216
-2.39031
-0.0287706
-1.77519
0.377912
-0.0647322
-1.77614
0.384121
-0.11231
-1.77154
0.386821
-0.106392
-1.73964
0.369461
0.0489169
-1.71052
0.357925
-1.75093
0.388719
-0.00313456
0.256043
-0.0106378
0.257513
-0.0248464
0.258512
-0.0133511
0.255871
0.0205954
0.250162
0.262131
0.00463675
-3.26354
0.00881588
-3.2412
0.0213971
-3.21312
0.0200678
-3.17615
-0.0132962
-3.04924
-3.13665
-0.0255422
-1.95607
-0.0482173
-1.94463
-0.0525897
-1.93563
-0.0599876
-1.90526
-0.0196253
-1.83575
-1.90061
-0.0123426
-0.0248418
-0.0316629
-0.0260768
-0.00549155
)
;

boundaryField
{
    seabed_topleft_surface
    {
        type            calculated;
        value           uniform 0;
    }
    seabed_topright_surface
    {
        type            calculated;
        value           uniform 0;
    }
    breakwater_top_surface
    {
        type            calculated;
        value           uniform 0;
    }