/*--------------------------------*- C++ -*----------------------------------*\
| =========                 |                                                 |
| \\      /  F ield         | OpenFOAM: The Open Source CFD Toolbox           |
|  \\    /   O peration     | Version:  v1612+                                |
|   \\  /    A nd           | Web:      www.OpenFOAM.com                      |
|    \\/     M anipulation  |                                                 |
\*---------------------------------------------------------------------------*/
FoamFile
{
    version     2.0;
    format      ascii;
    class       volVectorField;
    location    "4.85";
    object      U;
}
// * * * * * * * * * * * * * * * * * * * * * * * * * * * * * * * * * * * * * //

dimensions      [0 1 -1 0 0 0 0];

internalField   nonuniform List<vector> 
1116
(
(0.129468 -1.12126e-05 -0.171038)
(0.129468 -1.5706e-05 -0.171045)
(0.12947 -4.30889e-06 -0.171035)
(0.129471 -7.37474e-07 -0.171033)
(0.129468 -3.28507e-06 -0.171043)
(0.129466 1.5944e-06 -0.171033)
(0.386321 -7.00674e-06 -0.309652)
(0.386331 -1.47151e-05 -0.309666)
(0.38633 -3.86304e-06 -0.309649)
(0.386332 6.74522e-07 -0.309645)
(0.38633 -5.02177e-06 -0.309662)
(0.38632 -2.9053e-06 -0.30965)
(0.504726 1.71354e-06 -0.325833)
(0.504751 -7.97726e-06 -0.325853)
(0.504748 -2.37629e-06 -0.325834)
(0.504748 1.63377e-07 -0.325828)
(0.504748 -1.02369e-05 -0.325848)
(0.504731 -9.83643e-06 -0.325838)
(0.290841 9.24653e-06 -0.258822)
(0.290884 1.56022e-06 -0.258847)
(0.290875 -1.95619e-06 -0.258829)
(0.290873 -4.10473e-06 -0.258824)
(0.290879 -1.28971e-05 -0.258844)
(0.290853 -1.18112e-05 -0.258835)
(-0.366481 1.36165e-05 -0.0635399)
(-0.366419 6.16009e-06 -0.0635604)
(-0.366428 -6.15485e-06 -0.0635508)
(-0.366428 -6.14263e-06 -0.0635478)
(-0.366413 -1.52915e-05 -0.0635635)
(-0.366456 -1.39964e-05 -0.0635551)
(-1.34616 4.22974e-06 0.250174)
(-1.34609 1.14428e-05 0.250158)
(-1.34609 6.14607e-06 0.250161)
(-1.34609 9.2879e-07 0.250166)
(-1.34607 -1.28508e-05 0.250157)
(-1.34613 -1.22498e-05 0.250172)
(-2.44606 -2.61412e-05 0.474879)
(-2.44605 9.47638e-06 0.474933)
(-2.44599 2.58123e-05 0.474913)
(-2.44599 3.90806e-06 0.474914)
(-2.44599 -6.48032e-06 0.474929)
(-2.44607 -4.95928e-06 0.474905)
(-3.4867 -4.87949e-05 0.306231)
(-3.48682 -8.22032e-06 0.306335)
(-3.48668 3.2632e-05 0.306316)
(-3.48667 6.24873e-07 0.30632)
(-3.48669 2.66079e-06 0.306346)
(-3.48678 1.21807e-05 0.306238)
(-3.89771 6.53845e-05 -0.297538)
(-3.89801 4.36368e-05 -0.297406)
(-3.8978 -1.74276e-05 -0.297403)
(-3.89779 1.5266e-05 -0.297395)
(-3.89788 -2.23939e-05 -0.297374)
(-3.8978 -2.38842e-05 -0.297547)
(-3.2029 0.000345522 -0.902863)
(-3.20337 0.0002011 -0.90268)
(-3.20309 -0.000144827 -0.902691)
(-3.20313 5.18329e-05 -0.902706)
(-3.2033 -0.000117431 -0.902672)
(-3.20298 -0.000166346 -0.902881)
(-1.98969 0.000308168 -1.11778)
(-1.98972 0.000166618 -1.11752)
(-1.98962 -0.00016054 -1.11759)
(-1.98975 2.63791e-05 -1.11763)
(-1.98984 -0.000151223 -1.11754)
(-1.9896 -0.000194927 -1.11784)
(-0.691032 -8.51299e-05 -0.708317)
(-0.690872 -8.3635e-05 -0.708277)
(-0.690909 -1.33069e-05 -0.70833)
(-0.690953 -2.6267e-05 -0.708304)
(-0.690947 -5.78792e-05 -0.708258)
(-0.690989 -4.61149e-05 -0.708444)
(1.18708 -7.90574e-05 -0.723354)
(1.18709 -8.51656e-05 -0.723437)
(1.18708 2.03532e-06 -0.723492)
(1.18708 1.73549e-05 -0.723451)
(1.1871 0.000101365 -0.723435)
(1.18708 8.76006e-05 -0.723421)
(2.92311 -0.000108625 -0.407158)
(2.92302 -0.000127408 -0.40724)
(2.92302 -2.94225e-06 -0.407309)
(2.92301 -9.66229e-07 -0.407254)
(2.92301 0.000146492 -0.407223)
(2.92311 0.000125057 -0.407249)
(5.5637 -7.75486e-05 0.414661)
(5.56389 -0.000102536 0.41468)
(5.56381 -2.76444e-05 0.414648)
(5.56365 -7.6503e-05 0.414664)
(5.56369 5.13926e-05 0.41469)
(5.56392 4.72535e-05 0.414657)
(1.70834 7.62014e-05 0.850261)
(1.70917 3.56386e-05 0.85023)
(1.70877 -3.78086e-05 0.850232)
(1.7087 -1.83686e-05 0.850238)
(1.70895 -4.68895e-05 0.850225)
(1.70854 -5.61584e-05 0.850216)
(-0.545172 0.000268925 1.46315)
(-0.544726 0.000152222 1.46321)
(-0.544926 -0.000135442 1.46318)
(-0.544866 2.93196e-05 1.46316)
(-0.54472 -8.99407e-05 1.46318)
(-0.545046 -0.000153474 1.46313)
(-2.00833 0.00021589 1.70736)
(-2.00804 0.000132471 1.70745)
(-2.00814 -8.67062e-05 1.70742)
(-2.00813 6.65508e-05 1.70742)
(-2.00803 -8.48251e-05 1.70745)
(-2.00825 -0.000152006 1.70738)
(-2.43139 0.000100231 1.33198)
(-2.43132 7.56555e-05 1.33195)
(-2.4313 -3.63374e-05 1.33198)
(-2.43128 4.0473e-05 1.332)
(-2.43125 -4.2752e-05 1.332)
(-2.4314 -8.34322e-05 1.33199)
(-2.77817 0.000146596 0.65032)
(-2.77852 7.69509e-05 0.650195)
(-2.77831 -7.31764e-05 0.650296)
(-2.77828 4.94548e-05 0.650316)
(-2.77836 -2.49682e-05 0.650287)
(-2.77831 -6.8195e-05 0.650286)
(-2.53811 0.000483849 -0.185897)
(-2.53862 0.000251856 -0.185544)
(-2.53834 -0.000212805 -0.185598)
(-2.53835 0.000131531 -0.185642)
(-2.53847 -9.37399e-05 -0.18553)
(-2.53824 -0.000201213 -0.185838)
(-1.97609 0.000441426 -1.0409)
(-1.97503 0.000225927 -1.03933)
(-1.97539 -0.000207811 -1.03988)
(-1.97561 8.16113e-05 -1.0401)
(-1.97532 -0.000107279 -1.03961)
(-1.97569 -0.000184363 -1.04057)
(-1.52902 -0.000297641 -1.84166)
(-1.52631 -0.000192267 -1.84022)
(-1.52738 6.47537e-05 -1.84077)
(-1.52774 -0.00013543 -1.84103)
(-1.52704 -7.99159e-06 -1.84062)
(-1.52817 7.72633e-05 -1.8414)
(-0.839991 -0.000523499 -1.62482)
(-0.839764 -0.000306591 -1.62535)
(-0.839795 0.000110743 -1.62518)
(-0.839868 -0.0002181 -1.62518)
(-0.839769 0.000127223 -1.62527)
(-0.83999 0.000228602 -1.62519)
(-1.01554 -3.66727e-05 -3.00123)
(-1.0154 -5.5404e-06 -3.00163)
(-1.01545 3.23234e-05 -3.00156)
(-1.01544 1.20774e-05 -3.00155)
(-1.01538 5.19814e-05 -3.00162)
(-1.01551 5.84831e-05 -3.0012)
(-2.99801 -0.000110842 -2.73364)
(-2.998 -6.48825e-05 -2.73419)
(-2.99801 2.77428e-05 -2.73413)
(-2.99798 -1.52164e-05 -2.73411)
(-2.99794 0.000108883 -2.73415)
(-2.99789 0.000128103 -2.73367)
(-2.86972 6.3728e-05 0.519811)
(-2.87017 4.45684e-05 0.518825)
(-2.87013 -1.74814e-05 0.518994)
(-2.87006 5.84334e-05 0.519003)
(-2.8701 0.000136779 0.518831)
(-2.86969 8.28793e-05 0.519376)
(-2.11886 0.000577146 5.77239)
(-2.1163 0.000300688 5.77288)
(-2.11734 -0.000225667 5.77258)
(-2.11774 0.000191625 5.77236)
(-2.11677 -7.49234e-05 5.77243)
(-2.11696 -0.000232529 5.77241)
(-7.23014 0.00186471 5.3354)
(-7.22898 0.00110604 5.34111)
(-7.22935 -0.000912401 5.33858)
(-7.22958 0.00032885 5.33778)
(-7.22901 -0.000638614 5.33956)
(-7.22903 -0.0010879 5.33678)
(-5.46718 0.000948744 2.24327)
(-5.4671 0.00051136 2.24622)
(-5.46714 -0.000489348 2.24495)
(-5.4672 0.000243659 2.24468)
(-5.46709 -0.000313037 2.24568)
(-5.46717 -0.000595006 2.244)
(-3.67621 0.00056365 1.20866)
(-3.6753 0.000302259 1.21045)
(-3.67572 -0.000250806 1.20967)
(-3.67581 0.000191977 1.20954)
(-3.67545 -0.000153639 1.21016)
(-3.67603 -0.000336288 1.20908)
(-2.74265 0.000303632 0.282399)
(-2.74169 0.000128103 0.28426)
(-2.74212 -0.000159286 0.283465)
(-2.74226 0.000114792 0.283293)
(-2.74189 -5.63686e-05 0.283937)
(-2.74247 -0.000165599 0.282823)
(-1.96321 -0.000566828 -0.898947)
(-1.96114 -0.00040179 -0.896806)
(-1.96206 0.000245962 -0.89771)
(-1.96228 -0.000102103 -0.897922)
(-1.9616 0.0001172 -0.897174)
(-1.96281 0.000277411 -0.898478)
(-0.967208 -0.00181543 -1.92974)
(-0.964831 -0.00115793 -1.92853)
(-0.965986 0.000834424 -1.92903)
(-0.966024 -0.00040962 -1.92921)
(-0.965233 0.000294248 -1.92881)
(-0.967129 0.000833534 -1.92953)
(0.333286 -0.00182134 -2.15218)
(0.335747 -0.00111486 -2.15207)
(0.33424 0.000853769 -2.15224)
(0.335153 -0.000522711 -2.15228)
(0.336073 0.000491585 -2.15226)
(0.332509 0.00108619 -2.15245)
(-1.76447 -0.000106733 -2.11564)
(-1.76481 3.84886e-05 -2.11623)
(-1.76469 2.66724e-05 -2.116)
(-1.76476 -0.00017178 -2.11628)
(-1.766 6.70072e-05 -2.1167)
(-1.76364 7.77486e-05 -2.11561)
(-0.377702 -1.31209e-05 0.770611)
(-0.377739 6.63015e-06 0.769847)
(-0.377726 2.69737e-05 0.769975)
(-0.377734 -2.36399e-05 0.769965)
(-0.377742 -4.90409e-06 0.769815)
(-0.377686 3.67293e-06 0.770604)
(-1.74364 -6.93272e-05 0.46852)
(-1.74373 -3.36362e-05 0.467874)
(-1.7437 3.83604e-05 0.467993)
(-1.7437 -2.77431e-05 0.467992)
(-1.74371 1.98826e-05 0.467864)
(-1.74363 2.90827e-05 0.468486)
(-2.57659 0.000249149 0.88518)
(-2.57732 0.000198437 0.88402)
(-2.57703 -8.71558e-05 0.884346)
(-2.57696 4.97907e-05 0.884433)
(-2.57711 -7.44695e-06 0.884073)
(-2.57676 -0.000105812 0.884678)
(-2.37451 0.00104152 5.09945)
(-2.37281 0.000678011 5.09933)
(-2.37347 -0.000457302 5.09901)
(-2.37418 0.000199328 5.09901)
(-2.3735 -0.000126763 5.09883)
(-2.37413 -0.000437577 5.09883)
(-5.28661 0.00078632 6.05054)
(-5.27451 0.00033034 6.06687)
(-5.27905 -0.000808257 6.0592)
(-5.28231 -0.0001254 6.05752)
(-5.27798 -0.000257381 6.06377)
(-5.28283 -0.000456816 6.05529)
(-7.57733 -0.000545888 -1.53795)
(-7.57485 -0.000362838 -1.53204)
(-7.57596 -4.38645e-05 -1.53466)
(-7.57692 -0.000221159 -1.53536)
(-7.57585 0.000187554 -1.53313)
(-7.57698 0.000195905 -1.53637)
(-6.53765 -0.00201306 -2.49312)
(-6.53303 -0.00122563 -2.48958)
(-6.53519 0.000767357 -2.49127)
(-6.53595 -0.000523967 -2.49142)
(-6.53423 0.000521744 -2.48998)
(-6.53683 0.00101126 -2.4923)
(-5.1753 -0.00312326 -2.04656)
(-5.16751 -0.00186861 -2.04564)
(-5.17104 0.00136713 -2.0461)
(-5.17197 -0.0008758 -2.04625)
(-5.16923 0.000635906 -2.04563)
(-5.17367 0.00157491 -2.04637)
(-3.8011 -0.00367566 -3.30675)
(-3.79721 -0.00231804 -3.31233)
(-3.79916 0.00157431 -3.31007)
(-3.79921 -0.00115796 -3.30922)
(-3.79772 0.00049969 -3.31082)
(-3.80089 0.00177167 -3.308)
(2.49055 -0.00222684 -4.7551)
(2.48256 -0.00157752 -4.76803)
(2.48613 0.000830783 -4.76259)
(2.48662 -0.00105598 -4.76132)
(2.48365 0.000298709 -4.76539)
(2.48889 0.00135665 -4.75855)
(7.68847 -0.000781725 -0.213453)
(7.67324 -0.000824786 -0.221394)
(7.67948 0.000458351 -0.218297)
(7.68204 -0.00166913 -0.216868)
(7.67634 0.00233268 -0.218094)
(7.68263 0.00422477 -0.217235)
(-4.0895 0.00248348 -0.526947)
(-4.09875 0.00176372 -0.525342)
(-4.09461 -0.00034781 -0.526369)
(-4.09543 0.00130182 -0.526111)
(-4.11575 -0.00137426 -0.526782)
(-4.07633 -0.00247908 -0.526472)
(1.09497 -0.00504069 1.36203)
(1.10158 0.00505904 1.36305)
(1.09369 0.0152696 1.35729)
(1.09353 -0.00428147 1.35438)
(1.11064 0.0456659 1.35792)
(1.06638 0.0542705 1.33683)
(4.06752 -0.0190433 2.132)
(4.13292 0.0108733 2.13012)
(4.02827 0.0403936 2.13949)
(4.07588 -0.0188251 2.12471)
(4.26368 0.102813 2.10044)
(3.7575 0.133012 2.14856)
(9.56629 -0.0286031 1.98118)
(9.78074 0.0191308 1.9401)
(9.51764 0.0527008 2.04569)
(9.64207 -0.0210288 2.00307)
(10.0843 0.131539 1.78265)
(8.90332 0.177319 2.3034)
(14.5099 -0.0168836 -0.394259)
(14.8008 0.0138638 -0.47658)
(14.5358 0.0181971 -0.29553)
(14.6442 -0.00976451 -0.372786)
(15.085 0.0776173 -0.842413)
(14.0202 0.114802 0.0929821)
(16.521 0.0159885 -3.58073)
(16.8072 0.0325387 -3.67586)
(16.6261 0.0321702 -3.62089)
(16.6134 0.108441 -3.63284)
(16.8276 0.0187128 -3.96641)
(16.2332 -0.0418424 -3.40409)
(16.0064 0.0350286 -4.45677)
(16.2975 0.0549512 -4.58565)
(16.1088 0.0800953 -4.58802)
(16.1022 0.24482 -4.58035)
(16.3574 -0.0382228 -4.90883)
(15.6817 -0.183842 -4.47712)
(14.3138 0.0440552 -4.40018)
(14.5245 0.0722744 -4.54784)
(14.3239 0.135544 -4.58738)
(14.4114 0.367609 -4.59776)
(14.7714 -0.0845644 -4.98434)
(13.8021 -0.292693 -4.54869)
(11.9205 0.0286313 -4.54021)
(11.9746 0.0334824 -4.64834)
(11.8569 0.10905 -4.69159)
(12.017 0.312272 -4.69781)
(12.4021 -0.104352 -5.04194)
(11.4952 -0.250102 -4.67356)
(8.27287 0.00117597 -5.61509)
(8.28144 -0.051673 -5.67191)
(8.24411 0.0197328 -5.68197)
(8.28681 0.101962 -5.64779)
(8.54225 -0.201574 -5.86717)
(8.08725 -0.142809 -5.58193)
(3.94086 0.0113375 -6.23898)
(4.01176 -0.0594327 -6.29818)
(4.08208 0.141375 -6.33417)
(3.78095 0.371431 -6.17637)
(4.04764 -0.461394 -6.52143)
(4.00206 -0.438341 -6.09191)
(-4.42675 0.0270611 -4.54277)
(-4.31356 0.0345388 -4.62658)
(-3.47016 0.178071 -4.82215)
(-5.62258 0.542725 -4.11046)
(-6.98083 -0.395955 -3.96691)
(-2.23598 -0.379593 -4.74961)
(-7.57497 0.0302587 1.35283)
(-7.6442 0.0876445 1.40056)
(-7.31118 0.236268 1.8405)
(-7.68148 0.397612 1.20762)
(-7.90103 -0.621004 1.68709)
(-6.1745 -0.682316 1.39711)
(1.1904 -0.00655785 3.98418)
(1.1966 0.00150931 3.98715)
(1.19325 0.00814462 3.97745)
(1.19617 -0.0173445 3.97836)
(1.21435 0.0469711 3.98765)
(1.17452 0.0630898 3.94321)
(3.24255 -0.0248657 5.82197)
(3.30789 -0.00380036 5.82853)
(3.21963 0.0161946 5.82183)
(3.32374 -0.0514233 5.82081)
(3.53187 0.094595 5.82217)
(3.00572 0.148159 5.78168)
(6.92177 -0.0334474 6.91237)
(7.15685 -0.0346602 6.89232)
(6.88205 -0.0244467 6.99346)
(7.16679 -0.0647253 6.9125)
(7.71914 -0.0174624 6.75981)
(6.26389 0.0529683 7.19247)
(11.2599 -0.0231178 5.45633)
(11.5247 -0.060336 5.45831)
(11.3078 -0.107335 5.57989)
(11.5793 -0.116711 5.4847)
(12.1644 -0.135436 5.39842)
(10.8562 -0.0737464 5.80381)
(12.3342 0.00198399 2.98634)
(12.5027 -0.00960047 3.06864)
(12.3817 -0.123269 3.04966)
(12.7629 -0.182857 3.14018)
(13.4214 0.00715865 3.46378)
(12.5186 0.0885078 3.00189)
(10.0316 0.0436842 0.371794)
(10.1138 0.0838535 0.431701)
(9.76229 0.00739706 0.160066)
(10.4291 0.00341503 0.871603)
(11.8778 0.102057 2.03983)
(9.53508 0.13706 -0.183362)
(9.19823 0.035946 0.159481)
(9.16233 0.0677641 0.0763812)
(8.85266 0.0952985 -0.236394)
(9.66907 0.212316 0.581268)
(11.3858 -0.0155339 2.33395)
(8.57231 -0.052382 -0.681157)
(8.87904 -0.00448048 -1.87247)
(8.84798 -0.00938475 -1.9463)
(8.68083 0.0232639 -2.0705)
(9.08818 0.0896563 -1.40699)
(10.0574 -0.0880388 0.549914)
(8.49525 -0.0575883 -2.18104)
(8.81196 -0.0100596 -6.97649)
(8.82505 -0.0135629 -7.01855)
(8.70777 0.0100135 -6.97241)
(8.9403 0.069027 -7.04575)
(9.17521 -0.0970153 -7.34698)
(8.58094 -0.0656476 -6.92371)
(8.05683 -0.0243024 -7.40176)
(8.07878 -0.0278673 -7.43128)
(8.00168 -0.0512732 -7.45883)
(8.30779 -0.0741163 -7.39223)
(8.64477 -0.100043 -7.60226)
(7.91236 0.0532442 -7.39762)
(5.14928 0.000679408 -3.65857)
(5.19106 0.0396569 -3.79412)
(5.32404 0.0284893 -4.2464)
(5.03348 0.13187 -2.80215)
(4.48166 -0.0195258 -0.755682)
(5.38088 0.14002 -4.64159)
(-0.948973 0.177274 5.17222)
(-0.857063 0.495164 4.78741)
(0.0473204 0.856157 3.33593)
(-1.91243 1.93425 7.88838)
(-3.17485 0.0101745 10.4774)
(1.11117 -0.0226599 0.31747)
(0.496453 -0.00370068 5.67287)
(0.500325 -0.00239183 5.67578)
(0.500206 -0.00040836 5.67066)
(0.502033 -0.0135673 5.67168)
(0.51185 0.0185454 5.68038)
(0.493238 0.0296926 5.64855)
(0.821326 -0.0165468 7.33668)
(0.842516 -0.00817599 7.35083)
(0.82279 -0.0043746 7.33321)
(0.866279 -0.0518011 7.35553)
(0.943028 0.0595409 7.39387)
(0.774914 0.100513 7.27329)
(0.659393 -0.0286676 9.05511)
(0.776687 -0.0379277 9.06208)
(0.626719 -0.0329665 9.09387)
(0.856583 -0.0642297 9.09066)
(1.18532 -0.0247087 9.06725)
(0.295907 0.0354641 9.14406)
(1.93025 -0.0323133 6.92088)
(2.10685 -0.0694313 6.88466)
(1.95492 -0.0816066 7.02504)
(2.23692 -0.0878562 6.91223)
(2.6298 -0.127321 6.83808)
(1.62424 -0.0701307 7.30992)
(2.5551 -0.0220804 -1.17902)
(2.73115 -0.0378501 -1.25148)
(2.63197 -0.0433629 -1.07892)
(2.84384 -0.0727697 -1.18629)
(3.30757 -0.031114 -1.17449)
(2.45301 0.0160507 -0.664504)
(3.29315 -0.00597481 -6.00303)
(3.43325 -0.0204983 -6.04729)
(3.39095 -0.0672442 -6.01476)
(3.43225 -0.193826 -6.1457)
(3.7804 0.0496421 -6.20916)
(3.33628 0.194661 -5.93225)
(3.58123 0.00606183 -4.29276)
(3.65021 -0.0112391 -4.33563)
(3.62108 -0.113961 -4.38229)
(3.62429 -0.301852 -4.55875)
(3.85744 0.088304 -4.69971)
(3.59394 0.299873 -4.47987)
(2.5367 0.00451997 -1.82528)
(2.51773 -0.00865528 -1.83402)
(2.44976 -0.076523 -1.84328)
(2.47684 -0.175312 -1.56856)
(2.48365 0.0320082 -1.30013)
(2.28612 0.149581 -1.82828)
(4.26585 -0.0106266 -6.4222)
(4.31464 -0.00489669 -6.48093)
(4.31735 -0.00292658 -6.53179)
(4.22533 0.0711896 -6.46364)
(4.26993 -0.0936228 -7.1782)
(4.31317 -0.000727792 -6.64291)
(6.60243 -0.0248863 -8.16117)
(6.63606 -0.0253759 -8.1484)
(6.60444 -0.0814303 -8.12399)
(6.76159 -0.173296 -8.09626)
(7.33468 -0.0962774 -8.77192)
(6.64996 0.177511 -8.079)
(5.73604 -0.034194 -6.34285)
(5.74456 -0.01617 -6.37287)
(5.66762 -0.196432 -6.40888)
(5.99628 -0.543901 -6.22671)
(6.70258 0.144309 -5.8864)
(5.74621 0.522768 -6.44775)
(2.28919 -0.0259923 -1.01771)
(2.31204 0.0354652 -1.20155)
(2.31573 -0.164607 -1.60682)
(2.31355 -0.547977 -0.680565)
(1.90531 1.05148 6.61611)
(2.38765 0.521287 -1.95783)
(-0.0687833 -0.00150214 6.01623)
(-0.0670542 -0.00263618 6.01818)
(-0.0666497 -0.00226006 6.01745)
(-0.0650807 -0.00557483 6.0182)
(-0.0607223 0.0029862 6.0235)
(-0.0683864 0.00731418 6.01019)
(-0.591705 -0.00628348 6.78498)
(-0.586875 -0.00644489 6.79302)
(-0.585172 -0.00783414 6.78621)
(-0.576885 -0.025157 6.79847)
(-0.562049 0.0193173 6.82276)
(-0.582817 0.0364269 6.75933)
(-2.34491 -0.0155667 7.79391)
(-2.32259 -0.019979 7.80895)
(-2.34954 -0.0226594 7.80472)
(-2.28335 -0.0463835 7.83733)
(-2.20199 0.00775314 7.86999)
(-2.40094 0.0407675 7.78978)
(-3.88092 -0.0182558 6.4281)
(-3.82618 -0.0345145 6.42772)
(-3.8835 -0.0362381 6.46562)
(-3.73653 -0.0432053 6.45664)
(-3.59212 -0.0590421 6.46508)
(-3.99643 -0.0271946 6.53501)
(-4.42351 -0.00114236 2.15698)
(-4.36133 -0.0216792 2.14104)
(-4.40436 -0.0195621 2.18383)
(-4.27333 -0.00870616 2.13456)
(-4.16081 -0.0945549 2.14087)
(-4.47162 -0.0775932 2.26414)
(-3.2176 0.0138471 -0.896001)
(-3.17067 0.00597273 -0.903573)
(-3.20364 0.0121547 -0.886307)
(-3.12408 0.0347719 -0.905346)
(-3.11366 -0.0540898 -0.868736)
(-3.24754 -0.0643012 -0.872908)
(-1.53685 0.0105349 -2.29316)
(-1.50413 0.00814103 -2.29509)
(-1.50301 0.0117043 -2.28653)
(-1.46651 0.0272619 -2.26144)
(-1.47706 -0.0253174 -2.16349)
(-1.4722 -0.0361954 -2.29712)
(-1.01269 -0.00786666 -2.54961)
(-1.00445 -0.0258888 -2.54091)
(-0.995428 -0.0541479 -2.53331)
(-0.995822 -0.096637 -2.49701)
(-1.04957 -0.00936047 -2.41359)
(-0.966734 0.052341 -2.53213)
(-1.06706 -0.00255706 -2.26996)
(-0.984089 -0.00303326 -2.36562)
(-1.01923 -0.0131541 -2.42164)
(-1.01796 -0.0281689 -2.49981)
(-0.499161 0.01729 -2.53176)
(-0.94644 0.0228793 -2.67311)
(3.80137 -0.0116369 -6.3888)
(3.85764 -0.0330281 -6.37801)
(3.93533 -0.0469599 -6.38569)
(3.85758 -0.0940362 -6.26898)
(4.15095 0.00504827 -5.4043)
(4.05205 0.059859 -6.35978)
(4.94191 -0.0171221 -6.67128)
(4.97129 -0.0328366 -6.6593)
(5.01109 -0.117587 -6.65426)
(5.09178 -0.31784 -6.46791)
(5.5728 0.0185086 -6.14913)
(5.14922 0.262314 -6.5649)
(3.29955 -0.0192313 -3.59963)
(3.31672 -0.0496905 -3.60261)
(3.33764 -0.224851 -3.62148)
(3.30135 -0.686204 -3.39494)
(3.53173 0.03596 -3.15515)
(3.39477 0.583914 -3.5556)
(-0.199391 1.15712e-05 -0.302928)
(-0.199451 -9.33769e-06 -0.303297)
(-0.199438 -3.67486e-05 -0.303238)
(-0.199445 4.58647e-06 -0.30324)
(-0.199463 -1.67782e-05 -0.30331)
(-0.199414 -3.01071e-05 -0.302926)
(-0.212609 2.97074e-05 1.24281)
(-0.212619 1.85061e-05 1.24263)
(-0.212617 -1.42404e-05 1.24267)
(-0.212623 -3.39814e-06 1.24267)
(-0.212628 -3.35469e-05 1.24263)
(-0.21263 -4.22659e-05 1.24282)
(-0.00183311 9.23972e-06 0.990636)
(-0.00183331 5.90555e-06 0.990485)
(-0.00183316 -6.06682e-06 0.990513)
(-0.00183499 1.22762e-06 0.990521)
(-0.00183531 -1.09371e-05 0.990496)
(-0.00183879 -1.37699e-05 0.99065)
(-0.791175 -7.2104e-05 0.0876687)
(-0.791302 -5.83008e-05 0.0873873)
(-0.791276 -2.57559e-05 0.0874138)
(-0.791296 -4.84929e-05 0.0874034)
(-0.791331 -2.67896e-05 0.0873516)
(-0.791219 -4.33737e-06 0.0876678)
(-0.631941 -3.02969e-05 1.41545)
(-0.631961 -2.57684e-05 1.41529)
(-0.631953 -1.94245e-05 1.41531)
(-0.63197 -3.97296e-05 1.41532)
(-0.63198 -3.69041e-05 1.41528)
(-0.631983 -2.42947e-05 1.41545)
(0.0216265 -2.61424e-06 1.22016)
(0.021634 -3.82227e-06 1.22004)
(0.021636 -7.43288e-06 1.22005)
(0.0216282 -5.58966e-06 1.22005)
(0.0216272 -9.63474e-06 1.22003)
(0.0216082 -1.02053e-05 1.22017)
(-1.26616 -8.12293e-07 1.37614)
(-1.26718 1.65834e-05 1.37571)
(-1.26688 -4.22257e-05 1.37579)
(-1.26694 -5.63971e-05 1.37586)
(-1.26719 -3.49526e-05 1.37575)
(-1.26668 -3.33637e-05 1.37606)
(-0.771812 -0.000151293 1.68945)
(-0.772259 -9.50644e-05 1.68919)
(-0.772081 1.69702e-06 1.68925)
(-0.772156 -9.46439e-05 1.68927)
(-0.772285 -2.15334e-06 1.68921)
(-0.77215 4.42547e-05 1.68943)
(0.0322156 -2.19208e-05 1.70111)
(0.032159 -1.4759e-05 1.70103)
(0.0321979 -1.36452e-05 1.70103)
(0.0321787 -3.12431e-05 1.70105)
(0.0321619 -2.1055e-05 1.70104)
(0.0321554 -1.30541e-05 1.70116)
(-1.50122 0.000975967 4.82698)
(-1.50332 0.000670883 4.82671)
(-1.50265 -0.000489463 4.82663)
(-1.50257 6.94637e-05 4.8271)
(-1.50315 -0.00016175 4.82678)
(-1.50223 -0.000461595 4.82702)
(-1.13648 0.000124499 2.83873)
(-1.13818 0.000108646 2.83882)
(-1.13757 -0.000124398 2.83865)
(-1.13756 -0.000103284 2.839)
(-1.13801 -6.19834e-05 2.83891)
(-1.13725 -9.24104e-05 2.8392)
(-0.0190297 -0.000165897 1.71906)
(-0.0193145 -9.21341e-05 1.71923)
(-0.0191521 2.82663e-05 1.71912)
(-0.0192213 -8.56301e-05 1.71925)
(-0.0192598 2.25805e-05 1.7193)
(-0.0192357 5.88512e-05 1.71938)
(1.39984 -0.000190319 9.65236)
(1.40901 -0.000326676 9.66121)
(1.40592 -0.000302477 9.65726)
(1.4025 -0.000299586 9.65536)
(1.40564 8.78722e-06 9.65826)
(1.4015 0.000115734 9.65466)
(3.44241 0.000109669 9.01292)
(3.44337 -6.98492e-05 9.01596)
(3.44318 -0.000182953 9.01429)
(3.44252 2.66706e-05 9.0145)
(3.44269 -0.000170338 9.01488)
(3.44188 -0.000280701 9.01416)
(1.07767 0.000303805 3.99474)
(1.07622 0.000182632 3.99538)
(1.07686 -0.000124367 3.99493)
(1.07705 0.000180631 3.99559)
(1.07645 -7.65046e-05 3.99524)
(1.07731 -0.000308671 3.9958)
(-3.92553 -0.000439544 2.50454)
(-3.91893 -0.000307295 2.51251)
(-3.92121 -1.10001e-05 2.50921)
(-3.92495 -0.00035629 2.50652)
(-3.92254 -3.32643e-05 2.5097)
(-3.92524 0.000165603 2.50681)
(3.3483 -0.000151296 7.97094)
(3.35321 -8.43519e-05 7.98018)
(3.35159 3.99711e-05 7.97617)
(3.34941 -0.000227953 7.97407)
(3.35118 -0.000287336 7.97772)
(3.34801 -0.000134098 7.97374)
(4.85047 -0.00018067 6.54309)
(4.8536 -0.00015826 6.54783)
(4.85232 -2.52832e-05 6.5455)
(4.8516 -0.00012872 6.54492)
(4.85292 -0.000323713 6.54703)
(4.85053 -0.000321314 6.5453)
(-7.75125 0.000654279 -1.93469)
(-7.74464 8.05434e-05 -1.94972)
(-7.7474 -0.000392318 -1.94362)
(-7.74914 2.0918e-05 -1.94267)
(-7.74813 -0.000613389 -1.94703)
(-7.75097 -0.000666265 -1.93861)
(-0.3274 0.0017056 2.63075)
(-0.321928 0.0010626 2.63685)
(-0.323951 -0.000681851 2.63403)
(-0.325917 9.55943e-05 2.63235)
(-0.324925 -0.000692382 2.63484)
(-0.329201 -0.000923923 2.62974)
(3.64803 0.000116692 3.88818)
(3.65072 -1.1278e-05 3.89457)
(3.6495 -2.64424e-05 3.89127)
(3.64878 7.44757e-06 3.89012)
(3.64976 -7.87877e-05 3.8929)
(3.64643 -6.34101e-05 3.88825)
(-8.43654 0.00111014 -3.47072)
(-8.43083 4.19131e-05 -3.48992)
(-8.43307 -0.00084693 -3.48207)
(-8.43422 0.000189416 -3.4798)
(-8.43338 -0.00121498 -3.48633)
(-8.4347 -0.00136892 -3.47586)
(-1.27302 0.00244315 -2.84228)
(-1.27223 0.00120515 -2.83641)
(-1.27205 -0.00113771 -2.83921)
(-1.27325 0.000721248 -2.84061)
(-1.27342 -0.000625938 -2.83881)
(-1.27324 -0.00132364 -2.84558)
(2.55475 -5.75304e-05 -1.98253)
(2.55714 -8.42099e-05 -1.97661)
(2.55578 0.000355985 -1.97994)
(2.55531 0.000337862 -1.98086)
(2.55579 0.000587792 -1.97919)
(2.55299 0.000572859 -1.98432)
(-6.99617 0.00157766 -7.68136)
(-6.99589 0.00033208 -7.68991)
(-6.99621 -0.000923015 -7.68653)
(-6.99588 0.00050544 -7.68528)
(-6.99618 -0.00122575 -7.68879)
(-6.9966 -0.00146368 -7.68487)
(-0.897402 0.00138816 -5.7547)
(-0.898379 0.000661912 -5.75101)
(-0.897722 -0.000510526 -5.75264)
(-0.898229 0.000433477 -5.7534)
(-0.898713 -0.000491899 -5.75231)
(-0.898903 -0.000725376 -5.7563)
(1.13714 -0.000391833 -5.07507)
(1.13874 -0.000154029 -5.07248)
(1.13795 0.000479665 -5.07379)
(1.13774 0.000225581 -5.07415)
(1.13772 0.000636478 -5.07394)
(1.1363 0.000637624 -5.07556)
(-8.96506 0.00153288 -4.75401)
(-8.96595 0.000517045 -4.75461)
(-8.96634 -0.000589338 -4.75388)
(-8.9644 0.000612101 -4.75457)
(-8.96414 -0.000797984 -4.75583)
(-8.96711 -0.000981889 -4.75294)
(-1.16835 0.00048391 -5.36983)
(-1.16717 7.27018e-05 -5.36914)
(-1.16754 -5.73621e-05 -5.36959)
(-1.16809 0.000236795 -5.36976)
(-1.16798 -0.000188328 -5.36933)
(-1.16962 -9.4951e-05 -5.37019)
(0.36535 -0.000254707 -4.55611)
(0.365404 -7.14905e-05 -4.55495)
(0.36529 0.000226751 -4.55538)
(0.365302 -8.1989e-06 -4.5558)
(0.365179 0.000352243 -4.55594)
(0.36451 0.000404137 -4.55594)
(-9.41152 0.000852729 0.878237)
(-9.41576 0.00046876 0.879055)
(-9.41494 -0.00026144 0.878839)
(-9.41196 -0.000335297 0.877927)
(-9.41107 0.000262378 0.875843)
(-9.41609 0.000735382 0.88092)
(-0.383719 5.84269e-05 -2.75143)
(-0.385181 -5.21859e-05 -2.75213)
(-0.384712 0.000512855 -2.75215)
(-0.384922 0.000959007 -2.75271)
(-0.385677 -0.000602349 -2.75439)
(-0.384352 -0.00101592 -2.75028)
(0.572407 -7.35216e-05 -2.79607)
(0.572075 1.41968e-05 -2.79538)
(0.572254 6.06014e-05 -2.79575)
(0.572136 -0.000197221 -2.79635)
(0.571757 0.000295717 -2.79646)
(0.572302 0.000485208 -2.79555)
(-4.8856 -0.000330835 -0.394338)
(-4.88604 -0.000273104 -0.395444)
(-4.88663 -0.000591107 -0.394649)
(-4.88433 -0.00187084 -0.395341)
(-4.88202 0.00161373 -0.398476)
(-4.88912 0.00286136 -0.391378)
(0.562539 0.000400499 -5.57847)
(0.562729 0.000113462 -5.58042)
(0.5614 0.000118729 -5.57974)
(0.563666 0.00115633 -5.58256)
(0.56496 -0.00120645 -5.58919)
(0.559894 -0.00174781 -5.57309)
(0.789401 0.000158007 -2.02741)
(0.788223 0.000325103 -2.02904)
(0.789069 0.00038795 -2.02833)
(0.787966 0.000845801 -2.02838)
(0.785647 -0.000737983 -2.03008)
(0.791373 -0.00139991 -2.02644)
(2.49671 -0.00127728 -0.248477)
(2.49523 -0.00154428 -0.249346)
(2.4967 -0.00279853 -0.249332)
(2.48799 -0.00917445 -0.2655)
(2.4867 0.00310353 -0.290572)
(2.49139 0.00960549 -0.256878)
(2.31531 -0.00926961 -2.05906)
(2.29478 -0.0178523 -2.06196)
(2.29524 0.0161157 -2.04702)
(2.28069 0.0227097 -2.0591)
(2.2648 -0.0521257 -2.04478)
(2.25326 -0.0444692 -2.01308)
(1.11127 -0.0051056 -2.03874)
(1.10043 -0.00887458 -2.04896)
(1.09778 -0.00655574 -2.0407)
(1.09016 -0.00615795 -2.03779)
(1.07419 -0.0119274 -2.06817)
(1.08416 -0.00859283 -2.00926)
(1.8056 -6.29186e-05 -0.494144)
(1.80672 -0.000363215 -0.495323)
(1.80664 -0.000250074 -0.495818)
(1.80501 -0.00063542 -0.490901)
(1.80341 0.00103882 -0.485679)
(1.80811 0.00196988 -0.498539)
(1.38834 -0.00342481 -0.854022)
(1.41494 -0.00543036 -0.858649)
(1.42875 -0.000999469 -0.864057)
(1.33051 -0.00463113 -0.834047)
(1.30677 -0.0110981 -0.832325)
(1.4939 0.00247698 -0.863718)
(0.0936167 -0.00284685 -1.97107)
(0.0922179 -0.00415978 -1.98315)
(0.0884426 -0.00655315 -1.98457)
(0.0926959 -0.00856874 -1.93658)
(0.0947022 -0.00106883 -1.92695)
(0.0789476 0.0016428 -1.99644)
(1.28022 -0.000322284 -0.038956)
(1.27986 -0.00046586 -0.0397854)
(1.2802 -0.000635564 -0.0400598)
(1.27911 -0.00195977 -0.0378766)
(1.27895 0.00164095 -0.0347115)
(1.27963 0.00322531 -0.0429008)
(1.228 -0.000744413 -1.76737)
(1.21904 -0.00117903 -1.76804)
(1.21962 -0.00807219 -1.76624)
(1.22549 -0.0207734 -1.77539)
(1.22011 0.0207326 -1.78928)
(1.20763 0.0374563 -1.74868)
(-0.141514 -0.000665503 -2.13698)
(-0.143335 -0.000920888 -2.13738)
(-0.144388 -0.00181822 -2.13582)
(-0.145775 -0.00240411 -2.14551)
(-0.147688 0.00129216 -2.17289)
(-0.146885 0.0021031 -2.09515)
(0.547889 -0.000448535 0.217071)
(0.548007 -0.000782093 0.216124)
(0.548442 0.000566237 0.215755)
(0.546904 0.000625358 0.218076)
(0.54661 -0.000796453 0.221078)
(0.548666 -0.000345809 0.212881)
(0.480356 -0.00418495 -2.25)
(0.483007 -0.0031301 -2.25196)
(0.483417 -0.00405955 -2.25314)
(0.475149 -0.0187038 -2.25086)
(0.468536 0.0130686 -2.25649)
(0.493658 0.0313004 -2.24504)
(-0.38856 -0.00062937 -2.71806)
(-0.388644 -0.000397562 -2.72288)
(-0.389724 -0.00108519 -2.71052)
(-0.388302 -0.00305324 -2.74094)
(-0.386337 0.00291511 -2.77536)
(-0.392844 0.00429495 -2.67442)
(-0.274253 -0.000703407 0.386111)
(-0.274327 -0.00065283 0.385065)
(-0.274594 -0.000688131 0.385115)
(-0.272867 -0.00212872 0.386098)
(-0.271126 0.00182441 0.387539)
(-0.275911 0.00331181 0.383813)
(-0.333907 -0.00212733 -2.75621)
(-0.335159 -0.00154137 -2.75763)
(-0.335131 -0.00210456 -2.75661)
(-0.337068 -0.0130895 -2.7647)
(-0.341609 0.0107208 -2.77316)
(-0.333304 0.0253973 -2.74604)
(-0.993975 -0.000613681 -2.79071)
(-0.992915 -6.53802e-05 -2.79635)
(-0.995418 -0.000351681 -2.78624)
(-0.991746 -0.00219105 -2.80651)
(-0.986038 0.0020536 -2.83362)
(-1.00098 0.00259045 -2.76077)
(-1.46142 -0.00053906 0.608107)
(-1.46166 -0.000475708 0.606913)
(-1.46163 -0.000693022 0.607394)
(-1.46128 -0.00210351 0.607415)
(-1.46071 0.00176285 0.606402)
(-1.46202 0.0031394 0.608491)
(-0.831661 -0.000786162 -6.50476)
(-0.831487 -0.000909826 -6.50481)
(-0.833201 -0.000251063 -6.50475)
(-0.830934 -0.00359819 -6.5096)
(-0.830879 0.00267708 -6.51251)
(-0.834385 0.00769596 -6.50071)
(-0.692134 3.35337e-05 -2.00208)
(-0.692063 0.000207077 -2.00594)
(-0.692434 0.000538013 -2.00187)
(-0.692538 0.0011939 -2.00777)
(-0.69288 -0.000896195 -2.01964)
(-0.692647 -0.00230233 -1.98997)
(-0.249055 -0.000603696 5.51778)
(-0.248624 -0.00142858 5.51881)
(-0.24839 -0.00147697 5.51934)
(-0.247799 -0.00192956 5.51985)
(-0.246652 -1.59469e-05 5.52195)
(-0.248385 0.00126374 5.51826)
(-0.19767 -0.000241127 4.96837)
(-0.197579 -0.000597674 4.96896)
(-0.197477 -0.000702589 4.96934)
(-0.197308 -0.000733745 4.96971)
(-0.197108 -0.000151101 4.97039)
(-0.197307 0.000238466 4.96931)
(-0.0738666 -7.33696e-05 4.62908)
(-0.0738471 -0.000185021 4.62949)
(-0.0738179 -0.000236023 4.62968)
(-0.0737807 -0.000229846 4.62989)
(-0.073762 -6.84749e-05 4.63011)
(-0.0737686 3.57046e-05 4.62968)
(-0.88913 -0.00147507 5.72273)
(-0.887923 -0.0028813 5.72552)
(-0.886422 -0.00356077 5.72541)
(-0.885267 -0.00630255 5.72862)
(-0.883214 0.00162346 5.7363)
(-0.882972 0.00562825 5.72062)
(-0.666478 -0.000369746 4.93459)
(-0.666142 -0.00106389 4.93543)
(-0.665751 -0.0012566 4.93604)
(-0.665282 -0.00122698 4.93653)
(-0.66478 -0.000682975 4.93791)
(-0.664821 -8.10378e-06 4.93623)
(-0.256932 -0.000107412 4.47385)
(-0.256864 -0.00029423 4.4743)
(-0.256775 -0.000366465 4.47461)