/*--------------------------------*- C++ -*----------------------------------*\
| =========                 |                                                 |
| \\      /  F ield         | OpenFOAM: The Open Source CFD Toolbox           |
|  \\    /   O peration     | Version:  v1612+                                |
|   \\  /    A nd           | Web:      www.OpenFOAM.com                      |
|    \\/     M anipulation  |                                                 |
\*---------------------------------------------------------------------------*/
FoamFile
{
    version     2.0;
    format      ascii;
    class       surfaceScalarField;
    location    "7.2";
    object      phi;
}
// * * * * * * * * * * * * * * * * * * * * * * * * * * * * * * * * * * * * * //

dimensions      [0 3 -1 0 0 0 0];

internalField   nonuniform List<scalar> 
816
(
-1.60198e-06
-1.18959e-05
7.35786e-06
-1.02199e-05
-1.39495e-05
3.03089e-05
4.32808e-06
6.78049e-06
-2.79932e-06
1.09367e-05
-2.08269e-05
-6.74806e-06
2.11654e-06
3.62962e-06
9.19666e-06
-2.00866e-05
-1.20035e-06
1.00482e-05
1.17503e-05
-2.30629e-05
0.000427416
-0.000236732
-6.29918e-06
-4.54457e-05
0.000119278
0.00034047
2.55058e-05
0.000146976
-7.48561e-05
5.03182e-05
2.05956e-05
-4.69246e-05
0.000383197
8.5575e-05
1.66286e-05
0.000266158
-0.000258407
0.000212714
-3.94511e-06
0.000405092
-0.000267294
-0.000284809
1.11946e-06
0.000304231
0.000246037
-0.000151484
7.19043e-06
0.00020941
7.47037e-05
0.000194578
2.34212e-06
0.000139098
-3.73961e-05
0.000101311
-2.20266e-06
0.000186091
0.000215367
3.44417e-05
3.47103e-06
2.78285e-06
8.08294e-05
-0.000227143
-7.77455e-06
-4.32607e-05
-0.000127774
-1.20353e-05
-0.000123111
-0.000204575
1.45688e-05
-1.15104e-06
-2.93589e-05
2.56391e-06
6.5605e-06
2.87305e-05
-1.74481e-05
1.6986e-05
8.44432e-06
-1.0251e-06
6.66445e-06
8.67656e-06
3.55913e-05
-3.17622e-06
1.99456e-05
-3.12642e-08
-8.77298e-06
4.17746e-06
-6.09397e-06
4.78282e-06
-1.32202e-05
-8.20134e-07
-2.57594e-05
1.12751e-05
2.1221e-05
5.85261e-06
-2.25731e-05
9.11536e-06
1.48004e-05
1.3711e-05
3.43543e-06
-1.03011e-05
1.90982e-06
7.94002e-06
-3.91784e-05
1.37132e-05
2.92377e-05
2.53808e-05
-2.79615e-05
8.19464e-06
7.22164e-06
-1.96008e-06
4.07001e-05
3.6814e-06
-1.98433e-05
-2.18172e-05
3.5568e-06
2.17693e-06
-1.02554e-05
1.8343e-07
-1.38361e-05
1.91113e-06
-1.19955e-05
-7.93536e-06
-1.05227e-06
-1.00467e-06
2.87827e-06
3.89314e-06
-1.10847e-05
3.42936e-06
7.93038e-06
4.73121e-06
-1.76738e-06
-2.65393e-06
5.76712e-07
-3.26009e-06
-1.29937e-05
-1.44397e-06
-9.83251e-06
-4.51105e-06
-1.12891e-05
-2.65089e-09
-8.04807e-06
1.93925e-06
7.16686e-06
-4.08461e-06
-1.77559e-05
-8.55039e-06
-1.68318e-05
-1.07556e-05
-1.28445e-05
-4.80964e-06
4.77698e-06
1.80913e-05
-3.13757e-06
-1.01124e-05
-1.61212e-06
-5.09822e-06
-9.90318e-07
-6.86877e-06
4.25744e-06
-6.01634e-06
-4.3297e-06
2.0392e-06
4.74968e-06
-1.32704e-06
4.4322e-06
-3.19194e-06
1.34364e-06
1.68922e-06
2.51293e-06
-4.50747e-08
5.51746e-06
5.13153e-06
-4.6568e-06
-1.2845e-06
7.80994e-07
-4.3909e-06
-6.39126e-06
-7.4769e-07
-6.59039e-07
-9.48253e-07
2.15274e-06
-5.61469e-06
9.17926e-07
2.35807e-06
2.91611e-06
3.96302e-07
-7.19033e-07
1.02568e-06
-6.33653e-07
-2.53228e-06
-1.13648e-06
-6.10764e-06
-3.92539e-06
-3.50301e-06
-7.76063e-07
-4.0012e-06
-4.73445e-06
4.60203e-06
-6.8293e-08
-1.63935e-06
-5.60543e-06
-1.0533e-05
-4.70916e-06
-5.92901e-06
-3.47898e-06
-3.36181e-06
2.74417e-06
-2.2008e-06
5.64652e-06
-9.95585e-07
-4.16745e-06
-3.47079e-06
6.0925e-05
-4.99795e-05
1.74987e-06
-7.43239e-05
0.000394824
-7.44585e-06
6.07671e-05
0.000223573
-3.14718e-06
9.51311e-05
0.000195663
-8.3195e-06
-2.65102e-05
9.74039e-05
-5.9704e-06
-0.0002458
-0.000171623
1.00828e-05
-3.75333e-06
-0.000107291
-9.0843e-05
1.1729e-06
-0.000140683
-0.000316919
8.83646e-07
-0.000121323
-0.000113577
-3.18097e-06
6.1894e-05
5.92398e-05
8.94443e-07
-0.000155143
-0.00013559
-0.000186835
-6.6369e-07
-0.000132067
-0.000394483
-4.33262e-06
-0.000214866
-9.80338e-05
-9.72015e-07
-4.87311e-05
-4.28757e-05
5.10848e-06
-8.60018e-05
4.82525e-05
3.01085e-06
-0.000315424
-0.000221656
-0.00010225
-7.76314e-07
-0.000111562
-0.000357696
1.09227e-06
-0.000198946
-0.000225927
-5.93684e-06
-0.000179104
-7.32736e-05
3.98638e-06
-0.000323298
1.82772e-06
-0.00014789
-0.000249256
-9.64414e-06
-2.38117e-06
1.15141e-05
5.7729e-06
8.98924e-06
-2.43433e-05
9.69403e-07
1.16539e-05
-1.01834e-05
2.08097e-05
6.06993e-06
-6.07379e-06
1.30359e-05
1.17908e-05
4.10964e-05
-2.30242e-05
-2.91944e-05
-4.94052e-06
5.45234e-05
-4.56837e-06
-1.63861e-05
4.80403e-05
-3.37182e-05
-3.8213e-05
7.13669e-05
-4.30367e-05
-2.16242e-05
-7.32318e-06
-1.3565e-06
2.15219e-05
-1.72359e-05
-1.18286e-05
-1.25779e-05
-5.0805e-06
4.85577e-05
-2.77821e-06
-2.89773e-05
5.34226e-05
-2.4742e-05
5.00995e-06
-4.08997e-05
-4.19809e-06
4.07342e-06
4.06849e-05
-2.08387e-05
2.20133e-05
3.33019e-05
-3.4167e-05
-1.44128e-05
-6.69322e-07
4.50232e-05
6.3376e-06
-2.0131e-05
5.37163e-05
-1.97019e-05
-1.42037e-05
7.45206e-06
-1.48073e-05
-3.80133e-06
1.25654e-06
-6.12902e-06
4.44586e-05
-1.88652e-05
-3.03597e-05
1.06491e-05
-2.79163e-06
5.38343e-06
-3.33464e-06
-1.94955e-06
-1.15876e-05
1.76859e-06
-3.04022e-06
-3.88616e-06
-6.24559e-06
-7.84114e-08
-3.56115e-06
-1.57427e-06
-1.22544e-05
1.88584e-05
1.81406e-05
1.62661e-05
-1.52825e-06
2.40683e-05
8.65758e-06
7.29099e-06
2.09498e-05
2.29784e-05
2.24928e-05
3.19197e-05
2.48253e-05
1.37608e-05
-3.78491e-06
3.75978e-06
-1.42281e-05
-7.54099e-06
8.27957e-06
1.00163e-05
-6.12544e-07
2.168e-05
3.45304e-06
1.19205e-05
2.41446e-05
1.6753e-05
-5.35238e-06
-1.82378e-05
1.78378e-06
-1.74953e-06
1.84471e-05
1.00873e-05
-1.32672e-05
1.51562e-05
1.94818e-05
1.01831e-05
-9.58787e-08
2.01131e-05
-5.09148e-06
1.23052e-05
2.42286e-05
1.22818e-05
7.57185e-06
4.14305e-06
4.90384e-06
1.70554e-06
1.48292e-06
5.44441e-07
2.04086e-05
9.83713e-06
1.31331e-05
6.68272e-06
-2.29023e-06
2.1149e-06
-2.11125e-06
-2.66866e-07
-3.99949e-06
1.68401e-07
-1.46558e-06
8.61363e-07
-4.27049e-06
3.96068e-07
-1.71768e-06
-1.53922e-06
-6.65596e-06
5.50946e-06
1.06537e-05
9.7462e-06
-1.33337e-06
8.7089e-06
4.43301e-06
3.74752e-06
6.7337e-06
1.20608e-05
1.21483e-05
1.03585e-05
1.42014e-05
7.29185e-06
-1.42071e-06
1.37497e-06
-8.48951e-06
-8.12487e-07
4.16311e-06
4.90461e-06
-5.283e-07
6.11031e-06
1.52338e-06
6.32617e-06
8.00962e-06
8.51582e-06
-4.18193e-06
-4.15695e-06
1.03375e-06
-2.13682e-06
5.85697e-06
4.93917e-06
-7.07396e-06
4.52262e-06
1.06209e-05
4.94386e-06
1.06736e-07
6.80049e-06
-4.39641e-06
6.71975e-06
7.86951e-06
6.28387e-06
3.83337e-06
2.36489e-06
2.46171e-06
1.0277e-06
3.99426e-07
-2.74077e-07
5.42576e-06
5.83646e-06
7.89725e-06
3.9793e-07
-3.68584e-06
2.68656e-06
-3.70704e-06
1.86176e-06
1.41511e-06
1.58586e-06
-2.30678e-06
1.44475e-07
1.01619e-06
3.58159e-07
4.35366e-06
-3.31852e-06
1.38926e-07
1.49997e-06
-2.29547e-06
-2.32945e-07
-6.97301e-07
1.86221e-06
-2.52158e-06
-2.70049e-07
1.58587e-06
-7.00708e-07
1.70265e-07
-2.03656e-06
2.25171e-07
-2.80132e-06
-2.1434e-06
4.78621e-07
-3.57286e-06
1.51594e-06
-1.74836e-06
-1.34809e-06
-5.18613e-06
-2.74824e-06
-1.33646e-06
1.27503e-06
-2.06078e-06
-7.35633e-07
-1.30606e-06
3.17825e-06
-1.09753e-06
-6.91559e-07
-2.32313e-07
9.35595e-07
1.22109e-06
-8.09116e-07
9.81055e-07
4.04217e-07
-3.42895e-06
4.46822e-06
5.45949e-06
-3.1689e-07
3.09351e-06
2.01302e-06
6.00309e-06
6.39787e-06
6.15569e-06
3.43787e-06
1.77552e-06
-3.38799e-06
2.61036e-06
3.41805e-06
-8.55997e-07
7.94643e-07
2.686e-06
4.95227e-06
-1.23904e-06
1.28864e-06
-3.81198e-07
3.65548e-06
-3.48776e-06
5.14815e-06
2.47507e-06
-2.7634e-07
-1.60418e-06
3.31176e-06
2.94489e-06
3.02042e-06
5.98557e-07
1.47514e-06
6.47939e-07
2.93479e-06
2.8888e-06
0.000293914
-0.000352141
2.41831e-06
0.000377205
5.15965e-06
0.000447732
-7.05661e-06
7.74909e-05
-7.32015e-06
9.05315e-05
-1.17283e-05
-0.000185666
-1.68417e-05
0.000194929
-9.22849e-06
0.000115052
-7.91707e-08
4.92091e-05
-1.37834e-05
0.000100478
-6.40123e-06
1.74699e-05
9.07147e-06
6.10093e-05
-8.72917e-06
-2.10146e-05
-2.95969e-07
-7.07979e-05
-4.47389e-06
-0.000210825
-9.79209e-06
-0.000240177
-5.42727e-06
-0.000186585
-9.84637e-06
-4.08809e-06
6.39938e-06
-0.000102121
8.52514e-06
-0.000129084
1.23965e-06
0.000178753
-2.04305e-06
-3.2645e-05
-8.93422e-06
-3.47402e-05
1.33548e-05
-0.000258913
-2.5919e-06
-0.000327747
1.03181e-05
-0.00015621
2.56912e-06
-0.000208458
2.47887e-06
1.22047e-05
1.78013e-05
-2.51213e-05
-9.00977e-06
1.45286e-05
1.41433e-05
2.6637e-05
-1.92517e-05
4.40236e-06
3.43825e-05
-1.82837e-05
2.20031e-05
-3.34159e-05
-2.4737e-05
1.9373e-05
-6.2247e-05
1.44688e-05
-2.39543e-05
-2.51903e-05
1.97069e-05
-1.46631e-05
-5.01522e-05
1.52641e-05
-6.37447e-05
1.79636e-05
-1.28026e-05
1.07528e-05
-7.04341e-06
-1.1763e-05
1.91335e-05
-6.02334e-06
-2.8026e-05
-8.752e-06
-5.69162e-06
-1.10207e-05
-3.22744e-05
-3.07733e-06
-5.54053e-06
-5.63753e-06
-9.66436e-06
-9.33514e-06
-2.92619e-05
3.51894e-05
-4.68645e-05
9.73302e-06
1.94802e-06
-7.39104e-06
3.57595e-05
-2.64198e-06
-2.86515e-05
-7.5786e-06
-6.38808e-08
-1.53588e-05
3.96782e-06
-1.49207e-05
-2.83004e-05
-2.77975e-05
-4.75e-06
1.01676e-05
-4.5878e-06
-2.99707e-07
6.36551e-06
-9.33767e-06
-8.43395e-06
2.70416e-06
1.611e-05
1.38676e-05
9.27246e-06
1.86915e-05
-1.14197e-05
-1.50721e-05
-2.84833e-05
-9.80187e-06
-1.29553e-05
1.01251e-05
8.44753e-06
3.96832e-06
-2.10187e-05
-6.50948e-06
-2.84392e-05
-9.34244e-06
-6.20551e-06
-5.38499e-06
-2.71063e-06
5.66441e-06
8.08372e-06
5.59218e-07
-1.29066e-05
5.13921e-07
-2.17753e-06
-7.51715e-07
-1.42499e-05
-8.88848e-07
-3.61832e-06
4.04664e-06
-4.51331e-06
6.95698e-06
-1.26964e-05
-1.8899e-05
-2.10041e-05
-8.08926e-06
1.33012e-06
4.56594e-06
1.80091e-05
6.99655e-07
-1.24913e-05
4.8362e-06
7.01583e-07
7.89035e-06
1.45973e-06
6.14773e-06
-1.34195e-05
-1.14737e-05
-1.99303e-06
4.71217e-06
-1.46191e-06
7.75081e-08
2.19984e-06
-4.53133e-06
-3.64571e-06
2.54626e-06
4.76044e-06
9.16764e-06
1.11876e-06
1.06459e-05
-2.23462e-06
-8.4716e-06
-9.37017e-06
-6.36417e-06
-5.32536e-06
4.7368e-06
1.79119e-06
2.63712e-06
-6.84775e-06
-4.11463e-06
-7.47524e-06
-5.75055e-06
-3.18299e-06
-3.31434e-06
-9.66932e-07
3.57782e-06
1.21477e-06
1.35053e-07
-4.55811e-06
7.83547e-08
-5.87584e-07
-7.49672e-07
-4.90018e-06
-1.33538e-06
-1.99422e-06
1.71737e-06
-2.62407e-06
3.40671e-06
-3.77288e-06
-1.08554e-05
-6.7528e-06
-4.83877e-06
2.65287e-07
4.02059e-06
4.75386e-06
9.60386e-07
-3.1472e-06
2.80903e-06
1.31401e-06
4.70719e-06
-7.07577e-07
2.54638e-06
-3.35175e-06
-4.20136e-06
-9.53176e-07
2.43812e-06
5.7391e-07
-2.12989e-06
1.82369e-06
3.34922e-06
5.59159e-06
-3.77607e-06
-3.63616e-06
1.25657e-06
4.19213e-07
-8.98134e-07
-2.30284e-06
-6.53773e-07
5.74062e-07
-5.59094e-07
-3.48925e-07
-2.97278e-07
-1.00414e-06
3.49668e-08
1.4246e-06
-5.33357e-06
-2.59974e-06
5.44577e-07
3.4249e-07
2.25998e-06
2.20936e-06
1.75623e-06
0.0001148
0.000120948
9.21473e-06
-8.05508e-05
6.73892e-06
0.000320191
9.58904e-06
1.73264e-05
5.04836e-06
1.74963e-05
-1.18226e-05
1.61337e-05
)
;

boundaryField
{
    top_fluid_surface
    {
        type            calculated;
        value           nonuniform List<scalar> 
64
(
-0.000258311
-1.23918e-05
-7.1501e-05
-5.60058e-05
-0.00026379
-0.000112376
-0.000423742
-0.000447696
-0.000304493
-2.05893e-05
0.000443035
-0.000114828
-6.46034e-05
-0.00043407
0.000221523
1.46414e-05
0.000548082
0.000584272
0.000494843
0.00069503
4.44163e-05
0.000117289
0.00062858
0.000633133
-0.000104952
0.000211909
0.000443601
0.000478329
0.000458227
6.26577e-06
-1.75693e-06
0.000271077
-9.27007e-05
-0.000163143
-1.58965e-06
0.000472209
-1.79715e-06
1.15431e-05
-0.000372565
-9.13758e-05
-2.22466e-05
-0.000216837
-4.58395e-05
2.94552e-05
-7.33643e-05
5.36672e-05
2.65316e-06
-6.24585e-05
-0.000263994
-0.00023848
4.25312e-06
-0.00028854
-0.000305526
-1.91023e-06
-0.00012368
3.85472e-05
-8.36464e-05
-0.000500014
-0.000200299
-0.000573347
-0.000244354
-0.000141745
-0.000170352
-5.48635e-05
)
;
    }
    bottom_fluid_surface
    {
        type            calculated;
        value           uniform 0;
    }
    lateral_surface_1
    {
        type            calculated;
        value           uniform 0;
    }
    lateral_surface_2
    {
        type            calculated;
        value           uniform 0;
    }
    lateral_surface_3
    {
        type            calculated;
        value           uniform 0;
    }
    lateral_surface_4
    {
        type            calculated;
        value           uniform 0;
    }
}


// ************************************************************************* //
