/*--------------------------------*- C++ -*----------------------------------*\
| =========                 |                                                 |
| \\      /  F ield         | OpenFOAM: The Open Source CFD Toolbox           |
|  \\    /   O peration     | Version:  v1612+                                |
|   \\  /    A nd           | Web:      www.OpenFOAM.com                      |
|    \\/     M anipulation  |                                                 |
\*---------------------------------------------------------------------------*/
FoamFile
{
    version     2.0;
    format      ascii;
    class       volScalarField;
    location    "6.75";
    object      p;
}
// * * * * * * * * * * * * * * * * * * * * * * * * * * * * * * * * * * * * * //

dimensions      [1 -1 -2 0 0 0 0];

internalField   nonuniform List<scalar> 
1116
(
16495.9
16495.9
16495.9
16496
16495.9
16496
15354.6
15354.7
15354.7
15354.7
15354.6
15354.7
13192
13192
13192.1
13192
13192
13192.1
10464.8
10464.6
10464.6
10464.8
10464.9
10464.6
8355.47
8355.9
8355.57
8355.89
8355.77
8355.55
6849.32
6850.7
6849.93
6850.44
6849.41
6850.69
6036.73
6035.85
6035.92
6037.02
6037.76
6036.14
5839.15
5837.36
5838.47
5838.64
5841.65
5835.98
6006.92
6002.76
6004.58
6006.61
6009.81
6001.8
6279.83
6283.91
6282.73
6280.69
6275.28
6289.63
6689.72
6688.76
6693.61
6684.57
6688.1
6690.51
6710.83
6701.73
6708.24
6706.91
6718.83
6699.04
10096
10096.5
10096.5
10096.3
10096.4
10096.4
7090.53
7092.7
7092.49
7091.26
7091.25
7091.63
4632.78
4632.38
4632.77
4632.68
4632.45
4632.91
2432.48
2431.37
2431.7
2432.12
2432.06
2431.88
1397.05
1396.36
1396.83
1396.85
1396.35
1397.36
912.041
911.186
911.471
911.972
912.637
911.224
682.452
690.08
688.704
685.199
680.429
693.179
698.872
697.103
696.735
699.381
701.496
695.519
1091.89
1091.23
1091.5
1092.75
1094.58
1090.96
1377.43
1377.84
1378.2
1376.99
1374.69
1381.7
1511.49
1509.7
1511.29
1508.58
1509.25
1511.45
1510.58
1505.82
1508.14
1507.44
1510.53
1503.24
4222.27
4222.42
4222.53
4222.64
4222.86
4222.98
820.049
827.547
826.306
821.521
822.384
824.072
395.626
395.596
395.944
395.632
395.655
395.947
-14.1496
-15.4476
-14.9063
-14.9307
-14.8998
-14.6985
-43.7364
-44.2453
-43.9963
-43.8175
-43.629
-44.1148
26.3155
24.1982
24.7562
25.8528
27.6783
23.6736
143.978
143.687
143.814
144.408
145.508
143.382
194.622
198.272
197.18
196.141
193.984
197.948
200.612
200.713
200.353
201.404
201.607
200.802
190.611
189.864
190.247
190.544
189.378
192.559
251.396
253.759
252.314
252.069
249.053
254.354
278.964
280.978
280.083
278.998
275.952
281.799
1055.8
1046.42
1048.32
1054.01
1052.93
1051.79
-35.4003
-36.104
-35.8935
-35.5517
-35.4273
-35.7399
-41.2464
-40.8672
-40.8391
-40.9773
-41.0077
-40.8334
-58.2756
-58.4093
-58.358
-58.5881
-58.5844
-58.2403
-71.7069
-72.2336
-71.9864
-71.8782
-71.7072
-72.1509
-42.5547
-43.3179
-43.112
-42.9518
-42.3041
-43.5218
28.6407
28.4842
28.4635
28.9555
28.941
28.1282
33.251
35.586
35.2063
34.0029
31.0952
36.1126
23.7455
24.3641
24.469
24.094
23.3198
25.514
9.44388
9.32874
9.38192
9.4872
9.53145
9.43856
20.2642
21.3872
21.06
20.7154
20.0296
21.6193
-82.2141
-82.6456
-81.8591
-81.5388
-80.802
-81.66
2422.23
2544.87
2417.65
2503.32
2505.47
2420.22
2000.17
1915.74
2003.62
1932.77
1903.46
1854.79
1237.41
1060.22
1229.98
1173.12
1281.84
1353.98
651.894
557.334
621.662
611.618
682.263
781.591
437.85
475.033
484.907
501.412
445.559
500.545
350.154
412.446
420.687
429.851
396.909
399.781
363.823
377.1
392.849
388.166
364.036
378.888
383.949
379.738
381.883
323.597
330.119
312.019
382.929
382.875
365.139
344.298
345.761
294.208
465.35
478.448
419.733
499.058
504.853
376.562
811.482
867.653
866.444
888.468
866.791
874.323
894.925
923.102
993.474
984.367
1024.71
1032.02
1337.16
1436.3
1329.75
1386.09
1310.53
1261.59
378.45
240.613
318.585
246.52
286.317
377.607
64.1491
57.0546
58.5857
53.797
60.1624
56.2875
1.99192
2.21922
-13.263
0.613164
-12.9018
-32.5245
-28.29
-46.9877
-49.2519
-50.6957
-51.7602
-48.7818
-47.822
-48.4871
-47.0619
-50.1789
-49.1848
-43.5868
-38.6572
-31.4846
-32.576
-30.396
-24.8449
-18.7452
-13.622
-12.4613
-11.6089
-11.876
-9.52378
-0.467574
0.518537
-4.24858
-4.56026
-7.02408
-10.8509
-8.01393
9.55926
10.0466
12.9813
12.7177
6.49775
-8.39773
97.0077
89.2642
81.7921
147.082
156.197
84.6704
362.065
312.904
217.344
352.447
389.825
418.14
485.789
332.53
434.457
335.482
294.443
386.769
27.2808
8.41456
15.9666
-3.58105
-4.71863
17.9458
-14.161
-6.22736
-13.4461
-10.1465
-12.1435
-13.2259
-20.7669
-20.5879
-21.5825
-20.6389
-22.3688
-21.4032
-18.0916
-20.8891
-19.1573
-19.612
-18.7049
-18.0188
-26.5444
-29.1359
-26.552
-28.2943
-26.3138
-28.0276
-29.2523
-26.7807
-28.3296
-30.0561
-26.1116
-25.0295
-26.6886
-24.266
-23.47
-27.7968
-26.7469
-24.2179
-19.848
-20.4547
-20.3524
-25.006
-25.6106
-25.3061
-31.2725
-32.429
-29.6035
-30.0496
-28.366
-30.0408
-14.5489
-14.3141
-15.5038
-13.1503
-7.69633
-9.67272
-49.0515
-29.979
-36.8573
-41.3844
-27.9938
-27.8003
152.69
115.453
138.899
116.843
27.3069
73.5617
-32.7518
-27.1562
-32.2743
-35.1284
-41.4276
-40.5801
-17.7495
-15.0365
-15.7576
-15.3072
-16.6304
-18.8835
-36.1879
-34.6937
-36.9056
-37.0596
-38.0525
-39.0981
-35.4307
-35.8176
-36.1785
-36.2827
-36.3373
-36.5632
-43.9697
-44.4826
-44.5939
-44.0877
-43.6799
-44.5554
-40.6928
-40.1337
-39.4202
-39.7459
-38.2734
-37.5473
-36.7742
-36.1835
-36.2319
-37.0265
-34.797
-34.3544
-31.2084
-31.1642
-31.387
-32.7071
-31.4466
-31.9653
-33.0439
-33.4998
-34.4936
-33.7584
-31.712
-33.8418
-31.7272
-28.2085
-26.3136
-30.487
-30.1721
-30.5375
-80.2235
-82.468
-85.899
-110.666
-137.037
-110.2
1180.13
1182.71
1182.25
1181.48
1181.78
1181.56
327.173
327.849
326.691
327.234
326.369
327.248
-288.14
-287.907
-288.103
-288.027
-288.118
-288.185
-52.4368
-52.2544
-52.6233
-52.499
-52.5199
-52.3972
-87.8256
-86.9754
-87.4494
-87.3304
-87.2486
-87.5273
-209.273
-207.229
-208.369
-208.172
-208.033
-208.945
-50.2496
-50.2765
-50.2509
-50.2319
-50.2894
-50.1714
-42.4232
-42.4034
-42.4413
-42.3312
-42.3432
-42.3801
-67.6086
-67.1604
-67.397
-67.2958
-67.2181
-67.5745
-77.322
-77.4191
-77.3203
-77.4097
-77.3661
-77.2534
-76.0302
-76.2743
-76.0574
-76.0836
-76.127
-75.6745
-73.4009
-73.4982
-73.344
-73.3042
-73.3015
-73.1888
-84.139
-84.7703
-84.5553
-84.6633
-84.4341
-84.7024
-78.0641
-78.7676
-78.4352
-78.5517
-78.579
-77.9846
-76.2463
-76.9491
-76.4785
-76.536
-76.5724
-75.6438
-66.0039
-66.1327
-65.9729
-66.0391
-66.2554
-66.096
-75.3018
-75.5253
-75.4992
-75.5386
-75.6257
-75.3649
-103.67
-104.031
-103.803
-104.172
-104.394
-103.438
-39.1053
-37.639
-37.354
-38.2239
-40.3119
-36.6662
-68.6738
-68.503
-68.4465
-67.3295
-67.0416
-67.5542
-106.844
-107.148
-106.62
-104.248
-99.7759
-104.418
-30.0394
-29.1129
-28.7523
-29.5312
-30.2371
-28.4122
-58.9709
-58.6052
-58.3788
-58.3181
-58.4943
-57.8095
-93.1167
-93.4006
-93.3639
-92.5519
-92.2116
-92.6442
-29.5373
-29.4484
-29.4189
-29.4861
-29.6136
-29.3954
-50.1488
-49.9397
-49.8377
-49.91
-49.9815
-49.7731
-72.8783
-72.8926
-72.8526
-72.7176
-72.6514
-72.7296
-25.9834
-25.9401
-25.9549
-25.9071
-25.8245
-26.0072
-48.8594
-48.8038
-48.8049
-48.796
-48.8167
-48.765
-67.2573
-67.2495
-67.2405
-67.2167
-67.2285
-67.1914
-34.9476
-34.8948
-34.8652
-34.8743
-34.9028
-34.852
-53.9686
-53.964
-53.9705
-53.9726
-53.9883
-53.9651
-67.3793
-67.3701
-67.3686
-67.3611
-67.3664
-67.3541
15.1535
14.0131
14.1043
14.3215
15.1384
13.8542
-51.6318
-51.6267
-51.6292
-51.6296
-51.6309
-51.6394
-73.4817
-73.4439
-73.4314
-73.4327
-73.4527
-73.425
247.126
249.511
250.025
248.517
245.798
246.468
-47.9407
-47.7266
-47.6094
-47.7477
-47.7493
-47.8066
-72.1501
-72.087
-72.0332
-72.0409
-71.8941
-72.1032
281.842
281.25
281.196
284.68
285.629
283.759
-51.1753
-51.1321
-51.1336
-51.1547
-51.1457
-51.0811
-70.3239
-70.3481
-70.3708
-70.3572
-70.2975
-70.2987
289.397
289.867
290.514
291.009
291.048
290.709
-49.9955
-49.9519
-49.9004
-49.8527
-49.8181
-49.8881
-69.515
-69.5209
-69.5225
-69.5216
-69.5119
-69.523
288.312
288.623
289.082
289.438
289.483
289.406
-50.5277
-50.535
-50.5464
-50.5524
-50.5524
-50.5487
-69.5228
-69.5296
-69.5411
-69.5464
-69.5453
-69.541
281.518
281.729
282.156
282.406
282.412
282.396
-50.1175
-50.1128
-50.1067
-50.0997
-50.0946
-50.0961
-70.6208
-70.6285
-70.6386
-70.6504
-70.6541
-70.6487
241.223
240.384
239.915
239.658
239.555
239.684
-48.3305
-48.3231
-48.3174
-48.303
-48.2942
-48.3041
-73.2369
-73.2357
-73.2386
-73.2433
-73.251
-73.2478
150.314
136.061
123.339
149.183
44.564
87.0761
-115.41
87.4578
83.3724
81.7943
38.7303
-112.205
-136.887
-102.819
-114.106
-111.931
-95.8914
-151.001
-51.1848
-49.0642
-51.9964
-55.0544
-63.592
-54.6812
-72.5084
-72.0304
-81.2542
-80.8773
-79.3913
-76.3777
-84.3401
-91.578
-100.465
-98.6646
-90.5303
-89.4425
-35.2255
-35.938
-35.4524
-35.8944
-36.974
-36.5864
-47.2614
-47.0356
-47.8597
-48.2717
-47.0791
-47.975
-60.5533
-58.6008
-59.231
-59.9415
-59.2792
-60.9418
-46.3541
-46.578
-46.7656
-46.9412
-46.9077
-47.0122
-59.3973
-59.4842
-59.7767
-59.7188
-58.8155
-59.3467
-67.9008
-68.1717
-68.6537
-68.8519
-68.609
-68.8405
-39.4435
-39.5751
-39.6015
-39.5642
-39.5748
-39.4801
-54.04
-54.0107
-54.0499
-54.112
-54.0731
-54.0471
-61.8587
-61.8108
-61.8651
-61.9362
-61.9725
-62.0369
-43.4061
-43.4778
-43.6528
-43.5811
-43.2978
-42.9413
-56.2956
-56.2502
-56.3158
-56.4687
-56.5428
-56.4844
-62.7742
-62.7633
-62.8049
-62.8816
-62.9106
-62.9172
-39.8074
-40.008
-39.913
-40.1414
-40.3296
-40.4267
-53.6392
-53.2526
-53.1322
-53.7255
-54.0157
-53.9292
-61.5913
-61.5467
-61.5147
-61.5621
-61.5621
-61.5983
-39.8411
-40.1053
-40.5594
-40.4375
-40.2685
-40.0512
-53.9456
-53.666
-53.6571
-54.0513
-54.5435
-54.6916
-61.1988
-61.0727
-60.8621
-60.9684
-60.9223
-60.9464
-35.2721
-35.836
-36.8944
-37.2334
-38.3558
-37.7495
-55.3024
-55.5139
-55.8367
-55.5159
-55.3045
-55.376
-60.3347
-60.2916
-60.2392
-60.2243
-60.246
-60.2071
-36.3114
-36.6464
-37.5551
-37.0983
-37.8067
-37.4173
-57.3968
-57.4091
-57.3192
-57.1889
-57.0784
-57.223
-59.7338
-59.8152
-59.9267
-59.9915
-60.1158
-60.0685
-41.2376
-42.5346
-44.1741
-44.5432
-45.9985
-44.2398
-58.0343
-58.1313
-58.2243
-58.0093
-58.0577
-57.7599
-61.8754
-61.9331
-61.9892
-62.2689
-62.403
-62.4959
-12.7974
-10.5939
-7.45986
-17.0655
-23.1453
-16.8802
-57.7269
-57.3202
-56.9046
-56.2777
-55.1327
-56.2552
-72.6269
-72.9514
-72.983
-72.4939
-71.6008
-72.179
)
;

boundaryField
{
    seabed_topleft_surface
    {
        type            calculated;
        value           nonuniform List<scalar> 
72
(
19798.6
19798.6
19798.6
19798.6
19798.6
19798.6
19955.9
19956.3
19956.2
19956.1
19956.1
19956.1
17988.1
17988
17988.1
17988.1
17988.1
17988.1
15260.9
15260.6
15260.7
15260.9
15260.9
15260.6
13146.3
13146.7
13146.3
13147
13147
13146
11393.8
11394.9
11394
11395.3
11394.5
11394.5
10416
10414.9
10414.9
10416.7
10417.6
10414.8
10133.7
10132.1
10133.4
10133.3
10136.2
10130.6
10261.3
10257
10259.5
10260.7
10263.8
10256.4
10507.4
10510.5
10510.2
10507.7
10503.1
10516.3
10908.5
10906.6
10912.4
10902.8
10907.1
10908.5
10927.5
10918
10925
10923.5
10935.7
10915.3
)
;
    }
    seabed_topright_surface
    {
        type            calculated;
        value           nonuniform List<scalar> 
72
(
2878.71
3001.37
2874.19
2959.87
2962.03
2876.78
2456.65
2372.17
2460.12
2389.31
2360.02
2311.35
1658.47
1399.57
1575.26
1591.94
1738.35
1810.54
996.769
594.021
802.963
722.631
1039.49
1238.1
685.848
743.455
854.075
732.324
723.174
921.564
605.312
803.514
812.413
821.144
779.994
786.985
753.922
766.92
784.244
777.056
750.572
765.065
774.8
766.082
764.615
644.617
694.971
587.074
774.667
773.927
735.165
693.147
715.321
461.691
857.087
870.186
794.209
898.347
908.818
664.744
1195.92
1251.68
1245.55
1293.68
1273.84
1279.03
1112.07
1140.25
1331.34
1304.82
1431.71
1276.65
)
;
    }
    breakwater_top_surface
    {
        type            calculated;
        value           nonuniform List<scalar> 
36
(
562.15
565.459
566.289
564.545
558.673
561.899
619.513
617.513
617.46
625.365
627.712
623.122
631.389
632.417
633.799
634.8
634.937
634.197
629.796
630.513
631.571
632.33
632.381
632.167
621.483
622.04
623.011
623.574
623.551
623.517
558.742
557.025
556.106
555.538
555.398
555.691
)
;
    }
    breakwater_left_surface
    {
        type            calculated;
        value           nonuniform List<scalar> 
24
(
6725.27
6716.17
6722.68
6721.35
6733.27
6713.48
1514.25
1509.42
1511.76
1511.1
1514.25
1506.83
279.434
281.459
280.56
279.464
276.409
282.272
-81.7305
-82.1605
-81.3755
-81.0574
-80.3225
-81.1817
)
;
    }
    breakwater_right_surface
    {
        type            calculated;
        value           nonuniform List<scalar> 
24
(
895.668
923.845
994.631
985.464
1026.11
1032.86
363.152
313.99
218.285
353.797
391.191
419.499
-48.5848
-29.7445
-36.8411
-41.157
-27.5019
-27.4615
-80.2075
-82.4225
-85.8107
-110.605
-136.757
-110.175
)
;
    }
    water_front_surface
    {
        type            calculated;
        value           nonuniform List<scalar> 
186
(
16495.9
15354.6
13192
10464.8
8355.47
6849.32
6036.73
5839.15
6006.92
6279.83
6689.72
6710.83
10096
7090.53
4632.78
2432.48
1397.05
912.041
682.452
698.872
1091.89
1377.43
1511.49
1510.58
4222.27
820.049
395.626
-14.1496
-43.7364
26.3155
143.978
194.622
200.612
190.611
251.396
278.964
1055.8
-35.4003
-41.2464
-58.2756
-71.7069
-42.5547
28.6407
33.251
23.7455
9.44388
20.2642
-82.2141
2422.23
2000.17
1237.41
651.894
437.85
350.154
363.823
383.949
382.929
465.35
811.482
894.925
1337.16
378.45
64.1491
1.99192
-28.29
-47.822
-38.6572
-13.622
0.518537
9.55926
97.0077
362.065
485.789
27.2808
-14.161
-20.7669
-18.0916
-26.5444
-29.2523
-26.6886
-19.848
-31.2725
-14.5489
-49.0515
152.69
-32.7518
-17.7495
-36.1879
-35.4307
-43.9697
-40.6928
-36.7742
-31.2084
-33.0439
-31.7272
-80.2235
1180.13
327.173
-288.14
-52.4368
-87.8256
-209.273
-50.2496
-42.4232
-67.6086
-77.322
-76.0302
-73.4009
-84.139
-78.0641
-76.2463
-66.0039
-75.3018
-103.67
-39.1053
-68.6738
-106.844
-30.0394
-58.9709
-93.1167
-29.5373
-50.1488
-72.8783
-25.9834
-48.8594
-67.2573
-34.9476
-53.9686
-67.3793
15.1535
-51.6318
-73.4817
247.126
-47.9407
-72.1501
281.842
-51.1753
-70.3239
289.397
-49.9955
-69.515
288.312
-50.5277
-69.5228
281.518
-50.1175
-70.6208
241.223
-48.3305
-73.2369
150.314
-115.41
-136.887
-51.1848
-72.5084
-84.3401
-35.2255
-47.2614
-60.5533
-46.3541
-59.3973
-67.9008
-39.4435
-54.04
-61.8587
-43.4061
-56.2956
-62.7742
-39.8074
-53.6392
-61.5913
-39.8411
-53.9456
-61.1988
-35.2721
-55.3024
-60.3347
-36.3114
-57.3968
-59.7338
-41.2376
-58.0343
-61.8754
-12.7974
-57.7269
-72.6269
)
;
    }
    water_back_surface
    {
        type            calculated;
        value           nonuniform List<scalar> 
186
(
16496
15354.7
13192.1
10464.6
8355.55
6850.69
6036.14
5835.98
6001.8
6289.63
6690.51
6699.04
10096.4
7091.63
4632.91
2431.88
1397.36
911.224
693.179
695.519
1090.96
1381.7
1511.45
1503.24
4222.98
824.072
395.947
-14.6985
-44.1148
23.6736
143.382
197.948
200.802
192.559
254.354
281.799
1051.79
-35.7399
-40.8334
-58.2403
-72.1509
-43.5218
28.1282
36.1126
25.514
9.43856
21.6193
-81.66
2420.22
1854.79
1353.98
781.591
500.545
399.781
378.888
312.019
294.208
376.562
874.323
1032.02
1261.59
377.607
56.2875
-32.5245
-48.7818
-43.5868
-18.7452
-0.467574
-8.01393
-8.39773
84.6704
418.14
386.769
17.9458
-13.2259
-21.4032
-18.0188
-28.0276
-25.0295
-24.2179
-25.3061
-30.0408
-9.67272
-27.8003
73.5617
-40.5801
-18.8835
-39.0981
-36.5632
-44.5554
-37.5473
-34.3544
-31.9653
-33.8418
-30.5375
-110.2
1181.56
327.248
-288.185
-52.3972
-87.5273
-208.945
-50.1714
-42.3801
-67.5745
-77.2534
-75.6745
-73.1888
-84.7024
-77.9846
-75.6438
-66.096
-75.3649
-103.438
-36.6662
-67.5542
-104.418
-28.4122
-57.8095
-92.6442
-29.3954
-49.7731
-72.7296
-26.0072
-48.765
-67.1914
-34.852
-53.9651
-67.3541
13.8542
-51.6394
-73.425
246.468
-47.8066
-72.1032
283.759
-51.0811
-70.2987
290.709
-49.8881
-69.523
289.406
-50.5487
-69.541
282.396
-50.0961
-70.6487
239.684
-48.3041
-73.2478
87.0761
-112.205
-151.001
-54.6812
-76.3777
-89.4425
-36.5864
-47.975
-60.9418
-47.0122
-59.3467
-68.8405
-39.4801
-54.0471
-62.0369
-42.9413
-56.4844
-62.9172
-40.4267
-53.9292
-61.5983
-40.0512
-54.6916
-60.9464
-37.7495
-55.376
-60.2071
-37.4173
-57.223
-60.0685
-44.2398
-57.7599
-62.4959
-16.8802
-56.2552
-72.179
)
;
    }
    water_left_surface
    {
        type            calculated;
        value           nonuniform List<scalar> 
42
(
16507.2
16507.2
16507.2
16507.3
16507.3
16507.3
10108.6
10109
10109
10108.9
10108.9
10108.9
4234.58
4234.72
4234.83
4234.95
4235.17
4235.28
1067.86
1058.48
1060.38
1066.08
1065
1063.85
1180.13
1182.71
1182.25
1181.48
1181.78
1181.56
327.173
327.849
326.691
327.234
326.369
327.248
-288.14
-287.907
-288.103
-288.027
-288.118
-288.185
)
;
    }
    water_right_surface
    {
        type            calculated;
        value           nonuniform List<scalar> 
42
(
2423.79
2546.43
2419.21
2504.88
2507.03
2421.78
1338.69
1437.55
1331.28
1387.55
1312.03
1263.12
487.207
334.006
435.859
336.002
295.194
388.266
154.042
116.901
140.347
117.826
28.0317
75.0281
150.314
136.061
123.339
149.183
44.564
87.0761
-115.41
87.4578
83.3724
81.7943
38.7303
-112.205
-136.887
-102.819
-114.106
-111.931
-95.8914
-151.001
)
;
    }
    water_top_surface
    {
        type            calculated;
        value           nonuniform List<scalar> 
180
(
-481
-478.295
-479.769
-479.874
-480.09
-479.868
-476.889
-474.047
-475.599
-475.716
-475.936
-475.693
-71.9899
-71.0829
-71.5835
-71.5271
-71.3227
-71.8503
-69.0634
-69.2361
-68.9718
-69.225
-69.4796
-68.6956
-100.045
-100.654
-99.3819
-101.302
-102.583
-94.987
-124.196
-122.607
-123.147
-125.312
-127.509
-125.312
-100.828
-102.517
-102.104
-100.13
-68.8556
-103.234
-93.2134
-93.4937
-93.4
-93.5201
-93.9121
-93.0438
-81.3867
-81.4548
-81.4686
-81.3344
-81.3064
-81.45
-75.1313
-75.1335
-75.142
-75.1163
-75.1454
-75.1139
-73.7758
-73.7765
-73.7806
-73.7724
-73.7922
-73.7621
-71.6508
-71.6601
-71.6592
-71.6576
-71.6594
-71.6577
-69.0827
-69.064
-69.0542
-69.1118
-69.1938
-69.1175
-70.4731
-70.5053
-70.5335
-70.5463
-70.5636
-70.5046
-70.0546
-70.043
-70.0272
-70.0089
-69.9996
-69.9985
-70.3575
-70.3626
-70.3649
-70.3631
-70.3671
-70.3567
-70.7946
-70.7991
-70.8001
-70.7988
-70.8038
-70.7946
-70.1442
-70.1374
-70.1364
-70.1375
-70.1391
-70.1308
-1764.92
-98.5788
-136.058
-120.88
-82.8346
-2504.08
-68.6706
-97.9262
-134.567
-115.989
-82.4723
-147.458
-68.67
-68.6703
-68.6703
-68.6702
-68.7009
-68.67
-71.3258
-71.3896
-71.4736
-71.6596
-71.6919
-71.9804
-68.8311
-68.835
-68.8468
-68.8313
-68.8424
-68.833
-69.1383
-69.1316
-69.1549
-69.1885
-69.2117
-69.186
-68.67
-68.67
-68.67
-68.67
-68.67
-68.67
-68.67
-68.67
-68.67
-68.67
-68.6809
-68.6823
-68.6856
-68.6914
-68.7048
-68.722
-68.7382
-68.74
-69.0918
-69.1345
-69.1718
-69.181
-69.2434
-69.1987
-70.0777
-70.1647
-70.255
-70.3587
-70.6531
-70.3662
-70.4262
-70.3426
-69.9536
-70.023
-70.1325
-70.3839
)
;
    }
}


// ************************************************************************* //
