/*--------------------------------*- C++ -*----------------------------------*\
| =========                 |                                                 |
| \\      /  F ield         | OpenFOAM: The Open Source CFD Toolbox           |
|  \\    /   O peration     | Version:  v1612+                                |
|   \\  /    A nd           | Web:      www.OpenFOAM.com                      |
|    \\/     M anipulation  |                                                 |
\*---------------------------------------------------------------------------*/
FoamFile
{
    version     2.0;
    format      ascii;
    class       volScalarField;
    location    "2.1";
    object      alpha.water;
}
// * * * * * * * * * * * * * * * * * * * * * * * * * * * * * * * * * * * * * //

dimensions      [0 0 0 0 0 0 0];

internalField   nonuniform List<scalar> 
1116
(
0.999775
0.999775
0.999775
0.999775
0.999775
0.999775
0.999775
0.999775
0.999775
0.999775
0.999775
0.999775
0.999559
0.999559
0.999559
0.999559
0.999559
0.999559
0.999176
0.999176
0.999176
0.999176
0.999176
0.999176
0.998653
0.998653
0.998653
0.998653
0.998653
0.998653
0.997818
0.997818
0.997818
0.997818
0.997818
0.997818
0.989753
0.989752
0.989752
0.989752
0.989752
0.989752
0.958288
0.958285
0.958285
0.958285
0.958284
0.958283
0.88954
0.88952
0.889529
0.889528
0.889525
0.889528
0.891063
0.891053
0.891052
0.891052
0.89105
0.891051
0.889887
0.889872
0.889876
0.889875
0.889873
0.889875
0.865788
0.865794
0.865792
0.865794
0.865795
0.865788
0.999775
0.999775
0.999775
0.999775
0.999775
0.999775
0.975784
0.975783
0.975783
0.975783
0.975784
0.975785
0.939412
0.93941
0.939411
0.939411
0.939411
0.939413
0.865666
0.865661
0.865663
0.865664
0.865663
0.865666
0.790956
0.790953
0.790954
0.790953
0.790951
0.790954
0.659441
0.659437
0.659436
0.659434
0.659432
0.659432
0.467174
0.467166
0.467165
0.467163
0.46716
0.467156
0.267775
0.267768
0.267766
0.267764
0.267762
0.267757
0.0906171
0.0906157
0.0906154
0.090614
0.0906129
0.0906115
0.103828
0.103823
0.103825
0.103824
0.103823
0.103821
0.209223
0.209209
0.209211
0.209209
0.209195
0.209209
0.725009
0.725004
0.725006
0.725003
0.72499
0.725018
0.912291
0.912291
0.912293
0.912292
0.912292
0.912298
0.382827
0.382822
0.382824
0.382825
0.382826
0.382831
0.216802
0.216797
0.216798
0.216799
0.216799
0.216804
0.103579
0.103574
0.103575
0.103576
0.103576
0.103578
0.00145404
0.00145194
0.0014521
0.00145237
0.00145244
0.00145256
5.17081e-11
5.16932e-11
5.17771e-11
5.17328e-11
5.17064e-11
5.19105e-11
2.86298e-10
2.86112e-10
2.86296e-10
2.86258e-10
2.86259e-10
2.86015e-10
9.93553e-09
9.92606e-09
9.93502e-09
9.93382e-09
9.93357e-09
9.92643e-09
4.34414e-07
4.33991e-07
4.34419e-07
4.34359e-07
4.34375e-07
4.34015e-07
7.51231e-07
7.51171e-07
7.51298e-07
7.51455e-07
7.50854e-07
7.51612e-07
0.000491686
0.000491668
0.000491703
0.0004917
0.000491564
0.000491718
0.564033
0.56402
0.564026
0.564029
0.564023
0.56403
0.190663
0.190663
0.190665
0.190664
0.190665
0.190673
3.73146e-06
3.73153e-06
3.73203e-06
3.73182e-06
3.7317e-06
3.73284e-06
2.26341e-07
2.26213e-07
2.26505e-07
2.26188e-07
2.26022e-07
2.27059e-07
7.48438e-09
7.4808e-09
7.48744e-09
7.48036e-09
7.47644e-09
7.49975e-09
6.66796e-11
6.66612e-11
6.67386e-11
6.669e-11
6.66584e-11
6.68558e-11
3.87078e-13
3.87455e-13
3.87339e-13
3.87271e-13
3.87344e-13
3.86817e-13
2.80862e-11
2.81077e-11
2.80995e-11
2.80952e-11
2.81011e-11
2.80685e-11
2.69309e-10
2.6912e-10
2.69313e-10
2.69284e-10
2.69287e-10
2.69046e-10
9.71098e-09
9.70216e-09
9.71042e-09
9.70917e-09
9.70911e-09
9.70251e-09
6.37941e-07
6.37567e-07
6.37874e-07
6.37675e-07
6.37639e-07
6.37697e-07
3.58051e-05
3.58094e-05
3.58138e-05
3.58133e-05
3.57843e-05
3.58323e-05
0.299126
0.299105
0.299109
0.299128
0.2992
0.298997
1.06254e-62
1.06453e-62
1.06447e-62
1.06461e-62
1.06516e-62
1.06338e-62
2.07026e-58
2.07414e-58
2.07404e-58
2.07436e-58
2.07544e-58
2.07214e-58
2.17816e-54
2.18191e-54
2.18174e-54
2.18196e-54
2.18298e-54
2.17946e-54
1.58468e-50
1.58688e-50
1.58659e-50
1.58661e-50
1.58723e-50
1.5847e-50
8.24532e-47
8.25202e-47
8.24886e-47
8.24802e-47
8.25074e-47
8.23842e-47
2.80243e-43
2.80257e-43
2.80087e-43
2.80046e-43
2.80163e-43
2.79837e-43
5.30745e-40
5.30443e-40
5.30098e-40
5.30121e-40
5.3054e-40
5.30306e-40
4.22141e-37
4.21808e-37
4.21668e-37
4.21915e-37
4.22561e-37
4.22833e-37
1.00251e-34
1.002e-34
1.00248e-34
1.00412e-34
1.00697e-34
1.00933e-34
4.98292e-33
4.98526e-33
4.98473e-33
4.98766e-33
4.99506e-33
4.99668e-33
4.13319e-30
4.14124e-30
4.14211e-30
4.14446e-30
4.14984e-30
4.15056e-30
1.97341e-27
1.97823e-27
1.97845e-27
1.97862e-27
1.97937e-27
1.97693e-27
2.88947e-59
2.89486e-59
2.89464e-59
2.89491e-59
2.89623e-59
2.891e-59
5.84958e-55
5.8605e-55
5.86012e-55
5.86073e-55
5.86337e-55
5.85324e-55
6.28179e-51
6.29286e-51
6.29229e-51
6.29269e-51
6.29521e-51
6.28434e-51
4.54914e-47
4.55618e-47
4.55545e-47
4.55544e-47
4.55697e-47
4.54925e-47
2.28845e-43
2.29123e-43
2.2906e-43
2.29041e-43
2.29106e-43
2.28737e-43
7.33026e-40
7.33626e-40
7.33336e-40
7.33254e-40
7.3349e-40
7.32463e-40
1.27506e-36
1.27566e-36
1.27513e-36
1.27513e-36
1.27582e-36
1.2746e-36
9.91745e-34
9.92165e-34
9.91965e-34
9.92271e-34
9.932e-34
9.92854e-34
2.86884e-31
2.87116e-31
2.87181e-31
2.87403e-31
2.87823e-31
2.87926e-31
7.89348e-30
7.88476e-30
7.88107e-30
7.88534e-30
7.89818e-30
7.90497e-30
6.14701e-27
6.1566e-27
6.15714e-27
6.15983e-27
6.16695e-27
6.16762e-27
1.9132e-24
1.9172e-24
1.91723e-24
1.91721e-24
1.91774e-24
1.91526e-24
3.15616e-56
3.16214e-56
3.16189e-56
3.16211e-56
3.16339e-56
3.1574e-56
6.73488e-52
6.74761e-52
6.74713e-52
6.74762e-52
6.7503e-52
6.738e-52
7.35801e-48
7.37131e-48
7.37062e-48
7.37091e-48
7.37352e-48
7.36017e-48
5.1981e-44
5.20673e-44
5.20599e-44
5.20594e-44
5.20751e-44
5.19828e-44
2.46902e-40
2.47264e-40
2.47212e-40
2.47197e-40
2.47261e-40
2.46839e-40
7.49098e-37
7.50047e-37
7.4985e-37
7.49789e-37
7.49987e-37
7.48798e-37
1.31596e-33
1.31741e-33
1.31706e-33
1.31701e-33
1.31747e-33
1.31567e-33
1.14925e-30
1.15045e-30
1.15023e-30
1.15031e-30
1.15085e-30
1.14955e-30
4.55342e-28
4.55847e-28
4.55807e-28
4.55881e-28
4.56136e-28
4.55707e-28
3.40874e-26
3.41404e-26
3.41452e-26
3.41567e-26
3.41874e-26
3.41748e-26
6.0353e-24
6.04437e-24
6.04425e-24
6.04526e-24
6.04957e-24
6.04682e-24
9.09109e-22
9.10774e-22
9.10713e-22
9.10603e-22
9.10688e-22
9.09335e-22
1.72696e-53
1.73029e-53
1.73015e-53
1.73023e-53
1.73085e-53
1.72742e-53
3.90698e-49
3.91446e-49
3.91414e-49
3.91433e-49
3.91572e-49
3.90825e-49
4.2831e-45
4.29099e-45
4.29057e-45
4.29066e-45
4.29203e-45
4.28395e-45
2.88306e-41
2.88807e-41
2.88769e-41
2.88765e-41
2.88846e-41
2.88315e-41
1.25329e-37
1.25533e-37
1.25512e-37
1.25506e-37
1.25537e-37
1.25312e-37
3.40039e-34
3.40554e-34
3.40489e-34
3.40466e-34
3.40542e-34
3.39955e-34
5.2484e-31
5.2557e-31
5.25463e-31
5.25429e-31
5.2555e-31
5.24701e-31
4.13436e-28
4.13972e-28
4.13893e-28
4.13876e-28
4.13981e-28
4.1336e-28
1.6666e-25
1.66865e-25
1.66838e-25
1.66834e-25
1.66878e-25
1.66645e-25
2.88045e-23
2.88412e-23
2.88361e-23
2.88326e-23
2.88447e-23
2.87992e-23
1.97992e-21
1.98279e-21
1.98261e-21
1.9826e-21
1.9833e-21
1.98137e-21
1.70101e-19
1.70361e-19
1.70342e-19
1.70316e-19
1.70318e-19
1.70063e-19
7.74638e-07
7.74638e-07
7.74638e-07
7.74648e-07
7.74688e-07
7.74748e-07
2.01095e-06
2.01061e-06
2.01113e-06
2.01235e-06
2.01289e-06
2.01248e-06
-5.7455e-14
-6.2935e-14
-6.45993e-14
-6.31627e-14
-6.27911e-14
-6.42868e-14
7.80896e-07
7.81028e-07
7.81337e-07
7.81463e-07
7.81434e-07
7.8186e-07
0.000135714
0.000135716
0.000135718
0.000135719
0.00013572
0.00013572
-2.3821e-13
-2.60918e-13
-2.67829e-13
-2.6187e-13
-2.60325e-13
-2.66542e-13
8.46737e-07
8.46517e-07
8.46529e-07
8.46376e-07
8.46274e-07
8.46671e-07
2.39989e-06
2.39421e-06
2.39656e-06
2.38834e-06
2.38269e-06
2.40807e-06
-1.47567e-12
-1.61637e-12
-1.65915e-12
-1.62223e-12
-1.61268e-12
-1.65116e-12
8.30259e-07
8.29973e-07
8.30011e-07
8.29745e-07
8.29565e-07
8.30291e-07
1.81682e-06
1.81713e-06
1.81688e-06
1.81799e-06
1.81881e-06
1.816e-06
-1.74683e-12
-1.91331e-12
-1.9639e-12
-1.92016e-12
-1.90886e-12
-1.95429e-12
7.73135e-07
7.72997e-07
7.72983e-07
7.72995e-07
7.72997e-07
7.72925e-07
1.67891e-06
1.67831e-06
1.67839e-06
1.67822e-06
1.67801e-06
1.67844e-06
-4.01323e-16
-4.76831e-16
-5.38977e-16
-5.13856e-16
-4.89184e-16
1.07661e-29
3.61597e-16
3.6212e-16
3.62209e-16
3.62364e-16
3.62542e-16
3.61571e-16
2.20095e-17
2.20295e-17
2.20509e-17
2.2064e-17
2.20548e-17
2.20344e-17
2.17612e-17
2.17976e-17
2.18006e-17
2.18213e-17
2.18217e-17
2.17838e-17
5.24451e-14
5.25574e-14
5.25758e-14
5.26205e-14
5.26581e-14
5.2501e-14
-6.2481e-15
-6.24928e-15
-6.25243e-15
-6.25143e-15
-6.25419e-15
-6.24203e-15
1.44599e-17
1.44518e-17
1.44526e-17
1.44473e-17
1.4449e-17
1.44559e-17
3.74446e-10
3.75181e-10
3.74651e-10
3.7471e-10
3.74757e-10
3.75236e-10
1.13358e-13
1.14851e-13
1.14768e-13
1.15904e-13
1.15483e-13
1.14278e-13
9.20059e-18
9.18501e-18
9.1859e-18
9.17376e-18
9.17879e-18
9.18918e-18
6.71489e-08
6.71515e-08
6.71442e-08
6.71426e-08
6.71563e-08
6.71232e-08
1.40642e-11
1.40815e-11
1.40839e-11
1.40894e-11
1.40952e-11
1.40632e-11
6.85581e-11
6.96104e-11
6.95393e-11
7.03379e-11
7.0014e-11
6.92333e-11
3.55776e-08
3.55632e-08
3.55597e-08
3.55519e-08
3.5594e-08
3.54806e-08
1.20997e-09
1.21136e-09
1.21183e-09
1.2121e-09
1.21117e-09
1.21039e-09
5.45409e-08
5.45469e-08
5.45497e-08
5.45506e-08
5.45511e-08
5.45518e-08
1.44521e-06
1.44615e-06
1.4466e-06
1.44663e-06
1.44222e-06
1.45096e-06
4.60195e-10
4.62555e-10
4.63942e-10
4.64412e-10
4.67838e-10
4.64913e-10
5.39528e-10
5.43515e-10
5.45785e-10
5.47056e-10
5.50329e-10
5.47942e-10
0.00292747
0.00292542
0.00292566
0.00292802
0.00293541
0.00291309
1.44847e-06
1.44942e-06
1.44986e-06
1.44991e-06
1.44568e-06
1.4542e-06
1.38374e-17
1.38177e-17
1.38711e-17
1.38628e-17
1.38534e-17
1.38711e-17
4.57176e-13
4.57914e-13
4.57812e-13
4.57563e-13
4.65286e-13
4.49314e-13
3.02165e-11
3.02567e-11
3.02429e-11
3.02467e-11
3.08459e-11
2.95819e-11
2.45317e-17
2.45261e-17
2.45156e-17
2.43443e-17
2.44422e-17
2.46291e-17
7.71411e-11
7.73185e-11
7.72507e-11
7.72698e-11
7.92198e-11
7.51056e-11
9.8238e-09
9.84329e-09
9.83397e-09
9.83915e-09
1.00759e-08
9.57032e-09
-1.59354e-15
-1.7966e-15
-1.73887e-15
-2.09382e-15
-6.1212e-15
-1.53161e-15
6.3078e-11
6.30769e-11
6.31564e-11
6.31557e-11
6.14806e-11
6.15943e-11
9.42288e-11
9.40323e-11
9.41245e-11
9.41368e-11
9.36028e-11
9.47543e-11
2.56043e-10
2.55566e-10
2.55803e-10
2.55801e-10
2.53887e-10
2.57847e-10
6.85487e-11
6.86077e-11
6.86282e-11
6.86328e-11
6.85532e-11
6.70147e-11
2.97709e-10
2.97309e-10
2.97514e-10
2.97527e-10
2.96611e-10
2.98432e-10
0.000343184
0.000343286
0.000343173
0.000343338
0.000345399
0.000340965
0.000120539
0.000120595
0.000120362
0.000120575
0.000121244
0.000119258
0.00248127
0.00248131
0.00248087
0.00248168
0.00248855
0.00247283
0.00163135
0.00163167
0.00163127
0.00163188
0.00163895
0.00162349
0.0125181
0.0125182
0.012517
0.0125194
0.0125398
0.0124922
0.00749457
0.00749511
0.00749428
0.00749626
0.00750907
0.00748011
0.000114222
0.000114276
0.000114279
0.000114357
0.000114064
0.000114706
4.68694e-51
4.69602e-51
4.69556e-51
4.69573e-51
4.69734e-51
4.68774e-51
8.08185e-53
8.0984e-53
8.09829e-53
8.0986e-53
8.10087e-53
8.0837e-53
3.23245e-56
3.23944e-56
3.23935e-56
3.23949e-56
3.24046e-56
3.23332e-56
1.06159e-46
1.06364e-46
1.06354e-46
1.06358e-46
1.06394e-46
1.06185e-46
3.69847e-48
3.70587e-48
3.70586e-48
3.70599e-48
3.70695e-48
3.69952e-48
1.69966e-51
1.70322e-51
1.70318e-51
1.70324e-51
1.70371e-51
1.70012e-51
1.09767e-42
1.09972e-42
1.09961e-42
1.09963e-42
1.09997e-42
1.09784e-42
7.97753e-44
7.9927e-44
7.99262e-44
7.99274e-44
7.99448e-44
7.97915e-44
4.57999e-47
4.58918e-47
4.58907e-47
4.58915e-47
4.59024e-47
4.58092e-47
6.62575e-39
6.63766e-39
6.63684e-39
6.63677e-39
6.6386e-39
6.626e-39
1.02493e-39
1.02677e-39
1.02676e-39
1.02675e-39
1.02694e-39
1.02507e-39
8.09394e-43
8.10933e-43
8.10916e-43
8.10922e-43
8.1109e-43
8.09532e-43
2.4979e-35
2.50219e-35
2.50183e-35
2.50174e-35
2.50235e-35
2.49772e-35
8.3179e-36
8.33209e-36
8.33191e-36
8.33178e-36
8.33297e-36
8.31865e-36
1.03564e-38
1.03752e-38
1.03749e-38
1.03749e-38
1.03767e-38
1.03577e-38
5.83174e-32
5.84129e-32
5.84035e-32
5.84002e-32
5.84125e-32
5.83074e-32
4.2894e-32
4.29647e-32
4.29636e-32
4.29622e-32
4.29667e-32
4.28958e-32
1.04885e-34
1.0507e-34
1.05069e-34
1.05067e-34
1.0508e-34
1.04894e-34
7.96748e-29
7.9798e-29
7.97839e-29
7.97776e-29
7.97919e-29
7.96525e-29
1.40109e-28
1.40327e-28
1.40321e-28
1.40312e-28
1.4032e-28
1.401e-28
8.97815e-31
8.99407e-31
8.99336e-31
8.99273e-31
8.99328e-31
8.97691e-31
6.05115e-26
6.05992e-26
6.05876e-26
6.05813e-26
6.059e-26
6.04879e-26
2.92789e-25
2.93225e-25
2.93203e-25
2.93175e-25
2.93175e-25
2.92727e-25
2.49151e-25
2.49783e-25
2.49111e-25
2.48272e-25
2.51203e-25
2.44306e-25
2.76937e-23
2.77309e-23
2.7725e-23
2.77207e-23
2.77246e-23
2.76778e-23
4.52865e-22
4.53455e-22
4.53153e-22
4.52789e-22
4.53637e-22
4.51389e-22
2.69542e-20
2.6978e-20
2.69122e-20
2.68413e-20
2.71815e-20
2.64949e-20
1.14751e-20
1.1489e-20
1.14828e-20
1.14757e-20
1.14892e-20
1.14482e-20
5.8458e-19
5.85128e-19
5.84158e-19
5.83102e-19
5.86991e-19
5.78642e-19
3.39699e-17
3.39959e-17
3.39252e-17
3.38644e-17
3.43194e-17
3.34066e-17
4.48302e-18
4.48728e-18
4.47959e-18
4.47176e-18
4.46174e-18
4.44896e-18
2.75231e-16
2.75446e-16
2.74755e-16
2.74198e-16
2.7521e-16
2.70849e-16
1.80497e-17
1.80494e-17
1.80674e-17
1.80742e-17
1.80582e-17
1.81236e-17
1.1366e-15
1.13672e-15
1.13739e-15
1.13721e-15
1.13552e-15
1.1295e-15
8.81285e-14
8.79431e-14
8.80886e-14
8.8011e-14
8.63162e-14
8.93428e-14
1.2334e-17
1.23334e-17
1.23346e-17
1.2333e-17
1.23206e-17
1.22766e-17
)
;

boundaryField
{
    seabed_topleft_surface
    {
        type            zeroGradient;
    }
    seabed_topright_surface
    {
        type            zeroGradient;
    }
    breakwater_top_surface
    {
        type            zeroGradient;
    }
    breakwater_left_surface
    {
        type            zeroGradient;
    }
    breakwater_right_surface
    {
        type            zeroGradient;
    }
    water_front_surface
    {
        type            zeroGradient;
    }
    water_back_surface
    {
        type            zeroGradient;
    }
    water_left_surface
    {
        type            zeroGradient;
    }
    water_right_surface
    {
        type            zeroGradient;
    }
    water_top_surface
    {
        type            inletOutlet;
        inletValue      uniform 0;
        value           nonuniform List<scalar> 
180
(
0
0
0
0
0
0
0
0
0
0
0
0
0
0
0
0
0
0
0
0
0
0
0
0
0
0
0
0
0
0
0
0
0
0
0
0
0
0
0
0
0
0
0
0
0
0
0
0
0
0
0
0
0
0
0
0
0
0
0
0
0
0
0
0
0
0
0
0
0
0
0
0
0
0
0
0
0
0
0
0
0
0
0
0
2.56043e-10
2.55566e-10
2.55803e-10
2.55801e-10
2.53887e-10
2.57847e-10
0.000343184
0.000343286
0.000343173
0.000343338
0.000345399
0.000340965
0.00163135
0.00163167
0.00163127
0.00163188
0.00163895
0.00162349
0.000114222
0.000114276
0.000114279
0.000114357
0.000114064
0.000114706
0
0
0
0
0
0
0
0
0
0
0
0
0
0
0
0
0
0
0
0
0
0
0
0
0
0
0
0
0
0
0
0
0
0
0
0
0
0
0
0
0
0
0
0
0
0
0
0
0
0
0
0
0
0
0
0
0
0
0
0
0
0
0
0
0
0
0
0
0
0
0
0
)
;
    }
}


// ************************************************************************* //
