/*--------------------------------*- C++ -*----------------------------------*\
| =========                 |                                                 |
| \\      /  F ield         | OpenFOAM: The Open Source CFD Toolbox           |
|  \\    /   O peration     | Version:  v1612+                                |
|   \\  /    A nd           | Web:      www.OpenFOAM.com                      |
|    \\/     M anipulation  |                                                 |
\*---------------------------------------------------------------------------*/
FoamFile
{
    version     2.0;
    format      ascii;
    class       volScalarField;
    location    "2.1";
    object      p_rgh;
}
// * * * * * * * * * * * * * * * * * * * * * * * * * * * * * * * * * * * * * //

dimensions      [1 -1 -2 0 0 0 0];

internalField   nonuniform List<scalar> 
1116
(
32405.9
32405.9
32405.9
32405.9
32405.9
32405.9
30990.6
30990.6
30990.6
30990.6
30990.6
30990.6
26824.7
26824.7
26824.7
26824.7
26824.7
26824.7
23092.9
23092.9
23092.8
23092.8
23092.8
23092.8
20337.7
20337.7
20337.7
20337.7
20337.7
20337.7
18168.4
18168.4
18168.4
18168.3
18168.3
18168.3
16111.7
16111.6
16111.6
16111.6
16111.6
16111.6
14108.4
14108.3
14108.3
14108.3
14108.3
14108.3
13174.7
13174.6
13174.6
13174.5
13174.5
13174.5
15882.2
15882.1
15882.1
15882
15882
15882
21978.9
21978.8
21978.8
21978.9
21979
21978.9
31473
31473.1
31473.1
31473.2
31473.3
31473.3
31588.6
31588.6
31588.6
31588.6
31588.6
31588.7
28392
28392
28392.1
28392
28392.1
28392.3
23717.4
23717.4
23717.4
23717.4
23717.4
23717.4
19411.7
19411.6
19411.6
19411.6
19411.6
19411.7
15886.6
15886.5
15886.5
15886.5
15886.4
15886.5
12964.8
12964.7
12964.7
12964.7
12964.6
12964.6
9157.19
9157.03
9157.01
9156.96
9156.9
9156.83
5238.93
5238.78
5238.75
5238.7
5238.66
5238.56
1804.14
1804.11
1804.09
1804.06
1804.04
1804.01
2187.42
2187.34
2187.35
2187.32
2187.31
2187.27
5917.54
5917.39
5917.35
5917.33
5917.41
5917.06
26440.2
26440.1
26440.1
26440.1
26439.9
26440.3
29383
29383
29383.1
29383.1
29383.1
29383.5
11450.7
11450.5
11450.7
11450.5
11450.5
11451.2
6391.41
6391.27
6391.3
6391.32
6391.31
6391.44
3043.23
3043.1
3043.12
3043.15
3043.14
3043.2
28.5865
28.5287
28.5317
28.5381
28.5387
28.5407
-50.3577
-50.3578
-50.3577
-50.3578
-50.3583
-50.3589
-50.3776
-50.3747
-50.3722
-50.3704
-50.3697
-50.3687
-31.9326
-31.9308
-31.9289
-31.9274
-31.9269
-31.9245
8.04329
8.04167
8.03911
8.03533
8.03151
8.02923
111.686
111.675
111.664
111.654
111.648
111.638
427.804
427.799
427.746
427.73
427.761
427.653
16461.4
16461.3
16461.3
16461.5
16461.5
16461.4
7406.56
7406.47
7406.81
7406.48
7406.39
7407.66
5.77879
5.77957
5.77104
5.77982
5.77495
5.73014
-11.1753
-11.1748
-11.1796
-11.1786
-11.1858
-11.2086
-2.20414
-2.20491
-2.20639
-2.20739
-2.20959
-2.21323
4.35414
4.35372
4.35322
4.35279
4.35229
4.35168
-0.312828
-0.313144
-0.313388
-0.313489
-0.31367
-0.314061
-13.8083
-13.8081
-13.8075
-13.8066
-13.8061
-13.8058
-22.7262
-22.7255
-22.7247
-22.7237
-22.7229
-22.7208
-22.3274
-22.3276
-22.3244
-22.3247
-22.3243
-22.3275
27.3896
27.3881
27.3863
27.3829
27.3812
27.4127
9.15613
9.15766
9.15141
9.14538
9.15207
9.14487
10762.7
10762.1
10762.1
10762.8
10765.2
10758.5
0.21888
0.218861
0.218847
0.218845
0.21885
0.218852
0.230742
0.230725
0.230723
0.230727
0.230739
0.23075
0.255027
0.255013
0.255017
0.255027
0.255042
0.255058
0.292566
0.292561
0.292573
0.292588
0.292604
0.292621
0.34441
0.344419
0.344441
0.344455
0.344467
0.344478
0.411475
0.411498
0.411516
0.411522
0.411521
0.411517
0.49355
0.493584
0.493594
0.493586
0.493568
0.493547
0.589598
0.589641
0.589651
0.589639
0.589616
0.589594
0.697903
0.697961
0.697978
0.697971
0.697951
0.697931
0.810112
0.81016
0.810154
0.810126
0.810086
0.810046
0.919679
0.919694
0.919661
0.919607
0.919529
0.919449
0.987821
0.987804
0.987771
0.987734
0.987698
0.987659
0.207503
0.207494
0.207488
0.207492
0.207503
0.207512
0.219039
0.219032
0.219035
0.219044
0.21906
0.219077
0.242705
0.242698
0.242706
0.242718
0.242736
0.242759
0.279508
0.279506
0.279518
0.279533
0.279551
0.279572
0.330973
0.330981
0.330993
0.331004
0.331013
0.331021
0.399284
0.399297
0.399302
0.399299
0.399289
0.399274
0.488003
0.488017
0.488012
0.487995
0.48797
0.487945
0.599167
0.599191
0.59919
0.599174
0.599152
0.599134
0.730732
0.730783
0.730794
0.730779
0.730751
0.730705
0.876396
0.876473
0.87646
0.87639
0.876284
0.876166
1.02781
1.02778
1.02767
1.02752
1.02734
1.02717
1.13603
1.13597
1.13591
1.13585
1.1358
1.13577
0.185772
0.185768
0.185765
0.185772
0.185784
0.185793
0.196448
0.196446
0.196449
0.19646
0.196476
0.19649
0.218438
0.218435
0.218443
0.218455
0.218471
0.21849
0.252906
0.252905
0.252914
0.252925
0.252939
0.252956
0.301598
0.301599
0.301603
0.301608
0.301611
0.301614
0.366491
0.366488
0.366482
0.366473
0.366461
0.366449
0.448859
0.448857
0.448846
0.44883
0.448813
0.448804
0.548063
0.548082
0.54808
0.548068
0.548051
0.548042
0.67154
0.671577
0.671554
0.671502
0.671436
0.671368
0.818707
0.818667
0.81854
0.818369
0.818184
0.818026
0.996041
0.995929
0.995733
0.995497
0.995263
0.995085
1.14488
1.1448
1.14475
1.14472
1.14472
1.14476
0.154963
0.154962
0.154961
0.154968
0.154978
0.154988
0.1642
0.164201
0.164205
0.164214
0.164226
0.164239
0.183348
0.183348
0.183354
0.183363
0.183376
0.183387
0.21376
0.213757
0.213761
0.213768
0.213776
0.213786
0.257764
0.257755
0.257751
0.25775
0.257749
0.25775
0.319453
0.319432
0.319417
0.319406
0.319398
0.319397
0.407317
0.407294
0.407275
0.407262
0.40726
0.40727
0.533945
0.533931
0.533909
0.533888
0.533874
0.533867
0.710122
0.710093
0.710025
0.70994
0.70985
0.709768
0.949893
0.9498
0.949652
0.949478
0.949306
0.949179
1.2846
1.28446
1.28428
1.28408
1.28393
1.28388
1.67993
1.67992
1.6799
1.67987
1.67988
1.67995
-20.8109
-20.8095
-20.8012
-20.8036
-20.7915
-20.7454
-12.2324
-12.2312
-12.229
-12.2264
-12.222
-12.2167
-8.83481
-8.83469
-8.83411
-8.83323
-8.83214
-8.83136
-10.6744
-10.6732
-10.6733
-10.6716
-10.6711
-10.6742
-0.21826
-0.217532
-0.216792
-0.215914
-0.215034
-0.21452
-8.22058
-8.22057
-8.22033
-8.21997
-8.21968
-8.21944
-5.9334
-5.93308
-5.93394
-5.93478
-5.93704
-5.94093
-6.44936
-6.44976
-6.44989
-6.45059
-6.45129
-6.45032
-4.41457
-4.41465
-4.41467
-4.41467
-4.41465
-4.41455
-7.18748
-7.18772
-7.18852
-7.18935
-7.1903
-7.19136
-4.00941
-4.00973
-4.00994
-4.00997
-4.01003
-4.01023
-5.20157
-5.20157
-5.20148
-5.20139
-5.20132
-5.20119
-7.06621
-7.06647
-7.0669
-7.06728
-7.0676
-7.06811
-1.48868
-1.48889
-1.48884
-1.48875
-1.48871
-1.48868
-4.17542
-4.17541
-4.17537
-4.17533
-4.17535
-4.17544
-11.1021
-11.1023
-11.1025
-11.1025
-11.1024
-11.1024
-4.07329
-4.07351
-4.07364
-4.07371
-4.07364
-4.0735
-4.3696
-4.36969
-4.3698
-4.36987
-4.36986
-4.36981
-8.9581
-8.95809
-8.95796
-8.95757
-8.95704
-8.9568
-4.17459
-4.17474
-4.17485
-4.17478
-4.17449
-4.17434
-2.87645
-2.87631
-2.87633
-2.87631
-2.87626
-2.87634
-3.87069
-3.87059
-3.87048
-3.87044
-3.87021
-3.86987
-2.00127
-2.0012
-2.00111
-2.00107
-2.00107
-2.00112
-0.811022
-0.81089
-0.810875
-0.810911
-0.81102
-0.811297
4.37811
4.37608
4.37506
4.37378
4.37247
4.3776
4.10504
4.10471
4.10438
4.10367
4.10273
4.10347
0.94757
0.947885
0.94806
0.948335
0.948654
0.94828
30.2889
30.2879
30.2872
30.2851
30.284
30.2894
25.8812
25.882
25.8824
25.8797
25.8793
25.878
5.63114
5.63215
5.6328
5.63351
5.63421
5.63396
4.54692
4.54978
4.55567
4.5547
4.5599
4.54675
39.4232
39.422
39.4235
39.4211
39.4298
39.4118
-0.898289
-0.895301
-0.892898
-0.889491
-0.889048
-0.884558
52.4643
52.3554
52.3675
52.4669
52.8662
51.7493
26.7733
26.7673
26.7658
26.7536
26.7632
26.7249
-25.842
-25.8411
-25.8433
-25.8391
-25.8401
-25.8362
4.42161
4.42066
4.41863
4.41623
4.41312
4.41085
0.584005
0.582844
0.581136
0.579274
0.575312
0.576695
3.95803
3.95732
3.95777
3.95499
3.95854
3.95262
5.5342
5.53314
5.52876
5.52526
5.51778
5.5128
-1.54235
-1.54453
-1.54855
-1.55034
-1.56906
-1.55623
6.64291
6.642
6.64278
6.63852
6.65315
6.63517
10.67
10.6689
10.6626
10.6583
10.6485
10.63
-5.21694
-5.21925
-5.22852
-5.22549
-5.27109
-5.27317
9.01502
9.01185
9.01297
9.0068
9.01454
9.06088
9.17948
9.18017
9.16776
9.17203
9.16685
9.12457
-1.42369
-1.42431
-1.4351
-1.43089
-1.46861
-1.43574
18.7026
18.705
18.6935
18.7079
18.8276
18.5784
22.5588
22.5593
22.5445
22.5581
22.574
22.5027
143.357
143.363
143.319
143.383
143.738
142.849
76.8678
76.8835
76.8477
76.8991
77.2414
76.4944
520.085
520.067
520.046
520.114
520.875
519.182
412.344
412.366
412.312
412.442
413.141
411.466
-28.7779
-28.7786
-28.7863
-28.7715
-28.8371
-28.7006
0.116852
0.116853
0.116854
0.11686
0.116867
0.116874
0.0727609
0.0727632
0.0727646
0.072768
0.0727725
0.0727767
0.0247231
0.0247235
0.0247241
0.0247251
0.0247266
0.0247279
0.124019
0.124022
0.124025
0.124032
0.12404
0.124049
0.0773169
0.0773194
0.0773218
0.0773255
0.0773302
0.0773345
0.0263109
0.0263116
0.0263123
0.0263133
0.0263146
0.0263154
0.138957
0.138958
0.138962
0.138967
0.138974
0.138981
0.0868706
0.0868721
0.0868735
0.0868756
0.0868784
0.0868804
0.0296865
0.0296867
0.0296868
0.0296868
0.029687
0.0296869
0.162911
0.162907
0.162908
0.162909
0.162913
0.162916
0.102367
0.102364
0.102363
0.102363
0.102363
0.102364
0.0353299
0.0353287
0.0353276
0.0353268
0.0353265
0.0353268
0.198088
0.198076
0.19807
0.198067
0.198066
0.198068
0.125589
0.125581
0.125577
0.125576
0.125578
0.125583
0.0443203
0.044318
0.0443167
0.0443163
0.0443175
0.0443209
0.248026
0.248005
0.247995
0.247991
0.247994
0.248006
0.159669
0.15966
0.159659
0.159663
0.159673
0.159689
0.0590886
0.0590873
0.059088
0.0590907
0.0590962
0.0591047
0.318474
0.318455
0.31845
0.318456
0.318473
0.318501
0.210524
0.210523
0.210531
0.210544
0.210563
0.210585
0.0853654
0.0853692
0.0853741
0.0853808
0.0853891
0.0853959
0.417165
0.417156
0.417153
0.417156
0.417165
0.417169
0.287647
0.287652
0.287655
0.287655
0.287653
0.287641
0.134044
0.134047
0.134048
0.134047
0.134042
0.134032
0.570281
0.570253
0.570215
0.570171
0.570123
0.570093
0.405943
0.405921
0.405888
0.405842
0.405797
0.40576
0.2361
0.236087
0.236071
0.236047
0.236028
0.236016
0.817507
0.817429
0.817348
0.817255
0.817182
0.817162
0.587206
0.587133
0.587078
0.586989
0.586952
0.586954
0.456816
0.456785
0.456762
0.456706
0.456709
0.456683
1.28111
1.28101
1.28087
1.28071
1.28059
1.28057
0.811807
0.811681
0.811547
0.811388
0.811304
0.81133
0.995756
0.995675
0.995679
0.995438
0.995538
0.995193
2.18118
2.18087
2.18028
2.17959
2.17877
2.17839
1.01297
1.01254
1.01201
1.01134
1.01062
1.01077
2.09216
2.09188
2.09196
2.09102
2.09154
2.09021
)
;

boundaryField
{
    seabed_topleft_surface
    {
        type            fixedFluxPressure;
        gradient        uniform 0;
        value           nonuniform List<scalar> 
72
(
32405.9
32405.9
32405.9
32405.9
32405.9
32405.9
30990.6
30990.6
30990.6
30990.6
30990.6
30990.6
26824.7
26824.7
26824.7
26824.7
26824.7
26824.7
23092.9
23092.9
23092.8
23092.8
23092.8
23092.8
20337.7
20337.7
20337.7
20337.7
20337.7
20337.7
18168.4
18168.4
18168.4
18168.3
18168.3
18168.3
16111.7
16111.6
16111.6
16111.6
16111.6
16111.6
14108.4
14108.3
14108.3
14108.3
14108.3
14108.3
13174.7
13174.6
13174.6
13174.5
13174.5
13174.5
15882.2
15882.1
15882.1
15882
15882
15882
21978.9
21978.8
21978.8
21978.9
21979
21978.9
31473
31473.1
31473.1
31473.2
31473.3
31473.3
)
;
    }
    seabed_topright_surface
    {
        type            fixedFluxPressure;
        gradient        uniform 0;
        value           nonuniform List<scalar> 
72
(
0.21888
0.218861
0.218847
0.218845
0.21885
0.218852
0.230742
0.230725
0.230723
0.230727
0.230739
0.23075
0.255027
0.255013
0.255017
0.255027
0.255042
0.255058
0.292566
0.292561
0.292573
0.292588
0.292604
0.292621
0.34441
0.344419
0.344441
0.344455
0.344467
0.344478
0.411475
0.411498
0.411516
0.411522
0.411521
0.411517
0.49355
0.493584
0.493594
0.493586
0.493568
0.493547
0.589598
0.589641
0.589651
0.589639
0.589616
0.589594
0.697903
0.697961
0.697978
0.697971
0.697951
0.697931
0.810112
0.81016
0.810154
0.810126
0.810086
0.810046
0.919679
0.919694
0.919661
0.919607
0.919529
0.919449
0.987821
0.987804
0.987771
0.987734
0.987698
0.987659
)
;
    }
    breakwater_top_surface
    {
        type            fixedFluxPressure;
        gradient        uniform 0;
        value           nonuniform List<scalar> 
36
(
4.42161
4.42066
4.41863
4.41623
4.41312
4.41085
5.5342
5.53314
5.52876
5.52526
5.51778
5.5128
10.67
10.6689
10.6626
10.6583
10.6485
10.63
9.17948
9.18017
9.16776
9.17203
9.16685
9.12457
22.5588
22.5593
22.5445
22.5581
22.574
22.5027
520.085
520.067
520.046
520.114
520.875
519.182
)
;
    }
    breakwater_left_surface
    {
        type            fixedFluxPressure;
        gradient        uniform 0;
        value           nonuniform List<scalar> 
24
(
31473
31473.1
31473.1
31473.2
31473.3
31473.3
26440.2
26440.1
26440.1
26440.1
26439.9
26440.3
16461.4
16461.3
16461.3
16461.5
16461.5
16461.4
10762.7
10762.1
10762.1
10762.8
10765.2
10758.5
)
;
    }
    breakwater_right_surface
    {
        type            fixedFluxPressure;
        gradient        uniform 0;
        value           nonuniform List<scalar> 
24
(
0.987821
0.987804
0.987771
0.987734
0.987698
0.987659
1.13603
1.13597
1.13591
1.13585
1.1358
1.13577
1.14488
1.1448
1.14475
1.14472
1.14472
1.14476
1.67993
1.67992
1.6799
1.67987
1.67988
1.67995
)
;
    }
    water_front_surface
    {
        type            fixedFluxPressure;
        gradient        uniform 0;
        value           nonuniform List<scalar> 
186
(
32405.9
30990.6
26824.7
23092.9
20337.7
18168.4
16111.7
14108.4
13174.7
15882.2
21978.9
31473
31588.6
28392
23717.4
19411.7
15886.6
12964.8
9157.19
5238.93
1804.14
2187.42
5917.54
26440.2
29383
11450.7
6391.41
3043.23
28.5865
-50.3577
-50.3776
-31.9326
8.04329
111.686
427.804
16461.4
7406.56
5.77879
-11.1753
-2.20414
4.35414
-0.312828
-13.8083
-22.7262
-22.3274
27.3896
9.15613
10762.7
0.21888
0.230742
0.255027
0.292566
0.34441
0.411475
0.49355
0.589598
0.697903
0.810112
0.919679
0.987821
0.207503
0.219039
0.242705
0.279508
0.330973
0.399284
0.488003
0.599167
0.730732
0.876396
1.02781
1.13603
0.185772
0.196448
0.218438
0.252906
0.301598
0.366491
0.448859
0.548063
0.67154
0.818707
0.996041
1.14488
0.154963
0.1642
0.183348
0.21376
0.257764
0.319453
0.407317
0.533945
0.710122
0.949893
1.2846
1.67993
-20.8109
-12.2324
-8.83481
-10.6744
-0.21826
-8.22058
-5.9334
-6.44936
-4.41457
-7.18748
-4.00941
-5.20157
-7.06621
-1.48868
-4.17542
-11.1021
-4.07329
-4.3696
-8.9581
-4.17459
-2.87645
-3.87069
-2.00127
-0.811022
4.37811
4.10504
0.94757
30.2889
25.8812
5.63114
4.54692
39.4232
-0.898289
52.4643
26.7733
-25.842
4.42161
0.584005
3.95803
5.5342
-1.54235
6.64291
10.67
-5.21694
9.01502
9.17948
-1.42369
18.7026
22.5588
143.357
76.8678
520.085
412.344
-28.7779
0.116852
0.0727609
0.0247231
0.124019
0.0773169
0.0263109
0.138957
0.0868706
0.0296865
0.162911
0.102367
0.0353299
0.198088
0.125589
0.0443203
0.248026
0.159669
0.0590886
0.318474
0.210524
0.0853654
0.417165
0.287647
0.134044
0.570281
0.405943
0.2361
0.817507
0.587206
0.456816
1.28111
0.811807
0.995756
2.18118
1.01297
2.09216
)
;
    }
    water_back_surface
    {
        type            fixedFluxPressure;
        gradient        uniform 0;
        value           nonuniform List<scalar> 
186
(
32405.9
30990.6
26824.7
23092.8
20337.7
18168.3
16111.6
14108.3
13174.5
15882
21978.9
31473.3
31588.7
28392.3
23717.4
19411.7
15886.5
12964.6
9156.83
5238.56
1804.01
2187.27
5917.06
26440.3
29383.5
11451.2
6391.44
3043.2
28.5407
-50.3589
-50.3687
-31.9245
8.02923
111.638
427.653
16461.4
7407.66
5.73014
-11.2086
-2.21323
4.35168
-0.314061
-13.8058
-22.7208
-22.3275
27.4127
9.14487
10758.5
0.218852
0.23075
0.255058
0.292621
0.344478
0.411517
0.493547
0.589594
0.697931
0.810046
0.919449
0.987659
0.207512
0.219077
0.242759
0.279572
0.331021
0.399274
0.487945
0.599134
0.730705
0.876166
1.02717
1.13577
0.185793
0.19649
0.21849
0.252956
0.301614
0.366449
0.448804
0.548042
0.671368
0.818026
0.995085
1.14476
0.154988
0.164239
0.183387
0.213786
0.25775
0.319397
0.40727
0.533867
0.709768
0.949179
1.28388
1.67995
-20.7454
-12.2167
-8.83136
-10.6742
-0.21452
-8.21944
-5.94093
-6.45032
-4.41455
-7.19136
-4.01023
-5.20119
-7.06811
-1.48868
-4.17544
-11.1024
-4.0735
-4.36981
-8.9568
-4.17434
-2.87634
-3.86987
-2.00112
-0.811297
4.3776
4.10347
0.94828
30.2894
25.878
5.63396
4.54675
39.4118
-0.884558
51.7493
26.7249
-25.8362
4.41085
0.576695
3.95262
5.5128
-1.55623
6.63517
10.63
-5.27317
9.06088
9.12457
-1.43574
18.5784
22.5027
142.849
76.4944
519.182
411.466
-28.7006
0.116874
0.0727767
0.0247279
0.124049
0.0773345
0.0263154
0.138981
0.0868804
0.0296869
0.162916
0.102364
0.0353268
0.198068
0.125583
0.0443209
0.248006
0.159689
0.0591047
0.318501
0.210585
0.0853959
0.417169
0.287641
0.134032
0.570093
0.40576
0.236016
0.817162
0.586954
0.456683
1.28057
0.81133
0.995193
2.17839
1.01077
2.09021
)
;
    }
    water_left_surface
    {
        type            fixedFluxPressure;
        gradient        uniform 0;
        value           nonuniform List<scalar> 
42
(
32405.9
32405.9
32405.9
32405.9
32405.9
32405.9
31588.6
31588.6
31588.6
31588.6
31588.6
31588.7
29383
29383
29383.1
29383.1
29383.1
29383.5
7406.56
7406.47
7406.81
7406.48
7406.39
7407.66
-20.8109
-20.8095
-20.8012
-20.8036
-20.7915
-20.7454
-12.2324
-12.2312
-12.229
-12.2264
-12.222
-12.2167
-8.83481
-8.83469
-8.83411
-8.83323
-8.83214
-8.83136
)
;
    }
    water_right_surface
    {
        type            fixedFluxPressure;
        gradient        uniform 0;
        value           nonuniform List<scalar> 
42
(
0.21888
0.218861
0.218847
0.218845
0.21885
0.218852
0.207503
0.207494
0.207488
0.207492
0.207503
0.207512
0.185772
0.185768
0.185765
0.185772
0.185784
0.185793
0.154963
0.154962
0.154961
0.154968
0.154978
0.154988
0.116852
0.116853
0.116854
0.11686
0.116867
0.116874
0.0727609
0.0727632
0.0727646
0.072768
0.0727725
0.0727767
0.0247231
0.0247235
0.0247241
0.0247251
0.0247266
0.0247279
)
;
    }
    water_top_surface
    {
        type            totalPressure;
        rho             rho;
        psi             none;
        gamma           1;
        p0              uniform 0;
        value           nonuniform List<scalar> 
180
(
-7.31217
-7.31287
-7.31287
-7.31258
-7.3126
-7.31286
-8.73874
-8.73947
-8.73919
-8.73889
-8.73881
-8.73818
-1.48568
-1.48588
-1.48581
-1.48579
-1.48576
-1.48554
-4.04402
-4.04417
-4.04397
-4.04393
-4.04397
-4.04362
-2.36988
-2.36994
-2.36991
-2.36995
-2.37006
-2.36987
-2.52761
-2.52769
-2.52774
-2.52783
-2.52795
-2.52776
-2.29564
-2.29553
-2.29548
-2.29553
-2.29565
-2.29574
-1.23779
-1.23771
-1.23765
-1.23769
-1.2378
-1.2379
-0.933204
-0.933194
-0.933021
-0.93279
-0.932638
-0.932261
-0.0482558
-0.0482001
-0.0481054
-0.0480751
-0.047923
-0.0480675
-2.96141
-2.96056
-2.95958
-2.95683
-2.95944
-2.95292
-0.00366028
-0.00352685
-0.00350117
-0.00340294
-0.0051849
-0.00176762
-0.0742721
-0.0743305
-0.0742811
-0.0743088
-0.0744404
-0.0740576
-0.229931
-0.229818
-0.229766
-0.229968
-0.228549
-0.231457
0
0
0
0
0
0
0
0
0
0
0
0
0
0
0
0
0
0
0
0
0
0
0
0
-0.000130945
-0.000130942
-0.000130942
-0.000130942
-0.000130942
-0.000130945
-0.000148097
-0.000148093
-0.000148093
-0.000148092
-0.000148093
-0.000148097
-0.000187247
-0.000187241
-0.000187241
-0.000187241
-0.000187241
-0.000187246
-0.000260371
-0.000260363
-0.000260362
-0.000260362
-0.000260363
-0.000260371
-0.000391114
-0.000391105
-0.000391107
-0.000391109
-0.000391111
-0.000391126
-0.000626017
-0.000626027
-0.00062604
-0.00062605
-0.000626057
-0.000626081
-0.00105256
-0.00105267
-0.00105273
-0.00105276
-0.00105277
-0.0010528
-0.00186232
-0.00186276
-0.00186295
-0.001863
-0.00186294
-0.00186284
-0.00330536
-0.00330656
-0.00330686
-0.0033067
-0.00330611
-0.00330522
-0.00615326
-0.00615516
-0.00615467
-0.006153
-0.00614997
-0.00614621
-0.0104598
-0.0104598
-0.0104552
-0.0104499
-0.0104405
-0.0104341
-0.0185729
-0.0185676
-0.0185538
-0.0185495
-0.0185328
-0.0185342
)
;
    }
}


// ************************************************************************* //
