/*--------------------------------*- C++ -*----------------------------------*\
| =========                 |                                                 |
| \\      /  F ield         | OpenFOAM: The Open Source CFD Toolbox           |
|  \\    /   O peration     | Version:  v1612+                                |
|   \\  /    A nd           | Web:      www.OpenFOAM.com                      |
|    \\/     M anipulation  |                                                 |
\*---------------------------------------------------------------------------*/
FoamFile
{
    version     2.0;
    format      ascii;
    class       volVectorField;
    location    "2.1";
    object      U;
}
// * * * * * * * * * * * * * * * * * * * * * * * * * * * * * * * * * * * * * //

dimensions      [0 1 -1 0 0 0 0];

internalField   nonuniform List<vector> 
1116
(
(0.632032 -2.90642e-06 -0.500688)
(0.632035 -2.4696e-06 -0.500695)
(0.632034 8.1764e-07 -0.500695)
(0.632034 4.36629e-08 -0.500694)
(0.632036 5.58263e-07 -0.500695)
(0.632034 4.21535e-07 -0.500691)
(1.89328 -6.705e-06 -0.641835)
(1.89329 -2.6082e-06 -0.641848)
(1.89329 -5.27964e-07 -0.641845)
(1.89329 -8.59986e-07 -0.641845)
(1.89329 7.18714e-08 -0.641846)
(1.89328 4.22051e-06 -0.641835)
(3.03414 -6.0987e-06 -0.507744)
(3.03415 -3.1533e-07 -0.507754)
(3.03415 -3.44011e-06 -0.50775)
(3.03415 -3.33217e-06 -0.507751)
(3.03415 -2.67714e-06 -0.507754)
(3.03413 5.67649e-06 -0.507741)
(3.88124 -7.54117e-06 -0.3739)
(3.88126 -3.09652e-06 -0.373908)
(3.88125 -8.14105e-06 -0.373904)
(3.88125 -7.07472e-06 -0.373908)
(3.88125 -5.44063e-06 -0.373913)
(3.88123 5.34051e-06 -0.373901)
(4.52172 -9.91579e-06 -0.226049)
(4.52174 -7.21047e-06 -0.226056)
(4.52174 -1.17635e-05 -0.226052)
(4.52173 -1.02056e-05 -0.226057)
(4.52174 -8.69208e-06 -0.226066)
(4.5217 2.83024e-06 -0.226054)
(5.05665 -1.19369e-05 -0.139079)
(5.05667 -1.04353e-05 -0.139088)
(5.05667 -1.33701e-05 -0.139083)
(5.05667 -1.19089e-05 -0.13909)
(5.05668 -1.01158e-05 -0.139101)
(5.05663 1.18984e-06 -0.139091)
(5.55217 -8.87272e-06 -0.12069)
(5.5522 -7.38745e-06 -0.120705)
(5.55219 -9.86893e-06 -0.120701)
(5.55219 -9.32939e-06 -0.120708)
(5.5522 -5.38844e-06 -0.120721)
(5.55215 3.43485e-06 -0.120714)
(6.11052 -6.10955e-06 -0.146534)
(6.11057 -3.4918e-06 -0.146563)
(6.11056 -3.63078e-06 -0.146559)
(6.11057 -6.40352e-06 -0.146564)
(6.11058 6.06947e-07 -0.146577)
(6.11053 6.72861e-06 -0.14657)
(6.65273 -7.85933e-06 -0.0507333)
(6.6528 -2.50256e-06 -0.0507697)
(6.65279 1.55562e-06 -0.0507728)
(6.65279 -5.28436e-06 -0.0507759)
(6.6528 3.73567e-06 -0.050786)
(6.65275 7.86789e-06 -0.0507828)
(6.24052 -6.7902e-06 0.124586)
(6.24061 -5.64833e-07 0.124541)
(6.24061 3.73651e-06 0.124536)
(6.24061 -9.4056e-08 0.124533)
(6.24063 4.41828e-06 0.124526)
(6.24055 4.41735e-06 0.124515)
(4.31391 8.41909e-06 0.440994)
(4.31402 1.17851e-05 0.440967)
(4.31399 2.28959e-06 0.440961)
(4.31399 6.73763e-06 0.44096)
(4.31404 -4.4816e-06 0.440937)
(4.31395 -8.58257e-06 0.440954)
(2.14798 -5.5379e-05 0.875119)
(2.14812 -5.71736e-05 0.875061)
(2.14808 -1.8775e-05 0.875083)
(2.14809 -3.63329e-05 0.875073)
(2.14814 1.36355e-05 0.875074)
(2.14801 3.79593e-05 0.875065)
(0.754916 -4.68532e-06 -1.99519)
(0.754916 -2.59795e-06 -1.99522)
(0.754915 -1.17231e-06 -1.99521)
(0.754921 -2.91327e-06 -1.9952)
(0.754921 -7.52307e-06 -1.99521)
(0.754904 -2.9338e-06 -1.99521)
(2.23957 2.2437e-06 -1.96508)
(2.23959 -1.14063e-06 -1.96511)
(2.23958 -4.42765e-06 -1.9651)
(2.23958 -5.4983e-06 -1.9651)
(2.23958 -6.39482e-06 -1.9651)
(2.23957 -6.25353e-06 -1.96508)
(3.25919 3.2332e-06 -1.37178)
(3.25922 9.43616e-07 -1.37181)
(3.25922 -1.06252e-05 -1.37179)
(3.25921 -8.51179e-06 -1.3718)
(3.25921 -1.29827e-05 -1.37181)
(3.25918 -9.07357e-06 -1.37178)
(4.09565 -1.13345e-06 -1.1389)
(4.09571 -6.85027e-06 -1.13892)
(4.0957 -1.25692e-05 -1.13891)
(4.09569 -8.957e-06 -1.13892)
(4.0957 -1.19433e-05 -1.13895)
(4.09564 -1.04599e-05 -1.13891)
(4.79228 9.92229e-06 -1.01976)
(4.79235 -1.51227e-06 -1.0198)
(4.79233 -9.4146e-06 -1.01979)
(4.79233 -7.0424e-06 -1.01981)
(4.79234 -6.34395e-06 -1.01983)
(4.79228 -1.31637e-05 -1.0198)
(5.33498 1.92204e-05 -1.03029)
(5.33506 3.59433e-06 -1.03034)
(5.33505 -1.38977e-06 -1.03033)
(5.33504 -3.60405e-06 -1.03034)
(5.33506 1.94478e-06 -1.03036)
(5.335 -1.38378e-05 -1.03034)
(6.1154 3.30738e-05 -1.14804)
(6.11554 5.04963e-06 -1.14809)
(6.11551 -4.98621e-06 -1.14809)
(6.11551 -1.05294e-05 -1.1481)
(6.11553 2.9089e-06 -1.14812)
(6.11546 -1.87024e-05 -1.14809)
(7.43308 5.54786e-05 -1.21141)
(7.43335 7.95765e-06 -1.21148)
(7.43328 -2.37421e-05 -1.21146)
(7.43328 -3.26134e-05 -1.21148)
(7.43333 -7.76785e-06 -1.2115)
(7.43319 -3.08283e-05 -1.21146)
(8.27478 9.08956e-05 -0.146531)
(8.27521 4.86656e-05 -0.14658)
(8.27505 -4.83883e-06 -0.146553)
(8.27505 -3.5395e-05 -0.146559)
(8.27511 -2.45382e-06 -0.146588)
(8.27493 -2.40582e-05 -0.146502)
(9.53465 6.05563e-05 1.6539)
(9.535 4.23605e-05 1.65385)
(9.53488 7.70982e-06 1.6539)
(9.53488 -1.93358e-05 1.6539)
(9.53492 -1.75612e-05 1.65388)
(9.53479 -3.75551e-05 1.65392)
(7.05204 3.20305e-05 3.31491)
(7.0523 3.27821e-05 3.31494)
(7.05218 2.08312e-05 3.31497)
(7.05217 -5.19546e-05 3.31497)
(7.05217 3.09632e-05 3.31497)
(7.0521 7.1903e-05 3.31494)
(4.84507 -5.46219e-05 4.16596)
(4.84541 -4.23956e-05 4.16588)
(4.84535 1.05917e-05 4.16591)
(4.84537 -6.347e-06 4.16588)
(4.84532 6.65201e-05 4.16584)
(4.84543 6.7417e-05 4.16594)
(-0.306118 -2.26683e-06 -3.39992)
(-0.306156 -7.40808e-07 -3.39996)
(-0.306135 -5.69189e-08 -3.39995)
(-0.306124 2.32803e-06 -3.39994)
(-0.306132 -1.40861e-05 -3.39995)
(-0.306141 -9.6121e-06 -3.39995)
(2.16169 2.40053e-05 -3.71107)
(2.16171 -7.14457e-06 -3.71112)
(2.16171 1.12175e-06 -3.71111)
(2.16171 2.94221e-06 -3.7111)
(2.16171 -1.98143e-06 -3.7111)
(2.1617 -2.96099e-05 -3.71109)
(3.66723 2.95149e-05 -2.42892)
(3.66726 -1.3167e-05 -2.42893)
(3.66725 1.28355e-05 -2.42893)
(3.66724 -9.77912e-07 -2.42894)
(3.66727 1.74834e-05 -2.42895)
(3.66723 -3.37353e-05 -2.42893)
(4.54619 6.74647e-05 -2.1944)
(4.54621 1.50204e-05 -2.19446)
(4.5462 5.46391e-05 -2.19446)
(4.54621 8.13538e-06 -2.19447)
(4.54625 3.60811e-05 -2.19448)
(4.54623 -5.1861e-05 -2.19448)
(5.95773 0.000144184 -1.58415)
(5.95789 0.000117927 -1.58417)
(5.9579 0.000170779 -1.5842)
(5.95793 6.70639e-05 -1.58422)
(5.95798 0.000103847 -1.5842)
(5.95798 -4.70158e-05 -1.58425)
(8.24408 0.000177347 -2.32408)
(8.24484 0.000167262 -2.3241)
(8.24487 0.000204519 -2.32409)
(8.24485 6.46497e-05 -2.32409)
(8.24484 0.000108664 -2.32407)
(8.24486 -4.6126e-05 -2.32409)
(12.1887 1.52176e-05 -3.08646)
(12.1892 -0.00011355 -3.08643)
(12.1892 -5.38957e-05 -3.08642)
(12.1891 -0.000158931 -3.08645)
(12.189 -0.000119807 -3.08645)
(12.1889 -0.000170781 -3.08639)
(14.7481 -0.000163727 -2.7079)
(14.7484 -0.000492735 -2.7078)
(14.7483 -0.000466278 -2.70777)
(14.7481 -0.00051641 -2.70784)
(14.7482 -0.000500204 -2.70791)
(14.7472 -0.000410119 -2.7078)
(13.5233 -7.66099e-05 -0.702716)
(13.5228 -0.000469432 -0.702431)
(13.5224 -0.000566514 -0.702391)
(13.522 -0.000581943 -0.702521)
(13.5225 -0.000545854 -0.702679)
(13.5204 -0.000416392 -0.702578)
(8.50911 0.000192302 2.70016)
(8.50957 0.000220613 2.70045)
(8.50879 0.000144146 2.70046)
(8.5087 -7.10302e-06 2.70036)
(8.50871 -9.42602e-05 2.70032)
(8.50819 -0.000131426 2.69992)
(4.83577 0.000145625 6.33594)
(4.83623 0.000248698 6.33609)
(4.83572 0.000248484 6.33619)
(4.83563 -3.64193e-05 6.33611)
(4.83639 0.000253062 6.33566)
(4.83487 0.000333347 6.33625)
(7.64722 -5.99025e-05 8.56625)
(7.64786 -4.10745e-06 8.56632)
(7.64783 5.24608e-05 8.56631)
(7.64787 9.41166e-05 8.56626)
(7.64828 -6.75293e-06 8.56623)
(7.64746 -0.000112862 8.5666)
(-2.29058 2.88578e-05 -4.14138)
(-2.29065 -2.02273e-05 -4.14141)
(-2.29057 1.2383e-05 -4.14141)
(-2.29062 1.69658e-05 -4.14139)
(-2.29065 -2.09286e-05 -4.14138)
(-2.29042 -6.6411e-05 -4.14142)
(1.64868 9.24393e-06 -5.56669)
(1.64924 -2.36476e-05 -5.56664)
(1.64779 3.16427e-05 -5.56685)
(1.64936 2.42832e-05 -5.56663)
(1.65035 0.000176258 -5.5665)
(1.64558 8.54375e-05 -5.56717)
(4.09545 -2.28736e-05 -4.02331)
(4.09535 -2.21415e-05 -4.02326)
(4.09529 8.88693e-05 -4.02333)
(4.09538 8.24293e-05 -4.02332)
(4.0955 0.000276076 -4.02329)
(4.09549 0.000163233 -4.02344)
(2.72816 0.000102086 -3.43672)
(2.72776 0.000119033 -3.43675)
(2.72787 0.000233436 -3.43679)
(2.728 0.000133853 -3.43679)
(2.72808 0.000151091 -3.43673)
(2.72821 1.43629e-05 -3.43687)
(2.35596 0.000145314 -1.66294)
(2.35628 0.000235705 -1.66267)
(2.35645 0.000355856 -1.66272)
(2.35661 0.000186424 -1.66275)
(2.35667 0.00019135 -1.66264)
(2.35664 2.01586e-05 -1.66276)
(-0.907162 -7.93778e-05 -5.09132)
(-0.907023 -8.99051e-05 -5.09121)
(-0.906537 -5.13912e-05 -5.09096)
(-0.906319 -5.41075e-05 -5.0908)
(-0.906332 3.52383e-05 -5.09073)
(-0.906198 6.0707e-05 -5.09059)
(-3.29702 -0.000155979 -4.64316)
(-3.29713 -0.000207285 -4.64323)
(-3.29684 -0.000192696 -4.64322)
(-3.29676 -0.000146708 -4.64318)
(-3.29681 -6.53195e-05 -4.64321)
(-3.29642 9.55575e-06 -4.64314)
(-3.25804 -7.32745e-05 -1.10141)
(-3.25825 -0.000120648 -1.10157)
(-3.25805 -0.000128156 -1.10173)
(-3.25807 -4.65363e-05 -1.10185)
(-3.25804 -0.000115515 -1.10197)
(-3.2578 -0.000119365 -1.10236)
(-2.18959 0.000153274 3.67844)
(-2.18945 -1.85699e-05 3.67869)
(-2.18921 -4.85618e-05 3.67875)
(-2.18936 0.000213314 3.67857)
(-2.189 0.000225483 3.67857)
(-2.19058 8.03086e-05 3.67711)
(4.0563 0.000314807 9.43597)
(4.05761 0.000307988 9.43672)
(4.05616 0.000282858 9.4367)
(4.05633 0.00053254 9.43644)
(4.05588 3.75397e-05 9.43638)
(4.05716 -0.000306651 9.43417)
(-1.29874 0.000603565 12.0066)
(-1.29785 0.000793856 12.0067)
(-1.29912 0.000680077 12.0076)
(-1.299 0.000203382 12.0075)
(-1.29636 0.000698546 12.0038)
(-1.30159 0.000754305 12.0098)
(9.65515 -1.57543e-05 12.0529)
(9.656 8.32321e-05 12.053)
(9.65596 5.34866e-05 12.0529)
(9.65603 0.000127379 12.0529)
(9.65804 -0.000164754 12.0546)
(9.65373 -0.000334624 12.0514)
(-0.00167864 4.92014e-07 -0.00169992)
(-0.00167861 3.38129e-07 -0.00170002)
(-0.0016786 -4.51741e-08 -0.00170003)
(-0.00167854 6.81759e-08 -0.00170008)
(-0.0016785 -1.1126e-07 -0.00170009)
(-0.00167843 -7.05182e-08 -0.00170017)
(-0.0051005 5.17504e-07 -0.00176608)
(-0.00510038 3.95852e-07 -0.00176616)
(-0.00510039 -1.21034e-07 -0.00176618)
(-0.00510025 -8.0667e-08 -0.00176623)
(-0.00510015 -3.0986e-07 -0.00176626)
(-0.00510003 -2.15245e-07 -0.00176636)
(-0.00870791 5.72406e-07 -0.00188735)
(-0.00870764 5.50075e-07 -0.00188728)
(-0.00870759 -1.23329e-07 -0.00188727)
(-0.00870738 -2.57076e-07 -0.00188731)
(-0.00870718 -4.90675e-07 -0.00188735)
(-0.00870705 -3.20287e-07 -0.00188746)
(-0.0126035 5.66989e-07 -0.00204209)
(-0.0126029 5.37259e-07 -0.00204161)
(-0.0126026 -3.20982e-07 -0.00204149)
(-0.0126023 -6.37313e-07 -0.00204147)
(-0.0126018 -8.68619e-07 -0.00204152)
(-0.0126016 -5.06578e-07 -0.00204167)
(-0.016871 4.54677e-07 -0.00217928)
(-0.01687 2.13964e-07 -0.00217799)
(-0.0168692 -9.02578e-07 -0.00217759)
(-0.0168684 -1.41493e-06 -0.00217747)
(-0.0168675 -1.60519e-06 -0.00217756)
(-0.0168668 -8.33188e-07 -0.00217785)
(-0.0215872 1.59643e-07 -0.0022441)
(-0.021585 -7.32354e-07 -0.00224169)
(-0.0215832 -2.36523e-06 -0.00224099)
(-0.0215814 -3.07994e-06 -0.00224087)
(-0.0215795 -3.09673e-06 -0.0022412)
(-0.0215778 -1.46608e-06 -0.00224201)
(-0.0268404 -8.93411e-07 -0.0023326)
(-0.0268358 -3.35161e-06 -0.00232954)
(-0.026832 -5.52691e-06 -0.002329)
(-0.0268286 -6.20486e-06 -0.00232938)
(-0.0268252 -5.76263e-06 -0.00233048)
(-0.0268213 -2.59528e-06 -0.00233249)
(-0.0323794 -2.74668e-06 -0.00286979)
(-0.0323704 -7.67786e-06 -0.00286828)
(-0.032364 -1.02297e-05 -0.00286905)
(-0.032359 -1.03436e-05 -0.00287071)
(-0.032354 -9.07979e-06 -0.00287313)
(-0.0323477 -3.99463e-06 -0.00287673)
(-0.0373693 -5.10947e-06 -0.00419239)
(-0.0373545 -1.21534e-05 -0.00419528)
(-0.0373465 -1.36942e-05 -0.00419838)
(-0.0373414 -1.23659e-05 -0.00420155)
(-0.0373364 -1.00811e-05 -0.00420493)
(-0.0373288 -4.31674e-06 -0.00420905)
(-0.0382904 -5.53509e-06 -0.0053765)
(-0.038269 -1.12955e-05 -0.0053861)
(-0.0382603 -1.00994e-05 -0.00539223)
(-0.0382559 -7.23805e-06 -0.00539634)
(-0.0382521 -4.82033e-06 -0.00539924)
(-0.0382453 -1.88112e-06 -0.00540199)
(-0.036418 -3.63785e-06 -0.00354676)
(-0.0363936 -5.66818e-06 -0.00355907)
(-0.0363857 -2.65844e-06 -0.00356305)
(-0.0363825 1.6617e-07 -0.00356416)
(-0.0363799 2.08975e-06 -0.00356384)
(-0.0363745 1.32892e-06 -0.00356303)
(-0.0198487 2.26706e-06 0.00702374)
(-0.0198365 4.85764e-06 0.00701722)
(-0.0198329 4.65471e-06 0.00701545)
(-0.0198313 3.96314e-06 0.00701426)
(-0.0198297 3.73295e-06 0.00701322)
(-0.0198268 1.89946e-06 0.00701244)
(-0.00165693 2.6775e-07 -0.00497757)
(-0.00165687 8.94824e-08 -0.0049777)
(-0.00165685 -1.37211e-07 -0.00497771)
(-0.00165679 -2.00823e-08 -0.00497776)
(-0.00165675 -2.08157e-07 -0.00497777)
(-0.00165668 -1.59166e-07 -0.00497787)
(-0.00504649 2.79523e-07 -0.00518694)
(-0.0050463 1.28625e-07 -0.00518704)
(-0.00504623 -2.20135e-07 -0.00518704)
(-0.00504605 -1.80137e-07 -0.0051871)
(-0.00504591 -4.02296e-07 -0.00518714)
(-0.00504577 -2.91314e-07 -0.00518727)
(-0.00866186 2.64451e-07 -0.00558504)
(-0.00866145 9.22039e-08 -0.00558481)
(-0.00866124 -4.07775e-07 -0.00558474)
(-0.00866094 -4.9181e-07 -0.00558475)
(-0.00866066 -7.24883e-07 -0.00558477)
(-0.0086605 -4.69044e-07 -0.0055849)
(-0.0126519 1.12951e-07 -0.00614631)
(-0.0126511 -2.55336e-07 -0.00614525)
(-0.0126506 -8.97289e-07 -0.00614491)
(-0.0126501 -1.07396e-06 -0.00614477)
(-0.0126496 -1.2182e-06 -0.00614479)
(-0.0126493 -6.75075e-07 -0.00614502)
(-0.0171274 -3.72381e-07 -0.00681295)
(-0.017126 -1.1854e-06 -0.00681027)
(-0.017125 -1.84169e-06 -0.00680933)
(-0.017124 -2.03956e-06 -0.00680896)
(-0.017123 -1.93768e-06 -0.00680905)
(-0.0171224 -9.30819e-07 -0.00680968)
(-0.0219873 -1.15967e-06 -0.00745605)
(-0.0219846 -2.88249e-06 -0.00745135)
(-0.0219824 -3.6164e-06 -0.00744987)
(-0.0219805 -3.6592e-06 -0.00744956)
(-0.0219785 -3.08926e-06 -0.00745024)
(-0.0219766 -1.32916e-06 -0.00745216)
(-0.0267431 -2.47807e-06 -0.00768413)
(-0.0267368 -5.66372e-06 -0.00767908)
(-0.0267324 -6.30867e-06 -0.0076783)
(-0.0267287 -5.84633e-06 -0.00767921)
(-0.0267251 -4.61473e-06 -0.00768171)
(-0.026721 -1.89469e-06 -0.00768639)
(-0.0307977 -4.27862e-06 -0.00631754)
(-0.0307834 -8.89027e-06 -0.00631739)
(-0.0307752 -8.50097e-06 -0.00631995)
(-0.0307696 -6.87733e-06 -0.00632375)
(-0.0307644 -4.88637e-06 -0.00632904)
(-0.0307582 -1.89551e-06 -0.0063368)
(-0.0343264 -5.85291e-06 -0.00162598)
(-0.0342978 -1.02473e-05 -0.00163625)
(-0.0342845 -6.77496e-06 -0.00164335)
(-0.0342775 -3.05057e-06 -0.00164954)
(-0.0342728 -3.04761e-07 -0.00165584)
(-0.034267 3.79786e-07 -0.00166333)
(-0.0377968 -7.32897e-06 0.0103667)
(-0.0377549 -9.72636e-06 0.0103471)
(-0.0377407 -5.107e-07 0.0103388)
(-0.0377363 6.39145e-06 0.0103349)
(-0.0377361 8.86925e-06 0.0103332)
(-0.0377364 4.35636e-06 0.0103326)
(-0.0434862 7.76332e-07 0.0252135)
(-0.0434392 6.44749e-06 0.0251924)
(-0.0434271 1.37259e-05 0.0251882)
(-0.0434266 1.71797e-05 0.02519)
(-0.0434316 1.6501e-05 0.025195)
(-0.0434407 7.43404e-06 0.0252025)
(-0.03464 7.51812e-06 0.0603865)
(-0.034615 1.32952e-05 0.0603726)
(-0.0346077 8.87136e-06 0.0603665)
(-0.0346063 4.35815e-06 0.0603622)
(-0.034608 1.3998e-06 0.0603593)
(-0.0346132 2.00974e-07 0.0603593)
(-0.00156184 1.04024e-07 -0.0080852)
(-0.0015618 -4.49124e-08 -0.00808525)
(-0.0015618 -1.28716e-07 -0.00808522)
(-0.00156176 -1.60685e-08 -0.00808524)
(-0.00156173 -1.42013e-07 -0.00808521)
(-0.00156172 -1.17124e-07 -0.00808527)
(-0.00477176 1.14955e-07 -0.0084591)
(-0.00477163 -1.10238e-08 -0.00845908)
(-0.00477159 -2.01295e-07 -0.00845905)
(-0.00477146 -1.55457e-07 -0.00845906)
(-0.00477137 -2.83278e-07 -0.00845905)
(-0.00477134 -2.02827e-07 -0.00845912)
(-0.0082396 1.11457e-07 -0.00918381)
(-0.00823932 -7.98716e-08 -0.00918347)
(-0.00823916 -4.27622e-07 -0.00918334)
(-0.00823895 -4.66506e-07 -0.00918326)
(-0.00823876 -6.05276e-07 -0.00918321)
(-0.00823874 -3.74274e-07 -0.00918324)
(-0.0121307 -6.47543e-08 -0.010232)
(-0.0121302 -4.65536e-07 -0.0102308)
(-0.0121299 -9.13122e-07 -0.0102304)
(-0.0121295 -1.0126e-06 -0.0102301)
(-0.0121292 -1.06713e-06 -0.01023)
(-0.0121293 -5.64735e-07 -0.0102302)
(-0.0166362 -4.92404e-07 -0.0114979)
(-0.0166353 -1.28092e-06 -0.0114952)
(-0.0166347 -1.694e-06 -0.0114942)
(-0.0166341 -1.72875e-06 -0.0114937)
(-0.0166336 -1.50611e-06 -0.0114937)
(-0.0166335 -6.78303e-07 -0.0114945)
(-0.0221433 -1.14856e-06 -0.0127746)
(-0.0221414 -2.57535e-06 -0.0127705)
(-0.02214 -2.83043e-06 -0.0127691)
(-0.0221388 -2.55977e-06 -0.0127689)
(-0.0221378 -1.90882e-06 -0.0127697)
(-0.0221371 -7.45775e-07 -0.0127722)
(-0.0296784 -2.10072e-06 -0.0136619)
(-0.029673 -4.22733e-06 -0.0136591)
(-0.0296699 -3.8259e-06 -0.0136591)
(-0.0296678 -2.88664e-06 -0.0136605)
(-0.0296661 -1.79998e-06 -0.0136636)
(-0.029665 -6.05723e-07 -0.0136693)
(-0.040187 -3.18491e-06 -0.0139397)
(-0.0401737 -5.32954e-06 -0.0139448)
(-0.0401684 -2.87556e-06 -0.013949)
(-0.040166 -4.20349e-07 -0.0139534)
(-0.0401653 1.12886e-06 -0.013959)
(-0.040166 8.08983e-07 -0.0139669)
(-0.0547073 -2.99906e-06 -0.0136143)
(-0.0546824 -1.96863e-06 -0.0136324)
(-0.0546766 4.77823e-06 -0.0136407)
(-0.0546779 8.85893e-06 -0.0136459)
(-0.0546834 9.77608e-06 -0.01365)
(-0.0546922 4.65381e-06 -0.013654)
(-0.0646362 1.73873e-06 -0.0103851)
(-0.0645998 1.06968e-05 -0.0104101)
(-0.0645966 2.13903e-05 -0.0104149)
(-0.0646062 2.5564e-05 -0.0104124)
(-0.0646238 2.35267e-05 -0.0104058)
(-0.064649 1.03301e-05 -0.010396)
(-0.0753074 7.89478e-06 -0.00637107)
(-0.0752657 1.98601e-05 -0.00638814)
(-0.0752662 2.5333e-05 -0.00638477)
(-0.0752852 2.59288e-05 -0.00637252)
(-0.0753166 2.16634e-05 -0.00635546)
(-0.0753603 9.12942e-06 -0.0063335)
(-0.0528696 2.13592e-06 0.0355904)
(-0.0528467 -1.44814e-06 0.0355774)
(-0.0528457 -1.04284e-05 0.0355716)
(-0.0528553 -1.59039e-05 0.03557)
(-0.0528722 -1.71367e-05 0.0355716)
(-0.052897 -8.38642e-06 0.0355792)
(-0.0013847 -5.24251e-08 -0.0108856)
(-0.00138467 -1.54756e-07 -0.0108855)
(-0.00138467 -8.64769e-08 -0.0108855)
(-0.00138464 2.51445e-08 -0.0108855)
(-0.00138463 -3.61336e-09 -0.0108854)
(-0.00138463 -2.31492e-08 -0.0108855)
(-0.0042537 -1.85569e-08 -0.0114584)
(-0.00425357 -1.1487e-07 -0.0114583)
(-0.00425351 -1.50441e-07 -0.0114582)
(-0.00425343 -7.81178e-08 -0.0114582)
(-0.00425338 -1.10808e-07 -0.0114582)
(-0.0042534 -8.67864e-08 -0.0114583)
(-0.00743926 -5.95453e-08 -0.0125944)
(-0.00743889 -2.49678e-07 -0.0125941)
(-0.00743874 -3.82626e-07 -0.012594)
(-0.00743859 -3.47009e-07 -0.0125938)
(-0.0074385 -3.60198e-07 -0.0125938)
(-0.00743858 -2.05953e-07 -0.0125938)
(-0.0112176 -2.78839e-07 -0.0142937)
(-0.0112169 -6.56596e-07 -0.0142927)
(-0.0112167 -7.77217e-07 -0.0142923)
(-0.0112165 -7.29988e-07 -0.014292)
(-0.0112164 -6.36323e-07 -0.0142919)
(-0.0112165 -3.07209e-07 -0.014292)
(-0.0159201 -5.08999e-07 -0.0164839)
(-0.015919 -1.117e-06 -0.0164818)
(-0.0159185 -1.16534e-06 -0.0164809)
(-0.0159183 -9.85106e-07 -0.0164805)
(-0.0159181 -7.27222e-07 -0.0164805)
(-0.0159183 -3.04402e-07 -0.0164812)
(-0.0218313 -8.44625e-07 -0.0189519)
(-0.0218291 -1.52426e-06 -0.0189491)
(-0.0218283 -1.13737e-06 -0.0189482)
(-0.021828 -6.72044e-07 -0.0189481)
(-0.0218279 -1.37857e-07 -0.018949)
(-0.021828 6.59857e-08 -0.0189512)
(-0.0285556 -7.16033e-07 -0.0212576)
(-0.0285508 -7.24428e-07 -0.0212569)
(-0.0285495 5.26261e-07 -0.0212576)
(-0.0285494 1.40381e-06 -0.0212594)
(-0.0285498 1.78163e-06 -0.0212623)
(-0.0285505 9.04155e-07 -0.021267)
(-0.035267 1.9942e-07 -0.0216963)
(-0.0352571 2.61363e-06 -0.0217033)
(-0.0352558 5.85525e-06 -0.0217081)
(-0.0352573 7.26627e-06 -0.021713)
(-0.0352604 6.98138e-06 -0.0217182)
(-0.0352647 3.15501e-06 -0.0217242)
(-0.0425755 2.93293e-06 -0.018103)
(-0.0425588 1.0277e-05 -0.0181216)
(-0.0425596 1.61079e-05 -0.0181306)
(-0.0425668 1.76078e-05 -0.0181363)
(-0.042578 1.55172e-05 -0.0181399)
(-0.0425928 6.73023e-06 -0.018141)
(-0.0504664 6.17556e-06 0.00441185)
(-0.0504448 1.82327e-05 0.00438734)
(-0.0504526 2.55326e-05 0.00438135)
(-0.0504723 2.63041e-05 0.00438295)
(-0.050499 2.18556e-05 0.00438943)
(-0.0505326 9.02585e-06 0.00440165)
(-0.0765361 5.26932e-06 0.0539822)
(-0.0765174 1.26538e-05 0.0539721)
(-0.0765346 1.46203e-05 0.0539784)
(-0.0765701 1.30392e-05 0.0539955)
(-0.0766148 9.12434e-06 0.0540162)
(-0.0766655 3.57336e-06 0.0540418)
(-0.0854878 -1.33735e-05 0.232954)
(-0.0854682 -3.20987e-05 0.232904)
(-0.0854755 -4.18769e-05 0.232894)
(-0.0854968 -4.56573e-05 0.232905)
(-0.0855254 -3.88449e-05 0.232927)
(-0.0855545 -1.56142e-05 0.232943)
(-2.21072 7.42177e-05 -4.56308)
(-2.21071 -0.000119171 -4.56333)
(-2.21059 2.7693e-05 -4.56269)
(-2.21077 -5.52338e-05 -4.56344)
(-2.21081 -0.000196966 -4.56384)
(-2.21013 -0.000313479 -4.56148)
(-0.732474 -1.16004e-06 -4.09331)
(-0.732466 -1.38264e-06 -4.09341)
(-0.732422 1.24029e-05 -4.09342)
(-0.732506 -2.8384e-05 -4.09336)
(-0.73252 7.15635e-05 -4.09327)
(-0.732264 6.03515e-05 -4.09325)
(0.00298464 -1.27191e-05 -3.82389)
(0.00295439 -2.11461e-05 -3.824)
(0.00295425 -2.33213e-05 -3.824)
(0.00297442 -3.12305e-05 -3.82393)
(0.00297403 -3.22521e-05 -3.82393)
(0.00292778 -1.17625e-05 -3.82394)
(2.14527 -8.0709e-05 -3.71699)
(2.14533 -7.76417e-05 -3.71705)
(2.14528 1.91869e-06 -3.71706)
(2.14532 2.75936e-05 -3.71701)
(2.14539 3.25779e-05 -3.71705)
(2.14535 2.98431e-05 -3.71703)
(0.0491057 -3.45551e-05 -4.93414)
(0.049106 -4.11061e-05 -4.93424)
(0.0490969 -2.44738e-05 -4.93417)
(0.0490811 -4.8813e-06 -4.93413)
(0.0491004 -4.76656e-06 -4.93418)
(0.0492165 4.5414e-06 -4.93404)
(-0.432594 9.20416e-06 -4.18001)
(-0.432608 -1.22549e-06 -4.1801)
(-0.432608 -1.83408e-05 -4.18005)
(-0.432604 -1.37774e-05 -4.18002)
(-0.4326 -1.2325e-05 -4.18005)
(-0.432607 -1.13516e-05 -4.17992)
(-2.88429 -4.22546e-05 -2.88414)
(-2.88482 3.59296e-06 -2.88421)
(-2.88483 2.10011e-05 -2.88423)
(-2.88478 1.90013e-05 -2.88422)
(-2.88466 6.85151e-05 -2.88426)
(-2.88433 0.000104124 -2.88429)
(-1.53825 -7.74524e-06 -1.45652)
(-1.53844 -5.61342e-06 -1.45654)
(-1.53846 -2.46558e-05 -1.4565)
(-1.5385 -8.12329e-06 -1.45649)
(-1.5385 -2.42026e-05 -1.45653)
(-1.53828 3.4287e-06 -1.45646)
(-0.529409 9.02278e-06 -1.72309)
(-0.529392 6.20673e-06 -1.72311)
(-0.529414 9.76433e-06 -1.72307)
(-0.529415 1.06491e-05 -1.72305)
(-0.529409 1.06894e-05 -1.72305)
(-0.529445 -1.1895e-06 -1.72296)
(-2.73727 5.42214e-05 -1.63506)
(-2.73759 3.5834e-05 -1.6352)
(-2.73759 -5.32364e-05 -1.63509)
(-2.73763 -4.3489e-05 -1.63503)
(-2.73767 -3.66367e-05 -1.63504)
(-2.73748 1.98429e-05 -1.63497)
(-0.844909 2.08168e-06 -2.93661)
(-0.844984 -3.55697e-05 -2.93678)
(-0.845056 -6.21864e-05 -2.93677)
(-0.845105 -5.7956e-05 -2.9368)
(-0.845145 -5.94868e-05 -2.93683)
(-0.845156 -3.52366e-05 -2.93661)
(-0.160544 1.30232e-05 -2.84305)
(-0.160526 1.83176e-05 -2.84315)
(-0.160536 7.25402e-06 -2.84313)
(-0.160539 -5.83706e-07 -2.84314)
(-0.160542 -1.54977e-05 -2.84316)
(-0.160566 -1.3107e-05 -2.84305)
(-1.9706 -6.08493e-05 -0.0978808)
(-1.9708 -6.84187e-05 -0.0980183)
(-1.97084 -1.91712e-05 -0.0978494)
(-1.97088 -1.04439e-05 -0.0976938)
(-1.97088 2.9691e-05 -0.0976393)
(-1.97073 3.90333e-05 -0.097466)
(-0.787417 -1.21538e-05 -2.56422)
(-0.787466 -4.30584e-05 -2.56441)
(-0.787496 -7.99793e-05 -2.56441)
(-0.787532 -7.51279e-05 -2.56442)
(-0.787557 -5.94042e-05 -2.56444)
(-0.78754 -1.91569e-05 -2.56423)
(-0.0944969 3.33241e-06 -2.1762)
(-0.0944929 -2.02122e-06 -2.17633)
(-0.0944995 -1.23644e-05 -2.17634)
(-0.0945041 -2.07116e-05 -2.17636)
(-0.094507 -2.29004e-05 -2.1764)
(-0.0945196 -1.25739e-05 -2.1763)
(-1.22095 -9.59459e-05 -1.14018)
(-1.22126 -0.000129011 -1.14038)
(-1.22131 -6.22785e-05 -1.14032)
(-1.22134 -4.56344e-05 -1.14025)
(-1.22132 1.76497e-05 -1.14023)
(-1.22111 2.6562e-05 -1.14001)
(-0.120659 -5.22478e-06 -2.90187)
(-0.120675 -2.27941e-05 -2.90199)
(-0.120681 -4.22491e-05 -2.90198)
(-0.120685 -4.52481e-05 -2.90197)
(-0.120689 -3.94238e-05 -2.90197)
(-0.120639 -1.16501e-05 -2.9018)
(-0.116142 7.09947e-07 -2.24769)
(-0.116144 -8.84891e-06 -2.24782)
(-0.116144 -1.81188e-05 -2.24783)
(-0.116142 -2.15647e-05 -2.24785)
(-0.116138 -2.3782e-05 -2.24788)
(-0.11614 -1.43403e-05 -2.24779)
(-1.76096 -3.95417e-05 -2.59377)
(-1.76132 -2.19587e-05 -2.59397)
(-1.76126 5.42588e-05 -2.59392)
(-1.76117 2.6446e-05 -2.5939)
(-1.76111 8.77284e-05 -2.59389)
(-1.76072 7.92469e-05 -2.59366)
(-0.623611 -2.87767e-05 -2.36222)
(-0.623644 -4.05855e-05 -2.36226)
(-0.623662 -1.79177e-05 -2.36226)
(-0.623656 -2.10223e-05 -2.36227)
(-0.623652 2.0547e-05 -2.3623)
(-0.623563 3.78671e-05 -2.36225)
(-0.246642 -6.74359e-06 -2.142)
(-0.246642 -1.46696e-05 -2.14209)
(-0.246638 -1.41968e-05 -2.14209)
(-0.246634 -9.2075e-06 -2.14209)
(-0.246628 -7.16039e-06 -2.14208)
(-0.246622 -4.68702e-06 -2.142)
(-2.54155 4.80072e-05 -3.0932)
(-2.54224 9.92464e-05 -3.09358)
(-2.54212 9.80203e-05 -3.09348)
(-2.54205 6.44073e-05 -3.09346)
(-2.54209 9.17232e-05 -3.09339)
(-2.54134 7.74682e-05 -3.09319)
(-1.00879 -1.93817e-05 -1.4898)
(-1.00903 -3.51467e-05 -1.48984)
(-1.00908 -3.0575e-05 -1.48986)
(-1.00911 -4.90263e-05 -1.4899)
(-1.00917 1.01647e-05 -1.48992)
(-1.00889 4.26908e-05 -1.48999)
(-0.16341 -9.29845e-06 -1.57158)
(-0.16343 -1.36025e-05 -1.57162)
(-0.163441 -8.61913e-06 -1.57161)
(-0.163463 -7.9951e-06 -1.5716)
(-0.163471 1.33798e-05 -1.57158)
(-0.163472 1.82806e-05 -1.57154)
(-3.15894 0.00020862 -2.50967)
(-3.15949 0.000338155 -2.50971)
(-3.15944 0.000285354 -2.50939)
(-3.15946 0.000332797 -2.5093)
(-3.15968 0.000200549 -2.50878)
(-3.15898 2.95043e-05 -2.51007)
(-2.02384 -4.05821e-05 -1.03516)
(-2.02433 -7.6055e-05 -1.03514)
(-2.02438 -5.28917e-05 -1.03517)
(-2.02445 -0.000106553 -1.03515)
(-2.02465 6.66409e-06 -1.0347)
(-2.02404 9.21162e-05 -1.03558)
(-0.364359 -5.26008e-05 -1.36245)
(-0.364458 -8.20416e-05 -1.36243)
(-0.364486 -8.87513e-05 -1.36242)
(-0.364547 -0.000103922 -1.3624)
(-0.364601 -2.76176e-05 -1.36249)
(-0.364491 1.59469e-05 -1.36245)
(2.43227 0.000285021 4.72475)
(2.43328 0.000513831 4.72622)
(2.43308 0.000615158 4.72644)
(2.43337 0.000843298 4.72683)
(2.43328 0.000789667 4.72847)
(2.43381 0.000361492 4.72334)
(-0.840098 -1.36358e-05 1.01343)
(-0.840448 -4.6821e-06 1.01406)
(-0.840165 0.000251075 1.0143)
(-0.840496 -0.000150276 1.01464)
(-0.839864 0.000742123 1.01538)
(-0.840663 0.00115771 1.01439)
(0.374204 -0.00010386 -0.305799)
(0.373874 -0.000142163 -0.305708)
(0.373949 -0.000159906 -0.305555)
(0.373603 -0.000166061 -0.305591)
(0.37387 -1.68669e-05 -0.305248)
(0.373477 3.04988e-05 -0.305834)
(2.932 0.000570503 8.00697)
(2.93331 0.00105769 8.00955)
(2.93292 0.00123058 8.00997)
(2.93278 0.00028854 8.00993)
(2.93368 0.00180241 8.00241)
(2.93462 0.0021326 8.01778)
(3.01357 -0.000304561 2.02274)
(3.01375 0.000107992 2.02486)
(3.0143 -2.37829e-05 2.0261)
(3.01426 0.000376962 2.02644)
(3.01262 0.000446194 2.01502)
(3.01673 -0.000345292 2.03994)
(1.50501 -0.000160699 -2.42653)
(1.50495 -5.31311e-05 -2.42617)
(1.50533 -0.000299157 -2.42618)
(1.50514 0.000199182 -2.42543)
(1.50547 -0.000284265 -2.42664)
(1.50559 -0.000883381 -2.4238)
(9.70376 7.15673e-05 10.9363)
(9.70495 0.000281507 10.9371)
(9.7046 0.000321752 10.9365)
(9.7049 -0.000262816 10.937)
(9.70806 0.000468661 10.9402)
(9.70108 0.000862613 10.933)
(7.30862 0.000172789 5.44607)
(7.30994 0.000371782 5.4483)
(7.3099 0.000501972 5.44846)
(7.30949 -0.000396078 5.44892)
(7.30424 0.00204719 5.43832)
(7.31619 0.00275763 5.46027)
(5.07656 -6.10545e-05 -0.0792064)
(5.07723 0.00062691 -0.0778089)
(5.07796 -0.000273029 -0.0776823)
(5.07707 0.00140237 -0.0766947)
(5.07063 -0.000573081 -0.0959695)
(5.08496 -0.00293242 -0.0538117)
(-1.06354 -2.69103e-06 -0.144013)
(-1.06352 -1.2573e-05 -0.144018)
(-1.06357 -4.9558e-06 -0.144051)
(-1.0635 1.40739e-05 -0.144033)
(-1.06369 1.49166e-06 -0.14407)
(-1.06347 -5.28201e-06 -0.144109)
(-0.696862 5.21288e-05 -0.94558)
(-0.696945 -3.19644e-08 -0.94559)
(-0.696896 7.00012e-06 -0.945638)
(-0.696908 -9.40352e-06 -0.945533)
(-0.697088 -0.000127726 -0.945721)
(-0.696507 -6.02451e-05 -0.945354)
(0.692661 5.78406e-06 -0.38297)
(0.692702 -0.000102183 -0.383094)
(0.692871 0.000145714 -0.382991)
(0.692522 -0.000134293 -0.383106)
(0.693396 0.000420993 -0.383491)
(0.691624 0.000809496 -0.382525)
(-0.832438 2.42511e-06 -0.420922)
(-0.832394 5.27354e-05 -0.420867)
(-0.832432 -3.16861e-05 -0.420957)
(-0.83236 0.000135127 -0.420892)
(-0.832462 -7.09115e-05 -0.420914)
(-0.832544 -0.000303242 -0.421183)
(-0.926749 0.000165384 -1.6204)
(-0.927026 6.86797e-05 -1.62046)
(-0.926989 -1.6871e-05 -1.62058)
(-0.926789 0.000172053 -1.62034)
(-0.92773 -0.000505289 -1.62101)
(-0.925688 -0.000602223 -1.61973)
(0.934946 -8.05218e-06 -0.675204)
(0.934961 -0.000263895 -0.675046)
(0.935249 0.000339578 -0.674976)
(0.934726 -0.00114375 -0.675286)
(0.936293 0.00176116 -0.6732)
(0.933269 0.00350013 -0.677521)
(-2.89598 -9.74765e-06 -0.344346)
(-2.89586 3.65581e-05 -0.344284)
(-2.89634 -4.48014e-05 -0.344288)
(-2.8957 6.09711e-05 -0.344393)
(-2.89743 0.00019369 -0.344493)
(-2.89514 4.68486e-05 -0.344484)
(-1.22503 0.000555392 -2.20095)
(-1.22553 0.000501083 -2.20133)
(-1.2253 -0.000315646 -2.20134)
(-1.2253 0.00106594 -2.20098)
(-1.22696 -0.00191347 -2.20389)
(-1.22384 -0.00323406 -2.19811)
(1.56217 0.000339556 3.06017)
(1.56303 -0.000122979 3.06393)
(1.56235 0.000339116 3.06204)
(1.56318 -0.0020763 3.06275)
(1.5756 0.00234728 3.09544)
(1.54873 0.00529129 3.02525)
(-0.79172 -0.00016361 -0.868199)
(-0.791836 0.000523961 -0.868198)
(-0.791733 -0.000229814 -0.868586)
(-0.791386 0.00118225 -0.867983)
(-0.79235 -0.000455798 -0.866268)
(-0.790145 -0.00258412 -0.871191)
(0.440832 0.000451771 0.535892)
(0.440265 0.000689091 0.534822)
(0.439235 -0.000297085 0.533804)
(0.441526 0.00138388 0.53612)
(0.449809 -0.00162742 0.552885)
(0.427377 -0.00351052 0.513952)
(5.69902 0.000313565 13.7605)
(5.701 0.00059925 13.7645)
(5.69878 -0.000613311 13.7619)
(5.70192 0.00068144 13.7643)
(5.73574 -0.0016486 13.8078)
(5.66375 -0.00308481 13.716)
(-5.23059 2.72393e-07 -1.50533)
(-5.23069 0.000214411 -1.50483)
(-5.23304 -0.000238587 -1.5069)