/*--------------------------------*- C++ -*----------------------------------*\
| =========                 |                                                 |
| \\      /  F ield         | OpenFOAM: The Open Source CFD Toolbox           |
|  \\    /   O peration     | Version:  v1612+                                |
|   \\  /    A nd           | Web:      www.OpenFOAM.com                      |
|    \\/     M anipulation  |                                                 |
\*---------------------------------------------------------------------------*/
FoamFile
{
    version     2.0;
    format      ascii;
    class       volScalarField;
    location    "5.45";
    object      alpha.water;
}
// * * * * * * * * * * * * * * * * * * * * * * * * * * * * * * * * * * * * * //

dimensions      [0 0 0 0 0 0 0];

internalField   nonuniform List<scalar> 
320
(
1
1
1
1
1.26297e-05
1.26297e-05
1.28007e-05
1.42457e-05
1.42e-05
1.47326e-05
1.53402e-05
1.43444e-05
1.32327e-05
1.31165e-05
1.16328e-05
1.43053e-05
0.999983
0.999986
0.999989
0.999985
0.999983
0.999983
0.999984
0.999989
0.999984
0.999984
0.999993
0.999982
1
1
1
1
1
1
1
1
1
1
1
1
1
1
1
1
1
1
1
1
1
1
1
1
1
1
1
1
1.31807e-05
1.37843e-05
1.28938e-05
1.43023e-05
1.28213e-05
1.07084e-05
1.20428e-05
1.05043e-05
1.43961e-05
1.2407e-05
1.10809e-05
1.14919e-05
1.53908e-05
1.28539e-05
1.26261e-05
1.15216e-05
1.15216e-05
1.41812e-05
1.36807e-05
1.13504e-05
0.999986
0.99998
0.999988
0.999987
0.999994
0.999996
0.999993
0.999994
0.999983
0.999988
0.999993
0.999994
0.999984
0.999994
0.999992
0.999993
0.999993
0.999985
0.999986
0.999991
1
1
1
1
1
1
1
1
1
1
1
1
1
1
1
1
1
1
1
1
1
1
1
1
1
1
1
1
1
1
1
1
1
1
1
1
1
1
1
1
1
1
1
1
1
1
1
1
1
1
1
1
1
1
1
1
1
1
1
1
1
1
1
1
1
1
1
1
1
1
1
1
1
1
1
1
1.31113e-05
1.26628e-05
1.40993e-05
1.17976e-05
1.43897e-05
1.4451e-05
1.54762e-05
1.34166e-05
1.25686e-05
1.55338e-05
1.3143e-05
1.25984e-05
1.33472e-05
1.29766e-05
1.34285e-05
1.26672e-05
1.36488e-05
1.39755e-05
1.55485e-05
1.70749e-05
1.51079e-05
1.21884e-05
1.18514e-05
1.28371e-05
1.21264e-05
1.33739e-05
1.30802e-05
1.39915e-05
0.999983
0.999983
0.999984
0.999991
0.999988
0.999988
0.999982
0.999985
0.999988
0.99998
0.999981
0.999985
0.99998
0.999986
0.999985
0.999985
0.999982
0.999985
0.999987
0.999982
0.99998
0.999985
0.99999
0.999985
0.99999
0.999986
0.999985
0.999983
1
1
1
1
1
1
1
1
1
1
1
1
1
1
1
1
1
1
1
1
1
1
1
1
1
1
1
1
1
1
1
1
1
1
1
1
1
1
1
1
1
1
1
1
1
1
1
1
1
1
1
1
1
1
1
1
1
1
1
1
1
1
1
1
1
1
1
1
1
1
1
1
1
1
1
1
1
1
1
1
1
1
1
1
1.58199e-05
1.34082e-05
1.44093e-05
1.29174e-05
0.999981
0.99999
0.999988
0.999994
)
;

boundaryField
{
    top_fluid_surface
    {
        type            inletOutlet;
        inletValue      uniform 0;
        value           nonuniform List<scalar> 
64
(
1.26297e-05
1.26297e-05
0
0
0
0
0
0
0
0
1.16328e-05
0
1.31807e-05
0
1.28938e-05
0
1.28213e-05
1.07084e-05
1.20428e-05
1.05043e-05
0
1.2407e-05
1.10809e-05
1.14919e-05
0
1.28539e-05
1.26261e-05
1.15216e-05
1.15216e-05
0
0
1.13504e-05
0
1.26628e-05
0
1.17976e-05
0
0
0
0
1.25686e-05
0
0
1.25984e-05
0
1.29766e-05
1.34285e-05
1.26672e-05
0
0
0
0
0
1.21884e-05
1.18514e-05
1.28371e-05
1.21264e-05
1.33739e-05
1.30802e-05
0
0
0
0
1.29174e-05
)
;
    }
    bottom_fluid_surface
    {
        type            zeroGradient;
    }
    lateral_surface_1
    {
        type            zeroGradient;
    }
    lateral_surface_2
    {
        type            zeroGradient;
    }
    lateral_surface_3
    {
        type            zeroGradient;
    }
    lateral_surface_4
    {
        type            zeroGradient;
    }
}


// ************************************************************************* //
