/*--------------------------------*- C++ -*----------------------------------*\
| =========                 |                                                 |
| \\      /  F ield         | OpenFOAM: The Open Source CFD Toolbox           |
|  \\    /   O peration     | Version:  v1612+                                |
|   \\  /    A nd           | Web:      www.OpenFOAM.com                      |
|    \\/     M anipulation  |                                                 |
\*---------------------------------------------------------------------------*/
FoamFile
{
    version     2.0;
    format      ascii;
    class       surfaceScalarField;
    location    "5.45";
    object      alphaPhi;
}
// * * * * * * * * * * * * * * * * * * * * * * * * * * * * * * * * * * * * * //

dimensions      [0 3 -1 0 0 0 0];

internalField   nonuniform List<scalar> 
816
(
-6.34318e-06
-9.11176e-06
5.35932e-06
-1.05089e-06
-8.94358e-06
2.00898e-05
3.44791e-06
8.95813e-06
-1.11608e-06
1.38209e-05
-3.1449e-05
-6.8941e-06
2.08445e-06
6.98422e-06
8.60814e-06
-1.98896e-05
-1.74281e-06
1.01685e-05
9.92532e-06
-2.17965e-05
8.27172e-10
-2.87947e-10
2.20528e-06
5.47066e-10
-2.43419e-09
2.30759e-10
-1.31037e-05
8.59439e-10
-1.58984e-09
-4.43966e-10
-7.94468e-06
-1.28754e-09
2.05657e-09
1.5578e-09
1.97441e-06
-2.80271e-10
1.3277e-09
2.37056e-09
-4.38206e-07
3.10897e-09
-1.13296e-09
-1.21452e-10
-1.59905e-06
1.75619e-09
5.03419e-09
1.654e-09
-3.02515e-06
1.99842e-09
2.11398e-09
4.71853e-09
1.90783e-06
-5.80373e-10
-1.44021e-10
2.71806e-09
-3.31729e-06
-9.98073e-10
4.62225e-09
2.27077e-09
1.53358e-06
2.37588e-09
-1.59208e-09
9.67505e-11
-2.82136e-06
2.84318e-09
-7.36325e-09
5.70342e-07
1.2946e-09
1.45675e-09
1.25628e-05
7.99125e-06
-1.86691e-05
4.36727e-06
8.84015e-06
1.61801e-05
-2.46177e-05
6.74088e-06
4.96526e-06
-9.2851e-07
-6.93324e-06
1.3918e-06
1.27349e-05
-2.11039e-06
1.46353e-05
-4.9445e-06
-2.02947e-06
1.68357e-06
1.38764e-06
-3.50894e-06
-1.989e-06
4.11702e-06
-2.04729e-05
1.98602e-06
1.4303e-05
2.65358e-06
-1.45734e-05
1.70715e-06
9.81798e-06
4.99148e-06
1.71605e-05
-1.02118e-05
2.1906e-06
2.74265e-06
-2.994e-05
1.3982e-05
1.69441e-05
1.84871e-05
-2.15087e-05
4.03615e-06
7.02931e-06
5.32736e-06
1.6376e-05
9.35798e-06
-1.5414e-05
-7.85691e-06
1.38625e-05
1.33479e-05
-5.28986e-06
-2.46057e-08
-9.18605e-06
1.18548e-06
-1.05426e-05
-9.98085e-06
-4.34561e-07
-1.08677e-06
-2.8744e-06
-9.05164e-07
-1.26125e-05
2.79862e-06
6.39532e-06
3.2386e-06
2.24971e-06
7.40748e-07
-5.43276e-07
-2.42057e-06
-9.8075e-06
-2.25075e-06
-3.74226e-06
-2.31748e-06
-6.84054e-06
2.33482e-06
6.76876e-07
7.48027e-06
8.76866e-06
-3.76389e-06
-1.35205e-05
-3.54052e-06
-8.43984e-06
-9.20515e-06
-9.51874e-06
4.37231e-07
-8.82011e-07
7.26178e-06
-2.57923e-07
-3.85977e-06
-4.05074e-06
-8.68199e-07
-3.74438e-06
-4.88052e-06
2.69788e-06
-6.75948e-07
-2.33555e-06
1.99749e-06
4.7104e-06
-1.16966e-06
4.53461e-06
-4.13584e-06
1.74303e-06
3.78885e-06
2.32846e-06
-1.41905e-06
5.33876e-06
3.86655e-06
-3.22251e-06
-6.92773e-08
-1.44604e-07
-3.05495e-06
-6.20171e-06
-7.15375e-07
-1.56429e-06
-8.74548e-07
-5.51684e-07
-7.259e-06
-3.91758e-07
2.18569e-06
1.30307e-06
8.6308e-07
1.68964e-06
-4.37877e-07
2.62626e-07
-9.02784e-07
-2.03538e-06
-2.33401e-06
-2.8376e-06
-1.21448e-06
9.41596e-07
-2.11762e-06
4.80795e-07
5.77029e-06
1.77334e-06
-2.12041e-06
-1.96385e-06
-4.98246e-06
-3.97051e-06
-5.38155e-06
1.39541e-07
-2.61275e-06
-9.70116e-07
5.23653e-08
2.10428e-06
-3.03119e-06
-4.41104e-07
-1.43217e-06
-4.11778e-09
2.93156e-09
-5.47223e-06
1.01243e-09
-1.78768e-09
1.80844e-06
9.35492e-11
-3.19472e-09
-5.9867e-06
7.82473e-10
-7.1925e-10
-1.12594e-06
-7.73602e-10
2.86463e-09
-3.3144e-06
-3.80052e-09
-2.06074e-09
1.41376e-10
9.6667e-12
-1.60581e-09
3.76234e-11
5.41289e-07
-4.11017e-09
-2.8624e-09
6.47072e-11
-1.77206e-09
5.52113e-10
5.73934e-07
1.22601e-09
2.86668e-10
-2.0889e-06
-1.4987e-09
-3.88457e-10
-1.95127e-09
-3.60315e-06
7.67957e-10
-5.15906e-09
-4.34993e-06
-1.64733e-09
8.17757e-10
9.44617e-07
-4.08022e-11
1.52266e-09
-4.92654e-06
-4.52712e-09
4.0425e-09
-4.84081e-06
-8.05918e-09
6.45413e-10
1.00658e-09
1.00584e-10
2.38267e-09
-1.92418e-09
1.76838e-10
5.24211e-11
-1.04361e-10
-1.21633e-05
2.4093e-09
7.9118e-10
-1.04554e-05
9.54047e-10
-6.8991e-06
-1.45431e-09
-3.9007e-10
-1.39007e-05
-2.59588e-06
1.05083e-05
1.13014e-05
-5.72354e-07
-9.71387e-06
7.80674e-06
3.24773e-06
-1.6985e-05
1.12292e-05
-1.38327e-06
1.10352e-07
4.14726e-06
8.5419e-06
2.53404e-05
-1.90035e-05
-2.14957e-05
-2.00157e-06
3.66967e-05
-1.32613e-05
-5.6529e-06
2.48167e-05
-2.46877e-05
-2.14886e-05
5.11897e-05
-3.3031e-05
-1.21537e-05
1.67484e-06
-6.02152e-06
9.95359e-06
-1.95498e-05
8.71375e-07
-6.26708e-06
-9.55303e-07
1.82258e-05
3.12233e-06
-1.65847e-05
2.79737e-05
-1.67499e-05
6.53001e-06
-2.83185e-05
-1.58037e-06
3.64279e-06
1.93286e-05
-9.35579e-06
7.77477e-06
7.36489e-06
-1.19016e-05
-6.61273e-06
3.51593e-06
1.97573e-05
9.78565e-06
-3.43945e-06
3.00988e-05
-1.2541e-05
-9.39133e-06
6.30813e-06
-7.3648e-06
-8.59433e-06
-4.77056e-06
4.0094e-06
1.85865e-05
-1.71569e-05
-2.00689e-05
4.27951e-06
1.60318e-06
4.8624e-06
-4.28423e-06
-1.95824e-06
-4.17777e-06
1.88018e-06
-4.98903e-06
-6.84014e-06
-7.54822e-06
-1.79402e-06
1.64867e-07
-4.15673e-06
-6.96712e-06
1.17773e-05
9.01251e-06
9.71897e-06
-1.16622e-07
1.69767e-05
2.60135e-07
4.40211e-06
1.15529e-05
1.19949e-05
1.59981e-05
2.32578e-05
1.57988e-05
1.26949e-05
6.80253e-07
2.06062e-06
-4.67348e-06
-8.90139e-06
-1.85193e-06
8.57345e-06
3.44275e-07
8.769e-06
6.90655e-07
8.10383e-06
1.3054e-05
9.50505e-06
-5.11367e-07
-1.36151e-05
2.69365e-06
-1.01999e-07
8.39821e-06
6.97911e-06
-9.40091e-06
3.34834e-06
9.3134e-06
4.00171e-06
-2.21639e-06
8.78411e-06
-4.65202e-06
6.25177e-06
1.33496e-05
8.71187e-06
4.75019e-06
3.05816e-06
4.48528e-06
1.12258e-06
-2.66667e-06
6.40623e-07
8.74392e-06
3.91215e-06
8.64236e-06
2.36784e-06
1.0781e-06
1.67023e-06
-3.29569e-06
-5.88845e-07
-1.79252e-06
3.98792e-07
-3.00668e-06
-4.70393e-07
-4.67835e-06
-9.19171e-07
-1.39613e-07
-2.33629e-06
-3.95411e-06
3.53493e-06
5.62809e-06
5.64736e-06
-1.30037e-07
6.19357e-06
-2.88826e-07
2.4676e-06
4.12461e-06
6.14646e-06
8.96341e-06
7.48526e-06
8.84737e-06
7.16907e-06
-4.77787e-08
4.99581e-07
-2.5296e-06
-1.63206e-06
-2.06702e-06
4.49913e-06
8.03398e-07
2.57887e-06
5.36223e-07
5.4784e-06
4.09647e-06
5.22893e-06
-4.36095e-07
-3.37112e-06
1.44443e-06
-5.4693e-07
2.36092e-06
4.18089e-06
-5.52062e-06
7.66757e-07
5.86959e-06
1.68188e-06
-1.6407e-06
3.14543e-06
-3.22661e-06
3.39133e-06
3.82533e-06
4.61292e-06
2.49082e-06
1.23891e-06
2.76699e-06
6.53492e-08
-9.72857e-07
2.77456e-07
2.04872e-06
2.13566e-06
5.69008e-06
-1.94964e-06
-2.04072e-06
1.50792e-06
1.43716e-07
1.9027e-06
8.87107e-07
-2.0508e-07
-3.15347e-06
1.00564e-06
2.43438e-06
-1.22513e-06
3.84236e-06
-3.16501e-06
1.0263e-06
5.86684e-07
-3.22504e-06
-6.16128e-07
-6.28948e-08
1.44829e-07
-3.69672e-06
5.29833e-07
6.82712e-08
9.03849e-07
-1.32562e-06
-3.17638e-07
-9.44604e-07
-6.598e-07
3.11423e-08
1.38722e-06
3.82666e-07
2.42893e-06
-2.03591e-06
3.45053e-07
-1.89953e-06
-3.04098e-06
8.29165e-07
-8.75309e-07
7.69905e-08
-1.98076e-06
6.89825e-07
4.39155e-07
9.02869e-07
-1.65861e-06
-1.40595e-06
6.28635e-07
-9.73021e-07
-1.52511e-06
-5.22002e-07
-4.41824e-07
-1.72431e-06
2.08703e-06
2.65689e-06
5.50785e-07
2.20254e-07
1.97403e-06
2.78025e-06
5.14078e-06
3.00272e-06
3.56924e-06
5.92904e-07
-4.05088e-07
-5.76274e-07
2.93553e-06
8.66668e-07
6.73135e-07
3.09718e-06
3.25924e-06
8.62576e-07
1.2959e-06
6.80545e-07
2.89248e-06
-2.99796e-06
3.06484e-06
1.37491e-06
-1.03754e-06
-7.20328e-07
1.24298e-06
2.36953e-06
1.36262e-06
1.1891e-06
3.31119e-07
7.41549e-07
9.59445e-07
2.31214e-06
2.9562e-10
-1.51036e-09
3.84382e-06
-1.7689e-09
-1.48591e-05
-6.87253e-10
-1.35797e-05
-4.70587e-09
2.01224e-11
-2.37371e-09
3.08508e-06
-2.77963e-09
2.49032e-06
3.23401e-09
-1.30022e-05
1.63073e-09
7.40881e-07
-9.57886e-10
6.12102e-06
3.36763e-09
1.84873e-06
2.2617e-09
1.72879e-06
2.1635e-09
8.97728e-11
1.13601e-09
1.05032e-06
-8.27906e-10
-1.06218e-05
-1.33631e-09
-1.03582e-05
-2.47558e-09
-5.08878e-06
-2.93569e-09
1.23471e-06
-1.41937e-09
7.45341e-07
-1.68287e-10
-3.05258e-06
2.15246e-09
-8.09817e-06
6.09225e-09
-8.50582e-06
2.31111e-09
-2.06206e-06
1.16415e-09
2.65143e-06
6.42672e-10
5.33479e-07
-9.35142e-10
-4.01811e-06
-1.09619e-09
-1.46418e-05
-1.80163e-09
7.0055e-07
5.28853e-06
1.96011e-05
-1.57597e-05
-5.35927e-06
8.47825e-07
1.52243e-05
5.22511e-06
-1.7374e-05
-5.99149e-06
2.43096e-05
-1.41961e-05
2.50309e-05
-1.42732e-05
-8.92719e-06
6.30839e-06
-3.79825e-05
4.16124e-06
-1.65398e-05
-1.18999e-05
2.94646e-05
-5.18861e-06
-2.4309e-05
1.49962e-05
-4.54961e-05
2.39929e-05
-8.91876e-06
1.30146e-05
1.48815e-05
-1.05787e-05
1.36511e-05
-3.86623e-06
-2.67648e-05
-6.70689e-06
-7.07269e-07
-4.27744e-06
-1.42919e-05
3.34695e-06
-6.34359e-06
2.51389e-06
-1.26637e-05
-5.78825e-06
-1.44601e-05
1.93093e-05
-3.698e-05
2.98495e-06
6.64989e-06
-7.26085e-06
3.01621e-05
6.09167e-06
-2.44736e-05
1.58462e-06
-8.16657e-06
-1.59205e-05
1.22014e-06
-1.16324e-05
-2.13945e-05
-6.13833e-06
-2.85797e-06
4.27549e-06
-2.86729e-06
-1.37067e-07
8.20796e-06
-8.16773e-06
-7.47153e-06
-2.57456e-06
1.11601e-05
7.71384e-06
1.05847e-05
1.20305e-05
-4.22767e-06
-9.34988e-06
-1.66101e-05
-7.74219e-06
-8.4244e-06
8.38006e-06
1.36178e-05
5.95546e-06
-9.88159e-06
-4.07792e-06
-1.96616e-05
-6.73039e-06
-4.20208e-06
-1.31592e-06
7.63004e-06
5.95881e-06
6.37503e-06
-1.09309e-07
-1.2136e-05
3.95465e-07
-5.1222e-07
2.41286e-06
-6.79934e-06
1.97118e-06
-3.20415e-06
3.674e-06
-7.38774e-06
6.11681e-06
-7.59162e-06
-1.41354e-05
-1.67266e-05
-6.92953e-06
3.45172e-06
5.07606e-06
1.34978e-05
2.74954e-08
-1.07345e-05
8.81293e-08
-3.74401e-06
2.03833e-06
-9.69479e-08
-6.67098e-07
-1.00522e-05
-2.53716e-06
-2.1038e-06
2.43714e-06
-1.06992e-06
-7.07298e-08
2.85697e-06
-4.10823e-06
-3.04957e-06
-1.0181e-06
3.38084e-06
4.80324e-06
2.4231e-06
6.55968e-06
-3.43408e-07
-5.15689e-06
-4.89744e-06
-5.10606e-06
-2.84064e-06
4.49389e-06
3.73846e-06
3.79393e-06
-3.01979e-06
-2.68412e-06
-4.32733e-06
-4.49225e-06
-1.90386e-06
-8.99621e-07
1.99228e-06
4.27445e-06
1.21865e-06
6.90868e-07
-4.03798e-06
9.11021e-07
-1.92033e-07
1.98315e-06
-2.64033e-06
1.6512e-06
-1.42665e-06
1.77013e-06
-3.32679e-06
2.55519e-06
-2.51274e-06
-8.49273e-06
-5.68751e-06
-3.71604e-06
3.62029e-07
3.26569e-06
3.2914e-06
2.55675e-07
-3.11897e-06
-1.02613e-07
-6.26146e-07
7.1184e-07
-6.40552e-07
-8.8929e-07
-2.76629e-06
-9.93094e-07
-1.51198e-06
1.39793e-06
-3.14049e-07
-2.73788e-06
-8.89181e-07
1.07944e-06
2.82969e-06
-2.05183e-06
-2.23439e-06
1.72825e-06
1.49682e-06
1.84424e-07
-1.12288e-06
2.96126e-07
1.52113e-06
4.3564e-07
9.21113e-07
1.53858e-06
1.40606e-06
9.76571e-07
1.54264e-06
-4.14822e-06
-2.41545e-06
1.51451e-07
-6.04438e-07
-4.56023e-08
5.66752e-08
-3.98683e-07
-2.07338e-09
9.69815e-10
1.18465e-06
-1.51797e-09
6.50291e-06
2.18167e-09
1.99182e-06
3.55123e-11
8.63027e-07
1.61903e-05
-2.02214e-06
1.32337e-05
)
;

boundaryField
{
    top_fluid_surface
    {
        type            calculated;
        value           nonuniform List<scalar> 
64
(
6.24226e-10
1.70973e-09
0
0
0
0
0
0
0
0
4.50087e-09
0
1.37627e-09
0
1.39704e-09
0
1.79686e-09
5.6523e-09
2.93796e-09
5.743e-09
0
1.98896e-09
5.19614e-09
4.86296e-09
0
2.42398e-09
2.86613e-09
4.61492e-09
4.5174e-09
0
0
5.08295e-09
0
3.01409e-09
0
3.42775e-09
0
0
0
0
4.03003e-10
0
0
9.88538e-10
0
1.57778e-09
4.00945e-10
1.96213e-09
0
0
0
0
0
3.1794e-09
3.4628e-09
6.69151e-10
3.2844e-09
1.64317e-09
8.35275e-11
0
0
0
0
1.01658e-09
)
;
    }
    bottom_fluid_surface
    {
        type            calculated;
        value           uniform 0;
    }
    lateral_surface_1
    {
        type            calculated;
        value           uniform 0;
    }
    lateral_surface_2
    {
        type            calculated;
        value           uniform 0;
    }
    lateral_surface_3
    {
        type            calculated;
        value           uniform 0;
    }
    lateral_surface_4
    {
        type            calculated;
        value           uniform 0;
    }
}


// ************************************************************************* //
