/*--------------------------------*- C++ -*----------------------------------*\
| =========                 |                                                 |
| \\      /  F ield         | OpenFOAM: The Open Source CFD Toolbox           |
|  \\    /   O peration     | Version:  v1612+                                |
|   \\  /    A nd           | Web:      www.OpenFOAM.com                      |
|    \\/     M anipulation  |                                                 |
\*---------------------------------------------------------------------------*/
FoamFile
{
    version     2.0;
    format      ascii;
    class       volScalarField;
    location    "5.45";
    object      p_rgh;
}
// * * * * * * * * * * * * * * * * * * * * * * * * * * * * * * * * * * * * * //

dimensions      [1 -1 -2 0 0 0 0];

internalField   nonuniform List<scalar> 
320
(
-9800.21
-9800.19
-9800.2
-9800.19
0.00324489
0.00387179
0.000663869
-0.00429695
-0.00477497
-0.00657593
-0.00931443
-0.00441011
-0.00101458
0.00170182
0.00935493
-0.00372224
-9799.94
-9799.97
-9799.95
-9799.9
-9799.88
-9799.87
-9799.87
-9799.93
-9799.9
-9799.9
-9800.06
-9799.87
-9800.22
-9800.21
-9800.2
-9800.2
-9800.21
-9800.21
-9800.2
-9800.19
-9800.2
-9800.21
-9800.2
-9800.21
-9800.21
-9800.2
-9800.2
-9800.2
-9800.21
-9800.2
-9800.2
-9800.2
-9800.21
-9800.21
-9800.2
-9800.2
-9800.21
-9800.21
-9800.2
-9800.21
0.00190268
-0.00156333
0.00291184
-0.0038486
0.00262572
0.0127603
0.00580114
0.0127666
-0.00484999
0.00433594
0.011087
0.00955883
-0.00926953
0.00417594
0.00532284
0.0108144
0.00977441
-0.00239436
-0.00206049
0.0108496
-9799.96
-9799.85
-9799.98
-9799.92
-9800.05
-9800.1
-9800.05
-9800.08
-9799.87
-9800
-9800.06
-9800.06
-9799.87
-9800.04
-9800.03
-9800.05
-9800.05
-9799.9
-9799.92
-9800.03
-9800.21
-9800.22
-9800.2
-9800.2
-9800.19
-9800.19
-9800.2
-9800.2
-9800.21
-9800.21
-9800.21
-9800.2
-9800.2
-9800.19
-9800.2
-9800.2
-9800.2
-9800.2
-9800.21
-9800.21
-9800.22
-9800.21
-9800.21
-9800.2
-9800.19
-9800.19
-9800.2
-9800.2
-9800.21
-9800.22
-9800.21
-9800.2
-9800.2
-9800.2
-9800.2
-9800.2
-9800.21
-9800.21
-9800.21
-9800.21
-9800.21
-9800.2
-9800.2
-9800.2
-9800.21
-9800.2
-9800.2
-9800.21
-9800.21
-9800.21
-9800.21
-9800.2
-9800.21
-9800.21
-9800.21
-9800.21
-9800.21
-9800.21
-9800.2
-9800.2
-9800.2
-9800.2
-9800.2
-9800.2
-9800.21
-9800.21
-9800.21
-9800.2
-9800.2
-9800.2
-9800.21
-9800.21
-9800.21
-9800.21
-9800.21
-9800.21
0.000401516
0.00454568
-0.00212407
0.00653127
-0.0055932
-0.00576936
-0.00936962
-0.00116204
0.00202767
-0.0112179
-0.000254882
0.00279381
-0.000962894
0.000953202
0.000461525
0.00362587
-0.00155815
-0.0025556
-0.00922445
-0.0155691
-0.0064475
0.00643448
0.00753205
0.00229496
0.00645991
0.00216432
0.00121326
-0.00476373
-9799.89
-9799.94
-9799.9
-9800.03
-9799.93
-9799.92
-9799.85
-9799.91
-9799.98
-9799.83
-9799.88
-9799.95
-9799.86
-9799.96
-9799.95
-9799.96
-9799.88
-9799.9
-9799.9
-9799.83
-9799.84
-9799.96
-9800.02
-9799.95
-9800.01
-9799.96
-9799.91
-9799.88
-9800.22
-9800.22
-9800.21
-9800.2
-9800.19
-9800.19
-9800.2
-9800.2
-9800.21
-9800.22
-9800.22
-9800.23
-9800.22
-9800.22
-9800.22
-9800.22
-9800.21
-9800.2
-9800.19
-9800.2
-9800.21
-9800.21
-9800.21
-9800.22
-9800.2
-9800.21
-9800.21
-9800.22
-9800.22
-9800.22
-9800.21
-9800.2
-9800.2
-9800.19
-9800.2
-9800.2
-9800.2
-9800.21
-9800.21
-9800.22
-9800.22
-9800.22
-9800.22
-9800.22
-9800.21
-9800.2
-9800.2
-9800.21
-9800.21
-9800.21
-9800.21
-9800.21
-9800.21
-9800.22
-9800.21
-9800.21
-9800.22
-9800.21
-9800.21
-9800.2
-9800.2
-9800.19
-9800.2
-9800.2
-9800.2
-9800.21
-9800.21
-9800.22
-9800.22
-9800.22
-9800.22
-9800.21
-9800.21
-9800.2
-9800.2
-9800.21
-9800.21
-9800.21
-9800.21
-9800.21
-9800.21
-9800.21
-9800.21
-9800.22
-0.0113202
-0.000874869
-0.0049885
0.00164947
-9799.84
-9799.96
-9799.92
-9800.04
)
;

boundaryField
{
    top_fluid_surface
    {
        type            totalPressure;
        rho             rho;
        psi             none;
        gamma           1;
        p0              uniform 0;
        value           nonuniform List<scalar> 
64
(
0
0
0
-3.94489e-09
-4.20006e-09
-1.1584e-08
-1.90247e-08
-4.05852e-09
-1.25312e-09
0
0
-3.91673e-09
0
-1.7238e-09
0
-2.77906e-09
0
0
0
0
-4.93008e-09
0
0
0
-2.57267e-08
0
0
0
0
-4.04204e-11
-2.18188e-10
0
-8.77357e-10
0
-7.8558e-10
0
-6.41568e-09
-1.09079e-08
-1.95451e-08
-1.3487e-09
0
-3.78903e-08
-3.28614e-09
0
-2.30132e-11
0
0
0
-1.76915e-09
-2.20795e-09
-1.85553e-08
-4.6044e-08
-1.11274e-08
0
0
0
0
0
0
-1.17627e-08
-3.43078e-08
-8.45798e-10
-4.56793e-09
0
)
;
    }
    bottom_fluid_surface
    {
        type            fixedFluxPressure;
        gradient        uniform 0;
        value           nonuniform List<scalar> 
64
(
-9800.21
-9800.2
-9800.2
-9800.2
-9800.21
-9800.2
-9800.2
-9800.21
-9800.21
-9800.21
-9800.21
-9800.2
-9800.21
-9800.21
-9800.21
-9800.21
-9800.21
-9800.21
-9800.2
-9800.2
-9800.2
-9800.2
-9800.2
-9800.2
-9800.21
-9800.21
-9800.21
-9800.2
-9800.2
-9800.2
-9800.21
-9800.21
-9800.21
-9800.21
-9800.21
-9800.21
-9800.22
-9800.21
-9800.21
-9800.2
-9800.2
-9800.19
-9800.2
-9800.2
-9800.2
-9800.21
-9800.21
-9800.22
-9800.22
-9800.22
-9800.22
-9800.21
-9800.21
-9800.2
-9800.2
-9800.21
-9800.21
-9800.21
-9800.21
-9800.21
-9800.21
-9800.21
-9800.21
-9800.22
)
;
    }
    lateral_surface_1
    {
        type            fixedFluxPressure;
        gradient        uniform 0;
        value           nonuniform List<scalar> 
40
(
0.000401516
0.00454568
-0.00212407
0.00653127
-0.0055932
-0.00576936
-0.00936962
-0.00476373
-9799.89
-9799.94
-9799.9
-9800.03
-9799.93
-9799.92
-9799.85
-9799.88
-9800.22
-9800.22
-9800.21
-9800.2
-9800.19
-9800.19
-9800.2
-9800.22
-9800.22
-9800.22
-9800.21
-9800.2
-9800.2
-9800.19
-9800.2
-9800.21
-9800.22
-9800.21
-9800.21
-9800.2
-9800.2
-9800.19
-9800.2
-9800.22
)
;
    }
    lateral_surface_2
    {
        type            fixedFluxPressure;
        gradient        uniform 0;
        value           nonuniform List<scalar> 
40
(
0.000953202
0.000461525
0.00362587
-0.00155815
-0.0025556
-0.00922445
-0.0155691
-0.0064475
-9799.96
-9799.95
-9799.96
-9799.88
-9799.9
-9799.9
-9799.83
-9799.84
-9800.22
-9800.22
-9800.22
-9800.21
-9800.2
-9800.19
-9800.2
-9800.21
-9800.22
-9800.22
-9800.22
-9800.21
-9800.2
-9800.2
-9800.21
-9800.21
-9800.22
-9800.22
-9800.21
-9800.21
-9800.2
-9800.2
-9800.21
-9800.21
)
;
    }
    lateral_surface_3
    {
        type            fixedFluxPressure;
        gradient        uniform 0;
        value           nonuniform List<scalar> 
40
(
-0.00936962
-0.00116204
0.00202767
-0.0112179
-0.000254882
0.00279381
-0.000962894
0.000953202
-9799.85
-9799.91
-9799.98
-9799.83
-9799.88
-9799.95
-9799.86
-9799.96
-9800.2
-9800.2
-9800.21
-9800.22
-9800.22
-9800.23
-9800.22
-9800.22
-9800.2
-9800.2
-9800.2
-9800.21
-9800.21
-9800.22
-9800.22
-9800.22
-9800.2
-9800.2
-9800.2
-9800.21
-9800.21
-9800.22
-9800.22
-9800.22
)
;
    }
    lateral_surface_4
    {
        type            fixedFluxPressure;
        gradient        uniform 0;
        value           nonuniform List<scalar> 
40
(
-0.0064475
0.00643448
0.00753205
0.00229496
0.00645991
0.00216432
0.00121326
-0.00476373
-9799.84
-9799.96
-9800.02
-9799.95
-9800.01
-9799.96
-9799.91
-9799.88
-9800.21
-9800.21
-9800.21
-9800.22
-9800.2
-9800.21
-9800.21
-9800.22
-9800.21
-9800.21
-9800.21
-9800.21
-9800.21
-9800.22
-9800.21
-9800.21
-9800.21
-9800.21
-9800.21
-9800.21
-9800.21
-9800.21
-9800.21
-9800.22
)
;
    }
}


// ************************************************************************* //
