/*--------------------------------*- C++ -*----------------------------------*\
| =========                 |                                                 |
| \\      /  F ield         | OpenFOAM: The Open Source CFD Toolbox           |
|  \\    /   O peration     | Version:  v1612+                                |
|   \\  /    A nd           | Web:      www.OpenFOAM.com                      |
|    \\/     M anipulation  |                                                 |
\*---------------------------------------------------------------------------*/
FoamFile
{
    version     2.0;
    format      ascii;
    class       surfaceScalarField;
    location    "5.45";
    object      phi;
}
// * * * * * * * * * * * * * * * * * * * * * * * * * * * * * * * * * * * * * //

dimensions      [0 3 -1 0 0 0 0];

internalField   nonuniform List<scalar> 
816
(
-6.37216e-06
-9.20301e-06
5.47647e-06
-1.0598e-06
-8.95628e-06
2.01082e-05
3.41288e-06
9.02005e-06
-1.11992e-06
1.39536e-05
-3.15994e-05
-6.91537e-06
2.04247e-06
7.04556e-06
8.70226e-06
-2.00551e-05
-1.70115e-06
1.02074e-05
1.0022e-05
-2.19974e-05
6.10664e-05
-2.88542e-05
1.0563e-05
4.0033e-05
-0.000157481
3.03696e-05
-9.7965e-06
6.86544e-05
-0.000107542
-3.54703e-05
-2.2415e-05
-0.000116824
0.000140081
0.000111723
5.52121e-06
-2.06623e-05
9.37091e-05
0.000165544
-2.08904e-06
0.000222991
-9.11406e-05
-1.03146e-05
-2.58502e-06
0.000123674
0.000339665
0.000108927
-3.34609e-06
0.000128792
0.000142467
0.000360518
5.97625e-06
-4.13962e-05
-7.88397e-06
0.000179363
-1.77104e-05
-0.000104154
0.000315347
0.000173069
-1.01284e-06
0.000183065
-0.000103622
8.6217e-06
-3.94672e-06
0.000242293
-0.000460863
-5.29568e-07
8.68652e-05
0.000113126
1.22543e-05
7.44823e-06
-1.91187e-05
4.20861e-06
8.22329e-06
1.59588e-05
-2.47656e-05
6.84553e-06
4.77633e-06
-8.97125e-07
-6.66635e-06
1.30643e-06
1.28102e-05
-2.06737e-06
1.46776e-05
-4.83289e-06
-2.11587e-06
1.77705e-06
1.36138e-06
-3.37625e-06
-2.10737e-06
3.97489e-06
-2.04449e-05
2.09082e-06
1.45502e-05
2.64725e-06
-1.44853e-05
1.87022e-06
9.73461e-06
5.17279e-06
1.7351e-05
-1.01384e-05
2.22044e-06
2.84722e-06
-2.99566e-05
1.39378e-05
1.72334e-05
1.84798e-05
-2.16509e-05
4.20078e-06
6.87768e-06
5.3289e-06
1.6502e-05
9.09351e-06
-1.56755e-05
-7.88664e-06
1.40962e-05
1.32416e-05
-5.42692e-06
-4.20911e-08
-9.27506e-06
1.147e-06
-1.06843e-05
-1.00701e-05
-4.25657e-07
-1.00947e-06
-2.81779e-06
-9.01484e-07
-1.26256e-05
2.8411e-06
6.44378e-06
3.2929e-06
2.25064e-06
7.32202e-07
-4.67277e-07
-2.49213e-06
-9.79877e-06
-2.1837e-06
-3.71702e-06
-2.33868e-06
-6.81442e-06
2.37604e-06
7.05067e-07
7.60102e-06
8.77298e-06
-3.71678e-06
-1.35302e-05
-3.62138e-06
-8.38433e-06
-9.22362e-06
-9.53252e-06
4.81041e-07
-8.30442e-07
7.33209e-06
-2.43767e-07
-3.87991e-06
-3.99449e-06
-9.33301e-07
-3.78224e-06
-4.93285e-06
2.73522e-06
-6.39884e-07
-2.33814e-06
2.00828e-06
4.75468e-06
-1.17751e-06
4.58226e-06
-4.14062e-06
1.70841e-06
3.83007e-06
2.35986e-06
-1.39197e-06
5.37334e-06
3.90716e-06
-3.27612e-06
-5.0551e-08
-1.26913e-07
-3.07669e-06
-6.25911e-06
-7.00596e-07
-1.57691e-06
-8.3978e-07
-5.75125e-07
-7.28856e-06
-3.72281e-07
2.22052e-06
1.32959e-06
8.79175e-07
1.70688e-06
-4.00781e-07
2.60446e-07
-9.54241e-07
-1.99183e-06
-2.30668e-06
-2.83621e-06
-1.24787e-06
9.69401e-07
-2.10165e-06
5.04966e-07
5.78844e-06
1.82327e-06
-2.10531e-06
-1.98869e-06
-4.94741e-06
-3.962e-06
-5.37451e-06
1.69924e-07
-2.60711e-06
-9.2822e-07
7.95284e-08
2.13462e-06
-2.98635e-06
-4.28256e-07
-1.43988e-06
-0.000293564
0.000221128
-6.85635e-06
7.57404e-05
-0.00013981
4.30595e-06
-3.28421e-06
-0.00022312
-8.15773e-06
7.28876e-05
-4.85339e-05
-6.51469e-06
-4.28412e-05
0.000223944
-4.38521e-06
-0.000258639
-0.000147031
1.7436e-05
-4.80109e-06
-0.000111095
3.13337e-06
1.88576e-07
-0.000264222
-0.000203176
6.30277e-06
-0.000133972
3.41909e-05
1.2839e-06
9.13851e-05
2.05897e-05
-1.31575e-06
-0.000105436
-3.49499e-05
-0.000174394
-1.62584e-06
6.77066e-05
-0.000337244
-5.66971e-06
-0.000116197
4.30748e-05
1.50268e-06
-7.38902e-07
0.000122304
-8.63308e-06
-0.00028747
0.000319154
-6.61837e-06
-0.00047589
5.77723e-05
9.46925e-05
4.59939e-06
0.000219504
-0.000137683
5.53605e-06
9.33421e-06
9.13178e-06
-7.21897e-06
0.000175642
4.26607e-05
-7.85906e-06
4.35567e-05
-8.32804e-06
-9.31323e-05
-1.8481e-05
-1.3905e-05
-2.60046e-06
1.04424e-05
1.15346e-05
-6.60126e-07
-9.9592e-06
7.52582e-06
3.09159e-06
-1.70476e-05
1.12324e-05
-1.4065e-06
2.13478e-07
4.06342e-06
8.73122e-06
2.56035e-05
-1.9148e-05
-2.13978e-05
-1.92243e-06
3.68937e-05
-1.29837e-05
-5.6442e-06
2.49544e-05
-2.472e-05
-2.15913e-05
5.12752e-05
-3.29925e-05
-1.19917e-05
1.68366e-06
-5.52854e-06
9.95614e-06
-1.95647e-05
7.83608e-07
-6.23857e-06
-1.12395e-06
1.83094e-05
3.27654e-06
-1.67612e-05
2.81427e-05
-1.66624e-05
6.57015e-06
-2.82632e-05
-1.47263e-06
3.86429e-06
1.95736e-05
-9.57254e-06
7.95686e-06
7.48272e-06
-1.21893e-05
-6.36511e-06
3.54559e-06
1.9821e-05
9.87429e-06
-3.78969e-06
3.01644e-05
-1.23223e-05
-9.2588e-06
6.46059e-06
-6.95373e-06
-8.43862e-06
-4.58141e-06
4.3164e-06
1.86059e-05
-1.71548e-05
-2.02159e-05
4.30324e-06
1.59069e-06
4.82198e-06
-4.25542e-06
-2.05236e-06
-4.25561e-06
1.79722e-06
-5.07077e-06
-6.87232e-06
-7.5605e-06
-1.82057e-06
2.20602e-07
-4.15677e-06
-6.92587e-06
1.18736e-05
9.03348e-06
9.7914e-06
-4.49172e-08
1.70659e-05
3.86576e-07
4.47198e-06
1.16175e-05
1.20881e-05
1.60724e-05
2.33167e-05
1.59013e-05
1.27522e-05
6.67922e-07
2.17441e-06
-4.73284e-06
-8.90735e-06
-1.79088e-06
8.60924e-06
2.77292e-07
8.79689e-06
7.51691e-07
8.07017e-06
1.31177e-05
9.59676e-06
-5.29213e-07
-1.35623e-05
2.7382e-06
-4.9959e-08
8.51155e-06
6.96455e-06
-9.37504e-06
3.40702e-06
9.3016e-06
4.10166e-06
-2.17204e-06
8.86017e-06
-4.59943e-06
6.21745e-06
1.34119e-05
8.83148e-06
4.79387e-06
3.06943e-06
4.53777e-06
1.1907e-06
-2.61866e-06
6.89385e-07
8.7562e-06
3.97113e-06
8.63688e-06
2.35112e-06
1.07314e-06
1.65375e-06
-3.25547e-06
-6.65383e-07
-1.81899e-06
4.03472e-07
-3.08789e-06
-4.72105e-07
-4.68538e-06
-9.39401e-07
-1.19858e-07
-2.34953e-06
-3.93912e-06
3.56759e-06
5.61116e-06
5.68873e-06
-1.0033e-07
6.23664e-06
-2.8201e-07
2.52488e-06
4.14758e-06
6.19146e-06
9.03144e-06
7.508e-06
8.89559e-06
7.21459e-06
-5.67976e-08
5.47841e-07
-2.58168e-06
-1.64824e-06
-2.01781e-06
4.52994e-06
7.50181e-07
2.57598e-06
5.73295e-07
5.44937e-06
4.11697e-06
5.27067e-06
-4.36909e-07
-3.34157e-06
1.46865e-06
-5.07217e-07
2.40412e-06
4.17843e-06
-5.52081e-06
7.92923e-07
5.87617e-06
1.74659e-06
-1.60234e-06
3.17462e-06
-3.1954e-06
3.41762e-06
3.84227e-06
4.66465e-06
2.49862e-06
1.24676e-06
2.7832e-06
6.93028e-08
-9.60625e-07
3.08375e-07
2.04709e-06
2.14615e-06
5.68202e-06
-1.97128e-06
-2.06884e-06
1.52776e-06
1.54669e-07
1.90813e-06
9.04535e-07
-2.06725e-07
-3.15974e-06
9.84314e-07
2.45984e-06
-1.20967e-06
3.86372e-06
-3.20617e-06
1.04643e-06
5.96864e-07
-3.26049e-06
-6.07391e-07
-4.17235e-08
1.28604e-07
-3.71208e-06
5.52987e-07
7.56513e-08
9.17745e-07
-1.30114e-06
-3.54079e-07
-9.0552e-07
-6.48469e-07
2.07045e-08
1.40422e-06
3.96444e-07
2.42978e-06
-2.02817e-06
3.29203e-07
-1.87452e-06
-3.03082e-06
8.50894e-07
-8.50664e-07
9.52191e-08
-1.95602e-06
6.94574e-07
4.15116e-07
9.09171e-07
-1.64042e-06
-1.45426e-06
6.3143e-07
-1.01425e-06
-1.52365e-06
-5.44634e-07
-4.48913e-07
-1.69966e-06
2.07396e-06
2.67466e-06
5.86102e-07
2.31528e-07
2.0156e-06
2.80755e-06
5.18736e-06
3.03247e-06
3.59763e-06
6.24371e-07
-4.45664e-07
-5.43044e-07
2.95341e-06
8.31767e-07
6.89308e-07
3.07565e-06
3.28421e-06
8.63259e-07
1.30668e-06
7.1235e-07
2.88652e-06
-2.98455e-06
3.05105e-06
1.41279e-06
-1.02324e-06
-7.02271e-07
1.25202e-06
2.39575e-06
1.37772e-06
1.19622e-06
3.50679e-07
7.49043e-07
9.74203e-07
2.31043e-06
4.57567e-06
-9.9344e-05
1.70763e-05
-0.000124094
-6.93413e-06
-4.52802e-05
-1.44522e-06
-0.000326714
3.61628e-06
-0.000165993
1.33364e-05
-0.000192463
1.21571e-05
0.000223306
-1.10858e-05
0.000136527
2.26709e-06
-6.86413e-05
2.05544e-05
0.000221212
3.13456e-06
0.000170765
6.77464e-06
0.00017223
8.99349e-06
8.64208e-05
5.06586e-06
-7.31918e-05
5.6638e-06
-0.000104466
-6.55768e-06
-0.00018097
-5.70714e-06
-0.000219983
3.83846e-06
-0.000106125
1.70061e-06
-1.93079e-05
-3.01112e-06
0.000125389
-6.03439e-06
0.000411213
-7.13902e-06
0.000201263
-4.66254e-06
9.98388e-05
8.31938e-06
4.49133e-05
1.12713e-06
-8.32765e-05
8.23813e-07
-6.69812e-05
-1.77976e-05
-0.000116129
-0.000171934
2.23899e-05
1.97633e-05
-1.59827e-05
-5.49438e-06
9.62018e-07
1.49727e-05
5.28194e-06
-1.72306e-05
-6.30041e-06
2.43071e-05
-1.42638e-05
2.51733e-05
-1.42247e-05
-8.84353e-06
6.40058e-06
-3.80126e-05
4.47372e-06
-1.656e-05
-1.22583e-05
2.922e-05
-5.019e-06
-2.44228e-05
1.52958e-05
-4.5699e-05
2.37562e-05
-9.18667e-06
1.31121e-05
1.47413e-05
-1.0646e-05
1.35755e-05
-3.91022e-06
-2.68107e-05
-6.90526e-06
-8.86735e-07
-4.51717e-06
-1.4449e-05
3.1615e-06
-6.36245e-06
2.53926e-06
-1.24649e-05
-5.58101e-06
-1.43345e-05
1.95528e-05
-3.70829e-05
3.03991e-06
6.44961e-06
-7.14092e-06
3.01305e-05
5.97352e-06
-2.47345e-05
1.46001e-06
-8.18541e-06
-1.60469e-05
1.15277e-06
-1.17057e-05
-2.13845e-05
-6.1822e-06
-2.89503e-06
4.27632e-06
-2.89573e-06
-2.34454e-07
8.05189e-06
-8.21313e-06
-7.4903e-06
-2.65101e-06
1.11892e-05
7.69358e-06
1.0697e-05
1.20699e-05
-4.15118e-06
-9.3113e-06
-1.66542e-05
-7.64689e-06
-8.41944e-06
8.41805e-06
1.36226e-05
6.02797e-06
-9.93699e-06
-4.02692e-06
-1.97416e-05
-6.76478e-06
-4.27639e-06
-1.33027e-06
7.53268e-06
5.92906e-06
6.30583e-06
-1.41716e-07
-1.22027e-05
3.17244e-07
-5.90727e-07
2.32221e-06
-6.84768e-06
1.90479e-06
-3.18295e-06
3.70828e-06
-7.28664e-06
6.20575e-06
-7.53607e-06
-1.41023e-05
-1.67719e-05
-6.88972e-06
3.33746e-06
5.11074e-06
1.35081e-05
-2.30886e-08
-1.08261e-05
7.80208e-08
-3.7326e-06
2.08032e-06
-1.39942e-07
-6.25561e-07
-1.00459e-05
-2.52828e-06
-2.08746e-06
2.41882e-06
-1.08438e-06
-1.27479e-07
2.8019e-06
-4.18847e-06
-3.07006e-06
-1.09206e-06
3.39032e-06
4.78668e-06
2.466e-06
6.6005e-06
-3.09833e-07
-5.1504e-06
-4.91803e-06
-5.09062e-06
-2.84691e-06
4.54246e-06
3.74302e-06
3.8576e-06
-3.03909e-06
-2.63406e-06
-4.35667e-06
-4.47865e-06
-1.94029e-06
-8.93421e-07
1.96012e-06
4.25887e-06
1.19237e-06
6.53655e-07
-4.0759e-06
8.5298e-07
-2.19042e-07
1.92805e-06
-2.65489e-06
1.63021e-06
-1.4147e-06
1.80754e-06
-3.29085e-06
2.6155e-06
-2.49831e-06
-8.48687e-06
-5.69736e-06
-3.72551e-06
3.42827e-07
3.28375e-06
3.28954e-06
2.59572e-07
-3.14802e-06
-1.02423e-07
-6.15411e-07
7.14834e-07
-6.5189e-07
-8.92394e-07
-2.76389e-06
-1.00255e-06
-1.5204e-06
1.4002e-06
-3.48108e-07
-2.7893e-06
-9.36363e-07
1.04931e-06
2.83708e-06
-2.03054e-06
-2.20394e-06
1.76983e-06
1.53941e-06
2.261e-07
-1.10133e-06
3.00492e-07
1.49885e-06
4.04759e-07
8.8194e-07
1.50391e-06
1.38915e-06
9.96066e-07
1.57893e-06
-4.1373e-06
-2.41057e-06
1.50794e-07
-6.11438e-07
-4.21067e-08
7.01723e-08
-3.82185e-07
-0.000144994
6.05474e-05
4.98538e-07
-0.000120556
1.84287e-05
0.000154837
5.12821e-06
2.31135e-06
7.96061e-07
1.60499e-05
-2.11512e-06
1.32756e-05
)
;

boundaryField
{
    top_fluid_surface
    {
        type            calculated;
        value           nonuniform List<scalar> 
64
(
6.35573e-05
0.000145004
1.51682e-05
-0.000179566
-0.000189035
-0.000283376
-0.000377864
-0.000184215
-9.92161e-05
9.30239e-06
0.000392023
-0.000169811
0.000105706
-9.68763e-05
0.000111739
-0.000160784
0.000141532
0.000539615
0.000248354
0.000552283
-0.000197789
0.000158627
0.000468354
0.000425294
-0.000414666
0.000195601
0.000229859
0.000417052
0.000400509
-4.34972e-05
-5.3132e-05
0.000456901
-3.67688e-05
0.000236323
-5.95777e-05
0.000288601
-0.000224836
-0.000259537
-0.000373734
-7.68671e-05
5.29755e-05
-0.000506212
-9.08118e-05
8.05371e-05
-2.43603e-05
9.98798e-05
2.47651e-05
0.000155911
-9.35105e-05
-0.000120056
-0.000373201
-0.000602567
-0.000270104
0.000265455
0.000301191
5.43541e-05
0.000263808
0.000125938
1.19361e-05
-0.000250028
-0.000493778
-6.81056e-05
-0.000201528
8.24092e-05
)
;
    }
    bottom_fluid_surface
    {
        type            calculated;
        value           uniform 0;
    }
    lateral_surface_1
    {
        type            calculated;
        value           uniform 0;
    }
    lateral_surface_2
    {
        type            calculated;
        value           uniform 0;
    }
    lateral_surface_3
    {
        type            calculated;
        value           uniform 0;
    }
    lateral_surface_4
    {
        type            calculated;
        value           uniform 0;
    }
}


// ************************************************************************* //
