/*--------------------------------*- C++ -*----------------------------------*\
| =========                 |                                                 |
| \\      /  F ield         | OpenFOAM: The Open Source CFD Toolbox           |
|  \\    /   O peration     | Version:  v1612+                                |
|   \\  /    A nd           | Web:      www.OpenFOAM.com                      |
|    \\/     M anipulation  |                                                 |
\*---------------------------------------------------------------------------*/
FoamFile
{
    version     2.0;
    format      ascii;
    class       volScalarField;
    location    "1.95";
    object      alpha.water;
}
// * * * * * * * * * * * * * * * * * * * * * * * * * * * * * * * * * * * * * //

dimensions      [0 0 0 0 0 0 0];

internalField   nonuniform List<scalar> 
1116
(
0.999967
0.999967
0.999967
0.999967
0.999967
0.999967
0.999967
0.999967
0.999967
0.999967
0.999967
0.999967
0.999913
0.999913
0.999913
0.999913
0.999913
0.999913
0.999776
0.999776
0.999776
0.999776
0.999776
0.999776
0.999363
0.999363
0.999363
0.999363
0.999363
0.999363
0.998336
0.998336
0.998336
0.998336
0.998336
0.998336
0.98408
0.984078
0.984078
0.984078
0.984078
0.984078
0.94037
0.940365
0.940365
0.940365
0.940365
0.940364
0.849859
0.84984
0.849846
0.849845
0.849843
0.849845
0.851994
0.851985
0.851982
0.851981
0.85198
0.851981
0.850745
0.850732
0.850733
0.850732
0.85073
0.850732
0.755236
0.755251
0.75525
0.755254
0.755255
0.755245
0.999967
0.999967
0.999967
0.999967
0.999967
0.999967
0.99987
0.99987
0.99987
0.99987
0.99987
0.99987
0.984039
0.984038
0.984039
0.984039
0.984039
0.98404
0.911336
0.911334
0.911336
0.911337
0.911336
0.911339
0.812892
0.81289
0.81289
0.81289
0.812888
0.812889
0.643795
0.643788
0.643788
0.643788
0.643786
0.643784
0.411465
0.411453
0.411453
0.411454
0.411453
0.411448
0.199242
0.199234
0.199233
0.199233
0.199232
0.199229
0.0459835
0.0459824
0.0459817
0.0459811
0.0459807
0.0459797
0.0575575
0.0575538
0.0575554
0.0575544
0.0575545
0.0575514
0.106757
0.10675
0.106748
0.106747
0.106737
0.106751
0.573927
0.573935
0.573936
0.573938
0.573934
0.573938
0.999815
0.999815
0.999815
0.999815
0.999815
0.999815
0.621532
0.621527
0.621529
0.62153
0.621531
0.621536
0.392901
0.392894
0.392896
0.392898
0.392897
0.392903
0.172992
0.172986
0.172989
0.172991
0.172991
0.172993
0.00400027
0.00399834
0.00399884
0.00399953
0.00399948
0.00399964
2.73415e-09
2.73425e-09
2.73489e-09
2.73535e-09
2.73553e-09
2.73585e-09
6.45091e-12
6.45182e-12
6.45095e-12
6.44677e-12
6.44302e-12
6.44135e-12
1.61165e-11
1.61451e-11
1.61318e-11
1.61191e-11
1.61233e-11
1.60673e-11
3.4054e-10
3.40835e-10
3.40759e-10
3.40655e-10
3.39836e-10
3.39918e-10
2.97387e-07
2.97314e-07
2.97341e-07
2.97363e-07
2.97255e-07
2.97533e-07
0.00018452
0.000184525
0.000184522
0.000184521
0.000184428
0.000184567
0.34256
0.342558
0.342559
0.342564
0.342589
0.342517
0.645391
0.645391
0.645395
0.645393
0.645392
0.645404
0.00674395
0.00674298
0.00674349
0.00674383
0.00674398
0.0067449
7.69019e-07
7.68821e-07
7.68848e-07
7.68795e-07
7.68743e-07
7.68941e-07
1.84116e-07
1.84097e-07
1.84113e-07
1.84128e-07
1.84137e-07
1.84157e-07
2.7147e-09
2.71481e-09
2.71543e-09
2.71587e-09
2.71603e-09
2.71635e-09
-4.22766e-14
-4.21505e-14
-4.22156e-14
-4.22813e-14
-4.22584e-14
-4.2457e-14
5.86535e-12
5.86557e-12
5.8652e-12
5.86132e-12
5.85739e-12
5.85703e-12
6.71532e-12
6.71635e-12
6.71556e-12
6.71138e-12
6.70762e-12
6.70589e-12
4.21671e-11
4.21887e-11
4.20127e-11
4.19608e-11
4.19097e-11
4.1428e-11
-1.70002e-07
-1.70114e-07
-1.7012e-07
-1.70112e-07
-1.69779e-07
-1.70287e-07
1.14635e-05
1.14654e-05
1.1466e-05
1.1466e-05
1.14481e-05
1.14793e-05
0.0458723
0.045859
0.0458611
0.0458633
0.045901
0.0458001
1.89151e-63
1.89495e-63
1.89489e-63
1.89521e-63
1.89638e-63
1.89346e-63
3.1969e-59
3.20286e-59
3.2028e-59
3.20351e-59
3.2056e-59
3.20106e-59
2.74243e-55
2.74732e-55
2.74727e-55
2.74783e-55
2.74958e-55
2.74576e-55
1.56374e-51
1.56623e-51
1.56612e-51
1.56635e-51
1.56727e-51
1.56512e-51
6.46484e-48
6.47241e-48
6.47103e-48
6.47131e-48
6.47461e-48
6.46597e-48
1.87423e-44
1.8751e-44
1.87428e-44
1.87419e-44
1.87514e-44
1.873e-44
3.32617e-41
3.32434e-41
3.32211e-41
3.32212e-41
3.32459e-41
3.32263e-41
3.10899e-38
3.10315e-38
3.10041e-38
3.10118e-38
3.10524e-38
3.10631e-38
1.46353e-35
1.45866e-35
1.45717e-35
1.45824e-35
1.46154e-35
1.464e-35
5.01157e-33
5.01392e-33
5.01338e-33
5.01632e-33
5.02376e-33
5.02539e-33
4.15608e-30
4.16417e-30
4.16504e-30
4.1674e-30
4.17281e-30
4.17352e-30
1.98178e-27
1.98662e-27
1.98684e-27
1.98701e-27
1.98776e-27
1.98531e-27
7.42832e-60
7.44169e-60
7.44119e-60
7.44213e-60
7.44611e-60
7.43351e-60
1.29198e-55
1.29434e-55
1.29428e-55
1.29448e-55
1.29519e-55
1.29314e-55
1.14311e-51
1.14513e-51
1.14507e-51
1.14522e-51
1.14582e-51
1.14403e-51
6.74865e-48
6.75951e-48
6.75883e-48
6.7594e-48
6.76256e-48
6.75217e-48
2.86951e-44
2.87332e-44
2.87276e-44
2.87277e-44
2.87391e-44
2.86962e-44
8.36637e-41
8.37389e-41
8.3711e-41
8.37064e-41
8.37382e-41
8.36245e-41
1.42017e-37
1.4205e-37
1.41981e-37
1.41977e-37
1.42051e-37
1.41911e-37
1.18555e-34
1.1848e-34
1.18406e-34
1.18419e-34
1.1852e-34
1.18474e-34
4.72825e-32
4.71928e-32
4.71549e-32
4.7173e-32
4.72426e-32
4.72698e-32
7.93699e-30
7.92819e-30
7.92446e-30
7.92875e-30
7.94166e-30
7.94847e-30
6.18849e-27
6.19811e-27
6.19864e-27
6.20134e-27
6.20851e-27
6.20918e-27
1.93002e-24
1.93404e-24
1.93406e-24
1.93404e-24
1.93457e-24
1.93208e-24
1.24391e-56
1.24624e-56
1.24615e-56
1.24627e-56
1.24685e-56
1.24458e-56
2.2764e-52
2.2807e-52
2.28056e-52
2.28082e-52
2.2819e-52
2.27796e-52
2.10406e-48
2.10789e-48
2.10774e-48
2.10793e-48
2.10884e-48
2.10525e-48
1.27937e-44
1.28153e-44
1.28139e-44
1.28145e-44
1.28193e-44
1.27978e-44
5.45223e-41
5.46038e-41
5.45945e-41
5.45935e-41
5.46107e-41
5.45217e-41
1.55748e-37
1.55945e-37
1.55908e-37
1.55899e-37
1.55944e-37
1.55703e-37
2.65396e-34
2.65646e-34
2.65563e-34
2.65549e-34
2.65639e-34
2.65281e-34
2.39908e-31
2.40038e-31
2.39948e-31
2.39946e-31
2.40055e-31
2.39795e-31
1.09867e-28
1.09872e-28
1.09821e-28
1.09828e-28
1.09897e-28
1.09818e-28
1.87288e-26
1.87143e-26
1.87051e-26
1.87117e-26
1.87359e-26
1.87433e-26
6.10634e-24
6.11547e-24
6.11534e-24
6.11637e-24
6.12075e-24
6.11797e-24
9.2509e-22
9.26778e-22
9.26714e-22
9.26602e-22
9.2669e-22
9.25315e-22
8.69943e-54
8.71629e-54
8.71566e-54
8.71619e-54
8.7195e-54
8.70256e-54
1.85851e-49
1.86208e-49
1.86195e-49
1.86207e-49
1.86277e-49
1.85929e-49
1.94102e-45
1.9446e-45
1.94444e-45
1.9445e-45
1.94516e-45
1.94158e-45
1.26189e-41
1.26407e-41
1.26393e-41
1.26392e-41
1.26429e-41
1.26202e-41
5.37496e-38
5.38361e-38
5.38277e-38
5.38255e-38
5.38388e-38
5.37441e-38
1.45058e-34
1.45274e-34
1.45246e-34
1.45236e-34
1.45268e-34
1.45021e-34
2.24352e-31
2.24644e-31
2.24592e-31
2.24574e-31
2.24623e-31
2.24264e-31
1.7648e-28
1.76671e-28
1.76623e-28
1.76608e-28
1.76651e-28
1.76391e-28
7.00996e-26
7.01567e-26
7.01342e-26
7.01284e-26
7.01478e-26
7.00577e-26
1.25119e-23
1.25168e-23
1.25121e-23
1.2512e-23
1.25181e-23
1.25085e-23
2.00133e-21
2.00422e-21
2.00404e-21
2.00403e-21
2.00475e-21
2.0028e-21
1.74672e-19
1.74937e-19
1.74918e-19
1.74892e-19
1.74893e-19
1.74631e-19
0.0312385
0.0312402
0.0312413
0.0312396
0.0312398
0.031247
3.0832e-21
3.01544e-21
3.11708e-21
3.11708e-21
3.0832e-21
3.04934e-21
-9.33255e-14
-1.02228e-13
-1.04931e-13
-1.02597e-13
-1.01994e-13
-1.04423e-13
1.05559e-06
1.05528e-06
1.05513e-06
1.05304e-06
1.0518e-06
1.0558e-06
0.000405359
0.000405364
0.000405369
0.000405377
0.000405406
0.00040544
-3.05038e-13
-3.34118e-13
-3.42964e-13
-3.35334e-13
-3.33356e-13
-3.4131e-13
9.09465e-07
9.09337e-07
9.09332e-07
9.09296e-07
9.09259e-07
9.09283e-07
1.08336e-05
1.08289e-05
1.08327e-05
1.08228e-05
1.08131e-05
1.08368e-05
-1.79185e-12
-1.96271e-12
-2.01465e-12
-1.96981e-12
-1.95821e-12
-2.00492e-12
8.70303e-07
8.7017e-07
8.7017e-07
8.70122e-07
8.70073e-07
8.70124e-07
3.10152e-06
3.10142e-06
3.10132e-06
3.10157e-06
3.10184e-06
3.10138e-06
-2.70958e-12
-2.96786e-12
-3.04632e-12
-2.97849e-12
-2.96096e-12
-3.03143e-12
8.80236e-07
8.80112e-07
8.80105e-07
8.80075e-07
8.80045e-07
8.80056e-07
2.64092e-06
2.64025e-06
2.64036e-06
2.64026e-06
2.6401e-06
2.64043e-06
-5.65605e-16
-6.71991e-16
-7.59543e-16
-7.24156e-16
-6.89406e-16
2.79118e-30
-5.56305e-17
-5.57608e-17
-5.57087e-17
-5.56753e-17
-5.57095e-17
-5.55198e-17
2.79539e-17
2.7963e-17
2.79748e-17
2.79803e-17
2.79839e-17
2.79769e-17
2.79539e-17
2.7972e-17
2.79776e-17
2.79831e-17
2.79908e-17
2.79769e-17
2.54774e-15
2.5475e-15
2.54761e-15
2.5505e-15
2.55661e-15
2.55562e-15
4.15767e-17
4.15854e-17
4.15949e-17
4.16081e-17
4.16227e-17
4.16217e-17
1.93979e-17
1.94028e-17
1.94047e-17
1.94081e-17
1.94081e-17
1.94126e-17
1.26614e-09
1.26762e-09
1.26671e-09
1.26619e-09
1.26724e-09
1.26434e-09
2.52996e-15
2.52969e-15
2.52981e-15
2.53268e-15
2.53876e-15
2.5378e-15
9.79535e-18
9.78906e-18
9.78896e-18
9.78463e-18
9.77949e-18
9.77657e-18
9.98872e-08
9.9887e-08
9.9886e-08
9.98841e-08
9.98827e-08
9.98713e-08
6.35295e-13
6.34954e-13
6.34941e-13
6.35653e-13
6.37132e-13
6.37262e-13
6.0401e-18
6.02468e-18
6.02474e-18
6.02462e-18
6.02398e-18
6.03446e-18
2.6586e-08
2.65136e-08
2.65202e-08
2.65354e-08
2.65958e-08
2.66338e-08
5.00858e-08
4.99515e-08
4.99619e-08
4.99961e-08
5.01305e-08
5.02096e-08
8.72158e-08
8.71597e-08
8.71875e-08
8.72041e-08
8.71288e-08
8.73963e-08
4.15183e-07
4.15239e-07
4.15314e-07
4.15369e-07
4.155e-07
4.14996e-07
5.25236e-08
5.23897e-08
5.2401e-08
5.24342e-08
5.25624e-08
5.26528e-08
1.1594e-06
1.15692e-06
1.15767e-06
1.15792e-06
1.15063e-06
1.16995e-06
1.2162e-05
1.21643e-05
1.21649e-05
1.21649e-05
1.21471e-05
1.21789e-05
4.68912e-07
4.68931e-07
4.69073e-07
4.69107e-07
4.6756e-07
4.71035e-07
1.16628e-06
1.16375e-06
1.1645e-06
1.16477e-06
1.15739e-06
1.17698e-06
3.37447e-14
3.37972e-14
3.37828e-14
3.37648e-14
3.38837e-14
3.3566e-14
2.40535e-12
2.40899e-12
2.40811e-12
2.40662e-12
2.41851e-12
2.38951e-12
3.14027e-14
3.13117e-14
3.12988e-14
3.13034e-14
3.13786e-14
3.22909e-14
1.34e-12
1.34358e-12
1.34332e-12
1.34115e-12
1.35114e-12
1.32679e-12
2.88731e-10
2.89363e-10
2.89284e-10
2.88937e-10
2.91163e-10
2.85869e-10
2.51508e-17
2.51509e-17
2.51509e-17
2.51509e-17
2.51511e-17
2.51505e-17
3.01408e-12
3.02025e-12
3.01909e-12
3.01638e-12
3.03829e-12
2.98641e-12
1.55573e-10
1.55769e-10
1.55693e-10
1.55663e-10
1.56749e-10
1.54306e-10
-4.96318e-13
-1.31645e-13
-1.30838e-14
-4.67581e-13
-4.05379e-12
1.09831e-17
9.52826e-08
9.51817e-08
9.52018e-08
9.52142e-08
9.63292e-08
9.39439e-08
1.18552e-08
1.18696e-08
1.18637e-08
1.18621e-08
1.19432e-08
1.1762e-08
3.34046e-05
3.34444e-05
3.34261e-05
3.34229e-05
3.36003e-05
3.31987e-05
1.19456e-07
1.19396e-07
1.19404e-07
1.19422e-07
1.19454e-07
1.17969e-07
0.000527435
0.000527546
0.000527453
0.000527503
0.00052937
0.000525317
0.000344265
0.000344449
0.000344358
0.000344365
0.000345592
0.000342859
0.00326885
0.00326904
0.0032687
0.00326896
0.00327733
0.0032592
0.0024353
0.00243573
0.00243544
0.00243561
0.00244098
0.00242906
0.000190807
0.000190884
0.000190865
0.000190877
0.000191132
0.000190517
4.69668e-51
4.70577e-51
4.70532e-51
4.70548e-51
4.70709e-51
4.69748e-51
8.10046e-53
8.11705e-53
8.11694e-53
8.11725e-53
8.11953e-53
8.10232e-53
3.24012e-56
3.24712e-56
3.24703e-56
3.24717e-56
3.24814e-56
3.24098e-56
1.0642e-46
1.06625e-46
1.06616e-46
1.0662e-46
1.06656e-46
1.06446e-46
3.70823e-48
3.71564e-48
3.71563e-48
3.71577e-48
3.71672e-48
3.70928e-48
1.70406e-51
1.70763e-51
1.70759e-51
1.70765e-51
1.70811e-51
1.70451e-51
1.1009e-42
1.10296e-42
1.10284e-42
1.10286e-42
1.1032e-42
1.10107e-42
8.00265e-44
8.01786e-44
8.01778e-44
8.0179e-44
8.01964e-44
8.00427e-44
4.5936e-47
4.60281e-47
4.6027e-47
4.60279e-47
4.60388e-47
4.59453e-47
6.64872e-39
6.66068e-39
6.65985e-39
6.65978e-39
6.66162e-39
6.64897e-39
1.02892e-39
1.03077e-39
1.03075e-39
1.03075e-39
1.03093e-39
1.02906e-39
8.12278e-43
8.13823e-43
8.13805e-43
8.13811e-43
8.1398e-43
8.12417e-43
2.50747e-35
2.51178e-35
2.51142e-35
2.51133e-35
2.51194e-35
2.50729e-35
8.35919e-36
8.37344e-36
8.37326e-36
8.37313e-36
8.37432e-36
8.35994e-36
1.04022e-38
1.0421e-38
1.04208e-38
1.04207e-38
1.04225e-38
1.04035e-38
5.85097e-32
5.86054e-32
5.8596e-32
5.85927e-32
5.86051e-32
5.84996e-32
4.3174e-32
4.32452e-32
4.32441e-32
4.32427e-32
4.32472e-32
4.31758e-32
1.05474e-34
1.05661e-34
1.05659e-34
1.05657e-34
1.05671e-34
1.05484e-34
7.95873e-29
7.97103e-29
7.96962e-29
7.96898e-29
7.97043e-29
7.95648e-29
1.41352e-28
1.41572e-28
1.41565e-28
1.41557e-28
1.41565e-28
1.41343e-28
9.04355e-31
9.05958e-31
9.05888e-31
9.05824e-31
9.05879e-31
9.04231e-31
5.90663e-26
5.91519e-26
5.91403e-26
5.91341e-26
5.91429e-26
5.90428e-26
2.96261e-25
2.96701e-25
2.96679e-25
2.96651e-25
2.9665e-25
2.96201e-25
8.70368e-27
8.72298e-27
8.72008e-27
8.71812e-27
8.71832e-27
8.69574e-27
2.42409e-23
2.42733e-23
2.42683e-23
2.42652e-23
2.42677e-23
2.42288e-23
3.70408e-22
3.70932e-22
3.70886e-22
3.70833e-22
3.70809e-22
3.7026e-22
3.54573e-22
3.55428e-22
3.55203e-22
3.54988e-22
3.55634e-22
3.53068e-22
6.83648e-21
6.8451e-21
6.84366e-21
6.84257e-21
6.84272e-21
6.83239e-21
2.36708e-19
2.37035e-19
2.3699e-19
2.36944e-19
2.36935e-19
2.3654e-19
1.52562e-18
1.5284e-18
1.52763e-18
1.52673e-18
1.5317e-18
1.5182e-18
1.57901e-18
1.5811e-18
1.58074e-18
1.5804e-18
1.58036e-18
1.57774e-18
6.32772e-17
6.33645e-17
6.3348e-17
6.3331e-17
6.33459e-17
6.31964e-17
2.86664e-16
2.86701e-16
2.86674e-16
2.86677e-16
2.85703e-16
2.87974e-16
1.6499e-16
1.6518e-16
1.65174e-16
1.65158e-16
1.64615e-16
1.64641e-16
1.31862e-14
1.31549e-14
1.31839e-14
1.3206e-14
1.27561e-14
1.31739e-14
6.83027e-15
6.81508e-15
6.83031e-15
6.84155e-15
6.60715e-15
7.62129e-15
)
;

boundaryField
{
    seabed_topleft_surface
    {
        type            zeroGradient;
    }
    seabed_topright_surface
    {
        type            zeroGradient;
    }
    breakwater_top_surface
    {
        type            zeroGradient;
    }
    breakwater_left_surface
    {
        type            zeroGradient;
    }
    breakwater_right_surface
    {
        type            zeroGradient;
    }
    water_front_surface
    {
        type            zeroGradient;
    }
    water_back_surface
    {
        type            zeroGradient;
    }
    water_left_surface
    {
        type            zeroGradient;
    }
    water_right_surface
    {
        type            zeroGradient;
    }
    water_top_surface
    {
        type            inletOutlet;
        inletValue      uniform 0;
        value           nonuniform List<scalar> 
180
(
0
0
0
0
0
0
0
0
0
0
0
0
0
0
0
0
0
0
0
0
0
0
0
0
0
0
0
0
0
0
0
0
0
0
0
0
0
0
0
0
0
0
0
0
0
0
0
0
0
0
0
0
0
0
0
0
0
0
0
0
0
0
0
0
0
0
1.16628e-06
1.16375e-06
1.1645e-06
1.16477e-06
1.15739e-06
1.17698e-06
0
0
0
0
0
0
0
0
0
0
0
0
0
0
0
0
0
0
3.34046e-05
3.34444e-05
3.34261e-05
3.34229e-05
3.36003e-05
3.31987e-05
0.000344265
0.000344449
0.000344358
0.000344365
0.000345592
0.000342859
0.000190807
0.000190884
0.000190865
0.000190877
0.000191132
0.000190517
0
0
0
0
0
0
0
0
0
0
0
0
0
0
0
0
0
0
0
0
0
0
0
0
0
0
0
0
0
0
0
0
0
0
0
0
0
0
0
0
0
0
0
0
0
0
0
0
0
0
0
0
0
0
0
0
0
0
0
0
0
0
0
0
0
0
0
0
0
0
0
0
)
;
    }
}


// ************************************************************************* //
