/*--------------------------------*- C++ -*----------------------------------*\
| =========                 |                                                 |
| \\      /  F ield         | OpenFOAM: The Open Source CFD Toolbox           |
|  \\    /   O peration     | Version:  v1612+                                |
|   \\  /    A nd           | Web:      www.OpenFOAM.com                      |
|    \\/     M anipulation  |                                                 |
\*---------------------------------------------------------------------------*/
FoamFile
{
    version     2.0;
    format      ascii;
    class       volScalarField;
    location    "1.95";
    object      p_rgh;
}
// * * * * * * * * * * * * * * * * * * * * * * * * * * * * * * * * * * * * * //

dimensions      [1 -1 -2 0 0 0 0];

internalField   nonuniform List<scalar> 
1116
(
35117
35117
35117
35117
35117
35117
33585.5
33585.5
33585.5
33585.5
33585.5
33585.5
29291.7
29291.8
29291.8
29291.7
29291.7
29291.7
24997.9
24997.9
24997.9
24997.9
24997.9
24997.9
21407.4
21407.4
21407.4
21407.4
21407.4
21407.4
18486.8
18486.8
18486.8
18486.8
18486.8
18486.8
15746.2
15746.2
15746.2
15746.2
15746.2
15746.2
13021.6
13021.5
13021.5
13021.5
13021.5
13021.5
11345.9
11345.8
11345.8
11345.7
11345.7
11345.7
13719.8
13719.8
13719.7
13719.7
13719.7
13719.7
20931.2
20931.2
20931.2
20931.2
20931.3
20931.3
32023.1
32023.4
32023.3
32023.4
32023.6
32023.4
34658.9
34658.9
34658.9
34658.9
34658.9
34658.9
31984.8
31984.8
31984.8
31984.8
31984.8
31984.8
26860.4
26860.3
26860.4
26860.4
26860.3
26860.3
21679.9
21679.8
21679.8
21679.9
21679.8
21679.9
16578.1
16578
16578.1
16578.1
16578
16578
12661.4
12661.3
12661.3
12661.3
12661.3
12661.2
8071.69
8071.46
8071.47
8071.49
8071.46
8071.37
3935.53
3935.37
3935.35
3935.35
3935.34
3935.27
962.752
962.722
962.697
962.678
962.673
962.656
1229.85
1229.8
1229.81
1229.79
1229.81
1229.79
3474.8
3474.73
3474.67
3474.65
3474.66
3474.72
20293.1
20293.3
20293.2
20293.3
20293.1
20293.6
34635
34635
34635
34635
34635
34635
19898.9
19898.7
19898.8
19898.8
19898.9
19899
11649.7
11649.5
11649.6
11649.7
11649.6
11649.8
5080.39
5080.23
5080.29
5080.36
5080.36
5080.43
127.205
127.153
127.166
127.184
127.182
127.186
-28.3959
-28.3958
-28.3952
-28.3947
-28.3945
-28.394
-12.6787
-12.6757
-12.6735
-12.672
-12.6712
-12.6705
23.4429
23.4445
23.4463
23.447
23.4468
23.4467
66.6932
66.6921
66.6924
66.6904
66.6884
66.6862
133.495
133.491
133.486
133.482
133.481
133.477
343.679
343.685
343.669
343.659
343.682
343.681
9980.39
9980.55
9980.47
9980.73
9981.28
9979.72
25242.8
25242.8
25242.9
25242.9
25242.9
25243.3
317.261
317.229
317.247
317.259
317.265
317.299
-11.9761
-11.974
-11.9737
-11.9733
-11.973
-11.973
-2.7098
-2.70953
-2.70953
-2.70946
-2.70953
-2.71006
15.6761
15.6761
15.6762
15.6765
15.6766
15.6765
17.1876
17.1875
17.1874
17.1874
17.1873
17.1871
10.3927
10.3929
10.3932
10.3936
10.394
10.3941
18.0112
18.0121
18.0127
18.0131
18.013
18.013
28.6271
28.6279
28.6288
28.6288
28.6284
28.6273
67.0702
67.068
67.0652
67.0626
67.0609
67.0591
36.2874
36.2929
36.2965
36.2941
36.3035
36.2841
1795.89
1795.43
1795.49
1795.6
1796.95
1793.36
-0.12846
-0.128462
-0.128461
-0.128461
-0.12846
-0.128459
-0.134551
-0.134551
-0.13455
-0.13455
-0.134549
-0.134548
-0.146946
-0.146946
-0.146944
-0.146944
-0.146944
-0.146943
-0.16605
-0.166049
-0.166049
-0.166049
-0.166049
-0.166049
-0.192449
-0.19245
-0.19245
-0.192451
-0.19245
-0.19245
-0.226875
-0.226877
-0.226876
-0.226874
-0.226871
-0.226869
-0.27024
-0.270241
-0.270234
-0.270225
-0.270216
-0.270208
-0.324545
-0.324536
-0.324518
-0.324498
-0.324478
-0.324463
-0.389243
-0.389213
-0.389181
-0.389148
-0.38912
-0.389101
-0.463227
-0.463193
-0.463156
-0.463124
-0.463099
-0.463085
-0.530589
-0.530563
-0.530541
-0.530526
-0.530517
-0.530514
-0.602622
-0.602637
-0.602652
-0.602663
-0.602673
-0.602681
-0.122497
-0.122498
-0.122497
-0.122497
-0.122496
-0.122495
-0.128691
-0.128691
-0.128689
-0.128689
-0.128688
-0.128687
-0.141344
-0.141343
-0.141342
-0.141342
-0.141341
-0.141341
-0.16096
-0.160959
-0.160959
-0.160959
-0.160959
-0.160959
-0.188197
-0.188196
-0.188195
-0.188194
-0.188193
-0.188193
-0.223622
-0.22362
-0.223616
-0.223611
-0.223607
-0.223603
-0.266683
-0.266675
-0.266663
-0.266651
-0.26664
-0.266632
-0.314806
-0.314787
-0.314764
-0.314743
-0.314725
-0.314713
-0.367242
-0.367208
-0.367177
-0.367153
-0.367136
-0.367128
-0.426521
-0.426477
-0.42645
-0.426439
-0.426441
-0.42645
-0.495997
-0.49599
-0.496003
-0.496031
-0.496069
-0.496105
-0.594136
-0.59421
-0.594262
-0.594297
-0.594322
-0.594336
-0.110627
-0.110628
-0.110627
-0.110627
-0.110626
-0.110625
-0.11666
-0.11666
-0.116659
-0.116658
-0.116658
-0.116657
-0.129061
-0.12906
-0.129059
-0.129059
-0.129059
-0.129059
-0.148515
-0.148514
-0.148514
-0.148513
-0.148514
-0.148514
-0.176101
-0.1761
-0.176099
-0.176097
-0.176097
-0.176096
-0.21359
-0.213587
-0.213583
-0.213578
-0.213574
-0.213572
-0.264376
-0.264366
-0.264356
-0.264346
-0.264338
-0.264333
-0.337166
-0.337144
-0.337125
-0.337111
-0.337103
-0.3371
-0.439061
-0.439014
-0.438995
-0.438988
-0.438992
-0.439006
-0.577493
-0.577439
-0.577438
-0.577462
-0.577501
-0.57754
-0.721382
-0.721405
-0.721449
-0.721505
-0.721563
-0.721608
-0.912125
-0.912171
-0.912197
-0.912199
-0.912173
-0.912142
-0.0931815
-0.093182
-0.0931815
-0.0931809
-0.0931802
-0.0931792
-0.0987131
-0.0987129
-0.0987123
-0.0987117
-0.098711
-0.0987101
-0.110169
-0.110169
-0.110168
-0.110168
-0.110168
-0.110167
-0.128389
-0.128388
-0.128388
-0.128387
-0.128387
-0.128387
-0.154786
-0.154785
-0.154784
-0.154782
-0.154782
-0.154782
-0.191144
-0.191141
-0.191138
-0.191135
-0.191134
-0.191133
-0.238465
-0.238459
-0.238456
-0.238454
-0.238454
-0.238455
-0.293441
-0.293436
-0.293439
-0.293446
-0.293456
-0.293465
-0.353992
-0.353999
-0.354029
-0.35406
-0.354094
-0.35412
-0.427474
-0.427516
-0.427585
-0.427661
-0.427732
-0.427782
-0.523286
-0.523343
-0.52342
-0.52351
-0.523598
-0.523666
-0.685346
-0.685325
-0.685267
-0.685182
-0.68508
-0.68498
1526.69
1526.77
1526.83
1526.74
1526.75
1527.1
-8.25888
-8.25823
-8.2584
-8.25872
-8.25867
-8.25888
-8.17092
-8.17099
-8.17096
-8.17084
-8.17068
-8.17053
-17.8203
-17.8187
-17.8185
-17.8188
-17.8191
-17.8194
10.8652
10.8656
10.866
10.8669
10.8683
10.8688
-7.65662
-7.65678
-7.65675
-7.65663
-7.65661
-7.65662
-0.495104
-0.494342
-0.494202
-0.494061
-0.494207
-0.494767
-1.60719
-1.60735
-1.60707
-1.60756
-1.6081
-1.60677
-4.61556
-4.61555
-4.61553
-4.61553
-4.61557
-4.61563
-3.78847
-3.78814
-3.78818
-3.7884
-3.78867
-3.78925
-3.08201
-3.082
-3.08202
-3.08208
-3.08222
-3.08242
-4.35586
-4.35594
-4.35592
-4.35591
-4.35587
-4.35579
1.03446
1.03423
1.03385
1.03346
1.03317
1.03269
2.90957
2.90944
2.90942
2.90938
2.90929
2.90917
-2.39932
-2.39931
-2.39927
-2.3992
-2.39912
-2.39901
0.592548
0.592183
0.591888
0.591756
0.591639
0.591447
2.10528
2.10512
2.10506
2.10502
2.10497
2.10488
-2.18145
-2.1814
-2.18133
-2.18124
-2.18113
-2.181
6.36203
6.36159
6.36136
6.3614
6.3616
6.3618
3.91729
3.91707
3.91701
3.91709
3.91729
3.91748
-0.966085
-0.965961
-0.965892
-0.965858
-0.965865
-0.9659
16.7772
16.7772
16.7772
16.7774
16.7777
16.7778
8.41869
8.4184
8.41845
8.41867
8.41904
8.41933
0.734141
0.734174
0.734146
0.734038
0.733824
0.733626
25.8512
25.8513
25.8513
25.8512
25.8503
25.8497
10.8282
10.8282
10.8282
10.8284
10.8275
10.8291
-0.676386
-0.675991
-0.675785
-0.675386
-0.675309
-0.674556
41.1966
41.1968
41.196
41.1936
41.1909
41.188
16.552
16.5522
16.5517
16.5504
16.5531
16.5453
1.69673
1.69758
1.69758
1.69854
1.69928
1.69792
13.6065
13.6072
13.6073
13.6083
13.6079
13.6075
1.9124
1.91566
1.90804
1.91561
1.90639
1.91697
-15.7987
-15.7978
-15.8002
-15.7946
-15.8051
-15.7889
-17.8096
-17.8114
-17.8212
-17.8171
-17.8623
-17.7385
-36.8272
-36.8237
-36.8371
-36.8249
-36.8568
-36.81
-45.0691
-45.0709
-45.0802
-45.0691
-45.0926
-45.0629
-2.55885
-2.55877
-2.5586
-2.55875
-2.55856
-2.55859
-3.23601
-3.23619
-3.23581
-3.23625
-3.23549
-3.23613
0.672768
0.672746
0.672984
0.672481
0.673339
0.671665
-4.27016
-4.27004
-4.26983
-4.26991
-4.27009
-4.2689
-6.0231
-6.0238
-6.02281
-6.02379
-6.02179
-6.02335
1.19116
1.19109
1.19203
1.1904
1.1941
1.18739
-3.88119
-3.88134
-3.88082
-3.88094
-3.88128
-3.87818
-11.2837
-11.2868
-11.2848
-11.2859
-11.2842
-11.2812
0.616426
0.61517
0.617763
0.614927
0.625278
0.608448
-12.8694
-12.869
-12.8711
-12.8673
-12.8824
-12.8504
-19.369
-19.3732
-19.3704
-19.3718
-19.3631
-19.3731
-2.41813
-2.42016
-2.41631
-2.42009
-2.38933
-2.44597
3.2813
3.28222
3.28076
3.27961
3.27299
3.27896
6.71336
6.7166
6.71007
6.71746
6.82272
6.58513
15.8093
15.8186
15.8152
15.816
15.9194
15.6928
92.0396
92.0538
92.0199
92.0507
92.2871
91.7346
111.53
111.557
111.524
111.56
111.825
111.195
-10.0827
-10.0807
-10.086
-10.0801
-10.076
-10.089
-0.070733
-0.0707333
-0.0707329
-0.0707325
-0.0707318
-0.070731
-0.0442945
-0.0442945
-0.0442942
-0.0442938
-0.0442934
-0.0442929
-0.0154817
-0.0154816
-0.0154815
-0.0154813
-0.0154812
-0.0154809
-0.0751832
-0.0751832
-0.0751827
-0.0751822
-0.0751817
-0.0751808
-0.0471753
-0.0471752
-0.0471749
-0.0471745
-0.0471741
-0.0471735
-0.0165149
-0.0165149
-0.0165147
-0.0165146
-0.0165145
-0.0165142
-0.0844858
-0.0844859
-0.0844856
-0.0844853
-0.0844851
-0.0844846
-0.053231
-0.0532311
-0.0532308
-0.0532306
-0.0532304
-0.05323
-0.018683
-0.018683
-0.0186829
-0.0186828
-0.0186827
-0.0186825
-0.0995749
-0.0995749
-0.0995746
-0.0995744
-0.0995744
-0.0995742
-0.0631654
-0.0631655
-0.0631654
-0.0631652
-0.063165
-0.0631646
-0.0222019
-0.0222019
-0.0222018
-0.0222017
-0.0222016
-0.0222013
-0.122191
-0.122191
-0.12219
-0.12219
-0.122189
-0.122189
-0.078304
-0.0783038
-0.0783035
-0.0783032
-0.0783029
-0.0783024
-0.0273906
-0.0273904
-0.0273903
-0.0273901
-0.02739
-0.0273896
-0.155618
-0.155617
-0.155616
-0.155616
-0.155616
-0.155617
-0.10107
-0.101069
-0.101069
-0.101069
-0.101069
-0.101069
-0.0346367
-0.0346363
-0.0346362
-0.0346362
-0.0346363
-0.0346365
-0.205803
-0.205802
-0.205804
-0.205806
-0.20581
-0.205813
-0.135286
-0.135286
-0.135287
-0.135288
-0.13529
-0.135292
-0.0439986
-0.0439986
-0.0439992
-0.0439999
-0.0440009
-0.0440021
-0.288354
-0.288359
-0.288367
-0.288376
-0.288385
-0.288392
-0.18909
-0.189091
-0.189096
-0.1891
-0.189104
-0.189109
-0.0543946
-0.0543955
-0.0543977
-0.0543997
-0.0544018
-0.0544041
-0.42099
-0.421005
-0.421022
-0.421036
-0.421047
-0.421055
-0.275193
-0.275199
-0.275206
-0.275212
-0.275217
-0.27522
-0.0587109
-0.0587132
-0.0587161
-0.0587193
-0.0587221
-0.0587244
-0.654392
-0.654411
-0.654422
-0.654426
-0.654423
-0.654418
-0.430789
-0.430799
-0.430802
-0.430803
-0.430798
-0.430798
-0.0528675
-0.0528694
-0.052872
-0.0528753
-0.0528783
-0.052884
-1.01917
-1.01918
-1.01916
-1.01913
-1.01908
-1.01905
-0.782639
-0.782637
-0.782621
-0.782612
-0.782575
-0.782588
0.0427745
0.042777
0.0427755
0.0427651
0.0427623
0.0427171
-1.69784
-1.69784
-1.69779
-1.69779
-1.69767
-1.69765
-1.53777
-1.5378
-1.53774
-1.53779
-1.53761
-1.53773
0.25521
0.255222
0.255238
0.255175
0.255244
0.254993
)
;

boundaryField
{
    seabed_topleft_surface
    {
        type            fixedFluxPressure;
        gradient        uniform 0;
        value           nonuniform List<scalar> 
72
(
35117
35117
35117
35117
35117
35117
33585.5
33585.5
33585.5
33585.5
33585.5
33585.5
29291.7
29291.8
29291.8
29291.7
29291.7
29291.7
24997.9
24997.9
24997.9
24997.9
24997.9
24997.9
21407.4
21407.4
21407.4
21407.4
21407.4
21407.4
18486.8
18486.8
18486.8
18486.8
18486.8
18486.8
15746.2
15746.2
15746.2
15746.2
15746.2
15746.2
13021.6
13021.5
13021.5
13021.5
13021.5
13021.5
11345.9
11345.8
11345.8
11345.7
11345.7
11345.7
13719.8
13719.8
13719.7
13719.7
13719.7
13719.7
20931.2
20931.2
20931.2
20931.2
20931.3
20931.3
32023.1
32023.4
32023.3
32023.4
32023.6
32023.4
)
;
    }
    seabed_topright_surface
    {
        type            fixedFluxPressure;
        gradient        uniform 0;
        value           nonuniform List<scalar> 
72
(
-0.12846
-0.128462
-0.128461
-0.128461
-0.12846
-0.128459
-0.134551
-0.134551
-0.13455
-0.13455
-0.134549
-0.134548
-0.146946
-0.146946
-0.146944
-0.146944
-0.146944
-0.146943
-0.16605
-0.166049
-0.166049
-0.166049
-0.166049
-0.166049
-0.192449
-0.19245
-0.19245
-0.192451
-0.19245
-0.19245
-0.226875
-0.226877
-0.226876
-0.226874
-0.226871
-0.226869
-0.27024
-0.270241
-0.270234
-0.270225
-0.270216
-0.270208
-0.324545
-0.324536
-0.324518
-0.324498
-0.324478
-0.324463
-0.389243
-0.389213
-0.389181
-0.389148
-0.38912
-0.389101
-0.463227
-0.463193
-0.463156
-0.463124
-0.463099
-0.463085
-0.530589
-0.530563
-0.530541
-0.530526
-0.530517
-0.530514
-0.602622
-0.602637
-0.602652
-0.602663
-0.602673
-0.602681
)
;
    }
    breakwater_top_surface
    {
        type            fixedFluxPressure;
        gradient        uniform 0;
        value           nonuniform List<scalar> 
36
(
-2.55885
-2.55877
-2.5586
-2.55875
-2.55856
-2.55859
-4.27016
-4.27004
-4.26983
-4.26991
-4.27009
-4.2689
-3.88119
-3.88134
-3.88082
-3.88094
-3.88128
-3.87818
-12.8694
-12.869
-12.8711
-12.8673
-12.8824
-12.8504
3.2813
3.28222
3.28076
3.27961
3.27299
3.27896
92.0396
92.0538
92.0199
92.0507
92.2871
91.7346
)
;
    }
    breakwater_left_surface
    {
        type            fixedFluxPressure;
        gradient        uniform 0;
        value           nonuniform List<scalar> 
24
(
32023.1
32023.4
32023.3
32023.4
32023.6
32023.4
20293.1
20293.3
20293.2
20293.3
20293.1
20293.6
9980.39
9980.55
9980.47
9980.73
9981.28
9979.72
1795.89
1795.43
1795.49
1795.6
1796.95
1793.36
)
;
    }
    breakwater_right_surface
    {
        type            fixedFluxPressure;
        gradient        uniform 0;
        value           nonuniform List<scalar> 
24
(
-0.602622
-0.602637
-0.602652
-0.602663
-0.602673
-0.602681
-0.594136
-0.59421
-0.594262
-0.594297
-0.594322
-0.594336
-0.912125
-0.912171
-0.912197
-0.912199
-0.912173
-0.912142
-0.685346
-0.685325
-0.685267
-0.685182
-0.68508
-0.68498
)
;
    }
    water_front_surface
    {
        type            fixedFluxPressure;
        gradient        uniform 0;
        value           nonuniform List<scalar> 
186
(
35117
33585.5
29291.7
24997.9
21407.4
18486.8
15746.2
13021.6
11345.9
13719.8
20931.2
32023.1
34658.9
31984.8
26860.4
21679.9
16578.1
12661.4
8071.69
3935.53
962.752
1229.85
3474.8
20293.1
34635
19898.9
11649.7
5080.39
127.205
-28.3959
-12.6787
23.4429
66.6932
133.495
343.679
9980.39
25242.8
317.261
-11.9761
-2.7098
15.6761
17.1876
10.3927
18.0112
28.6271
67.0702
36.2874
1795.89
-0.12846
-0.134551
-0.146946
-0.16605
-0.192449
-0.226875
-0.27024
-0.324545
-0.389243
-0.463227
-0.530589
-0.602622
-0.122497
-0.128691
-0.141344
-0.16096
-0.188197
-0.223622
-0.266683
-0.314806
-0.367242
-0.426521
-0.495997
-0.594136
-0.110627
-0.11666
-0.129061
-0.148515
-0.176101
-0.21359
-0.264376
-0.337166
-0.439061
-0.577493
-0.721382
-0.912125
-0.0931815
-0.0987131
-0.110169
-0.128389
-0.154786
-0.191144
-0.238465
-0.293441
-0.353992
-0.427474
-0.523286
-0.685346
1526.69
-8.25888
-8.17092
-17.8203
10.8652
-7.65662
-0.495104
-1.60719
-4.61556
-3.78847
-3.08201
-4.35586
1.03446
2.90957
-2.39932
0.592548
2.10528
-2.18145
6.36203
3.91729
-0.966085
16.7772
8.41869
0.734141
25.8512
10.8282
-0.676386
41.1966
16.552
1.69673
13.6065
1.9124
-15.7987
-17.8096
-36.8272
-45.0691
-2.55885
-3.23601
0.672768
-4.27016
-6.0231
1.19116
-3.88119
-11.2837
0.616426
-12.8694
-19.369
-2.41813
3.2813
6.71336
15.8093
92.0396
111.53
-10.0827
-0.070733
-0.0442945
-0.0154817
-0.0751832
-0.0471753
-0.0165149
-0.0844858
-0.053231
-0.018683
-0.0995749
-0.0631654
-0.0222019
-0.122191
-0.078304
-0.0273906
-0.155618
-0.10107
-0.0346367
-0.205803
-0.135286
-0.0439986
-0.288354
-0.18909
-0.0543946
-0.42099
-0.275193
-0.0587109
-0.654392
-0.430789
-0.0528675
-1.01917
-0.782639
0.0427745
-1.69784
-1.53777
0.25521
)
;
    }
    water_back_surface
    {
        type            fixedFluxPressure;
        gradient        uniform 0;
        value           nonuniform List<scalar> 
186
(
35117
33585.5
29291.7
24997.9
21407.4
18486.8
15746.2
13021.5
11345.7
13719.7
20931.3
32023.4
34658.9
31984.8
26860.3
21679.9
16578
12661.2
8071.37
3935.27
962.656
1229.79
3474.72
20293.6
34635
19899
11649.8
5080.43
127.186
-28.394
-12.6705
23.4467
66.6862
133.477
343.681
9979.72
25243.3
317.299
-11.973
-2.71006
15.6765
17.1871
10.3941
18.013
28.6273
67.0591
36.2841
1793.36
-0.128459
-0.134548
-0.146943
-0.166049
-0.19245
-0.226869
-0.270208
-0.324463
-0.389101
-0.463085
-0.530514
-0.602681
-0.122495
-0.128687
-0.141341
-0.160959
-0.188193
-0.223603
-0.266632
-0.314713
-0.367128
-0.42645
-0.496105
-0.594336
-0.110625
-0.116657
-0.129059
-0.148514
-0.176096
-0.213572
-0.264333
-0.3371
-0.439006
-0.57754
-0.721608
-0.912142
-0.0931792
-0.0987101
-0.110167
-0.128387
-0.154782
-0.191133
-0.238455
-0.293465
-0.35412
-0.427782
-0.523666
-0.68498
1527.1
-8.25888
-8.17053
-17.8194
10.8688
-7.65662
-0.494767
-1.60677
-4.61563
-3.78925
-3.08242
-4.35579
1.03269
2.90917
-2.39901
0.591447
2.10488
-2.181
6.3618
3.91748
-0.9659
16.7778
8.41933
0.733626
25.8497
10.8291
-0.674556
41.188
16.5453
1.69792
13.6075
1.91697
-15.7889
-17.7385
-36.81
-45.0629
-2.55859
-3.23613
0.671665
-4.2689
-6.02335
1.18739
-3.87818
-11.2812
0.608448
-12.8504
-19.3731
-2.44597
3.27896
6.58513
15.6928
91.7346
111.195
-10.089
-0.070731
-0.0442929
-0.0154809
-0.0751808
-0.0471735
-0.0165142
-0.0844846
-0.05323
-0.0186825
-0.0995742
-0.0631646
-0.0222013
-0.122189
-0.0783024
-0.0273896
-0.155617
-0.101069
-0.0346365
-0.205813
-0.135292
-0.0440021
-0.288392
-0.189109
-0.0544041
-0.421055
-0.27522
-0.0587244
-0.654418
-0.430798
-0.052884
-1.01905
-0.782588
0.0427171
-1.69765
-1.53773
0.254993
)
;
    }
    water_left_surface
    {
        type            fixedFluxPressure;
        gradient        uniform 0;
        value           nonuniform List<scalar> 
42
(
35117
35117
35117
35117
35117
35117
34658.9
34658.9
34658.9
34658.9
34658.9
34658.9
34635
34635
34635
34635
34635
34635
25242.8
25242.8
25242.9
25242.9
25242.9
25243.3
1526.69
1526.77
1526.83
1526.74
1526.75
1527.1
-8.25888
-8.25823
-8.2584
-8.25872
-8.25867
-8.25888
-8.17092
-8.17099
-8.17096
-8.17084
-8.17068
-8.17053
)
;
    }
    water_right_surface
    {
        type            fixedFluxPressure;
        gradient        uniform 0;
        value           nonuniform List<scalar> 
42
(
-0.12846
-0.128462
-0.128461
-0.128461
-0.12846
-0.128459
-0.122497
-0.122498
-0.122497
-0.122497
-0.122496
-0.122495
-0.110627
-0.110628
-0.110627
-0.110627
-0.110626
-0.110625
-0.0931815
-0.093182
-0.0931815
-0.0931809
-0.0931802
-0.0931792
-0.070733
-0.0707333
-0.0707329
-0.0707325
-0.0707318
-0.070731
-0.0442945
-0.0442945
-0.0442942
-0.0442938
-0.0442934
-0.0442929
-0.0154817
-0.0154816
-0.0154815
-0.0154813
-0.0154812
-0.0154809
)
;
    }
    water_top_surface
    {
        type            totalPressure;
        rho             rho;
        psi             none;
        gamma           1;
        p0              uniform 0;
        value           nonuniform List<scalar> 
180
(
-8.6188
-8.61958
-8.61934
-8.61881
-8.61861
-8.61883
-12.7464
-12.7473
-12.747
-12.7465
-12.7464
-12.7452
-0.616093
-0.616153
-0.616164
-0.616172
-0.616192
-0.616033
-3.71856
-3.71898
-3.71895
-3.71895
-3.71893
-3.71851
-2.7455
-2.74573
-2.74566
-2.74559
-2.74554
-2.74512
-2.96251
-2.96248
-2.96233
-2.96222
-2.96211
-2.96171
-3.27068
-3.2704
-3.27027
-3.27028
-3.27038
-3.27049
-2.72922
-2.72894
-2.72893
-2.72917
-2.72956
-2.73003
-3.50058
-3.50049
-3.5003
-3.50015
-3.49986
-3.49955
-4.72888
-4.72825
-4.7272
-4.7261
-4.7246
-4.7245
-9.62303
-9.62085
-9.61894
-9.61432
-9.62553
-9.59587
0
0
0
0
0
0
-0.0334591
-0.0334678
-0.0334646
-0.0334666
-0.0334544
-0.0334664
-0.0900042
-0.09005
-0.0900132
-0.0900432
-0.0900662
-0.089978
-0.0173939
-0.0172248
-0.0172479
-0.0173418
-0.016955
-0.0179174
0
0
0
0
0
0
0
0
0
0
0
0
0
0
0
0
0
0
-0.000104649
-0.000104642
-0.000104642
-0.000104642
-0.000104642
-0.000104649
-0.000118276
-0.000118268
-0.000118268
-0.000118268
-0.000118268
-0.000118275
-0.000149429
-0.000149418
-0.000149417
-0.000149417
-0.000149417
-0.000149428
-0.000207634
-0.000207616
-0.000207615
-0.000207615
-0.000207616
-0.000207633
-0.000311959
-0.000311927
-0.000311925
-0.000311926
-0.00031193
-0.00031196
-0.000500659
-0.000500603
-0.000500601
-0.000500607
-0.00050062
-0.00050068
-0.000850393
-0.000850304
-0.000850313
-0.000850339
-0.000850384
-0.000850519
-0.00153841
-0.00153833
-0.00153839
-0.00153848
-0.0015386
-0.00153889
-0.00284283
-0.00284294
-0.00284317
-0.00284336
-0.00284354
-0.00284401
-0.00559409
-0.00559483
-0.0055952
-0.00559519
-0.00559494
-0.00559504
-0.0102672
-0.0102683
-0.0102678
-0.0102662
-0.0102636
-0.0102618
-0.0186093
-0.018605
-0.018602
-0.0185975
-0.0185894
-0.0185864
)
;
    }
}


// ************************************************************************* //
