/*--------------------------------*- C++ -*----------------------------------*\
| =========                 |                                                 |
| \\      /  F ield         | OpenFOAM: The Open Source CFD Toolbox           |
|  \\    /   O peration     | Version:  v1612+                                |
|   \\  /    A nd           | Web:      www.OpenFOAM.com                      |
|    \\/     M anipulation  |                                                 |
\*---------------------------------------------------------------------------*/
FoamFile
{
    version     2.0;
    format      ascii;
    class       volScalarField;
    location    "7.25";
    object      p_rgh;
}
// * * * * * * * * * * * * * * * * * * * * * * * * * * * * * * * * * * * * * //

dimensions      [1 -1 -2 0 0 0 0];

internalField   nonuniform List<scalar> 
320
(
-9800.21
-9800.21
-9800.2
-9800.21
-0.00583651
-0.0117704
0.00286192
-0.000833711
-0.0106284
-0.00164848
-0.00760916
-0.010092
-0.00662909
0.00139478
0.0103756
-0.00401955
-9799.81
-9799.89
-9799.85
-9799.85
-9799.8
-9799.83
-9799.79
-9799.79
-9799.82
-9799.86
-9799.99
-9799.82
-9800.2
-9800.22
-9800.2
-9800.2
-9800.19
-9800.21
-9800.21
-9800.21
-9800.2
-9800.2
-9800.2
-9800.2
-9800.2
-9800.2
-9800.2
-9800.2
-9800.2
-9800.2
-9800.2
-9800.2
-9800.2
-9800.21
-9800.21
-9800.21
-9800.21
-9800.2
-9800.2
-9800.21
-0.00152137
-0.0105905
0.0065547
-0.000382296
0.0125477
0.013435
0.012723
0.0158291
0.00161734
0.00467732
0.0146894
0.014049
-0.00104767
0.00521535
0.0107291
0.010888
0.0112456
0.00109838
-9.01521e-05
0.0056651
-9799.85
-9799.78
-9799.96
-9799.86
-9800
-9800.02
-9800.02
-9800.04
-9799.88
-9799.93
-9800.03
-9800.03
-9799.84
-9799.98
-9800.01
-9800
-9800
-9799.92
-9799.82
-9799.97
-9800.2
-9800.2
-9800.19
-9800.21
-9800.18
-9800.18
-9800.19
-9800.19
-9800.21
-9800.21
-9800.2
-9800.19
-9800.2
-9800.2
-9800.2
-9800.2
-9800.2
-9800.21
-9800.21
-9800.2
-9800.2
-9800.2
-9800.2
-9800.2
-9800.19
-9800.19
-9800.2
-9800.2
-9800.21
-9800.21
-9800.21
-9800.2
-9800.21
-9800.2
-9800.2
-9800.21
-9800.2
-9800.21
-9800.21
-9800.2
-9800.2
-9800.2
-9800.2
-9800.2
-9800.2
-9800.2
-9800.2
-9800.2
-9800.2
-9800.21
-9800.21
-9800.21
-9800.21
-9800.21
-9800.2
-9800.21
-9800.2
-9800.2
-9800.2
-9800.2
-9800.19
-9800.19
-9800.2
-9800.2
-9800.21
-9800.21
-9800.21
-9800.2
-9800.21
-9800.2
-9800.21
-9800.21
-9800.21
-9800.21
-9800.21
-9800.21
-0.00133206
-0.00350241
-0.000515802
0.0112096
-0.00214399
-0.00253306
-0.00874014
-0.000831176
-0.00336513
-0.00433699
0.00347929
0.000578846
-0.00167681
0.000834334
-0.000874089
-0.00172448
-0.00742404
-0.00448064
0.00186997
-0.00747649
-0.00666541
-0.00108123
-0.0012816
0.00111842
-0.00154573
-0.0130564
-0.0037786
-0.011505
-9799.84
-9799.82
-9799.81
-9799.96
-9799.87
-9799.9
-9799.76
-9799.84
-9799.88
-9799.79
-9799.82
-9799.88
-9799.77
-9799.9
-9799.84
-9799.77
-9799.78
-9799.84
-9799.88
-9799.8
-9799.8
-9799.81
-9799.76
-9799.87
-9799.85
-9799.8
-9799.82
-9799.72
-9800.21
-9800.2
-9800.21
-9800.19
-9800.18
-9800.19
-9800.2
-9800.19
-9800.18
-9800.21
-9800.21
-9800.22
-9800.22
-9800.22
-9800.21
-9800.22
-9800.21
-9800.21
-9800.22
-9800.21
-9800.21
-9800.22
-9800.23
-9800.22
-9800.21
-9800.21
-9800.21
-9800.23
-9800.21
-9800.2
-9800.21
-9800.2
-9800.2
-9800.2
-9800.2
-9800.2
-9800.19
-9800.2
-9800.21
-9800.22
-9800.22
-9800.21
-9800.22
-9800.22
-9800.21
-9800.21
-9800.21
-9800.21
-9800.21
-9800.21
-9800.22
-9800.22
-9800.21
-9800.21
-9800.21
-9800.21
-9800.21
-9800.2
-9800.2
-9800.2
-9800.2
-9800.19
-9800.2
-9800.2
-9800.2
-9800.2
-9800.21
-9800.21
-9800.21
-9800.21
-9800.21
-9800.21
-9800.21
-9800.21
-9800.21
-9800.21
-9800.21
-9800.21
-9800.21
-9800.21
-9800.21
-9800.21
-9800.21
-9800.21
-0.00394345
-0.00594488
-0.0029981
-0.00662866
-9799.81
-9799.79
-9799.83
-9799.88
)
;

boundaryField
{
    top_fluid_surface
    {
        type            totalPressure;
        rho             rho;
        psi             none;
        gamma           1;
        p0              uniform 0;
        value           nonuniform List<scalar> 
64
(
-8.46591e-09
-1.39827e-07
0
-1.61626e-10
-2.10583e-08
-2.63928e-09
-1.91008e-08
-2.1664e-08
-1.65148e-08
-2.45039e-10
0
-3.33674e-09
-2.28235e-10
-2.63554e-08
0
0
0
0
0
0
0
0
0
0
-2.45384e-09
0
0
0
0
0
-1.51894e-11
0
-1.36013e-09
-1.98489e-09
-2.59031e-10
0
-7.38854e-12
-2.1785e-08
-2.59826e-08
-9.82354e-10
-2.05657e-10
-9.68761e-09
0
0
-5.99505e-10
0
-5.74711e-10
-3.38402e-10
-1.43331e-08
-6.88044e-09
0
-1.80228e-08
-1.77202e-08
-3.3863e-11
-4.1445e-12
0
-1.89286e-09
-3.56776e-08
-7.10677e-09
-4.25635e-08
-8.67612e-09
-5.13873e-09
-1.41807e-09
-2.08243e-08
)
;
    }
    bottom_fluid_surface
    {
        type            fixedFluxPressure;
        gradient        uniform 0;
        value           nonuniform List<scalar> 
64
(
-9800.2
-9800.2
-9800.2
-9800.2
-9800.2
-9800.2
-9800.2
-9800.2
-9800.2
-9800.21
-9800.21
-9800.21
-9800.21
-9800.21
-9800.2
-9800.21
-9800.2
-9800.2
-9800.2
-9800.2
-9800.19
-9800.19
-9800.2
-9800.2
-9800.21
-9800.21
-9800.21
-9800.2
-9800.21
-9800.2
-9800.21
-9800.21
-9800.21
-9800.21
-9800.21
-9800.21
-9800.21
-9800.2
-9800.2
-9800.2
-9800.2
-9800.19
-9800.2
-9800.2
-9800.2
-9800.2
-9800.21
-9800.21
-9800.21
-9800.21
-9800.21
-9800.21
-9800.21
-9800.21
-9800.21
-9800.21
-9800.21
-9800.21
-9800.21
-9800.21
-9800.21
-9800.21
-9800.21
-9800.21
)
;
    }
    lateral_surface_1
    {
        type            fixedFluxPressure;
        gradient        uniform 0;
        value           nonuniform List<scalar> 
40
(
-0.00133206
-0.00350241
-0.000515802
0.0112096
-0.00214399
-0.00253306
-0.00874014
-0.011505
-9799.84
-9799.82
-9799.81
-9799.96
-9799.87
-9799.9
-9799.76
-9799.72
-9800.21
-9800.2
-9800.21
-9800.19
-9800.18
-9800.19
-9800.2
-9800.23
-9800.21
-9800.2
-9800.21
-9800.2
-9800.2
-9800.2
-9800.2
-9800.21
-9800.21
-9800.2
-9800.2
-9800.2
-9800.2
-9800.19
-9800.2
-9800.21
)
;
    }
    lateral_surface_2
    {
        type            fixedFluxPressure;
        gradient        uniform 0;
        value           nonuniform List<scalar> 
40
(
0.000834334
-0.000874089
-0.00172448
-0.00742404
-0.00448064
0.00186997
-0.00747649
-0.00666541
-9799.9
-9799.84
-9799.77
-9799.78
-9799.84
-9799.88
-9799.8
-9799.8
-9800.22
-9800.21
-9800.22
-9800.21
-9800.21
-9800.22
-9800.21
-9800.21
-9800.21
-9800.22
-9800.22
-9800.21
-9800.21
-9800.21
-9800.21
-9800.21
-9800.21
-9800.21
-9800.21
-9800.21
-9800.21
-9800.21
-9800.21
-9800.21
)
;
    }
    lateral_surface_3
    {
        type            fixedFluxPressure;
        gradient        uniform 0;
        value           nonuniform List<scalar> 
40
(
-0.00874014
-0.000831176
-0.00336513
-0.00433699
0.00347929
0.000578846
-0.00167681
0.000834334
-9799.76
-9799.84
-9799.88
-9799.79
-9799.82
-9799.88
-9799.77
-9799.9
-9800.2
-9800.19
-9800.18
-9800.21
-9800.21
-9800.22
-9800.22
-9800.22
-9800.2
-9800.2
-9800.19
-9800.2
-9800.21
-9800.22
-9800.22
-9800.21
-9800.2
-9800.2
-9800.2
-9800.2
-9800.21
-9800.21
-9800.21
-9800.21
)
;
    }
    lateral_surface_4
    {
        type            fixedFluxPressure;
        gradient        uniform 0;
        value           nonuniform List<scalar> 
40
(
-0.00666541
-0.00108123
-0.0012816
0.00111842
-0.00154573
-0.0130564
-0.0037786
-0.011505
-9799.8
-9799.81
-9799.76
-9799.87
-9799.85
-9799.8
-9799.82
-9799.72
-9800.21
-9800.22
-9800.23
-9800.22
-9800.21
-9800.21
-9800.21
-9800.23
-9800.21
-9800.21
-9800.22
-9800.22
-9800.21
-9800.21
-9800.21
-9800.21
-9800.21
-9800.21
-9800.21
-9800.21
-9800.21
-9800.21
-9800.21
-9800.21
)
;
    }
}


// ************************************************************************* //
