/*--------------------------------*- C++ -*----------------------------------*\
| =========                 |                                                 |
| \\      /  F ield         | OpenFOAM: The Open Source CFD Toolbox           |
|  \\    /   O peration     | Version:  v1612+                                |
|   \\  /    A nd           | Web:      www.OpenFOAM.com                      |
|    \\/     M anipulation  |                                                 |
\*---------------------------------------------------------------------------*/
FoamFile
{
    version     2.0;
    format      ascii;
    class       volVectorField;
    location    "7.25";
    object      U;
}
// * * * * * * * * * * * * * * * * * * * * * * * * * * * * * * * * * * * * * //

dimensions      [0 1 -1 0 0 0 0];

internalField   nonuniform List<vector> 
320
(
(2.4527e-06 -1.42142e-05 1.99066e-05)
(-5.25112e-06 -1.01825e-05 -1.43506e-05)
(-1.80893e-05 -8.08808e-06 -1.65512e-05)
(5.45973e-06 2.01299e-05 -1.38199e-05)
(0.000477038 1.37417e-05 -0.000130122)
(0.000284912 -0.00023841 -0.000528824)
(0.00037941 -4.28529e-05 0.000184569)
(0.000308006 9.40509e-05 -1.79792e-05)
(0.000401723 8.1806e-05 -0.000205223)
(0.000286952 0.00033877 -7.26537e-05)
(0.000227089 0.000177174 -0.000195452)
(5.94897e-06 5.29559e-05 -0.000208154)
(-0.000472669 0.000159248 -0.000181741)
(-0.000244809 -0.000305104 -2.21377e-05)
(-0.000345019 0.00026927 0.000261549)
(-4.63861e-05 0.000189422 -8.16914e-05)
(1.37219e-05 -5.56639e-06 3.60168e-05)
(1.70653e-05 -3.31129e-06 2.10674e-05)
(4.26249e-05 -5.58722e-06 -6.21943e-06)
(1.07489e-05 1.56749e-06 -1.84015e-05)
(2.54234e-05 -9.33685e-06 6.08448e-06)
(1.54877e-05 2.08256e-05 3.40348e-05)
(-1.18621e-05 1.04099e-05 3.27729e-05)
(8.968e-07 -1.68263e-05 5.34578e-08)
(-2.95348e-05 2.64921e-05 4.87781e-05)
(-2.04887e-05 -4.33543e-05 3.39003e-05)
(-3.15398e-05 -4.48671e-06 -5.19261e-05)
(-1.08804e-05 8.27345e-06 2.42555e-05)
(-9.48482e-06 -1.27278e-06 2.15625e-05)
(-9.56405e-06 -4.50676e-06 1.74054e-05)
(-1.70836e-05 -3.57834e-06 -5.68828e-06)
(-1.37902e-06 8.11548e-07 -1.90562e-05)
(-8.91644e-06 6.24371e-06 4.44556e-06)
(-2.72356e-06 -1.01254e-05 1.91199e-05)
(9.08108e-06 -2.30178e-06 1.56868e-05)
(5.77948e-07 1.15751e-05 -5.70161e-06)
(1.57626e-05 -1.45591e-05 2.92087e-05)
(1.0932e-05 2.20033e-05 2.20135e-05)
(1.64982e-05 -1.58531e-06 -2.90778e-05)
(8.91624e-06 -6.79331e-06 1.70308e-05)
(1.35001e-06 -8.23563e-06 6.88942e-06)
(-3.04932e-06 -6.76655e-06 -6.99499e-06)
(-9.77891e-06 -4.71165e-06 -3.40258e-06)
(3.82196e-06 1.15261e-05 -9.10503e-06)
(-3.87944e-06 -8.9596e-07 6.58047e-06)
(-4.96024e-06 -3.37363e-06 -1.41325e-06)
(-8.99862e-06 -2.81027e-06 -1.09656e-06)
(-1.54897e-07 5.46351e-07 1.04924e-06)
(-4.02017e-06 4.62811e-06 3.51322e-07)
(-1.32278e-06 -6.15951e-06 6.18789e-06)
(6.29043e-06 -1.51934e-06 5.42371e-06)
(9.18871e-07 7.03148e-06 8.62127e-07)
(9.01104e-06 -8.98703e-06 6.47727e-06)
(6.56056e-06 1.19565e-05 3.44617e-06)
(9.64068e-06 -8.67152e-07 -8.8112e-06)
(6.15259e-06 -3.89807e-06 4.16255e-06)
(-0.000332787 7.00658e-05 -2.13651e-05)
(0.000378109 8.95568e-05 -0.000229588)
(0.000257536 -3.18604e-05 0.000123399)
(0.000176208 0.000208037 8.65926e-06)
(0.000241341 0.000402568 0.000315425)
(0.000303486 -0.000107948 0.000349793)
(0.000246698 0.000153147 0.000306653)
(0.000365935 -0.000275213 0.000404922)
(0.000279362 -0.000327578 3.40082e-05)
(-3.68882e-05 0.000125622 7.17663e-05)
(-0.000103149 0.0002441 0.000351035)
(0.000401926 0.00024415 0.000357057)
(0.000359297 0.000226256 -7.00549e-05)
(-0.000219301 0.000192328 0.0001337)
(0.000303754 -0.000153738 0.000247899)
(4.36754e-05 2.64528e-05 0.000266373)
(0.000196162 0.000185544 0.000270386)
(0.000351242 0.000462763 4.29575e-05)
(0.000392323 2.51876e-05 -5.51169e-06)
(0.000332632 0.000155549 0.000157512)
(-2.69054e-05 -1.50492e-05 -1.48152e-05)
(6.75229e-06 -1.15633e-06 3.08903e-05)
(1.10522e-05 -2.76589e-05 7.6253e-06)
(1.52553e-05 -9.48819e-06 7.9529e-06)
(-5.36797e-06 3.09725e-05 -5.86308e-05)
(2.21743e-05 -7.8214e-06 -8.06815e-05)
(-1.03713e-05 -1.12136e-06 -6.16447e-05)
(-1.50093e-05 -3.28981e-05 -9.93108e-05)
(9.00417e-06 -3.97061e-05 8.46652e-06)
(-1.7088e-05 -5.66711e-06 1.71062e-05)
(-2.4695e-05 1.96712e-05 -6.01567e-05)
(3.66132e-05 4.80667e-06 -7.30965e-05)
(1.82054e-05 -6.1449e-06 4.8386e-05)
(-2.73724e-05 1.9763e-07 -4.83166e-05)
(1.81443e-05 -3.64861e-05 -3.92773e-05)
(-2.68957e-05 -9.94291e-06 -5.53298e-05)
(3.18817e-06 1.15623e-05 -6.49197e-05)
(2.30307e-05 2.92908e-05 -9.59817e-06)
(7.61362e-06 -9.32442e-07 4.04294e-07)
(3.18529e-05 9.92228e-06 -4.94043e-05)
(1.90619e-05 9.30006e-06 -7.33632e-06)
(1.66048e-07 -2.76589e-06 1.70486e-05)
(-2.94467e-06 7.49819e-06 1.0933e-05)
(-4.71446e-06 -2.81839e-06 4.74778e-06)
(4.23203e-06 -2.288e-05 -2.79765e-05)
(-3.97124e-06 -1.16499e-06 -3.25006e-05)
(1.20118e-05 -2.01455e-06 -3.40656e-05)
(1.04614e-05 1.87901e-05 -4.72525e-05)
(4.67622e-07 2.40785e-05 6.58257e-06)
(1.2265e-05 6.22405e-06 1.58988e-05)
(1.7464e-05 -7.31138e-06 -3.74315e-05)
(-1.62424e-05 2.25604e-06 -3.75945e-05)
(-5.8288e-06 3.81876e-06 3.20222e-05)
(1.51988e-05 -4.93941e-07 -3.09408e-05)
(-1.18109e-05 2.10966e-05 -2.66696e-05)
(1.56822e-05 7.30801e-06 -3.35915e-05)
(-2.91917e-06 -7.35536e-06 -4.04096e-05)
(-9.5764e-06 -1.62312e-05 -5.22259e-06)
(7.60725e-07 1.29107e-06 -2.49533e-06)
(-1.31287e-05 -5.32218e-06 -3.71478e-05)
(1.14759e-05 5.4889e-06 -4.16971e-06)
(8.25653e-07 -6.53472e-07 6.69005e-06)
(-1.13489e-06 5.23163e-06 -3.21038e-06)
(-2.60923e-06 -9.43211e-07 3.71996e-06)
(3.44955e-06 -1.26268e-05 -9.19537e-06)
(-1.59729e-06 -9.19179e-07 -1.55029e-05)
(6.69962e-06 -1.78788e-06 -1.04378e-05)
(6.67781e-06 1.03585e-05 -1.72611e-05)
(-4.37752e-07 1.29788e-05 2.24547e-06)
(6.91851e-06 3.11589e-06 -1.58687e-07)
(1.04786e-05 -4.65476e-06 -8.55294e-06)
(-9.36977e-06 5.10974e-07 -1.27054e-05)
(-2.31072e-06 2.70698e-06 5.2801e-06)
(9.89229e-06 -1.18754e-06 -8.55904e-06)
(-5.79036e-06 1.14772e-05 -5.90014e-06)
(1.074e-05 3.70025e-06 -9.1286e-06)
(-6.10724e-07 -4.08239e-06 -1.07081e-05)
(-4.63907e-06 -8.64394e-06 -3.06156e-06)
(1.73645e-06 9.39485e-07 4.02737e-07)
(-7.09689e-06 -3.25852e-06 -6.41818e-06)
(2.50543e-07 -4.62405e-06 1.85721e-06)
(7.58693e-07 -2.78851e-06 -1.68795e-06)
(-5.70304e-06 -2.2017e-06 -1.50358e-06)
(1.47953e-06 7.05901e-06 -1.29102e-06)
(-3.86657e-06 -1.17778e-06 2.30349e-06)
(-2.32384e-06 -2.91161e-07 2.77961e-06)
(-3.09437e-06 -7.80477e-07 -5.937e-07)
(1.8008e-06 -8.2072e-07 -1.858e-06)
(-1.02072e-06 5.66486e-07 7.10023e-07)
(2.91271e-07 -2.14965e-06 1.81714e-06)
(3.5269e-06 9.20405e-07 2.44345e-06)
(1.13582e-06 2.37381e-06 -7.08188e-07)
(5.71786e-06 -2.97748e-06 2.81726e-06)
(3.45073e-06 6.17368e-06 2.91117e-06)
(6.43477e-06 -9.52022e-07 -2.59371e-06)
(3.34697e-06 -1.25522e-06 2.68617e-06)
(6.34073e-06 2.4758e-06 -5.28784e-07)
(-7.13504e-07 -1.67967e-06 1.2761e-06)
(3.61405e-07 9.63859e-07 1.15496e-06)
(1.39795e-06 -2.47991e-06 2.33622e-08)
(7.99806e-07 -6.49396e-06 -2.78181e-06)
(-1.52507e-06 1.11687e-07 -3.19457e-06)
(1.80808e-06 -7.14848e-07 -3.81539e-06)
(1.53665e-06 5.54946e-06 -4.53326e-06)
(4.23526e-07 6.63315e-06 6.8369e-07)
(2.70849e-06 1.21339e-06 1.60247e-06)
(4.6921e-06 -2.71558e-06 -3.76324e-06)
(-3.04397e-06 4.02775e-07 -4.04549e-06)
(-1.80514e-06 1.02131e-06 2.80695e-06)
(3.93887e-06 6.77284e-07 -3.44711e-06)
(-3.22521e-06 5.64124e-06 -3.05588e-06)
(4.32624e-06 1.88571e-06 -4.06188e-06)
(-1.21191e-06 -1.48483e-06 -4.63315e-06)
(-1.88843e-06 -4.72787e-06 -1.42218e-06)
(-9.26374e-07 -1.27183e-06 -1.0276e-06)
(-4.01874e-06 -1.97715e-06 -4.0055e-06)
(0.000498067 0.000158588 -5.21562e-05)
(1.92731e-05 7.3169e-05 -6.30062e-05)
(0.000580757 -0.000193104 -2.2761e-05)
(0.000168418 -0.000130314 0.000285759)
(-5.18037e-05 -0.000103255 3.8441e-06)
(0.00013975 9.85501e-05 -0.000208734)
(-0.000513178 -2.80112e-06 -0.000227959)
(-0.000619001 0.000369223 -4.4325e-05)
(-0.000547032 -3.63221e-05 -2.02809e-05)
(-0.000546893 0.000157983 -0.000139195)
(-0.00054308 0.000115642 0.000146358)
(-0.000160206 -6.17874e-05 1.16522e-05)
(-0.000276615 0.000179662 -3.46267e-05)
(-0.000105737 -0.000208101 4.54354e-05)
(0.000217111 -0.00037991 -3.39031e-05)
(0.000168726 -0.000460768 -2.60155e-05)
(0.000243995 -0.000649341 -0.000169311)
(5.6307e-05 -0.000306578 -0.000117307)
(-9.56854e-05 -0.000349088 1.38035e-05)
(0.000263876 -0.000428997 -0.000189857)
(1.75215e-05 -0.000310479 -0.000188256)
(0.000135674 -2.86296e-05 -8.22958e-06)
(0.000141449 5.12425e-05 -2.87906e-06)
(0.000161039 3.90257e-06 -5.03723e-07)
(-4.00181e-05 0.000466459 -6.15282e-05)
(0.0001626 0.000166076 -0.000267124)
(0.000102716 0.000178139 -0.000119221)
(0.000184914 0.000240641 -0.000291765)
(3.83391e-05 2.58665e-05 1.45461e-05)
(1.94278e-07 4.59507e-06 -1.65128e-05)
(2.6332e-05 -1.22971e-06 2.52632e-05)
(2.54027e-05 -1.49889e-05 -4.98393e-05)
(-1.6e-05 -1.55772e-05 -2.84217e-05)
(-2.43629e-05 1.62661e-05 2.21091e-05)
(-3.76898e-05 3.41886e-06 7.28217e-05)
(-5.05371e-05 3.70367e-05 2.93556e-05)
(-3.16251e-05 -1.05932e-05 -2.87116e-05)
(-5.33081e-05 -3.56066e-05 6.55333e-05)
(-6.6096e-05 1.00355e-05 7.68225e-05)
(-1.0391e-05 1.87466e-05 1.67027e-05)
(-7.65522e-06 1.9409e-05 7.77385e-06)
(1.4683e-05 2.09085e-06 -2.27131e-05)
(8.73941e-06 -2.02419e-05 3.28805e-05)
(5.01193e-06 -2.3738e-05 6.51264e-06)
(1.39504e-05 -4.99465e-05 3.88132e-05)
(5.5076e-06 -1.08078e-06 9.91406e-06)
(8.01046e-07 -3.7247e-05 1.73587e-05)
(9.60431e-06 -2.92515e-05 3.85574e-05)
(1.13143e-05 -2.8708e-05 6.16739e-05)
(1.1858e-05 -3.6305e-05 -2.94426e-06)
(1.14976e-05 1.15359e-05 -4.21519e-05)
(3.33336e-05 6.56509e-06 3.50826e-05)
(6.50463e-06 -5.70873e-08 -1.27646e-07)
(3.99154e-06 1.70953e-05 -6.11394e-07)
(2.45282e-05 1.56765e-05 3.76772e-05)
(9.75065e-06 1.10876e-05 4.4062e-05)
(-1.57422e-05 -1.31236e-05 4.75862e-06)
(6.36218e-06 -1.95187e-06 -9.93454e-06)
(-7.68279e-06 -4.25437e-07 1.12843e-05)
(-9.51475e-06 5.89884e-06 -2.30954e-05)
(1.32889e-05 6.14328e-06 -1.88449e-05)
(1.6434e-05 -1.21075e-05 2.38793e-05)
(1.93875e-05 -6.05504e-06 4.78999e-05)
(2.54399e-05 -2.32162e-05 1.90373e-05)
(1.90519e-05 4.2021e-06 -1.4179e-05)
(3.08093e-05 1.52479e-05 3.31343e-05)
(3.63106e-05 -5.30329e-06 5.02689e-05)
(6.72241e-06 -8.33257e-06 7.65272e-06)
(3.90164e-06 -9.72353e-06 6.35122e-06)
(-9.22081e-06 -5.79071e-07 -1.58919e-05)
(-1.94544e-06 1.25416e-05 2.06953e-05)
(1.24138e-06 1.36299e-05 4.94091e-06)
(-2.04726e-06 2.87638e-05 2.33879e-05)
(3.32974e-06 -5.62342e-07 2.05902e-06)
(-1.5156e-06 1.96054e-05 4.5756e-06)
(-6.93584e-06 1.61525e-05 2.02029e-05)
(-6.07936e-06 1.47331e-05 3.15011e-05)
(-7.49928e-06 2.21265e-05 -1.28279e-06)
(-5.04949e-06 -5.66421e-06 -2.94541e-05)
(-2.04728e-05 -3.2568e-06 2.17075e-05)
(-9.52952e-07 2.09335e-06 -2.02718e-07)
(-2.14937e-06 -1.03451e-05 -6.35386e-06)
(-1.2589e-05 -7.2038e-06 2.14212e-05)
(-4.03326e-06 -4.56827e-06 1.57709e-05)
(-7.53805e-06 -7.66515e-06 3.18936e-06)
(3.54776e-06 -8.20595e-07 -3.61809e-06)
(-3.62244e-06 2.62865e-07 6.87244e-06)
(-4.67087e-06 3.6276e-06 -8.25514e-06)
(8.85941e-06 3.79875e-06 -7.28493e-07)
(1.05119e-05 -7.84102e-06 8.33093e-07)
(1.00219e-05 -3.26405e-06 1.25892e-05)
(1.45989e-05 -1.30521e-05 7.27252e-06)
(9.59633e-06 4.39613e-07 -3.69139e-06)
(1.59576e-05 8.82017e-06 1.10005e-05)
(2.02035e-05 -2.50895e-06 9.0185e-06)
(3.09097e-06 -5.91814e-06 6.06093e-06)
(1.30706e-06 -5.57159e-06 1.47954e-06)
(-5.59642e-06 -7.55045e-07 -5.89511e-07)
(-1.35492e-06 6.14836e-06 6.72147e-06)
(1.28198e-06 7.51834e-06 1.46235e-06)
(-1.07102e-06 1.53444e-05 7.16132e-06)
(2.6175e-06 -7.79807e-07 3.34761e-06)
(2.41108e-07 1.04162e-05 5.05835e-06)
(-3.63294e-06 8.87101e-06 6.0616e-06)
(-3.14472e-06 8.2588e-06 1.06832e-05)
(-3.75701e-06 1.31849e-05 3.28799e-07)
(-1.43692e-06 -3.80795e-06 -4.93138e-06)
(-1.12645e-05 -3.42173e-06 5.01736e-06)
(-7.76261e-07 1.47992e-06 -2.0045e-06)
(-1.14103e-06 -6.35577e-06 1.9647e-06)
(-8.07152e-06 -3.78598e-06 4.53135e-06)
(-1.66864e-06 -1.26229e-06 7.52731e-06)
(-4.92505e-06 -3.53885e-06 6.94723e-08)
(3.04949e-06 -8.90759e-07 -8.19163e-07)
(-2.35464e-06 -2.47653e-07 8.72795e-07)
(-1.52362e-06 7.50381e-07 -1.67429e-06)
(4.36345e-06 1.63739e-06 -2.11028e-06)
(2.94363e-06 -2.21516e-06 2.87605e-06)
(7.47498e-06 -5.06478e-07 5.30936e-06)
(9.18367e-06 -6.94856e-06 2.66607e-06)
(7.02039e-06 2.27775e-07 -7.6789e-07)
(9.29975e-06 2.24089e-06 2.78931e-06)
(9.97605e-06 -8.18034e-07 5.65579e-06)
(2.93229e-06 -9.77758e-07 7.75552e-07)
(2.36525e-06 -2.98725e-06 5.87205e-07)
(-1.26834e-06 1.60142e-06 -1.65567e-06)
(1.51831e-07 5.23502e-06 2.4024e-06)
(1.10182e-06 4.15809e-06 -2.0629e-07)
(-2.09958e-07 8.82522e-06 2.4537e-06)
(8.61323e-07 1.32411e-06 7.19102e-07)
(1.09793e-06 6.15879e-06 8.57254e-07)
(-1.23345e-06 4.16501e-06 1.67357e-06)
(-1.57839e-06 4.16698e-06 3.21944e-06)
(-1.57642e-06 6.23692e-06 -7.93101e-07)
(-9.827e-07 -9.64261e-07 -3.55736e-06)
(-4.42634e-06 -4.08835e-08 2.07915e-06)
(4.61242e-07 -6.66453e-07 -3.7395e-07)
(-3.64958e-07 -3.38556e-06 -2.91236e-07)
(-1.65253e-06 -1.52294e-06 2.42721e-06)
(8.92209e-08 -1.79712e-06 1.98787e-06)
(-4.89499e-05 0.00026482 -0.000131728)
(0.000199563 0.000130433 -0.000101378)
(0.00034044 5.5026e-05 -5.32554e-05)
(0.000113296 -0.000252798 -0.000202244)
(-4.83303e-06 1.96775e-05 4.38418e-05)
(1.10338e-05 1.60849e-05 -2.69752e-05)
(3.42985e-05 1.356e-05 -2.14416e-05)
(-1.0428e-06 -3.76275e-05 -2.9065e-05)
)
;

boundaryField
{
    top_fluid_surface
    {
        type            pressureInletOutletVelocity;
        value           nonuniform List<vector> 
64
(
(0 0 -0.000130122)
(0 0 -0.000528824)
(0.00037941 -4.28529e-05 0.000184569)
(0 0 -1.79792e-05)
(0 0 -0.000205223)
(0 0 -7.26537e-05)
(0 0 -0.000195452)
(0 0 -0.000208154)
(0 0 -0.000181741)
(0 0 -2.21377e-05)
(-0.000345019 0.00026927 0.000261549)
(0 0 -8.16914e-05)
(0 0 -2.13651e-05)
(0 0 -0.000229588)
(0.000257536 -3.18604e-05 0.000123399)
(0.000176208 0.000208037 8.65926e-06)
(0.000241341 0.000402568 0.000315425)
(0.000303486 -0.000107948 0.000349793)
(0.000246698 0.000153147 0.000306653)
(0.000365935 -0.000275213 0.000404922)
(0.000279362 -0.000327578 3.40082e-05)
(-3.68882e-05 0.000125622 7.17663e-05)
(-0.000103149 0.0002441 0.000351035)
(0.000401926 0.00024415 0.000357057)
(0 0 -7.00549e-05)
(-0.000219301 0.000192328 0.0001337)
(0.000303754 -0.000153738 0.000247899)
(4.36754e-05 2.64528e-05 0.000266373)
(0.000196162 0.000185544 0.000270386)
(0.000351242 0.000462763 4.29575e-05)
(0 0 -5.51169e-06)
(0.000332632 0.000155549 0.000157512)
(0 0 -5.21562e-05)
(0 0 -6.30062e-05)
(0 0 -2.2761e-05)
(0.000168418 -0.000130314 0.000285759)
(0 0 3.8441e-06)
(0 0 -0.000208734)
(0 0 -0.000227959)
(0 0 -4.4325e-05)
(0 0 -2.02809e-05)
(0 0 -0.000139195)
(-0.00054308 0.000115642 0.000146358)
(-0.000160206 -6.17874e-05 1.16522e-05)
(0 0 -3.46267e-05)
(-0.000105737 -0.000208101 4.54354e-05)
(0 0 -3.39031e-05)
(0 0 -2.60155e-05)
(0 0 -0.000169311)
(0 0 -0.000117307)
(-9.56854e-05 -0.000349088 1.38035e-05)
(0 0 -0.000189857)
(0 0 -0.000188256)
(0 0 -8.22958e-06)
(0 0 -2.87906e-06)
(0.000161039 3.90257e-06 -5.03723e-07)
(0 0 -6.15282e-05)
(0 0 -0.000267124)
(0 0 -0.000119221)
(0 0 -0.000291765)
(0 0 -0.000131728)
(0 0 -0.000101378)
(0 0 -5.32554e-05)
(0 0 -0.000202244)
)
;
    }
    bottom_fluid_surface
    {
        type            noSlip;
    }
    lateral_surface_1
    {
        type            noSlip;
    }
    lateral_surface_2
    {
        type            noSlip;
    }
    lateral_surface_3
    {
        type            noSlip;
    }
    lateral_surface_4
    {
        type            noSlip;
    }
}


// ************************************************************************* //
