/*--------------------------------*- C++ -*----------------------------------*\
| =========                 |                                                 |
| \\      /  F ield         | OpenFOAM: The Open Source CFD Toolbox           |
|  \\    /   O peration     | Version:  v1612+                                |
|   \\  /    A nd           | Web:      www.OpenFOAM.com                      |
|    \\/     M anipulation  |                                                 |
\*---------------------------------------------------------------------------*/
FoamFile
{
    version     2.0;
    format      ascii;
    class       volScalarField;
    location    "3.5";
    object      alpha.water;
}
// * * * * * * * * * * * * * * * * * * * * * * * * * * * * * * * * * * * * * //

dimensions      [0 0 0 0 0 0 0];

internalField   nonuniform List<scalar> 
1116
(
0.709593
0.709588
0.709589
0.70959
0.709587
0.70959
0.710624
0.710618
0.71062
0.71062
0.710617
0.71062
0.742349
0.742344
0.742345
0.742346
0.742344
0.742346
0.789667
0.789662
0.789663
0.789664
0.789662
0.789664
0.836641
0.836635
0.836637
0.836637
0.836635
0.836639
0.877865
0.877859
0.877861
0.877861
0.877859
0.877864
0.912954
0.912947
0.912948
0.912947
0.912946
0.912951
0.969305
0.969299
0.969299
0.969298
0.969296
0.969301
0.973033
0.973033
0.973033
0.973033
0.973033
0.973033
0.973033
0.973033
0.973033
0.973033
0.973033
0.973033
0.973026
0.973026
0.973026
0.973026
0.973026
0.973026
0.970521
0.970521
0.970521
0.970521
0.970521
0.970521
0.0510828
0.0510813
0.0510819
0.0510802
0.0510796
0.0510844
0.0224022
0.0224009
0.0224008
0.0224011
0.0224013
0.0224025
0.0182395
0.0182393
0.0182388
0.0182395
0.0182402
0.0182394
0.0256555
0.0256554
0.0256549
0.0256556
0.0256564
0.0256555
0.0417218
0.0417217
0.0417212
0.0417219
0.0417228
0.041722
0.0658295
0.0658291
0.0658288
0.0658295
0.0658305
0.0658301
0.0964325
0.0964318
0.0964314
0.0964319
0.0964333
0.096433
0.145887
0.145882
0.145883
0.145884
0.145884
0.145887
0.338326
0.338312
0.338315
0.338315
0.338312
0.338325
0.812315
0.812287
0.812294
0.812294
0.812286
0.812308
0.973019
0.973019
0.973019
0.973019
0.973019
0.973019
0.972959
0.972959
0.972959
0.972959
0.972959
0.972959
1.44001e-08
1.44006e-08
1.44004e-08
1.4401e-08
1.44023e-08
1.44025e-08
2.88837e-09
2.88858e-09
2.88847e-09
2.88793e-09
2.88799e-09
2.88861e-09
1.59494e-09
1.59465e-09
1.59469e-09
1.59433e-09
1.59414e-09
1.59505e-09
7.8257e-10
7.82585e-10
7.82562e-10
7.82498e-10
7.82445e-10
7.82432e-10
1.29066e-10
1.29069e-10
1.29059e-10
1.29041e-10
1.2902e-10
1.28999e-10
7.23212e-12
7.23206e-12
7.23139e-12
7.23029e-12
7.22922e-12
7.22817e-12
-2.5225e-15
-2.52247e-15
-2.52072e-15
-2.5203e-15
-2.5194e-15
-2.52443e-15
-1.63424e-06
-1.63562e-06
-1.63506e-06
-1.63512e-06
-1.63561e-06
-1.63464e-06
0.000126496
0.000126524
0.00012651
0.00012651
0.000126519
0.000126503
0.121326
0.121266
0.121291
0.121291
0.121275
0.121306
0.805431
0.805391
0.805407
0.805401
0.805386
0.805422
0.972935
0.972935
0.972935
0.972935
0.972935
0.972935
4.38541e-07
4.38437e-07
4.38514e-07
4.38582e-07
4.3857e-07
4.38674e-07
1.98376e-06
1.98356e-06
1.98362e-06
1.98363e-06
1.98353e-06
1.98383e-06
1.00242e-07
1.00298e-07
1.00279e-07
1.00276e-07
1.00309e-07
1.00245e-07
5.50325e-08
5.49888e-08
5.49974e-08
5.49674e-08
5.4953e-08
5.50621e-08
5.73584e-08
5.73535e-08
5.73527e-08
5.735e-08
5.73481e-08
5.73553e-08
7.86782e-09
7.8676e-09
7.86685e-09
7.86555e-09
7.86413e-09
7.86268e-09
-9.02392e-12
-9.02957e-12
-9.02679e-12
-9.02551e-12
-9.02616e-12
-9.02042e-12
-7.3788e-09
-7.35802e-09
-7.36033e-09
-7.35391e-09
-7.34784e-09
-7.36253e-09
4.3342e-06
4.33459e-06
4.33417e-06
4.33561e-06
4.33706e-06
4.3311e-06
0.00013254
0.000132572
0.000132557
0.000132557
0.000132567
0.000132549
0.420305
0.420201
0.420235
0.420238
0.420214
0.420262
0.972326
0.972326
0.972326
0.972326
0.972326
0.972326
2.56467e-40
2.51835e-40
2.49266e-40
2.60068e-40
2.54292e-40
2.48887e-40
5.38998e-37
5.29462e-37
5.24173e-37
5.48144e-37
5.34949e-37
5.25023e-37
5.28269e-34
5.19156e-34
5.14086e-34
5.38601e-34
5.24943e-34
5.1637e-34
3.16012e-31
3.10724e-31
3.07764e-31
3.22767e-31
3.145e-31
3.09776e-31
1.2782e-28
1.25761e-28
1.24596e-28
1.30613e-28
1.27461e-28
1.25517e-28
3.69812e-26
3.64154e-26
3.60908e-26
3.7732e-26
3.69791e-26
3.63204e-26
8.02197e-24
7.90802e-24
7.84143e-24
8.15144e-24
8.05231e-24
7.86388e-24
1.37549e-21
1.35796e-21
1.34743e-21
1.38845e-21
1.38757e-21
1.34336e-21
2.0054e-19
1.98328e-19
1.96944e-19
2.00859e-19
2.03423e-19
1.95019e-19
2.29187e-17
2.27335e-17
2.2604e-17
2.28291e-17
2.32885e-17
2.23009e-17
8.56182e-16
8.52871e-16
8.48745e-16
8.54659e-16
8.73944e-16
8.38456e-16
2.58754e-15
2.56771e-15
2.55435e-15
2.57158e-15
2.64962e-15
2.51803e-15
1.29942e-39
1.28114e-39
1.25729e-39
1.25493e-39
1.23203e-39
1.16988e-39
2.7628e-36
2.72327e-36
2.67351e-36
2.67373e-36
2.62489e-36
2.50034e-36
2.84326e-33
2.80195e-33
2.75224e-33
2.7578e-33
2.71075e-33
2.58886e-33
1.90995e-30
1.8819e-30
1.84994e-30
1.85674e-30
1.83072e-30
1.75094e-30
9.63173e-28
9.48984e-28
9.3385e-28
9.38295e-28
9.30152e-28
8.89396e-28
4.00162e-25
3.94328e-25
3.88563e-25
3.90563e-25
3.90118e-25
3.72255e-25
1.46673e-22
1.44585e-22
1.427e-22
1.43417e-22
1.44539e-22
1.37466e-22
4.97072e-20
4.90406e-20
4.84921e-20
4.87273e-20
4.95574e-20
4.69734e-20
1.58006e-17
1.56106e-17
1.54687e-17
1.55478e-17
1.59435e-17
1.50802e-17
1.18994e-16
1.15797e-16
1.12274e-16
1.14914e-16
1.12712e-16
1.06657e-16
1.89981e-15
1.88445e-15
1.87321e-15
1.88492e-15
1.94086e-15
1.84462e-15
2.08612e-13
2.07956e-13
2.07095e-13
2.06846e-13
2.13237e-13
2.04169e-13
2.89508e-34
2.87961e-34
2.876e-34
2.86847e-34
2.91086e-34
2.84417e-34
5.95176e-31
5.92292e-31
5.91712e-31
5.89513e-31
5.97162e-31
5.8663e-31
5.4956e-28
5.47187e-28
5.46801e-28
5.44153e-28
5.5022e-28
5.43538e-28
2.9109e-25
2.8998e-25
2.89843e-25
2.88142e-25
2.90893e-25
2.88872e-25
9.49375e-23
9.46133e-23
9.45778e-23
9.39646e-23
9.47821e-23
9.44775e-23
1.95088e-20
1.94453e-20
1.94337e-20
1.93152e-20
1.95019e-20
1.94367e-20
2.5944e-18
2.58527e-18
2.58142e-18
2.57184e-18
2.60828e-18
2.57853e-18
3.33444e-17
3.32828e-17
3.33404e-17
3.29824e-17
3.26451e-17
3.36639e-17
1.70793e-15
1.72626e-15
1.76019e-15
1.64919e-15
1.52085e-15
1.91652e-15
1.50137e-12
1.49528e-12
1.48629e-12
1.49676e-12
1.55626e-12
1.44825e-12
7.20624e-10
7.17606e-10
7.14403e-10
7.18851e-10
7.44437e-10
7.03665e-10
1.37004e-08
1.36535e-08
1.35499e-08
1.3631e-08
1.42897e-08
1.3174e-08
1.92571e-36
1.91366e-36
1.91036e-36
1.9079e-36
1.94036e-36
1.8842e-36
3.98079e-33
3.95615e-33
3.95004e-33
3.94308e-33
4.0074e-33
3.9059e-33
3.82725e-30
3.8027e-30
3.79734e-30
3.79135e-30
3.85474e-30
3.76564e-30
2.33382e-27
2.31683e-27
2.31356e-27
2.31401e-27
2.35975e-27
2.30115e-27
1.11998e-24
1.10984e-24
1.10798e-24
1.11312e-24
1.1433e-24
1.10493e-24
5.33734e-22
5.27926e-22
5.26818e-22
5.323e-22
5.51612e-22
5.26156e-22
2.58338e-19
2.55401e-19
2.54802e-19
2.5847e-19
2.68931e-19
2.54634e-19
1.16522e-17
1.16184e-17
1.16105e-17
1.16664e-17
1.17778e-17
1.16053e-17
1.03256e-16
1.02328e-16
1.02102e-16
1.03355e-16
1.07031e-16
1.02082e-16
8.01792e-14
7.93825e-14
7.91536e-14
8.02638e-14
8.37266e-14
7.9063e-14
1.21207e-07
1.20699e-07
1.20249e-07
1.2097e-07
1.24655e-07
1.19107e-07
4.59341e-06
4.58522e-06
4.5666e-06
4.58235e-06
4.68902e-06
4.50961e-06
7.23293e-08
7.228e-08
7.2313e-08
7.23445e-08
7.23431e-08
7.23808e-08
6.87757e-18
6.87441e-18
6.87429e-18
6.87003e-18
6.86352e-18
6.87534e-18
-7.05369e-16
-7.7252e-16
-7.9297e-16
-7.75339e-16
-7.70753e-16
-7.89267e-16
2.01241e-06
2.01242e-06
2.01243e-06
2.01244e-06
2.01246e-06
2.01246e-06
5.08071e-07
5.07423e-07
5.07677e-07
5.07626e-07
5.07111e-07
5.08204e-07
-3.65445e-15
-4.00215e-15
-4.10835e-15
-4.01697e-15
-3.99319e-15
-4.0895e-15
6.44863e-07
6.44784e-07
6.44804e-07
6.44837e-07
6.44832e-07
6.44914e-07
2.2225e-23
2.16195e-23
2.16087e-23
2.15003e-23
2.1332e-23
2.17718e-23
-2.53473e-14
-2.77598e-14
-2.84956e-14
-2.78618e-14
-2.76973e-14
-2.83628e-14
8.49711e-09
8.4279e-09
8.44245e-09
8.39325e-09
8.37772e-09
8.56234e-09
3.84413e-18
3.81201e-18
3.81499e-18
3.80971e-18
3.78839e-18
3.79253e-18
-1.77589e-14
-1.94479e-14
-1.99627e-14
-1.95176e-14
-1.94023e-14
-1.98679e-14
5.83082e-08
5.83082e-08
5.83074e-08
5.83065e-08
5.83069e-08
5.83069e-08
3.33871e-09
3.28264e-09
3.29096e-09
3.26744e-09
3.24169e-09
3.31471e-09
-1.00014e-15
-1.09573e-15
-1.1253e-15
-1.10004e-15
-1.09326e-15
-1.11336e-15
2.84635e-08
2.84508e-08
2.84514e-08
2.84461e-08
2.84398e-08
2.84531e-08
1.84025e-20
1.84127e-20
1.8412e-20
1.84169e-20
1.84193e-20
1.84183e-20
-9.67023e-18
-1.05893e-17
-1.08744e-17
-1.06305e-17
-1.0564e-17
-1.07378e-17
9.5815e-11
9.56088e-11
9.56224e-11
9.55285e-11
9.54041e-11
9.56227e-11
1.45546e-17
1.45543e-17
1.45543e-17
1.45542e-17
1.45541e-17
1.45542e-17
-1.85672e-18
-1.83535e-18
-1.84913e-18
-1.86047e-18
-1.85267e-18
-1.90717e-18
3.06802e-11
3.03903e-11
3.04299e-11
3.03316e-11
3.01886e-11
3.04362e-11
1.23315e-12
1.22936e-12
1.23132e-12
1.23315e-12
1.23228e-12
1.23349e-12
-1.94255e-16
-1.94106e-16
-1.942e-16
-1.94309e-16
-1.9424e-16
-1.94334e-16
-2.46056e-08
-2.45186e-08
-2.45371e-08
-2.45647e-08
-2.45865e-08
-2.44828e-08
3.65382e-10
3.64673e-10
3.65095e-10
3.65228e-10
3.63669e-10
3.65785e-10
-2.7728e-19
-2.00977e-19
-3.35527e-19
-3.87488e-19
-3.23297e-19
-2.46894e-19
6.63079e-06
6.6328e-06
6.63184e-06
6.6319e-06
6.63237e-06
6.63163e-06
1.936e-07
1.93626e-07
1.93617e-07
1.93642e-07
1.93646e-07
1.93638e-07
3.65915e-10
3.64859e-10
3.65368e-10
3.65847e-10
3.65596e-10
3.65959e-10
0.000275724
0.000275375
0.000275515
0.000275533
0.000275412
0.000275596
0.00373
0.00372625
0.00372685
0.00372571
0.00371782
0.00373698
0.00108628
0.00108437
0.00108479
0.00108457
0.00108223
0.00108787
0.698416
0.698397
0.698395
0.698373
0.698284
0.698466
0.122246
0.122287
0.122264
0.122239
0.122207
0.122297
-1.01234e-20
-1.27867e-20
-1.38087e-20
-1.41503e-20
-1.37224e-20
-9.7407e-21
0.00101569
0.00102198
0.00102949
0.000946117
0.0010212
0.000907561
0.00638055
0.0063962
0.00646375
0.0061844
0.00620174
0.00625004
0.0120709
0.0121632
0.0121842
0.0119929
0.0121014
0.0118776
0.115062
0.115063
0.115106
0.114756
0.115616
0.114378
0.174017
0.174273
0.174729
0.173197
0.172528
0.17488
0.0404709
0.040569
0.0406761
0.0400877
0.0392132
0.0415385
0.230617
0.2305
0.230473
0.231113
0.231855
0.230777
0.21416
0.214163
0.214193
0.214455
0.21467
0.21498
-6.15812e-25
-7.78418e-25
-8.38097e-25
-8.2299e-26
6.9815e-36
2.95823e-33
0.405201
0.405013
0.405002
0.406567
0.408204
0.40443
0.160195
0.160325
0.160174
0.160217
0.159998
0.160072
-8.9739e-24
-1.13339e-23
-1.22167e-23
-1.25393e-23
-1.20456e-23
-8.59697e-24
0.698198
0.698193
0.698185
0.698174
0.698196
0.698249
0.224193
0.224267
0.22421
0.224611
0.225299
0.223341
-1.04032e-22
-1.31436e-22
-1.41819e-22
-1.4515e-22
-1.40225e-22
-9.99646e-23
0.698513
0.698503
0.698497
0.698482
0.69846
0.698563
0.259939
0.260046
0.26001
0.260022
0.260245
0.259742
-1.02669e-21
-1.2975e-21
-1.40069e-21
-1.43328e-21
-1.38728e-21
-9.88311e-22
4.35872e-30
4.35777e-30
4.35867e-30
4.35373e-30
4.41293e-30
4.34005e-30
2.57697e-32
2.57561e-32
2.57611e-32
2.57423e-32
2.61015e-32
2.5642e-32
1.47026e-34
1.4698e-34
1.46949e-34
1.47083e-34
1.49478e-34
1.45864e-34
1.13536e-26
1.1355e-26
1.13577e-26
1.13385e-26
1.14874e-26
1.13141e-26
7.10443e-29
7.1027e-29
7.10423e-29
7.09605e-29
7.19285e-29
7.07398e-29
6.71538e-31
6.71437e-31
6.71333e-31
6.71876e-31
6.83247e-31
6.66963e-31
1.26431e-23
1.26498e-23
1.26533e-23
1.26217e-23
1.27789e-23
1.26112e-23
8.46769e-26
8.46855e-26
8.47059e-26
8.45592e-26
8.56754e-26
8.43781e-26
1.42657e-27
1.42634e-27
1.42648e-27
1.42668e-27
1.45105e-27
1.42029e-27
7.57983e-21
7.5872e-21
7.58946e-21
7.56155e-21
7.64829e-21
7.56945e-21
5.49993e-23
5.50266e-23
5.50412e-23
5.4899e-23
5.55908e-23
5.48507e-23
1.63133e-24
1.63092e-24
1.63173e-24
1.63004e-24
1.65625e-24
1.62899e-24
2.61381e-18
2.61731e-18
2.61796e-18
2.60403e-18
2.62999e-18
2.61398e-18
2.09292e-20
2.09481e-20
2.09539e-20
2.08729e-20
2.11201e-20
2.08907e-20
1.02638e-21
1.02612e-21
1.02706e-21
1.0245e-21
1.0358e-21
1.02724e-21
5.07461e-17
5.07661e-17
5.07746e-17
5.0728e-17
5.14575e-17
5.06292e-17
5.09785e-18
5.10422e-18
5.10528e-18
5.07612e-18
5.13221e-18
5.09243e-18
3.56278e-19
3.56241e-19
3.5667e-19
3.55269e-19
3.51458e-19
3.56834e-19
1.83303e-17
1.83265e-17
1.8326e-17
1.8333e-17
1.83421e-17
1.83257e-17
7.38036e-16
7.39129e-16
7.39178e-16
7.33684e-16
7.42297e-16
7.36145e-16
4.50897e-17
4.50958e-17
4.51489e-17
4.49391e-17
3.64828e-17
4.51532e-17
1.1629e-16
1.15185e-16
1.14944e-16
1.16383e-16
1.207e-16
1.14924e-16
2.77018e-13
2.77451e-13
2.77473e-13
2.75431e-13
2.78699e-13
2.7632e-13
2.48262e-15
2.48555e-15
2.48631e-15
2.47198e-15
2.52566e-15
2.48171e-15
8.01839e-14
7.93876e-14
7.9159e-14
8.02689e-14
8.37325e-14
7.90705e-14
4.38825e-11
4.39509e-11
4.39575e-11
4.35938e-11
4.41264e-11
4.35811e-11
1.49466e-12
1.49385e-12
1.49582e-12
1.49112e-12
1.61924e-12
1.49701e-12
1.12632e-10
1.11726e-10
1.1133e-10
1.12543e-10
1.16908e-10
1.10957e-10
8.16905e-09
8.17845e-09
8.17936e-09
8.12042e-09
8.22754e-09
8.15574e-09
1.66399e-10
1.66387e-10
1.66579e-10
1.65654e-10
1.68689e-10
1.64271e-10
8.01712e-08
7.97956e-08
7.94838e-08
8.00532e-08
8.23807e-08
7.89841e-08
5.45917e-07
5.46682e-07
5.46756e-07
5.42605e-07
5.50439e-07
5.41194e-07
3.80005e-09
3.80255e-09
3.8095e-09
3.77142e-09
3.78648e-09
3.8087e-09
2.07919e-06
2.08286e-06
2.08566e-06
2.08443e-06
2.02711e-06
2.13274e-06
2.0054e-08
2.0167e-08
2.02267e-08
2.0002e-08
1.98535e-08
2.03739e-08
6.4996e-09
6.50549e-09
6.51714e-09
6.44562e-09
6.48079e-09
6.51173e-09
)
;

boundaryField
{
    seabed_topleft_surface
    {
        type            zeroGradient;
    }
    seabed_topright_surface
    {
        type            zeroGradient;
    }
    breakwater_top_surface
    {
        type            zeroGradient;
    }
    breakwater_left_surface
    {
        type            zeroGradient;
    }
    breakwater_right_surface
    {
        type            zeroGradient;
    }
    water_front_surface
    {
        type            zeroGradient;
    }
    water_back_surface
    {
        type            zeroGradient;
    }
    water_left_surface
    {
        type            zeroGradient;
    }
    water_right_surface
    {
        type            zeroGradient;
    }
    water_top_surface
    {
        type            inletOutlet;
        inletValue      uniform 0;
        value           nonuniform List<scalar> 
180
(
0
0
0
0
0
0
0
0
0
0
0
0
0
0
0
0
0
0
0
0
0
0
0
0
0
0
0
0
0
0
0
0
0
0
0
0
0
0
0
0
0
0
0
0
0
0
0
0
0
0
0
0
0
0
3.65915e-10
3.64859e-10
3.65368e-10
3.65847e-10
3.65596e-10
3.65959e-10
0.00108628
0.00108437
0.00108479
0.00108457
0.00108223
0.00108787
0
0
0
0
0
0
0.0120709
0.0121632
0.0121842
0.0119929
0.0121014
0.0118776
0.0404709
0.040569
0.0406761
0.0400877
0.0392132
0.0415385
0
0
0
0
0
0
0
0
0
0
0
0
0
0
0
0
0
0
0
0
0
0
0
0
1.47026e-34
1.4698e-34
1.46949e-34
1.47083e-34
1.49478e-34
1.45864e-34
6.71538e-31
6.71437e-31
6.71333e-31
6.71876e-31
6.83247e-31
6.66963e-31
1.42657e-27
1.42634e-27
1.42648e-27
1.42668e-27
1.45105e-27
1.42029e-27
1.63133e-24
1.63092e-24
1.63173e-24
1.63004e-24
1.65625e-24
1.62899e-24
1.02638e-21
1.02612e-21
1.02706e-21
1.0245e-21
1.0358e-21
1.02724e-21
3.56278e-19
3.56241e-19
3.5667e-19
3.55269e-19
3.51458e-19
3.56834e-19
4.50897e-17
4.50958e-17
4.51489e-17
4.49391e-17
3.64828e-17
4.51532e-17
2.48262e-15
2.48555e-15
2.48631e-15
2.47198e-15
2.52566e-15
2.48171e-15
1.49466e-12
1.49385e-12
1.49582e-12
1.49112e-12
1.61924e-12
1.49701e-12
1.66399e-10
1.66387e-10
1.66579e-10
1.65654e-10
1.68689e-10
1.64271e-10
0
0
0
0
0
0
6.4996e-09
6.50549e-09
6.51714e-09
6.44562e-09
6.48079e-09
6.51173e-09
)
;
    }
}


// ************************************************************************* //
