/*--------------------------------*- C++ -*----------------------------------*\
| =========                 |                                                 |
| \\      /  F ield         | OpenFOAM: The Open Source CFD Toolbox           |
|  \\    /   O peration     | Version:  v1612+                                |
|   \\  /    A nd           | Web:      www.OpenFOAM.com                      |
|    \\/     M anipulation  |                                                 |
\*---------------------------------------------------------------------------*/
FoamFile
{
    version     2.0;
    format      ascii;
    class       volScalarField;
    location    "7.15";
    object      alpha.water;
}
// * * * * * * * * * * * * * * * * * * * * * * * * * * * * * * * * * * * * * //

dimensions      [0 0 0 0 0 0 0];

internalField   nonuniform List<scalar> 
1116
(
0.686871
0.686871
0.686871
0.686871
0.686871
0.686871
0.938962
0.939049
0.938997
0.938983
0.939011
0.938983
0.974356
0.974356
0.974356
0.974356
0.974356
0.974356
0.974356
0.974356
0.974356
0.974356
0.974356
0.974356
0.974356
0.974356
0.974356
0.974356
0.974356
0.974356
0.91089
0.910688
0.910674
0.910981
0.910977
0.91065
0.858347
0.859033
0.858993
0.858473
0.857872
0.859326
0.829012
0.82948
0.829608
0.828894
0.828479
0.829775
0.81392
0.813803
0.814066
0.813706
0.813729
0.813917
0.806334
0.805464
0.80586
0.806131
0.806722
0.805279
0.805195
0.804348
0.804723
0.804996
0.805586
0.804579
0.804564
0.803836
0.804069
0.804365
0.804971
0.80413
0.765638
0.765568
0.765601
0.765633
0.765616
0.765622
0.938996
0.939045
0.939014
0.938987
0.939006
0.938987
0.805184
0.805247
0.805229
0.805211
0.805242
0.805194
0.635488
0.635465
0.635497
0.635471
0.635464
0.635466
0.407129
0.40691
0.406938
0.407069
0.407069
0.407013
0.225975
0.227398
0.227142
0.226483
0.225826
0.227693
0.117214
0.115628
0.115883
0.117244
0.118865
0.114716
0.109322
0.108998
0.109204
0.108989
0.108878
0.108873
0.130775
0.130603
0.130879
0.130465
0.129789
0.131072
0.126219
0.12546
0.125596
0.126222
0.126085
0.125868
0.136998
0.141165
0.140495
0.137269
0.134019
0.143403
0.235897
0.236355
0.237515
0.235767
0.235861
0.237356
0.765896
0.765896
0.765896
0.765896
0.765896
0.765896
0.513286
0.513251
0.513267
0.513297
0.513261
0.51329
0.197264
0.197511
0.197345
0.197436
0.197552
0.19721
0.064065
0.0641621
0.0641467
0.0640702
0.0640419
0.0641102
0.0215097
0.0220889
0.0218048
0.0217856
0.0220408
0.021701
0.000417501
0.000242971
0.00022933
0.000396229
0.000384681
0.000176174
0.000400857
0.000345404
0.000336938
0.000348047
0.000291168
0.000256668
0.00623138
0.00522619
0.00528673
0.00630348
0.00763849
0.00440017
0.014226
0.0137491
0.0135965
0.0144118
0.0149823
0.0132066
0.0200097
0.0201585
0.0198308
0.0202798
0.019865
0.0200233
0.0226688
0.0230508
0.0226522
0.0228577
0.0222807
0.022729
0.0270889
0.0287482
0.0282027
0.0268515
0.0254793
0.0282555
0.765896
0.765896
0.765896
0.765896
0.765896
0.765896
0.0803452
0.0804942
0.0803695
0.0804741
0.0805538
0.0801825
4.08309e-06
3.50532e-06
3.49165e-06
3.90814e-06
4.56991e-06
3.83331e-06
2.61617e-05
7.59371e-06
7.01042e-06
2.11252e-05
2.94644e-05
8.7873e-06
4.66825e-05
3.92341e-05
4.07656e-05
4.11806e-05
3.7319e-05
2.55301e-05
0.000674182
6.57399e-05
7.16697e-05
0.000493556
0.00113096
4.27578e-05
0.00366453
0.00289646
0.00295686
0.00370614
0.00370614
0.00243451
0.00347668
0.00392219
0.0039389
0.00366472
0.00328752
0.00384746
1.42054e-06
1.17296e-06
1.21007e-06
1.51539e-06
1.6912e-06
1.08553e-06
3.84895e-06
3.509e-06
3.71717e-06
3.96821e-06
4.09048e-06
3.62813e-06
0.00687833
0.00627734
0.00638239
0.00692537
0.00727071
0.00614484
0.0272658
0.0276667
0.0274744
0.0270286
0.0269605
0.0273646
0.0919483
0.0919531
0.0919887
0.0919604
0.0919625
0.0919635
0.0919436
0.0919483
0.0919532
0.0920086
0.0919642
0.0919663
0.0896468
0.0410616
0.0589745
0.0620892
0.0919605
0.0919635
0.0320558
0.0647527
0.0717003
0.0541579
0.0664564
0.091959
0.0621331
0.0715508
0.0717003
0.071538
0.06406
0.0913286
0.0710597
0.0648733
0.0674235
0.0529132
0.0643519
0.0290095
0.071115
0.0636453
0.0453323
0.0192396
0.0544
0.0146347
0.0711501
0.0705312
0.040759
0.0396557
0.0492747
0.0556189
0.07113
0.0709399
0.0581533
0.0642664
0.0616529
0.0728297
0.0708619
0.0660238
0.0773818
0.0731994
0.0695396
0.0728102
0.0609908
0.0513508
0.0776529
0.0785337
0.0787388
0.070286
0.0408441
0.0547492
0.0757016
0.0787755
0.0787755
0.0563435
0.0919435
0.0738347
0.0919532
0.0919843
0.0919605
0.091965
0.0856061
0.0409172
0.0670013
0.0595793
0.0437841
0.0919741
0.0125421
0.00817924
0.0039636
0.00725344
0.0111686
0.018011
0.00363907
0.00242037
0.00352259
0.00262382
0.00431616
0.00330063
0.00163062
1.06972e-08
4.51526e-06
1.14465e-08
0.00110383
0.00059816
3.1821e-09
2.28794e-09
1.00542e-09
1.52796e-09
7.35982e-05
0.00228608
2.07487e-09
5.26294e-09
2.55645e-09
0.000186189
0.000799695
0.00488716
1.74522e-09
2.07485e-09
2.06033e-08
0.000156959
6.03968e-05
0.00321598
1.7314e-09
1.7452e-09
3.01142e-09
2.44031e-08
2.71646e-09
0.000318634
1.09044e-09
-1.0636e-10
4.05688e-08
2.59353e-07
5.31669e-07
1.77306e-08
0.00191679
0.00287577
0.000610933
0.0029543
0.00476611
0.00111619
0.0370513
0.00988589
0.00119921
0.0352343
0.0616604
0.0317682
0.0919178
0.0900466
0.0835777
0.07497
0.079033
0.0919554
0.0712445
0.00848206
0.030673
0.0202321
0.0137516
0.0754502
0.000986906
1.70602e-06
9.8719e-07
5.13708e-07
1.51075e-06
0.00381974
4.83526e-07
3.9384e-08
2.27317e-08
1.06968e-08
3.62483e-08
9.28206e-07
1.22322e-08
1.80862e-09
7.31204e-10
8.05463e-10
1.34284e-09
1.1367e-08
2.28794e-09
1.39916e-09
5.14696e-10
1.26745e-09
1.5285e-09
1.51353e-09
6.52088e-09
2.40134e-08
1.02664e-09
1.48865e-09
1.65834e-06
3.39127e-10
1.98925e-09
2.16598e-09
2.5565e-09
9.01416e-09
1.02569e-06
3.44136e-10
1.7317e-09
2.93593e-08
2.36826e-08
2.61814e-09
1.21715e-09
3.7038e-10
1.54453e-09
3.58328e-08
2.85183e-08
2.43636e-08
2.69146e-09
1.2203e-09
6.61922e-07
1.23751e-06
2.06303e-07
2.54995e-05
6.11783e-07
1.77279e-08
0.00276823
0.000270643
0.00342346
0.000281806
4.23514e-05
1.40615e-06
0.091892
0.0918873
0.0918626
0.0312598
0.0493068
0.0919303
0.0419119
0.0149159
0.0130034
0.00463317
0.00716576
0.0266461
4.11224e-05
2.97412e-06
1.21859e-06
5.97596e-07
3.01819e-07
3.39334e-06
1.39112e-07
4.55417e-08
1.14725e-08
-2.83054e-10
3.23624e-10
4.95377e-08
1.04845e-09
2.45896e-10
2.29492e-12
9.8142e-13
-1.04104e-11
5.10832e-11
4.84866e-09
1.51565e-08
4.57976e-10
4.16324e-09
2.28398e-08
1.7798e-07
1.25999e-08
2.31543e-08
5.25111e-10
1.16905e-08
1.01902e-07
1.89013e-10
2.05414e-09
2.12862e-09
1.30306e-09
6.62472e-10
1.82291e-10
4.77766e-10
1.81732e-09
5.60647e-07
1.61117e-06
1.61592e-08
3.99802e-10
3.42607e-10
7.17778e-08
2.94084e-06
5.98475e-06
2.30036e-07
2.96863e-08
1.15939e-08
1.19551e-07
7.83333e-07
1.9594e-06
0.00167185
0.00168445
0.000115581
0.00658913
0.0149376
0.0178582
0.0151
0.00859893
0.0108758
0.607985
0.606174
0.606873
0.607341
0.607024
0.60739
0.0495215
0.0471539
0.0481243
0.0487554
0.0483596
0.0489074
0.00115727
0.00105349
0.00111421
0.00111949
0.00106559
0.00116084
0.0458862
0.0462453
0.0460364
0.0460996
0.046196
0.0457096
0.0114835
0.0113144
0.0113992
0.0113828
0.0113223
0.0114
0.00116079
0.000962915
0.00106322
0.00105384
0.000966273
0.00113638
3.50552e-06
3.48793e-06
3.49189e-06
3.48812e-06
3.6607e-06
3.83345e-06
4.08462e-06
3.50552e-06
3.49189e-06
3.90953e-06
4.57034e-06
3.83348e-06
1.0028e-05
1.11078e-05
1.55054e-05
9.49759e-06
1.68824e-05
6.0782e-06
4.08457e-06
3.50552e-06
3.49189e-06
3.90953e-06
6.01125e-06
3.83348e-06
0.000106673
1.29788e-05
9.0913e-06
7.34946e-05
0.000328394
1.93795e-05
0.000332333
0.000362462
0.000368727
0.000383748
0.000388
0.000357582
0.000663119
4.11049e-05
2.18762e-05
0.000504265
0.000886917
9.03351e-05
0.00136579
0.000815447
0.000770165
0.00112509
0.00119109
0.000756762
0.00114344
0.00106786
0.001057
0.00111546
0.00117745
0.001142
0.00163536
0.00139569
0.00138958
0.00168941
0.00168539
0.00138936
0.00137104
0.00137956
0.00137323
0.00128627
0.00114728
0.00137383
1.3464e-05
0.000102004
0.000126238
3.08684e-06
1.34784e-21
0.000161131
0.00153228
0.00206609
0.00214416
0.0015468
0.001483
0.0019313
4.36369e-12
4.39492e-12
4.35757e-12
4.5226e-12
4.4975e-12
2.13984e-05
2.42967e-22
7.40699e-23
9.25982e-23
3.48372e-22
4.8011e-20
3.36363e-23
1.71362e-10
1.35857e-10
1.39364e-10
2.56762e-10
5.59395e-10
4.44043e-10
5.73843e-12
5.00161e-12
5.05036e-12
4.30076e-11
2.30996e-10
2.22022e-10
-1.6898e-14
-1.74694e-15
7.19559e-18
-1.94169e-14
-6.45843e-18
7.17507e-18
1.12045e-08
8.8555e-09
9.09774e-09
1.25121e-08
1.46178e-08
8.04364e-09
2.22556e-10
1.84147e-10
1.99588e-10
3.75298e-10
7.51611e-10
4.44043e-10
7.41145e-08
7.45134e-08
7.41819e-08
7.72679e-08
7.83718e-08
7.39667e-08
4.98929e-08
5.43586e-08
5.36129e-08
4.96311e-08
4.56699e-08
5.59964e-08
5.37355e-08
6.33034e-08
5.95475e-08
5.17377e-08
4.67898e-08
6.24768e-08
3.78431e-07
3.78496e-07
3.78593e-07
3.7864e-07
3.78602e-07
3.78618e-07
-1.61082e-08
-1.08605e-08
-1.19711e-08
-1.68348e-08
-1.80371e-08
-7.17071e-09
8.27758e-12
8.6123e-12
8.5991e-12
8.27913e-12
7.97577e-12
8.79012e-12
1.29132e-08
1.28197e-08
1.28172e-08
1.28817e-08
1.28579e-08
1.28641e-08
0.00977363
0.00903525
0.00937271
0.00985722
0.0102364
0.00923256
2.78384e-16
4.55351e-16
4.57844e-16
4.77307e-16
-2.99547e-21
5.43618e-16
6.10672e-18
4.93464e-18
4.53462e-18
5.38956e-18
6.35356e-18
5.40204e-18
0.0520624
0.0515652
0.0512555
0.0513441
0.0516028
0.0517589
2.20124e-27
1.14909e-27
3.40283e-28
1.49038e-27
3.74816e-27
1.67617e-27
2.93004e-12
1.49293e-12
4.30073e-13
1.87627e-12
4.58205e-12
2.17327e-12
0.053364
0.0534782
0.0540507
0.0544859
0.0551467
0.0542555
-3.31157e-16
-2.58808e-16
-1.49619e-16
-2.18092e-17
-7.48742e-16
-9.95521e-17
-1.38176e-26
-1.13201e-26
-1.68399e-26
-1.17858e-26
-1.81343e-26
-8.6814e-27
0.056285
0.0563198
0.0563751
0.0564176
0.0564182
0.056399
-1.38613e-15
-1.15642e-15
-1.85929e-15
-2.6594e-16
-1.21946e-14
-7.68189e-16
-1.81717e-26
-1.72679e-26
-1.86665e-26
-1.67164e-26
-3.04924e-26
-1.10471e-26
0.0561234
0.0561019
0.0560911
0.0561708
0.056219
0.0562293
-9.90085e-16
-8.07082e-16
-1.39633e-15
-9.4698e-17
-8.77003e-15
-4.73288e-16
-1.67695e-26
-1.95014e-26
-2.13138e-26
-2.02454e-26
-2.22454e-26
-1.53986e-26
0.0558305
0.0558121
0.0557982
0.0558599
0.0559002
0.0559278
-5.83348e-16
-4.73766e-16
-8.43798e-16
-6.2804e-17
-5.15877e-15
-2.67322e-16
-1.14653e-26
-1.34375e-26
-1.46817e-26
-1.42821e-26
-1.5706e-26
-1.11124e-26
0.0512114
0.0511218
0.0511678
0.0512
0.0512198
0.0511412
2.10153e-29
3.45837e-29
3.4773e-29
3.59721e-29
-3.92344e-16
4.12732e-29
1.16863e-17
1.15474e-17
1.15492e-17
1.1531e-17
1.15816e-17
1.15005e-17
0.0918873
0.0918783
0.0918724
0.0790011
0.0579639
0.0918925
0.0914652
0.070745
0.0918398
0.0783271
0.0207125
0.0829769
0.0242811
8.18573e-20
0.015086
0.0119745
4.43439e-19
0.0225832
0.0174754
0.0144774
0.010238
0.00501195
0.00423703
0.015047
1.88804e-06
0.0109296
0.000999818
0.00235927
0.00293697
1.09269e-09
1.20346e-19
0.00290228
0.000803245
0.00101009
0.000782024
1.16732e-22
8.17183e-07
2.72744e-07
2.81684e-06
-1.54725e-09
-1.10387e-08
9.17612e-08
-1.70687e-17
4.62401e-11
1.97638e-10
-1.50812e-11
-1.12288e-16
-3.36008e-10
-5.58112e-10
5.31318e-17
-8.66169e-18
8.15592e-11
7.33611e-18
3.83356e-08
-5.7249e-09
-1.16613e-09
-9.12861e-11
-2.39349e-14
-2.30163e-12
1.6121e-07
-8.69099e-16
1.51461e-12
1.67942e-09
-9.32125e-15
-1.09709e-11
7.14816e-22
-1.01277e-15
4.97792e-09
4.43243e-09
1.16196e-10
-2.02672e-15
6.87899e-21
-1.14299e-14
-3.36707e-11
1.67169e-13
7.36236e-12
-5.08404e-14
8.95744e-12
-4.36941e-15
5.11222e-16
6.64586e-16
2.50438e-16
5.89864e-16
6.73066e-11
1.14453e-15
8.40979e-16
4.92225e-16
4.92223e-16
1.21478e-15
1.2304e-12
9.96949e-10
1.51839e-09
4.61365e-11
7.63223e-14
1.62026e-11
2.7466e-09
1.31596e-12
2.80172e-14
9.85172e-15
7.81411e-16
6.97192e-16
3.95019e-15
2.47291e-14
1.46709e-14
8.26816e-15
2.77644e-14
4.64946e-14
2.40631e-14
4.19386e-09
1.0008e-08
5.41288e-11
6.10561e-11
8.91249e-13
2.10667e-11
1.23388e-10
4.19278e-10
1.0708e-12
7.63237e-14
7.57935e-13
3.43178e-13
2.72213e-14
3.83074e-14
7.64053e-12
8.67252e-13
2.54668e-13
2.81428e-14
2.45525e-10
5.21911e-09
9.38205e-10
2.25904e-10
5.84221e-11
1.86734e-11
1.04337e-10
5.88613e-09
1.16785e-08
2.26073e-09
8.9126e-13
5.67212e-12
1.8712e-11
3.35807e-10
1.13296e-09
1.52507e-10
8.98924e-13
1.03199e-11
5.38343e-09
1.33527e-07
1.26321e-07
4.27057e-08
3.38417e-08
1.82402e-08
1.40186e-08
1.87458e-07
2.07193e-07
7.35291e-08
4.07345e-09
4.42215e-08
1.16409e-09
6.04389e-09
5.30014e-09
1.46334e-09
2.29059e-13
5.37905e-10
1.7979e-07
2.11902e-06
1.40564e-06
4.60998e-07
2.66853e-08
3.63883e-07
3.15862e-06
2.97371e-06
1.51438e-06
9.04733e-07
5.91107e-08
6.26171e-07
2.72396e-09
2.5295e-09
3.93431e-10
-5.63377e-15
-3.38666e-17
-1.8527e-15
2.65705e-08
5.89802e-09
-3.37535e-09
-3.29875e-09
2.73015e-10
3.18012e-09
1.68931e-08
1.70824e-11
2.47721e-12
-8.05931e-13
-1.76095e-13
-2.28791e-12
-1.72393e-14
-2.93441e-12
-2.46247e-13
-1.48819e-16
5.03297e-18
-1.54676e-16
0.0202154
0.0202817
0.0178969
0.016238
0.0130533
0.0186732
2.85393e-14
1.41254e-14
4.02386e-15
1.86544e-14
4.98207e-14
2.18536e-14
7.04177e-19
4.88171e-19
1.63652e-19
1.92998e-17
3.31606e-11
2.29747e-17
)
;

boundaryField
{
    seabed_topleft_surface
    {
        type            zeroGradient;
    }
    seabed_topright_surface
    {
        type            zeroGradient;
    }
    breakwater_top_surface
    {
        type            zeroGradient;
    }
    breakwater_left_surface
    {
        type            zeroGradient;
    }
    breakwater_right_surface
    {
        type            zeroGradient;
    }
    water_front_surface
    {
        type            zeroGradient;
    }
    water_back_surface
    {
        type            zeroGradient;
    }
    water_left_surface
    {
        type            zeroGradient;
    }
    water_right_surface
    {
        type            zeroGradient;
    }
    water_top_surface
    {
        type            inletOutlet;
        inletValue      uniform 0;
        value           nonuniform List<scalar> 
180
(
0.00115727
0.00105349
0.00111421
0.00111949
0.00106559
0.00116084
0.00116079
0.000962915
0.00106322
0.00105384
0.000966273
0.00113638
1.0028e-05
1.11078e-05
1.55054e-05
9.49759e-06
1.68824e-05
6.0782e-06
0.000332333
0.000362462
0.000368727
0.000383748
0.000388
0.000357582
0.00114344
0.00106786
0.001057
0.00111546
0.00117745
0.001142
0
0
0
0
0
0
0
0
0
0
0
0
0
0
0
0
0
0
0
0
0
0
0
0
0
0
0
0
0
0
0
0
0
0
0
0
0
0
0
0
0
0
0
0
0
0
0
0
0
0
0
0
0
0
0
0
0
0
0
0
0
0
0
0
0
0
0
0
0
0
0
0
0
0
0
0
0
0
0.0242811
0
0.015086
0.0119745
0
0.0225832
0
0.00290228
0.000803245
0.00101009
0.000782024
0
-5.58112e-10
0
0
8.15592e-11
7.33611e-18
3.83356e-08
0
0
0
0
0
0
1.14453e-15
8.40979e-16
4.92225e-16
4.92223e-16
0
0
0
0
0
0
0
0
2.72213e-14
3.83074e-14
7.64053e-12
8.67252e-13
2.54668e-13
2.81428e-14
1.8712e-11
3.35807e-10
1.13296e-09
1.52507e-10
8.98924e-13
1.03199e-11
1.16409e-09
6.04389e-09
5.30014e-09
1.46334e-09
2.29059e-13
5.37905e-10
0
0
0
0
0
0
0
0
0
0
0
0
0
0
0
0
0
0
)
;
    }
}


// ************************************************************************* //
