/*--------------------------------*- C++ -*----------------------------------*\
| =========                 |                                                 |
| \\      /  F ield         | OpenFOAM: The Open Source CFD Toolbox           |
|  \\    /   O peration     | Version:  v1612+                                |
|   \\  /    A nd           | Web:      www.OpenFOAM.com                      |
|    \\/     M anipulation  |                                                 |
\*---------------------------------------------------------------------------*/
FoamFile
{
    version     2.0;
    format      ascii;
    class       surfaceScalarField;
    location    "7.15";
    object      phi;
}
// * * * * * * * * * * * * * * * * * * * * * * * * * * * * * * * * * * * * * //

dimensions      [0 3 -1 0 0 0 0];

internalField   nonuniform List<scalar> 
2916
(
-0.000106791
0.0667058
-0.0665991
2.53593e-05
0.0664501
-0.0665825
2.16295e-05
0.0665853
-0.0665817
-6.92615e-06
0.0666395
-0.0666112
4.93302e-05
0.066555
-0.0666113
0.0666304
-0.0665811
-5.59872e-05
0.101109
-0.0343471
1.88899e-05
0.1009
-0.0345246
2.27731e-06
0.10105
-0.0344482
-1.88897e-05
0.101033
-0.0343725
4.55362e-06
0.100969
-0.034437
0.10107
-0.0344353
2.35567e-05
-0.0403956
0.141481
-1.38035e-05
-0.0406373
0.141575
-3.67027e-05
-0.0404366
0.14151
-1.31991e-05
-0.0405408
0.141551
-1.79383e-05
-0.0405849
0.141559
-0.040385
0.141437
-0.000185967
-0.360057
0.319847
2.23306e-05
-0.360924
0.320078
0.000106558
-0.360496
0.319975
3.88981e-05
-0.36047
0.319997
-3.91126e-05
-0.36057
0.320063
-0.360274
0.319849
-0.00109452
-0.621796
0.262834
5.07058e-05
-0.625099
0.26303
0.000790822
-0.624155
0.262919
0.000204197
-0.622921
0.263038
-0.000940431
-0.622242
0.262816
-0.624262
0.263048
-0.00163349
-0.757503
0.13734
-3.83386e-05
-0.762265
0.135571
0.00105664
-0.76122
0.135971
0.000268697
-0.758906
0.136772
-0.00168288
-0.757731
0.13744
-0.761678
0.135734
0.00296865
-0.788007
0.0275356
-0.000341901
-0.793009
0.0340547
-0.00303628
-0.791984
0.0334582
-0.000815882
-0.789366
0.0282399
0.00577261
-0.787403
0.0230836
-0.793123
0.0372177
0.00464771
-0.704554
-0.0881007
-0.000574343
-0.703495
-0.0842922
-0.00424671
-0.703627
-0.0846844
-0.000909287
-0.704759
-0.0879438
0.00826039
-0.706253
-0.0903187
-0.701944
-0.0829191
0.00150991
-0.547452
-0.158612
-0.000356547
-0.544539
-0.15709
-0.00166615
-0.544913
-0.157404
-0.000605007
-0.547225
-0.158596
0.00155692
-0.550188
-0.158228
-0.542561
-0.157826
-0.00375904
-0.366788
-0.176906
0.000452404
-0.368537
-0.180213
0.00360716
-0.368786
-0.179282
-0.000429271
-0.365917
-0.177272
-0.010919
-0.365651
-0.174047
-0.369884
-0.183596
-0.00350169
-0.192965
-0.170321
0.000818485
-0.197097
-0.17576
0.0047076
-0.197068
-0.175607
0.00155655
-0.192864
-0.169901
-0.00701288
-0.190724
-0.166358
-0.199889
-0.177008
0.00519747
-0.198163
-0.00118165
-0.190718
-0.0062966
-0.191953
-0.000935018
-0.198226
0.0131139
-0.204773
-0.186775
-0.000222612
0.110681
-0.177058
1.82738e-05
0.11038
-0.177203
2.98345e-05
0.110537
-0.17713
9.63539e-06
0.110522
-0.177113
0.00012103
0.110439
-0.177162
0.110588
-0.177048
-0.000105049
0.187897
-0.111458
-1.89881e-05
0.187319
-0.111551
2.25069e-05
0.187588
-0.111541
-2.66001e-05
0.187615
-0.111416
6.34536e-06
0.187444
-0.111475
0.187744
-0.111585
-0.000142957
0.249957
0.0795643
-3.71201e-05
0.249413
0.0793748
-1.81479e-05
0.249666
0.0794133
-2.96411e-06
0.249643
0.0795073
0.000129252
0.249436
0.0794345
0.249903
0.0794079
-0.000460841
0.282958
0.287307
-1.07201e-05
0.282413
0.286628
-2.19456e-05
0.282861
0.286792
1.62722e-05
0.282408
0.287194
0.000391768
0.2817
0.287424
0.283527
0.286617
9.6429e-05
0.479567
0.0661289
-0.000356444
0.484446
0.0614506
-0.000269526
0.482538
0.0631541
-5.63343e-05
0.481494
0.0637387
0.000139943
0.479315
0.0650048
0.482385
0.0643306
0.0151731
0.872835
-0.271102
0.000396643
0.893149
-0.258355
-0.0133255
0.888167
-0.255937
-0.00511048
0.877044
-0.266994
0.0218292
0.863498
-0.273683
0.892268
-0.252321
0.006863
1.0696
-0.176096
0.000623856
1.10405
-0.170605
-0.00717797
1.09673
-0.167302
-0.00699642
1.07549
-0.17039
0.00889269
1.04763
-0.176934
1.11459
-0.17621
-0.00250479
0.923719
0.060289
-0.00222828
0.947823
0.0716567
-0.00213107
0.943552
0.068396
-0.00253682
0.928118
0.0598365
-0.0013391
0.905112
0.0509988
0.960673
0.069657
-0.00864845
0.542049
0.231707
-0.000524805
0.547593
0.235016
0.00224285
0.549519
0.233861
-0.00168329
0.540918
0.23253
-0.0134398
0.528333
0.230308
0.557974
0.231433
-0.0211645
0.28289
0.103418
0.00222914
0.266927
0.0770587
0.0176043
0.271507
0.0833548
-0.00207761
0.281212
0.102116
-0.0520038
0.285337
0.118875
0.263936
0.0584387
-0.0247756
0.293184
-0.15584
0.00731428
0.241402
-0.182325
0.0341078
0.247192
-0.178086
0.0107107
0.291809
-0.1571
-0.0549053
0.326206
-0.141611
0.220499
-0.188476
0.0105608
0.0844611
0.00189763
0.059348
-0.00510571
0.0622422
0.00424557
0.0842314
0.0234146
0.102264
0.0571387
0.000156102
0.572638
-0.749852
2.57922e-06
0.572465
-0.749515
-2.26845e-05
0.572506
-0.749611
3.85911e-06
0.57255
-0.74969
-7.16184e-05
0.572552
-0.749638
0.572488
-0.749608
0.000152513
1.40483
-0.943805
-3.50465e-05
1.40468
-0.943574
-8.06798e-05
1.40452
-0.943506
-0.000122975
1.40484
-0.943664
-0.000158532
1.40534
-0.944228
1.40401
-0.94327
1.92512e-05
2.33104
-0.846667
-0.00015089
2.3292
-0.844983
0.00184174
2.33034
-0.848403
-0.000107483
2.33008
-0.843784
-0.0044153
2.3299
-0.840819
2.33089
-0.851881
-0.00182276
3.43655
-0.81638
-0.00012424
3.44469
-0.830553
0.00120233
3.44067
-0.824869
-0.000940984
3.44318
-0.823759
-0.00335371
3.43592
-0.816185
3.44092
-0.826769
0.0157697
3.36142
0.125488
-0.00332446
3.61615
-0.0909195
0.000185923
3.57478
-0.0744659
0.00284443
3.42166
0.0825968
-0.00386239
3.30959
0.198043
3.6766
-0.175217
0.330207
0.765093
1.99503
-0.0230826
1.38868
2.32241
-0.29434
1.26398
2.32613
-0.0375407
0.817264
2.0806
0.621916
0.526757
1.8497
1.75719
2.28901
0.0380071
-0.757611
1.3086
-0.00835086
-0.312455
1.57688
-0.0867447
-0.384952
1.56002
-0.0190383
-0.759255
1.33842
0.186607
-1.0768
1.22097
0.106276
1.66131
-0.19875
-0.958935
0.460362
-0.00191408
-0.968746
0.531112
0.12869
-0.951721
0.504562
-0.0433814
-0.972604
0.445259
-0.38268
-1.08426
0.397766
-0.78934
0.582594
-0.0323145
-1.46331
0.768395
0.00645103
-1.49419
0.721699
0.0334534
-1.48418
0.739317
-0.0192199
-1.47042
0.783021
-0.14813
-1.52148
0.796437
-1.43365
0.72761
-0.00980535
-1.52093
0.170845
0.00515078
-1.53675
0.104655
0.0124066
-1.53491
0.126834
-0.00172424
-1.5221
0.167922
-0.0430939
-1.54831
0.187076
-1.50461
0.0863065
0.000757432
-0.505968
-1.17156
0.0107399
-0.552393
-1.17666
0.00842094
-0.540802
-1.16988
0.0177451
-0.510826
-1.17769
-0.00187978
-0.486962
-1.18334
-0.538855
-1.15611
0.012905
-0.434412
0.00550663
-0.485646
-0.00174883
-0.471304
-0.0010451
-0.427299
0.00610403
-0.391846
-0.475612
0.000444663
0.434832
-1.18513
-8.50407e-05
0.435689
-1.18467
3.59994e-05
0.435183
-1.18492
-0.000103499
0.435274
-1.18482
-0.000707759
0.435705
-1.18474
0.434606
-1.18492
0.00262387
1.1682
-1.67979
6.7449e-05
1.17435
-1.67968
0.00031668
1.17051
-1.67908
-0.00113251
1.17274
-1.67968
-0.00425271
1.17514
-1.68055
1.16467
-1.67759
0.0190221
1.49732
-1.19481
-0.0038969
1.52756
-1.17528
0.00165767
1.52885
-1.2123
-0.00592908
1.51298
-1.17644
-0.0226956
1.47533
-1.12424
1.53509
-1.24499
0.168111
-0.0748519
0.587683
0.0123871
0.283924
0.568806
-0.134748
0.316257
0.534869
-0.115445
0.0603174
0.609604
0.133192
-0.262727
0.673234
0.349236
0.492277
0.300037
-2.5953
2.3459
0.0344236
-1.8142
2.27281
-0.16976
-1.81014
2.25611
0.0423054
-2.43307
2.36391
0.465229
-2.92611
2.4385
-1.48992
2.12917
-0.0336793
-3.16077
2.59417
-0.00340166
-2.71355
3.19149
0.0643444
-2.73996
3.18821
0.126699
-3.12665
2.71184
0.0632167
-3.38942
2.37648
-2.34606
3.20836
-0.178642
-2.68027
1.00673
-0.0219848
-2.6649
1.37157
0.118997
-2.66984
1.34892
-0.0139536
-2.69
1.03472
-0.281184
-2.77164
0.870427
-2.46717
1.50124
-0.0762631
-2.1063
-0.0373434
-0.0172736
-2.12347
-0.0693047
0.0556001
-2.11855
-0.119602
-0.0219157
-2.09851
-0.0687053
-0.187971
-2.10797
-0.0998496
-2.07484
0.00229665
-0.000533149
-2.10608
0.768716
-0.0143062
-2.09435
0.706351
-0.0149749
-2.09544
0.716881
-0.0147385
-2.10981
0.794085
-0.0425568
-2.11768
0.833972
-2.06927
0.679484
0.0115818
-2.17556
0.228741
-0.0179809
-2.19282
0.23269
-0.0368943
-2.18824
0.238553
-0.0130555
-2.19156
0.225837
0.0393466
-2.19167
0.208657
-2.18192
0.23831
0.0196695
-1.30123
-2.06556
-0.00200727
-1.32367
-2.02413
-0.0208077
-1.31753
-2.02179
-0.00956566
-1.31567
-2.06482
0.0216788
-1.31202
-2.09422
-1.32395
-1.9924
0.026093
-1.76173
0.000122636
-1.78335
-0.0168593
-1.77185
-0.00923621
-1.7506
0.0248674
-1.73797
-1.7747
-0.318576
-0.0814186
0.399994
-0.195195
-0.626181
0.5028
-0.229866
-0.410287
0.444958
-0.144811
-0.495569
0.410514
0.482599
-1.11402
0.48661
0.017621
0.464978
0.16274
-0.884423
0.640265
-0.280114
-1.35477
1.17144
0.0081028
-1.46555
0.767044
-0.255009
-1.2542
1.02174
-0.285656
-1.93262
0.849247
-0.801635
0.5336
-0.00216312
-1.92221
1.03995
-0.248334
-2.52315
1.41455
-0.13365
-2.63462
1.05439
-0.406421
-2.306
1.32458
-0.6641
-2.50961
0.834667
-1.99604
0.530304
-0.350551
-2.70022
1.12856
-0.100289
-3.19811
0.424698
0.0786643
-3.10002
0.28644
0.0876072
-2.98386
0.668913
-0.312779
-2.76726
0.658041
-2.54817
0.239352
0.00812152
-2.82584
0.117505
0.0636593
-3.17584
-0.0778078
0.0743468
-3.0794
-0.0313011
0.222665
-2.90727
-0.224906
0.060861
-2.74726
0.141801
-2.52683
0.0395201
0.118146
-2.58052
-0.363473
0.185024
-2.91805
-0.324665
0.294037
-2.81443
-0.37399
0.344444
-2.63447
-0.323205
0.295664
-2.59106
-0.10742
-2.59866
0.367499
0.225924
-2.44159
-0.364855
0.334005
-2.80061
-0.225521
0.410379
-2.77318
-0.117617
0.239675
-2.73816
0.274393
0.193817
-2.59004
0.0448407
-2.9328
0.527957
0.0659572
-2.32347
-0.184078
0.262368
-2.55162
-0.445406
0.205569
-2.7266
0.0102175
0.146996
-2.73548
0.0558884
0.119474
-2.52054
-0.0419752
-2.88922
0.0758934
-0.0788264
-2.01107
-0.233567
-0.0505928
-2.14685
-0.432998
-0.165913
-2.46003
-0.15125
0.0535096
-2.28047
-0.674432
0.208489
-2.13279
-0.542733
-2.35707
-0.323666
0.0126192
-1.47933
-0.544358
-0.227621
-1.79389
-0.112717
-0.454449
-2.02056
-0.212641
-0.181041
-1.69912
-0.85476
0.246497
-1.50288
-1.05745
-1.68424
-0.426328
0.150252
-0.463964
-1.16562
-0.0965546
-1.04358
-0.50351
-0.739268
-1.21565
-0.162199
-0.471555
-0.705412
-1.26142
0.110428
-0.384563
-1.7003
-0.657456
-0.91636
-0.00490131
-0.459063
-0.105561
-0.942918
-0.606242
-0.714969
-0.385619
-0.926034
0.0912413
-0.861423
-0.566214
-0.402471
0.0328179
0.769648
-0.0300651
-1.12387
1.25426
-0.247426
-0.330387
0.992706
-0.106869
-1.13791
1.40787
0.493671
-1.56602
1.45209
0.220037
0.738612
0.753157
-1.28327
1.2032
0.0217477
-2.25333
3.03231
-0.0923401
-1.50915
2.05989
-0.448015
-2.06709
2.30659
-0.704335
-2.54334
2.08289
-0.686275
0.735577
0.607044
-2.88995
2.03959
-0.00392726
-3.12923
2.90143
-0.457277
-2.66949
2.66809
-0.675794
-2.92194
2.39794
-0.792556
-3.2648
1.67288
-1.94237
0.993842
0.504902
-2.51103
0.244731
-0.0341701
-1.45124
-0.714217
-0.617667
-0.933832
-0.865723
-0.712205
-1.47153
-0.686957
-0.347051
-2.14314
-0.828768
-1.45961
-0.590459
-0.198574
-0.457964
-1.73698
-0.819738
0.955413
-1.8633
-1.21514
1.16052
-1.73025
-1.59296
0.7065
-2.02512
-1.27917
-0.405984
-1.90915
-1.34803
-1.35123
-1.11251
2.15238
-1.8613
-1.76097
2.84764
-1.56844
-2.48976
2.88286
-1.36755
-2.39918
1.65564
-1.36292
-1.71043
-0.372129
-0.830029
-2.47868
-0.212281
-0.78109
3.60995
-1.04134
-1.94915
3.92894
-0.138758
-2.61515
3.61289
-0.181657
-1.93815
1.66678
-0.41375
-1.02997
-1.32851
0.0930333
-3.59344
0.612759
-0.252491
3.4017
0.27667
-0.59914
3.15209
0.678098
-0.270486
2.38744
0.907016
-0.184859
1.4949
0.142139
-0.0249532
-0.601319
-0.929072
-3.43886
-0.103646
1.01303
1.18057
0.974531
1.67313
0.991017
1.06797
1.98471
0.590371
1.33425
1.64808
0.763579
0.393522
1.52758
-0.260433
-0.763119
-1.86272
-0.372223
1.07896
-1.28379
0.841046
0.847569
-1.03284
2.14253
-0.53022
-0.512493
2.26801
-0.44249
-0.490631
0.311718
1.11479
-1.53032
-1.34484
-1.08755
-0.0867027
0.868652
-1.31097
-2.0071
-0.118223
-1.4196
0.870126
-1.28725
-1.23322
1.72755
-0.629712
-0.955688
-1.45389
0.147216
-1.21331
-2.79424
-0.950698
-0.905999
0.434413
-2.20444
-0.145693
-1.78241
-0.816427
-1.27745
-0.598825
-2.09933
-0.1559
-2.51766
-1.67281
-0.270213
0.550691
0.48917
-0.00249875
0.109575
0.876971
-0.042198
0.219597
0.812808
-0.0291371
-0.200117
1.59493
0.17156
-0.340005
1.5914
0.514582
0.39559
0.0916559
0.527949
1.13428
0.0918583
0.157865
2.98382
0.298699
-0.124076
2.19672
0.0473813
-0.219449
2.57724
-0.404271
-0.0444034
2.23894
0.769957
0.0759316
0.0919761
0.695723
1.77984
-0.000497412
0.359876
2.79189
-0.703975
0.443919
2.80357
-0.593077
0.155471
1.91212
-0.134192
0.377372
0.792219
1.10657
0.523035
0.304414
1.19195
-0.55591
0.133858
1.14933
-1.33312
-0.139848
1.20284
-1.35094
-0.257507
1.03679
-1.45062
-0.285327
1.18991
-1.61349
1.05687
-0.826091
-0.100377
1.15368
-1.59834
-0.145603
1.07109
-1.73984
-0.139018
1.12393
-1.65792
-0.347631
0.726453
-1.50616
-0.192312
0.552351
-1.42691
0.596578
-1.08324
0.0272759
0.592571
-1.32748
-0.480268
1.05681
-1.04661
-0.822854
1.17449
-1.07552
-0.825357
0.402262
-1.03623
-0.472042
0.079382
-0.710376
0.0165097
-0.104255
-0.706154
0.620479
-0.363096
-1.03029
0.99577
0.246417
-1.24018
1.31697
-0.114247
-1.46002
0.577331
-0.368976
-0.852263
-0.36813
-0.0672164
-1.17655
0.953557
-0.903726
0.774011
1.02686
-1.008
0.0675459
1.7106
-0.479761
0.323386
1.37235
-0.507371
0.407706
0.339373
-0.66208
-0.374971
-0.767521
-1.66746
-0.274814
0.261588
0.0375965
1.44936
0.484251
-0.658688
1.57154
1.42763
-0.423391
1.13764
1.54959
0.120469
0.558792
0.583272
0.2024
-0.374168
-0.803574
-0.652841
0.436755
-0.337201
0.779091
-0.0414545
0.637296
1.32476
0.21496
0.481815
1.10639
0.394559
0.537569
-0.284979
0.77154
-0.457673
-1.06175
0.66125
-0.779982
-0.611911
-0.573676
-1.15871
-1.08354
0.733896
1.24515
-0.192793
-0.0430888
1.36172
0.587267
-0.061558
-1.63482
0.632892
-0.806383
-2.49115
0.994727
-0.606583
-0.797976
-1.98014
0.250865
-2.09736
1.18597
-2.25564
0.813104
-1.78802
-0.760114
-1.75082
-1.4382
-0.155851
0.586341
0.0586803
-0.101085
0.446601
0.375604
-0.11833
0.439996
0.390057
-0.0483681
0.537721
0.987244
0.0704096
0.229002
1.24362
0.502513
-0.0365134
-0.108328
0.902118
0.926834
0.0779589
0.831479
2.41266
0.360922
0.466243
1.88751
0.229708
0.6328
2.61338
-0.117139
0.421228
2.39356
0.686633
-0.225328
-0.581706
1.45575
1.80791
-0.121436
1.4011
1.762
0.127254
1.1499
1.87122
0.691686
0.937074
1.04341
0.879287
0.569358
0.456487
1.13256
0.95639
0.406338
0.879852
-0.386348
0.502652
0.907532
-0.935868
0.322618
0.76779
-0.788796
0.18998
0.613032
-0.993946
-0.131378
0.502443
-1.22522
0.767153
-0.592059
0.125083
-0.0765652
-0.767004
0.140053
-0.0174502
-0.829829
-0.119541
0.0594183
-0.689954
-0.236121
-0.129992
-0.646561
-0.218727
-0.406462
-0.5354
-0.187848
-0.346969
0.116323
-0.82135
-0.699015
-0.100039
-0.752905
-0.0947938
-0.551509
-0.38691
-0.177728
-0.53137
-0.490145
-0.696216
-0.176665
-0.778468
-0.693075
-0.59605
0.127283
-0.259074
-1.16178
0.23641
-0.212195
-1.60642
1.05305
-0.471392
-1.33201
1.09005
-0.803804
-0.834841
0.308133
-0.535005
-0.61613
-0.498354
-0.710468
0.532972
-0.522953
-0.529607
0.917641
-0.0244303
-1.99329
1.59894
0.835449
-2.09304
1.2735
0.643076
-1.05806
0.754965
0.234437
-0.464381
-0.510628
-0.725786
-0.0250565
0.0205727
-0.154922
1.0541
0.242771
-1.40175
0.757796
0.890439
-1.75096
0.147902
1.21729
-0.921472
0.095358
0.617171
-0.16308
-0.0753548
-0.459699
-0.301758
0.152612
0.584601
-0.113045
0.0865067
0.317059
-0.327939
-0.270334
0.356994
-0.64472
0.54118
-1.25414
-0.763818
0.767109
-0.860091
-0.590666
0.357105
-0.829676
-0.845788
0.322398
-0.0507177
0.373364
0.406678
-0.0636248
1.40054
0.759985
-0.0684472
0.817696
-1.01638
-1.28975
0.0210999
-1.17065
-1.384
0.37195
-0.600329
0.0613659
-1.71911
0.335317
-1.96463
0.997552
-2.15789
0.286189
-2.09303
-0.785118
-1.85017
-1.85137
-0.00409283
-1.41424
0.233208
0.00158372
-1.42741
0.237058
0.00340533
-1.42204
0.235299
0.000938944
-1.41694
0.234581
0.000260024
-1.41927
0.23521
-1.41793
0.233268
-0.0275211
-1.34494
-0.0417822
0.00728926
-1.41011
-0.0521143
0.0134617
-1.3851
-0.0431097
0.0118902
-1.36358
-0.051786
0.0296796
-1.36962
-0.0674398
-1.35206
-0.0361859
-0.124448
-1.40067
0.0171846
-1.63424
0.000683837
-1.48944
0.0217301
-1.54546
0.172701
-1.66918
-1.33805
0.00473212
-1.23628
-0.215038
0.000659083
-1.24456
-0.193985
-0.000618953
-1.24242
-0.200088
-0.00458096
-1.23786
-0.203281
-0.00742676
-1.233
-0.209491
-1.24175
-0.210004
-0.00577816
0.868638
-2.14092
0.000416166
0.808721
-2.11159
-0.0118329
0.808499
-2.08178
-0.0231936
0.869724
-2.14801
0.0138973
0.90899
-2.24652
0.766755
-2.03079
-0.0764703
-3.91371
-0.00757776
-4.20603
-0.00152949
-4.01513
-0.0103037
-4.11185
0.078968
-4.34293
-3.72387
0.0470037
0.277384
-1.73423
0.00947057
0.351813
-1.68355
-0.0347591
0.278523
-1.64668
-0.0107284
0.32617
-1.72992
0.0619117
0.424454
-1.83082
0.209617
-1.6027
0.135194
2.13486
-4.1336
-0.0077335
2.40276
-4.01962
-0.0997631
2.22902
-3.94026
-0.105058
2.31595
-4.1325
-0.00909797
2.4809
-4.39893
1.95782
-3.78809
0.125848
-4.35222
-0.0252151
-4.47834
-0.0253147
-4.38256
-0.0938139
-4.44208
-0.194484
-4.65234
-4.07013
0.133189
2.4803
-3.76005
0.037078
2.62929
-3.64792
-0.0636897
2.55943
-3.57048
-0.00378899
2.57667
-3.75688
0.232303
2.59406
-3.98775
2.50107
-3.37919
0.0800822
3.46521
-5.19859
0.0379672
3.75963
-5.10784
-0.0126635
3.71588
-5.04608
0.0872074
3.55176
-5.20747
0.168562
3.47501
-5.36123
3.72571
-4.84417
0.0273982
-4.28395
0.0236299
-4.37887
0.0657721
-4.36609
0.0237688
-4.29263
-0.147946
-4.36407
-4.2135
0.170705
2.9304
-4.51525
0.0292848
3.24094
-4.47463
-0.0605952
3.22517
-4.44966
0.0261631
3.05352
-4.53325
0.345099
2.82932
-4.6975
3.24764
-4.15256
-0.0111196
2.62563
-4.88269
0.00888176
3.04247
-4.92937
0.0452186
3.0653
-4.92255
0.11851
2.68522
-4.91246
0.0819923
2.39482
-4.89022
3.27376
-4.78831
-0.0886906
-3.50553
0.0124345
-3.67726
0.142317
-3.71205
0.144081
-3.4877
-0.124389
-3.41506
-3.81964
-0.0555353
1.65517
-3.52072
0.00590205
2.22221
-3.56679
0.0859559
2.23282
-3.57434
0.0472805
1.75448
-3.53722
-0.0298264
1.38385
-3.62776
2.39792
-3.37194
-0.111952
-0.514256
-2.60131
-0.0125817
-0.14227
-2.66427
0.0816682
-0.110703
-2.67327
0.0533736
-0.520091
-2.6096
-0.0406113
-0.844586
-2.5678
0.308662
-2.73966
0.0197959
-1.42316
-0.0163288
-1.56623
-0.0824253
-1.58802
0.013375
-1.40516
0.0507623
-1.28215
-1.72078
-0.111118
-0.548941
-1.85393
-0.000488926
-0.36383
-1.94201
0.101418
-0.375938
-1.95139
0.00807217
-0.540579
-1.86858
-0.1967
-0.661582
-1.89098
-0.132038
-1.93536
-0.0755332
-1.8881
-1.18661
-0.00863745
-1.91832
-1.17667
0.0434967
-1.92586
-1.17548
-0.0351772
-1.89213
-1.17937
-0.169025
-1.92098
-1.17455
-1.83826
-1.20246
0.0580821
-0.73928
-0.00289729
-0.738231
-0.0896578
-0.736939
-0.029072
-0.736639
0.0927157
-0.730903
-0.744535
0.0414418
-0.722578
-1.21013
0.019385
-0.830228
-1.15903
-0.0373621
-0.847286
-1.16696
-0.0253249
-0.740016
-1.2093
-0.0447962
-0.741935
-1.22942
-0.812959
-1.1649
0.0356516
-1.16482
-0.780014
0.00764067
-1.21618
-0.762709
-0.0411486
-1.21393
-0.760039
0.00134519
-1.17888
-0.782991
0.0491083
-1.17244
-0.791803
-1.22242
-0.74389
0.0155994
-0.506213
0.000749545
-0.508766
-0.0138583
-0.507807
0.00192613
-0.506595
0.0248076
-0.504994
-0.505427
-0.00426088
0.462677
-0.899829
-0.01522
0.438963
-0.880675
-0.0172422
0.435917
-0.883965
0.00180756
0.47703
-0.911292
0.0307651
0.493761
-0.918158
0.420296
-0.874946
-0.00720946
-0.295068
-0.0150568
-0.00572945
-0.306855
-0.0183677
-0.00511904
-0.30585
-0.0188793
-0.00401114
-0.290615
-0.0164509
-9.03461e-05
-0.286641
-0.0153188
-0.304959
-0.0187245
0.00435551
-0.178451
-0.00284613
-0.180807
-0.00933632
-0.180439
-0.00381291
-0.178447
0.00489253
-0.176766
-0.182031
0.000254606
0.289875
-0.961215
-0.0111144
0.31891
-0.955523
-0.00530755
0.318423
-0.969638
-0.00306041
0.292659
-0.980357
0.00436259
0.268219
-0.98514
0.341579
-0.973852
-0.0158558
-0.388967
0.679643
0.00168434
-0.390897
0.673904
0.0170927
-0.389653
0.673791
0.00208742
-0.38715
0.678365
-0.0339662
-0.395839
0.684795
-0.381611
0.6705
0.00140894
0.199615
-0.0021471
0.198798
-0.00323849
0.198999
-0.000662453
0.199409
-0.000182586
0.19952
0.199336
-0.00410248
-1.18606
-1.8366
-0.00298667
-1.17059
-1.81018
0.00498383
-1.16569
-1.83371
-0.00584106
-1.17565
-1.8587
-0.0198056
-1.18506
-1.88034
-1.1536
-1.83246
-0.0102556
-1.04278
0.546616
-0.00205339
-1.04387
0.538985
0.00591233
-1.04156
0.541699
-0.000275764
-1.0395
0.548405
-0.0140154
-1.04179
0.555265
-1.03691
0.539791
0.000152545
0.443039
-0.00164068
0.442108
-0.0021404
0.443701
-0.00126402
0.444391
-0.000547089
0.444609
0.445131
0.0251526
-2.17298
-1.45051
-0.00164573
-2.10894
-1.45779
-0.0184104
-2.13053
-1.45827
-0.00586823
-2.15481
-1.46703
0.0268861
-2.18097
-1.47009
-2.11997
-1.4603
-0.0168214
-1.44063
-0.168911
-0.000357223
-1.41669
-0.169728
0.00804811
-1.42712
-0.170117
0.00321515
-1.43617
-0.165402
-0.0107884
-1.44833
-0.163375
-1.42038
-0.170586
-0.0136491
0.0139485
0.000218272
0.0190733
0.00744151
0.0189968
0.00339759
0.0192476
-0.0120299
0.0172908
0.0213743
-0.0084516
-0.844903
-0.605732
1.45909
-0.00517736
-0.807208
-0.606937
1.41087
0.00931464
-0.79082
-0.611885
1.38821
0.0187868
-0.842364
-0.622529
1.45542
0.000699193
-0.911151
-0.635651
1.56489
-0.864392
-0.615938
1.48103
-0.0520793
-0.659002
-0.262322
0.1285
-0.0250333
-0.639151
-0.248658
0.0535561
-0.00327799
-0.631078
-0.242267
0.0607699
-0.00402508
-0.671288
-0.222571
0.0522424
-0.00985955
-0.735469
-0.17713
0.00728255
-0.678136
-0.203479
0.00736341
0.0087927
-0.337924
-0.0353948
0.0157197
-0.360705
-0.000641181
0.0306228
-0.364513
-0.000260304
0.0274571
-0.349622
-0.0284146
0.0077725
-0.317104
-0.0865961
-0.346658
-0.0367752
0.000950524
-0.431467
-0.175215
-0.00740056
-0.42311
-0.175476
-0.0178307
-0.430603
-0.170852
-0.0125764
-0.465092
-0.162692
0.00837581
-0.494947
-0.161657
-0.439991
-0.167571
0.000981614
-0.5328
-0.161971
-0.00241605
-0.528753
-0.139619
-0.0174222
-0.531355
-0.12651
-0.0285915
-0.550332
-0.126162
-0.0126839
-0.567597
-0.120386
-0.527504
-0.128649
0.0077185
-0.220342
0.00732815
-0.222234
0.00282994
-0.222922
-0.00523407
-0.22973
-0.00588945
-0.229192
-0.226801
-0.00476239
-0.170703
0.000249727
-0.00460498
-0.175068
-0.000564923
-0.000408334
-0.17465
-0.000397795
0.000530317
-0.16792
0.00428917
-0.000335594
-0.167847
0.00705641
-0.170482
0.00257615
-0.0200018
-0.308776
-0.00389646
-0.0218986
-0.310776
-0.00201422
-0.0128011
-0.308448
-0.00180837
-0.00486082
-0.303856
0.00183578
0.00239567
-0.303095
0.0076062
-0.303807
0.00707172
0.00395399
-0.00610987
0.00421963
-0.00779889
0.00396699
-0.00876636
0.00246389
-0.00930738
0.000836609
-0.00820534
-0.0079003
-0.00248252
-0.18325
0.185983
-0.00381435
-0.186374
0.187141
-0.00419903
-0.188336
0.188323
-0.0019374
-0.187378
0.189406
0.000427378
-0.185056
0.189748
-0.184899
0.187903
-0.00213608
-0.350999
0.165988
-0.0038123
-0.354308
0.167599
-0.00705233
-0.355595
0.168692
-0.00652817
-0.35484
0.168775
-0.000975085
-0.353444
0.170442
-0.350863
0.172061
0.00323697
0.224242
0.00396817
0.223667
0.00238744
0.223455
-6.91505e-06
0.224164
-0.000800725
0.225075
0.224431
-0.00243362
-0.413076
0.601492
-0.0039673
-0.417639
0.606313
-0.00408478
-0.419028
0.607469
-0.00180557
-0.423787
0.610914
0.000180035
-0.423892
0.611654
-0.420968
0.609051
-0.00107781
-0.496151
0.250142
-0.00089136
-0.499979
0.249755
-0.000920541
-0.50078
0.250475
-0.00113087
-0.504007
0.249207
7.91223e-05
-0.504648
0.24999
-0.500639
0.251812
0.00237593
0.351879
0.0039697
0.349332
0.00430484
0.348878
0.00164429
0.348615
-0.00123063
0.349775
0.348106
0.000827406
-0.849846
0.000410151
-0.851061
0.00127653
-0.851665
-0.000114061
-0.854725
-0.00215435
-0.856398
-0.853403
0.00078399
-0.769398
-0.00042928
-0.769819
-0.00175671
-0.769979
-0.000658811
-0.772018
0.00270145
-0.773142
-0.769475
0.00116888
0.00361714
0.00460346
0.002531
-0.00188386
-0.00616032
-0.181854
0.246695
-0.130418
0.276959
0.222902
-0.231862
0.297425
0.194076
-0.0892434
0.643308
0.201318
0.0192913
0.966507
0.168576
-0.296107
0.278885
-0.972176
1.60981
-0.819489
0.0808909
-1.0864
0.310292
-0.107339
1.24615
-0.7605
-0.268445
1.11331
-0.308894
0.756939
-0.183522
0.124645
1.624
-1.16317
-1.00228
-2.29848
0.662656
-0.0944358
-0.343411
-1.24492
-1.23334
-0.943175
0.957951
-0.537051
-2.44062
-0.123964
0.855801
0.441692
0.0496747
2.17471
0.287207
0.314202
1.79019
0.0268722
0.30087
2.64792
0.180109
-0.0331495
2.54073
0.355427
0.0753594
-0.0549525
0.06268
0.624799
-0.651167
0.16934
2.69987
-0.321524
0.197386
2.65142
-1.64978
0.0259598
3.23155
-0.721098
-0.561365
2.64142
0.611283
-0.418102
-1.23107
1.07063
-2.17121
0.417634
-1.24597
-0.0918629
-2.09985
-0.74225
-1.54125
-1.01046
-0.773299
-2.24081
-0.239352
1.85704
0.631913
0.1992
1.16345
0.447204
0.986856
0.944825
0.165604
1.37007
0.930285
-0.089977
0.627489
1.68189
-0.127399
1.46528
0.063649
0.00149501
1.37215
-0.167772
0.485857
0.63762
-0.280061
0.326903
0.117143
-0.663142
0.324405
0.775732
-0.564049
0.587008
2.04649
-0.015926
1.12113
-0.299917
-0.643871
-0.696482
-0.111239
-0.989723
-0.289913
-1.05883
0.0048935
-1.10186
0.752277
-0.785381
-0.755168
0.503433
-0.349253
0.0913837
0.555287
-0.603005
0.0624869
0.522399
-0.642449
0.0521447
0.203501
-0.723134
-0.0418912
-0.19329
-0.806134
-0.149694
-0.74685
0.0251503
0.324718
-0.805731
-0.0360126
0.374036
-0.942419
0.0100344
0.0356748
-0.92982
-0.03741
-0.202164
-0.99199
-0.0573539
-0.0100212
-0.986629
-0.0275723
-0.986361
-0.0704256
0.226378
-0.513009
0.138879
-0.49189
-0.00481719
-0.500949
-0.192678
-0.525894
-0.106874
-0.511885
-0.563949
-0.0385373
-0.184509
-0.452574
-0.0323932
-0.207292
-0.566193
0.0278689
-0.221493
-0.476578
-0.0875479
-0.166643
-0.406391
-0.208631
-0.180945
-0.383064
-0.125284
-0.405164
-0.0315397
0.178731
-0.367713
0.0478655
0.17718
-0.453842
0.0897135
0.171209
-0.471959
0.0791626
0.181636
-0.39508
0.0324592
0.164192
-0.326004
0.177088
-0.340337
-0.0242019
-0.346235
-0.0157928
-0.37408
0.011635
-0.392886
0.0255306
-0.392351
0.0310396
-0.362174
-0.367392
-0.160745
-0.318447
-0.672397
0.149216
-0.0713791
-0.899568
0.324099
-0.0789368
-0.750252
0.026853
-0.327589
-0.477771
-0.352871
-0.408989
-0.287424
-0.165002
-0.465748
-0.0917211
-0.176689
-0.417748
0.100148
-0.0790978
-0.637992
0.290683
-0.0762655
-0.665163
0.192258
-0.202255
-0.421988
-0.0249965
-0.2329
-0.284837
-0.190655
-0.33968
-0.0231448
-0.220898
0.0190495
-0.244852
0.075688
-0.268554
0.0350344
-0.237073
0.00877859
-0.223046
-0.217271
0.00783732
0.333273
-0.777098
0.153498
1.33767
-1.32985
0.296027
1.55468
-1.35741
0.393779
0.566965
-0.834356
0.0134818
-0.0443456
-0.361134
0.550069
-0.469365
-0.318278
0.41403
-0.180226
0.104233
0.745222
-0.468056
0.694055
0.895805
-0.596108
0.648001
0.473662
-0.28263
0.0582487
0.332726
-0.0721561
0.344335
-0.0756976
-0.103475
-0.214696
-0.0139423
-0.21318
0.153159
-0.224558
0.117439
-0.219752
0.0440807
-0.222727
-0.221857
0.0865713
0.752868
-0.698897
0.448639
1.51117
-1.60414
0.673571
1.5947
-1.90354
0.789289
1.04262
-1.23773
0.101338
0.19756
-0.381372
0.147166
-0.540249
0.0283304
0.303726
0.240584
0.336764
0.65278
0.0818948
0.540517
0.855779
-0.0609469
0.691156
0.455955
0.153396
0.366464
0.142594
0.307499
0.107166
0.330763
-0.0997233
-0.11299
-0.000595065
-0.0663642
0.147905
-0.0516365
0.190321
-0.0974339
0.0944421
-0.137932
-0.139057
0.567162
1.00829
-1.22025
1.05125
0.955804
-2.28624
1.00962
0.737622
-2.45162
1.01977
0.602694
-1.75522
0.0626649
0.575211
-0.0748309
0.535559
-1.3149
0.36359
0.397345
0.48794
0.455185
0.419233
0.526873
0.208608
0.371303
0.551949
0.0706843
0.280122
0.613892
0.052595
0.199809
0.700988
0.226114
0.692803
-0.0159959
0.0769449
0.0523512
0.0984689
0.136679
0.100171
0.136882
0.075375
0.058056
0.0411067
0.0493666
0.652394
0.45156
-2.43725
0.841775
0.334553
-3.13811
0.495846
0.162109
-2.91252
0.0471894
0.177105
-2.24749
-0.086087
0.313905
-0.846127
0.141101
-2.37177
0.188606
0.0911102
0.659786
0.178128
0.0724041
0.799505
-0.0302465
0.0066278
0.915807
-0.126357
-0.0282692
0.915376
0.0769332
-0.12688
0.938482
-0.0333385
0.944174
0.0093549
0.50185
0.0497061
0.503497
0.0849357
0.480717
0.0816085
0.46353
0.0111111
0.411634
0.450658
0.331154
-0.0393639
-2.77975
0.186024
-0.19077
-2.86583
0.10877
-0.348437
-2.55528
-0.494961
-0.578334
-2.35517
-0.170478
-0.455552
-2.09906
-0.463217
-2.67936
0.0919595
-0.368411
0.89687
0.0314864
-0.380036
1.04924
-0.0528702
-0.436494
1.08822
-0.143844
-0.62616
1.05417
0.00713186
-0.686279
1.01823
-0.583598
1.07169
0.0329004
0.952486
0.114536
0.937353
0.189638
0.907933
0.131406
0.86069
0.027649
0.800524
0.839323
0.00585546
-3.04564
-0.0531642
-3.36057
-0.107758
-3.27036
-0.0637559
-3.03679
-0.0669863
-2.3811
-3.11668
0.0332654
-2.05353
-0.125153
-2.09935
-0.292388
-1.95414
-0.31397
-1.90879
0.0394502
-1.70901
-1.99818
0.024144
-0.0674416
-0.135718
-0.134361
0.10747
)
;

boundaryField
{
    seabed_topleft_surface
    {
        type            calculated;
        value           uniform 0;
    }
    seabed_topright_surface
    {
        type            calculated;
        value           uniform 0;
    }
    breakwater_top_surface
    {
        type            calculated;
        value           uniform 0;
    }
    breakwater_left_surface
    {
        type            calculated;
        value           uniform 0;
    }
    breakwater_right_surface
    {
        type            calculated;
        value           uniform 0;
    }
    water_front_surface
    {
        type            calculated;
        value           uniform 0;
    }
    water_back_surface
    {
        type            calculated;
        value           uniform 0;
    }
    water_left_surface
    {
        type            calculated;
        value           uniform 0;
    }
    water_right_surface
    {
        type            calculated;
        value           uniform 0;
    }
    water_top_surface
    {