/*--------------------------------*- C++ -*----------------------------------*\
| =========                 |                                                 |
| \\      /  F ield         | OpenFOAM: The Open Source CFD Toolbox           |
|  \\    /   O peration     | Version:  v1612+                                |
|   \\  /    A nd           | Web:      www.OpenFOAM.com                      |
|    \\/     M anipulation  |                                                 |
\*---------------------------------------------------------------------------*/
FoamFile
{
    version     2.0;
    format      ascii;
    class       surfaceScalarField;
    location    "0.25";
    object      alphaPhi;
}
// * * * * * * * * * * * * * * * * * * * * * * * * * * * * * * * * * * * * * //

dimensions      [0 3 -1 0 0 0 0];

internalField   nonuniform List<scalar> 
816
(
1.81315e-07
-3.41279e-07
9.11943e-08
-9.62723e-08
6.06131e-08
1.036e-07
-2.23246e-07
9.62144e-08
1.6425e-07
9.60538e-08
2.26285e-08
-1.31222e-07
-8.69471e-08
6.05585e-07
7.23474e-07
-1.47742e-06
2.13518e-07
2.54739e-07
7.39403e-07
-1.6057e-06
-1.37306e-12
1.10365e-12
2.20092e-06
3.32258e-12
-4.84402e-12
1.42858e-11
2.06239e-06
1.75391e-11
-2.42539e-12
-2.97436e-12
-3.71344e-06
5.94115e-12
5.0497e-12
-2.91638e-11
-6.75918e-07
1.96943e-12
-3.25126e-12
6.9066e-12
2.6823e-06
3.22627e-11
-1.59335e-11
-3.49622e-12
-2.64776e-06
-3.46335e-12
1.26369e-12
-3.24878e-11
2.48144e-13
-1.50213e-12
-3.94386e-12
3.48261e-11
1.63663e-06
-5.16034e-12
1.51774e-11
5.12292e-13
-5.36064e-06
-1.97573e-11
8.87068e-12
-2.37852e-12
-2.52059e-06
6.37582e-12
-6.38782e-11
1.7329e-11
2.90856e-06
2.03656e-11
7.36917e-12
-4.43836e-06
6.21261e-12
2.80396e-12
-7.57394e-08
3.67641e-06
2.30861e-06
2.51911e-06
2.65988e-07
3.46703e-06
2.07238e-06
2.50858e-06
1.31747e-07
-1.42572e-06
-5.99837e-07
6.81665e-08
6.31957e-07
-2.21074e-06
-3.41434e-07
-1.11004e-07
-3.88773e-07
2.63003e-06
2.22434e-06
3.47746e-06
-5.80082e-07
-1.60999e-06
-7.43972e-07
-5.14366e-08
1.0277e-06
-1.27522e-06
3.93255e-07
1.17704e-06
-1.49859e-06
2.69482e-06
1.71789e-06
6.59716e-07
4.97023e-07
-9.07123e-07
-6.19511e-07
-1.7737e-06
7.85275e-07
-2.04315e-06
-3.97267e-07
6.71002e-07
-2.83239e-06
2.78217e-06
2.3936e-06
2.63278e-06
1.62858e-06
-7.9803e-07
1.29873e-06
1.02206e-06
-1.26226e-08
6.83946e-07
1.06981e-06
6.32998e-07
5.80197e-07
9.32015e-07
6.05008e-07
-2.5859e-07
-1.71204e-07
2.26278e-07
1.68331e-07
-4.05906e-07
-1.07089e-07
3.65449e-08
3.58641e-07
1.03991e-06
5.98926e-07
-3.07149e-07
-2.74823e-07
5.94331e-08
1.17275e-07
-2.58743e-07
4.27879e-07
1.29669e-07
4.91764e-07
7.79141e-07
5.89376e-08
-9.0485e-08
-1.64761e-07
-2.30803e-07
3.43816e-07
-1.57491e-07
-6.80028e-08
3.02208e-07
5.08786e-07
1.07893e-06
5.08207e-07
-2.81207e-07
3.42263e-07
2.98129e-07
7.96881e-08
-1.86126e-07
7.64142e-08
4.49043e-09
6.41913e-08
-1.7274e-07
8.84685e-08
1.32288e-07
7.16475e-08
-7.90273e-08
-4.97494e-08
3.41567e-07
2.6733e-07
9.72562e-08
7.25264e-08
2.42061e-07
-5.92733e-09
3.87982e-07
3.91702e-07
3.17997e-07
3.02997e-07
3.68463e-07
2.72174e-07
-1.72384e-07
1.5978e-07
9.67134e-08
8.16178e-09
-2.66255e-07
4.7877e-08
-6.85645e-09
1.78172e-07
3.4072e-07
2.9309e-07
-2.39018e-07
7.19696e-08
5.66999e-08
-3.04645e-08
-7.61569e-08
1.1634e-07
1.55934e-07
3.12269e-07
3.4542e-08
2.45927e-07
-2.99382e-08
-1.20781e-07
2.28271e-07
2.90441e-08
-5.72672e-08
1.73417e-07
3.83557e-08
3.19003e-07
3.21793e-07
3.05803e-07
2.00085e-07
1.76574e-07
-1.77737e-08
1.46084e-12
-1.01261e-12
-1.2064e-06
5.33938e-13
1.1948e-12
-1.58992e-06
1.45542e-12
2.08e-12
-1.61142e-06
2.5086e-12
5.67704e-13
1.33745e-14
3.47312e-13
-8.47994e-13
1.80481e-08
-3.09638e-11
2.44367e-12
-1.15405e-12
-3.02067e-07
9.25777e-13
-5.6179e-12
6.85619e-14
4.4971e-13
-5.58456e-12
-3.17827e-06
5.06413e-12
-4.93182e-11
-8.44972e-06
-5.22913e-11
1.2085e-11
3.34381e-06
6.39362e-11
4.71723e-11
-8.34829e-12
-6.33261e-06
-3.00618e-11
-4.24644e-11
4.08093e-13
-9.74054e-13
2.45648e-11
4.83636e-07
-5.604e-13
4.82725e-11
1.73512e-07
6.01837e-12
1.59351e-12
9.8421e-08
6.93545e-13
-6.73138e-12
-5.14736e-13
-2.70026e-06
2.37749e-12
-1.10334e-13
-9.87441e-07
2.6511e-12
2.45969e-14
-1.9242e-06
3.38079e-12
-8.59351e-13
-5.85349e-06
4.17454e-13
1.72488e-13
-1.90613e-12
-4.26953e-12
-4.04859e-08
-8.70889e-08
-4.83237e-07
-9.88623e-08
3.23665e-08
-4.77341e-07
1.206e-06
-1.67855e-07
-5.58521e-07
9.9272e-07
-5.70101e-07
-4.76774e-07
-2.75541e-07
4.14787e-07
-1.71453e-07
-1.30869e-06
-7.45729e-07
1.58965e-07
-3.37068e-07
-1.14329e-06
2.3557e-07
-2.94081e-07
-1.11348e-06
-4.12296e-07
-6.57544e-07
1.07615e-06
-1.71755e-06
-5.90573e-07
-1.5191e-06
1.70236e-06
6.61818e-07
9.4439e-08
-9.63651e-08
-2.14865e-07
-7.04859e-07
-1.04483e-06
-2.36792e-06
-8.02651e-07
-9.07002e-07
-1.90963e-08
9.79076e-07
4.11981e-07
1.74673e-06
8.55664e-07
1.04073e-07
1.25246e-07
-3.5857e-07
-2.66823e-07
-4.09521e-07
1.40793e-07
-3.71281e-07
-3.33253e-07
3.70976e-07
-2.72543e-07
-3.96082e-07
2.52952e-07
-5.38007e-07
9.96582e-07
3.2159e-08
-6.26406e-07
-6.75632e-07
-5.35353e-07
-5.10281e-08
-7.99906e-07
-2.97484e-08
-1.97023e-08
-1.78456e-07
7.18602e-08
-5.25788e-09
-1.8545e-07
2.72041e-07
-1.48373e-08
-2.14453e-07
2.41614e-07
-1.43255e-07
-2.02191e-07
4.41306e-08
-2.47987e-08
-3.89468e-08
-1.58649e-07
-1.16099e-07
-3.33097e-08
-8.2203e-08
-1.35932e-07
-2.89559e-08
-7.79613e-08
-2.0945e-07
-7.94516e-08
-2.26497e-07
1.71998e-07
-2.69178e-07
-2.05361e-07
-1.73774e-07
1.68285e-07
2.58407e-07
4.1244e-08
-6.21397e-08
-1.25977e-07
-2.23617e-07
-1.38884e-07
-3.88698e-07
-2.49114e-07
-1.70042e-07
1.35203e-07
4.61286e-07
9.61944e-09
3.73542e-07
3.55082e-07
-1.03075e-08
1.15317e-07
-5.4674e-08
-3.95875e-08
1.82863e-09
7.45199e-08
-1.22741e-07
4.71521e-08
1.16047e-07
-9.12155e-08
2.73081e-08
9.92245e-08
-2.22949e-07
1.70694e-07
6.38681e-08
-2.60128e-07
-6.5418e-08
-2.1336e-07
-4.90489e-08
-2.42683e-07
-2.50232e-08
-3.30109e-09
-4.4635e-08
4.77371e-08
-6.02019e-09
-4.23319e-08
1.54674e-07
3.59174e-11
-4.69353e-08
1.40971e-07
-8.36253e-08
-6.78314e-08
3.53448e-08
-3.25166e-08
4.55339e-09
-5.52437e-08
-8.70524e-08
-4.37006e-08
1.06837e-08
-6.36413e-08
-5.18971e-08
-4.28871e-09
-8.30284e-08
-6.27739e-08
-2.38207e-08
9.2395e-08
-1.37264e-07
-1.5151e-08
-8.06179e-08
5.48314e-08
7.24614e-08
6.22956e-09
-7.14447e-08
-6.35732e-08
-2.19465e-08
-8.11035e-08
-1.70054e-07
-6.44353e-09
-7.11215e-08
1.08291e-07
1.79882e-07
-5.37006e-09
2.01497e-07
1.21432e-07
-4.47304e-08
7.79603e-08
2.66458e-09
-3.95598e-08
1.38496e-08
6.01851e-08
-1.57949e-08
3.05865e-08
8.52461e-08
-1.49827e-08
-5.00231e-09
7.81218e-08
-4.48354e-08
8.67875e-08
5.5212e-08
-6.32361e-08
-4.37041e-08
-7.18629e-08
-4.12233e-08
-1.29026e-07
2.62745e-08
-1.15177e-07
8.0771e-08
3.45439e-08
-1.16592e-07
8.22897e-08
6.40559e-08
-3.27531e-08
-4.73603e-08
1.61398e-07
3.93687e-08
-1.84512e-08
-5.48764e-09
1.43999e-07
1.93922e-07
9.93817e-08
1.78386e-07
-1.04765e-07
1.19183e-07
4.65558e-08
-1.52801e-07
2.48389e-08
8.702e-09
1.21365e-07
-9.30458e-08
3.15617e-08
-6.55613e-09
-9.60352e-09
3.23803e-09
1.44978e-07
-2.08787e-08
2.91625e-08
-5.39981e-08
1.40801e-07
2.93582e-08
1.07408e-07
1.46802e-07
1.39584e-07
1.13243e-07
8.93451e-08
-1.3401e-08
-3.19325e-09
3.52508e-08
-7.97589e-09
6.91604e-08
7.70263e-09
6.99949e-08
-4.01903e-08
3.45129e-08
-5.24477e-08
4.71321e-09
-4.2739e-08
-6.74581e-08
-2.20608e-08
-7.5122e-08
-3.3038e-08
-5.71867e-08
2.17471e-08
-7.14805e-08
-2.70699e-08
6.12777e-09
3.92585e-10
-5.38051e-08
-3.50134e-08
-4.73692e-08
-3.69577e-08
-5.19893e-08
8.99913e-08
-3.26932e-08
1.16566e-07
-4.56572e-08
5.99703e-08
-3.70118e-08
3.19369e-08
4.63488e-08
3.26519e-08
5.54062e-08
1.453e-08
5.61704e-08
2.53501e-08
4.68968e-08
-2.58892e-08
-2.12451e-08
-7.86073e-08
7.85494e-12
-5.57685e-11
-3.17269e-06
2.2033e-12
-1.63837e-06
1.26834e-12
-1.5011e-06
5.43092e-13
-7.74389e-07
-3.18855e-11
2.02467e-06
5.21827e-11
2.68897e-06
3.34867e-13
-7.81397e-06
-1.87701e-12
-1.07297e-06
-1.36673e-12
1.3217e-13
-3.7127e-12
6.36517e-07
-3.88575e-11
-1.02617e-05
9.11969e-12
2.27709e-07
1.40152e-11
1.76874e-06
-1.24896e-11
6.14443e-13
-3.1609e-11
-6.47429e-07
-2.1593e-12
5.27823e-07
2.90441e-13
1.05667e-06
3.44227e-11
-2.86585e-06
5.27149e-11
-1.11738e-06
1.76487e-12
9.86711e-14
-4.09867e-11
2.21257e-06
5.59869e-11
2.13429e-06
-4.72126e-13
-5.76877e-07
-2.69979e-12
2.30789e-14
-1.28683e-11
-6.01407e-06
-8.42049e-12
-1.42539e-06
-3.35969e-11
4.83721e-13
2.45297e-06
1.28207e-06
-4.17147e-06
-5.71258e-07
-1.26175e-07
-4.60001e-07
-1.97335e-07
-4.5422e-07
-5.8085e-07
-3.82916e-07
-1.04581e-06
-2.12072e-07
9.02154e-07
7.9261e-07
-5.34943e-07
-1.57616e-07
-6.04298e-07
2.02264e-07
7.65035e-08
5.31454e-07
5.18862e-07
6.09553e-07
-4.92863e-07
-3.85216e-07
-3.42737e-07
4.34633e-07
3.94695e-07
2.02492e-07
-2.89145e-07
9.69882e-08
1.89443e-07
3.30005e-07
-1.11506e-06
-4.89796e-08
-6.41283e-07
5.6325e-07
1.08226e-06
9.83957e-07
1.18905e-06
3.49918e-07
4.08327e-07
-1.29191e-07
-7.90281e-07
-1.9515e-07
5.54223e-07
4.69815e-07
3.20045e-08
-1.07672e-07
1.76645e-07
1.15265e-07
4.02685e-07
-1.39464e-07
-1.72608e-06
-2.83318e-07
-3.30749e-06
9.31803e-08
2.22663e-06
2.43926e-07
-6.81156e-07
-2.11834e-07
-1.74519e-08
-1.75012e-07
-4.64038e-08
-1.78639e-07
-7.76025e-08
-1.36332e-07
-2.08729e-07
-6.57441e-08
8.22905e-08
3.35049e-07
-5.28441e-08
-4.34869e-08
-1.99016e-07
1.50263e-07
-7.74458e-08
2.37806e-07
4.63196e-08
2.38238e-07
-6.83285e-08
-1.34397e-07
-9.75513e-08
2.48483e-07
-4.50897e-09
9.95822e-08
-4.6318e-08
1.2708e-07
-7.90945e-09
1.77904e-07
-2.85014e-07
5.09575e-08
-1.7965e-07
2.64149e-07
3.18636e-07
4.72584e-07
3.46574e-07
2.69376e-07
1.00447e-07
-7.7319e-09
-9.49797e-08
-1.27034e-08
1.53906e-07
1.7644e-07
3.72784e-08
8.6878e-09
2.41895e-08
1.13388e-07
8.25319e-08
-6.14526e-08
-2.91717e-07
-8.72209e-09
-4.71894e-07
-1.21848e-09
1.03882e-06
1.35094e-07
-3.95291e-07
-3.7629e-08
-1.56404e-08
-4.52537e-08
-2.94946e-08
-5.12913e-08
-3.4447e-08
-4.07069e-08
-1.20265e-07
-3.69196e-08
4.2661e-09
8.96592e-08
-4.75064e-08
1.89806e-08
-1.01622e-07
4.5132e-08
-5.67984e-08
6.33748e-08
-2.00815e-08
7.03199e-08
-7.91586e-08
7.41854e-09
-4.51664e-08
7.25023e-08
-4.87485e-08
3.66377e-08
-1.3544e-08
5.28286e-08
-4.28875e-09
7.44013e-08
-1.21794e-07
3.42216e-08
-8.87788e-08
1.23402e-07
1.71746e-07
1.92452e-07
2.2776e-07
1.06444e-07
8.08664e-08
2.90873e-09
-1.9713e-08
-5.67063e-09
5.06452e-08
4.70533e-08
2.84191e-08
7.60565e-10
5.4275e-08
2.60712e-08
4.40407e-08
6.87906e-09
-9.48588e-08
1.38537e-08
-3.03757e-07
2.12421e-08
2.94457e-07
6.44688e-08
-1.67302e-07
-5.65197e-09
-1.2022e-08
-9.53082e-09
-5.28786e-08
-2.39974e-08
-2.31536e-08
-7.33326e-08
-7.0758e-08
-6.65992e-08
-6.09522e-08
-3.63043e-08
-3.63509e-08
-8.72173e-09
-1.56383e-08
-5.16221e-08
-1.65181e-08
1.08506e-07
1.38181e-07
5.3208e-08
1.85037e-08
3.64305e-08
2.76658e-08
2.79491e-08
2.68041e-08
-1.93643e-08
-1.09008e-07
5.13277e-12
-7.1717e-11
-1.65425e-06
-1.53866e-11
-1.37588e-06
2.37804e-12
9.75145e-07
1.3839e-06
1.18625e-06
-1.29135e-06
-7.22914e-07
-1.13137e-06
)
;

boundaryField
{
    top_fluid_surface
    {
        type            calculated;
        value           nonuniform List<scalar> 
64
(
0
0
2.3403e-12
2.20679e-12
0
1.0621e-11
4.22648e-12
0
7.19617e-12
5.71899e-12
0
8.21419e-13
2.99633e-12
2.50257e-12
2.39853e-12
1.88382e-12
3.22127e-12
2.15321e-12
1.76845e-12
5.28254e-12
1.11093e-11
0
1.6223e-11
1.31464e-11
0
0
8.14843e-12
3.74497e-12
3.29348e-12
2.78627e-12
4.30559e-12
2.78391e-12
2.13947e-12
2.55044e-12
2.36978e-12
2.37549e-12
3.97171e-12
0
0
4.43314e-11
2.8316e-12
3.62544e-12
5.17967e-12
0
1.22131e-11
6.67782e-12
1.30561e-12
0
0
0
0
3.68021e-12
9.15477e-12
0
2.38494e-12
7.54099e-13
3.24764e-12
8.65739e-11
0
0
3.14441e-12
2.76849e-12
0
0
)
;
    }
    bottom_fluid_surface
    {
        type            calculated;
        value           uniform 0;
    }
    lateral_surface_1
    {
        type            calculated;
        value           uniform 0;
    }
    lateral_surface_2
    {
        type            calculated;
        value           uniform 0;
    }
    lateral_surface_3
    {
        type            calculated;
        value           uniform 0;
    }
    lateral_surface_4
    {
        type            calculated;
        value           uniform 0;
    }
}


// ************************************************************************* //
