/*--------------------------------*- C++ -*----------------------------------*\
| =========                 |                                                 |
| \\      /  F ield         | OpenFOAM: The Open Source CFD Toolbox           |
|  \\    /   O peration     | Version:  v1612+                                |
|   \\  /    A nd           | Web:      www.OpenFOAM.com                      |
|    \\/     M anipulation  |                                                 |
\*---------------------------------------------------------------------------*/
FoamFile
{
    version     2.0;
    format      ascii;
    class       volScalarField;
    location    "4.35";
    object      alpha.water;
}
// * * * * * * * * * * * * * * * * * * * * * * * * * * * * * * * * * * * * * //

dimensions      [0 0 0 0 0 0 0];

internalField   nonuniform List<scalar> 
1116
(
0.45446
0.454465
0.454466
0.454466
0.454467
0.454464
0.460116
0.46012
0.460122
0.460121
0.460122
0.460121
0.489595
0.489597
0.489599
0.489598
0.489599
0.4896
0.547372
0.547373
0.547375
0.547374
0.547375
0.547378
0.645804
0.645807
0.645808
0.645808
0.64581
0.645811
0.78601
0.786011
0.786013
0.786013
0.786013
0.786016
0.954198
0.954193
0.954195
0.954195
0.954192
0.954197
0.973361
0.973361
0.973361
0.973361
0.973361
0.973361
0.973365
0.973365
0.973365
0.973365
0.973365
0.973365
0.973358
0.973358
0.973358
0.973358
0.973358
0.973358
0.973347
0.973347
0.973347
0.973347
0.973347
0.973347
0.973332
0.973332
0.973332
0.973331
0.973331
0.973331
1.44697e-08
1.44695e-08
1.44697e-08
1.447e-08
1.447e-08
1.44708e-08
7.45277e-09
7.45258e-09
7.4527e-09
7.4526e-09
7.45253e-09
7.45338e-09
5.85161e-09
5.85162e-09
5.85165e-09
5.85164e-09
5.85164e-09
5.85171e-09
5.83525e-09
5.83519e-09
5.83523e-09
5.83521e-09
5.83519e-09
5.8353e-09
-1.85645e-08
-1.85772e-08
-1.85217e-08
-1.85816e-08
-1.86169e-08
-1.85439e-08
0.00739406
0.00739462
0.0073944
0.00739455
0.00739459
0.00739456
0.0984078
0.0983951
0.0983999
0.0984012
0.0983971
0.0984052
0.538514
0.538499
0.5385
0.538501
0.538499
0.538508
0.913749
0.91377
0.913757
0.913757
0.913759
0.913757
0.973358
0.973358
0.973358
0.973358
0.973358
0.973358
0.973342
0.973342
0.973342
0.973342
0.973342
0.973342
0.973502
0.973502
0.973502
0.973502
0.973502
0.973502
1.7137e-07
1.71289e-07
1.71317e-07
1.71327e-07
1.71303e-07
1.71402e-07
5.1266e-07
5.12597e-07
5.12622e-07
5.12618e-07
5.12574e-07
5.12694e-07
5.76885e-08
5.76792e-08
5.76831e-08
5.7679e-08
5.76775e-08
5.77114e-08
5.66464e-09
5.66573e-09
5.66569e-09
5.66567e-09
5.66583e-09
5.66557e-09
5.95396e-09
5.95513e-09
5.95522e-09
5.95506e-09
5.9551e-09
5.95492e-09
1.39117e-07
1.39197e-07
1.38791e-07
1.39252e-07
1.39508e-07
1.38976e-07
0.0002707
0.000270714
0.000270709
0.000270715
0.000270717
0.00027071
0.046274
0.0462777
0.0462752
0.0462719
0.0462725
0.0462724
0.374993
0.375139
0.375071
0.375051
0.375086
0.375029
0.676087
0.676167
0.676126
0.676117
0.676136
0.676102
0.898953
0.898946
0.898944
0.898944
0.898936
0.898953
0.964586
0.964599
0.964593
0.964603
0.964609
0.96459
1.47159e-07
1.47027e-07
1.47065e-07
1.47078e-07
1.47036e-07
1.47194e-07
6.73183e-07
6.73188e-07
6.73195e-07
6.73206e-07
6.73216e-07
6.73216e-07
1.61774e-07
1.61701e-07
1.6172e-07
1.61712e-07
1.6169e-07
1.61817e-07
3.35105e-09
3.35213e-09
3.35192e-09
3.35186e-09
3.35206e-09
3.35121e-09
1.32226e-08
1.32264e-08
1.32274e-08
1.32281e-08
1.32288e-08
1.3227e-08
5.0193e-07
5.02272e-07
5.02121e-07
5.02165e-07
5.02272e-07
5.02089e-07
2.18445e-05
2.18388e-05
2.18437e-05
2.18443e-05
2.18425e-05
2.18441e-05
0.000349779
0.000349955
0.000349948
0.000349889
0.000349885
0.000349861
0.107688
0.107928
0.107844
0.107801
0.107845
0.107773
0.341844
0.342392
0.342173
0.34212
0.342263
0.342025
0.406769
0.407199
0.407017
0.407016
0.407148
0.406909
0.424575
0.424652
0.424619
0.424703
0.424761
0.424593
3.8939e-15
3.80572e-15
3.78553e-15
4.00724e-15
4.20922e-15
3.7353e-15
1.55507e-14
1.52634e-14
1.57201e-14
1.51868e-14
1.52995e-14
1.60238e-14
2.17827e-12
2.14546e-12
2.20448e-12
2.12413e-12
2.12893e-12
2.22398e-12
1.62512e-10
1.5916e-10
1.64463e-10
1.58466e-10
1.59633e-10
1.67634e-10
9.5608e-09
9.40193e-09
9.72533e-09
9.30608e-09
9.38784e-09
9.93214e-09
3.62452e-07
3.5566e-07
3.67007e-07
3.53059e-07
3.54888e-07
3.748e-07
8.69957e-06
8.55314e-06
8.80748e-06
8.47259e-06
8.49409e-06
8.9995e-06
0.00229533
0.00225812
0.00228818
0.00227644
0.00228492
0.00233072
0.00641577
0.00638036
0.00661192
0.0061232
0.00589361
0.00695875
0.00238582
0.00246631
0.00269009
0.0020654
0.00177193
0.00327702
0.00023923
0.00025074
0.000269014
0.000201234
0.000154103
0.000310082
1.21331e-05
1.20803e-05
1.20166e-05
1.19564e-05
1.18321e-05
1.1868e-05
2.90245e-16
2.91203e-16
2.87586e-16
2.96528e-16
3.02786e-16
2.87703e-16
5.6016e-15
5.80275e-15
6.005e-15
5.18e-15
5.23375e-15
6.11526e-15
4.38273e-13
4.23901e-13
4.07927e-13
4.7708e-13
5.22791e-13
4.02257e-13
4.33125e-11
4.21501e-11
4.17573e-11
4.50993e-11
4.78561e-11
4.09972e-11
2.53004e-09
2.46066e-09
2.43448e-09
2.63486e-09
2.80069e-09
2.38823e-09
9.681e-08
9.41341e-08
9.29312e-08
1.01052e-07
1.07564e-07
9.10525e-08
2.50112e-06
2.43189e-06
2.63946e-06
2.62027e-06
2.79169e-06
2.64983e-06
0.000114644
9.09021e-05
6.01865e-05
0.000188707
0.000289793
4.11704e-05
0.0141526
0.0139437
0.0138636
0.0143611
0.0145136
0.0138342
0.0278899
0.0279705
0.028636
0.0267885
0.0255012
0.0295716
0.000892293
0.000927781
0.00104323
0.000717404
0.000513043
0.00137786
1.15763e-05
1.14875e-05
1.14109e-05
1.13353e-05
1.13831e-05
1.12989e-05
6.27219e-17
6.16691e-17
6.09622e-17
6.43914e-17
6.67959e-17
5.99664e-17
2.07155e-15
2.0243e-15
1.70929e-15
2.54109e-15
2.88646e-15
1.42718e-15
2.09811e-14
2.063e-14
2.05898e-14
2.13655e-14
2.20984e-14
2.05006e-14
2.11009e-12
2.06875e-12
2.03268e-12
2.20722e-12
2.33697e-12
1.99357e-12
1.32652e-10
1.30453e-10
1.2866e-10
1.37849e-10
1.45091e-10
1.27252e-10
6.53458e-08
7.13144e-08
7.13918e-08
6.25568e-08
5.62888e-08
8.05277e-08
2.43808e-06
2.58867e-06
2.64328e-06
2.12052e-06
1.78235e-06
2.81882e-06
6.60978e-07
6.48483e-07
6.4623e-07
7.41713e-07
8.04344e-07
6.44484e-07
0.000185778
0.000147039
9.72393e-05
0.000350393
0.000588917
2.76581e-05
0.0313208
0.0309018
0.030576
0.0320357
0.0325076
0.0301176
0.0505981
0.0507843
0.0517254
0.0492403
0.0473132
0.0535903
1.14875e-05
1.14109e-05
1.13353e-05
1.1294e-05
1.1294e-05
1.1294e-05
1.52489e-17
1.51307e-17
1.51005e-17
1.54155e-17
1.57323e-17
1.51181e-17
2.09031e-17
2.08472e-17
2.08107e-17
2.10383e-17
2.12843e-17
2.08743e-17
3.10255e-16
3.08885e-16
3.03614e-16
3.2121e-16
3.33677e-16
3.01637e-16
3.16077e-14
3.15029e-14
3.1099e-14
3.25628e-14
3.37823e-14
3.11675e-14
2.43624e-12
2.43104e-12
2.40873e-12
2.49626e-12
2.5807e-12
2.43012e-12
1.38541e-10
1.38378e-10
1.37151e-10
1.41771e-10
1.38309e-10
1.38641e-10
1.91019e-08
2.5878e-08
2.90051e-08
1.14363e-08
5.23233e-09
3.93513e-08
1.44826e-08
1.43036e-08
1.37105e-08
1.59559e-08
1.66822e-08
1.31574e-08
6.51842e-07
6.37558e-07
6.12076e-07
7.30878e-07
7.91923e-07
5.9067e-07
3.68246e-05
3.7338e-05
3.72368e-05
3.71682e-05
3.67159e-05
3.65596e-05
0.0661762
0.0661611
0.0664367
0.0660758
0.0654344
0.0671645
0.194443
0.194204
0.196701
0.19142
0.186366
0.20113
5.7705e-10
5.72971e-10
5.74294e-10
5.74033e-10
5.71421e-10
5.77788e-10
5.70259e-10
5.66209e-10
5.67522e-10
5.67263e-10
5.64669e-10
5.70992e-10
-1.37519e-16
-1.50597e-16
-1.5459e-16
-1.51152e-16
-1.50255e-16
-1.53887e-16
4.0849e-07
4.08064e-07
4.08195e-07
4.0817e-07
4.07916e-07
4.08548e-07
3.00082e-23
3.0044e-23
3.00288e-23
3.00295e-23
3.00482e-23
3.00021e-23
-8.87467e-16
-9.74749e-16
-1.00145e-15
-9.7849e-16
-9.72505e-16
-9.96802e-16
5.13738e-08
5.13243e-08
5.13318e-08
5.13323e-08
5.13239e-08
5.13753e-08
1.13701e-15
1.13666e-15
1.13661e-15
1.13658e-15
1.13646e-15
1.13682e-15
1.28747e-18
1.28706e-18
1.28712e-18
1.28716e-18
1.28708e-18
1.28709e-18
1.14553e-10
1.14611e-10
1.14596e-10
1.14586e-10
1.14588e-10
1.14582e-10
4.23959e-13
4.23933e-13
4.23932e-13
4.23905e-13
4.23863e-13
4.2398e-13
1.14814e-17
1.12534e-17
1.15157e-17
1.14428e-17
1.13147e-17
1.12587e-17
2.79301e-09
2.79405e-09
2.79399e-09
2.794e-09
2.79417e-09
2.79377e-09
6.91551e-11
6.91544e-11
6.91538e-11
6.91499e-11
6.91441e-11
6.91594e-11
3.90758e-13
3.90731e-13
3.9073e-13
3.90706e-13
3.90666e-13
3.90771e-13
1.9975e-07
1.99809e-07
1.99776e-07
1.99841e-07
1.99915e-07
1.9982e-07
5.02287e-09
5.0252e-09
5.02464e-09
5.02424e-09
5.0243e-09
5.02408e-09
6.91613e-11
6.91619e-11
6.91609e-11
6.9157e-11
6.9151e-11
6.91657e-11
2.69451e-06
2.69365e-06
2.69426e-06
2.69421e-06
2.69377e-06
2.6937e-06
1.54798e-07
1.54845e-07
1.54838e-07
1.54825e-07
1.54823e-07
1.54821e-07
5.24913e-09
5.24963e-09
5.24963e-09
5.24926e-09
5.24887e-09
5.24944e-09
4.966e-06
4.9623e-06
4.96606e-06
4.9624e-06
4.95842e-06
4.96326e-06
5.05126e-06
5.06863e-06
5.06172e-06
5.0597e-06
5.0639e-06
5.05797e-06
5.61353e-07
5.63539e-07
5.62485e-07
5.62436e-07
5.63289e-07
5.62188e-07
3.90316e-06
3.9016e-06
3.90303e-06
3.89306e-06
3.88394e-06
3.89598e-06
6.76765e-06
6.78118e-06
6.77999e-06
6.77801e-06
6.78006e-06
6.77181e-06
2.4927e-06
2.49068e-06
2.49492e-06
2.49025e-06
2.47663e-06
2.49191e-06
1.89511e-06
1.88489e-06
1.89492e-06
1.88284e-06
1.85655e-06
1.889e-06
1.65589e-06
1.64543e-06
1.65538e-06
1.6434e-06
1.61681e-06
1.64969e-06
1.08196e-07
1.05391e-07
1.13898e-07
1.04152e-07
8.02891e-08
1.00351e-07
3.74052e-06
3.73041e-06
3.73875e-06
3.72288e-06
3.69773e-06
3.73283e-06
2.12813e-06
2.11371e-06
2.12323e-06
2.09939e-06
2.06804e-06
2.12191e-06
8.3732e-05
8.37276e-05
8.37181e-05
8.37302e-05
8.37654e-05
8.37843e-05
0.000726095
0.000702962
0.000713046
0.000745585
0.000795388
0.000680616
1.91205e-06
1.90816e-06
1.91736e-06
1.90816e-06
1.84505e-06
1.84505e-06
4.17265e-06
4.11678e-06
4.13986e-06
4.11119e-06
4.02623e-06
4.2408e-06
0.417386
0.417363
0.417395
0.417368
0.417337
0.417463
1.97435e-07
1.90597e-07
1.83389e-07
3.36284e-07
6.30528e-07
1.93606e-07
8.90379e-06
8.10531e-06
7.99568e-06
7.46109e-06
3.75468e-06
6.87307e-06
0.4201
0.420104
0.420113
0.420095
0.420088
0.420141
-3.13898e-17
-2.2764e-15
-2.33882e-15
-1.93893e-15
-4.35688e-15
8.7604e-19
-4.59976e-24
-1.95598e-24
-9.06461e-24
-3.37363e-24
-2.40167e-24
-3.45357e-24
0.420596
0.420596
0.420596
0.4206
0.420603
0.420603
0.00329226
0.00330702
0.00330073
0.00338068
0.00349631
0.0032024
-4.96826e-24
-4.74773e-24
-4.64528e-24
-4.26944e-24
-9.05232e-24
-2.57975e-24
0.420596
0.420595
0.420596
0.420596
0.4206
0.420603
0.00913675
0.00919206
0.00911248
0.00932892
0.00962029
0.00884172
-2.30017e-23
-2.89594e-23
-3.14148e-23
-3.1806e-23
-3.02122e-23
-2.26577e-23
0.420503
0.420505
0.420504
0.420509
0.420516
0.420505
0.00324653
0.0033374
0.00321101
0.00351995
0.00404561
0.00271936
-1.72983e-23
-2.17764e-23
-2.36122e-23
-2.39922e-23
-2.29102e-23
-1.69464e-23
0.349872
0.349883
0.349859
0.350038
0.350365
0.349575
2.98821e-19
3.16236e-19
5.64273e-20
-6.48109e-19
2.89808e-19
2.72657e-19
-1.00174e-23
-1.34744e-23
-1.28094e-23
-1.55062e-23
-2.38874e-23
-2.58611e-21
1.16964e-18
1.16007e-18
1.16558e-18
1.16944e-18
1.1878e-18
1.17397e-18
1.00885e-19
9.99998e-20
1.00617e-19
1.00393e-19
1.0171e-19
1.01592e-19
8.43597e-21
8.36464e-21
8.41032e-21
8.37818e-21
8.44567e-21
8.50755e-21
3.09623e-17
3.09764e-17
3.0867e-17
3.12158e-17
3.15472e-17
3.11751e-17
3.37957e-18
3.36942e-18
3.37175e-18
3.37376e-18
3.39282e-18
3.41969e-18
3.74456e-19
3.72679e-19
3.7244e-19
3.72675e-19
3.7236e-19
3.78108e-19
3.80274e-17
3.81027e-17
3.79918e-17
3.82586e-17
3.85284e-17
3.83804e-17
4.34285e-17
4.36554e-17
4.37643e-17
4.30613e-17
4.2286e-17
4.51216e-17
8.34967e-18
8.35977e-18
8.32397e-18
8.31014e-18
8.12546e-18
8.5482e-18
4.90108e-16
4.93736e-16
4.89432e-16
4.98507e-16
5.06746e-16
4.97449e-16
6.25559e-17
6.29145e-17
6.29469e-17
6.23311e-17
6.16596e-17
6.45541e-17
1.19035e-16
1.19968e-16
1.19518e-16
1.18056e-16
1.11466e-16
1.25372e-16
4.27729e-14
4.32295e-14
4.30478e-14
4.31874e-14
4.36479e-14
4.42202e-14
2.11159e-15
2.18303e-15
2.21761e-15
2.04009e-15
1.94746e-15
2.37951e-15
4.56804e-15
4.66013e-15
4.60369e-15
4.55216e-15
4.13916e-15
4.87951e-15
2.99214e-12
3.01245e-12
2.99775e-12
3.02625e-12
3.06018e-12
3.06351e-12
1.16364e-13
1.17643e-13
1.17767e-13
1.16339e-13
1.16675e-13
1.21447e-13
9.44548e-14
9.55892e-14
9.48256e-14
9.42214e-14
8.96623e-14
9.88284e-14
1.25349e-10
1.31231e-10
1.31679e-10
1.13104e-10
8.95894e-11
1.3343e-10
3.7735e-12
3.77621e-12
3.79152e-12
3.69464e-12
4.02537e-12
4.42276e-12
2.63027e-13
2.64878e-13
2.63519e-13
2.64696e-13
2.63025e-13
2.71068e-13
2.95402e-10
2.90318e-10
2.75105e-10
3.27196e-10
3.56904e-10
2.61364e-10
8.55667e-12
8.59545e-12
8.44929e-12
8.9302e-12
9.1885e-12
8.5513e-12
4.50874e-12
4.61258e-12
4.65239e-12
4.41896e-12
4.32466e-12
4.86954e-12
5.1343e-09
5.46244e-09
5.33667e-09
4.99917e-09
4.74064e-09
5.4357e-09
6.57575e-11
6.92421e-11
6.73994e-11
6.76462e-11
6.27412e-11
6.79046e-11
9.87811e-12
8.60715e-12
8.47258e-12
8.94002e-12
1.36054e-11
8.5602e-12
3.59592e-07
7.35533e-07
7.30992e-07
4.42306e-07
7.97236e-08
8.15789e-08
8.14427e-08
1.51738e-07
1.53245e-07
9.37973e-08
2.30126e-08
2.12431e-08
1.31658e-06
9.5944e-07
8.99929e-07
1.32539e-06
1.32748e-06
1.2192e-06
-7.45316e-09
-5.75852e-08
-1.47746e-07
-5.20924e-08
-9.75329e-08
-1.6753e-07
1.0124e-08
1.21973e-08
1.21023e-08
1.02723e-08
3.45684e-08
3.83514e-08
5.4639e-18
4.74911e-18
1.6017e-17
7.33681e-18
1.29915e-07
3.32282e-08
0.212314
0.212618
0.212689
0.211741
0.211369
0.213211
1.52114e-08
2.27552e-08
2.26416e-08
1.67086e-08
3.90642e-08
4.03763e-08
4.35406e-06
3.58347e-06
3.10403e-06
1.28081e-05
3.14174e-05
3.01462e-06
)
;

boundaryField
{
    seabed_topleft_surface
    {
        type            zeroGradient;
    }
    seabed_topright_surface
    {
        type            zeroGradient;
    }
    breakwater_top_surface
    {
        type            zeroGradient;
    }
    breakwater_left_surface
    {
        type            zeroGradient;
    }
    breakwater_right_surface
    {
        type            zeroGradient;
    }
    water_front_surface
    {
        type            zeroGradient;
    }
    water_back_surface
    {
        type            zeroGradient;
    }
    water_left_surface
    {
        type            zeroGradient;
    }
    water_right_surface
    {
        type            zeroGradient;
    }
    water_top_surface
    {
        type            inletOutlet;
        inletValue      uniform 0;
        value           nonuniform List<scalar> 
180
(
0
0
0
0
0
0
0
0
0
0
0
0
0
0
0
0
0
0
0
0
0
0
0
0
3.90758e-13
3.90731e-13
3.9073e-13
3.90706e-13
3.90666e-13
3.90771e-13
6.91613e-11
6.91619e-11
6.91609e-11
6.9157e-11
6.9151e-11
6.91657e-11
5.24913e-09
5.24963e-09
5.24963e-09
5.24926e-09
5.24887e-09
5.24944e-09
5.61353e-07
5.63539e-07
5.62485e-07
5.62436e-07
5.63289e-07
5.62188e-07
2.4927e-06
2.49068e-06
2.49492e-06
2.49025e-06
2.47663e-06
2.49191e-06
0
0
0
0
0
0
0
0
0
0
0
0
0
0
0
0
0
0
0
0
0
0
0
0
0
0
0
0
0
0
0
0
0
0
0
0
0
0
0
0
0
0
0
0
0
0
0
0
0
0
0
0
0
0
8.43597e-21
8.36464e-21
8.41032e-21
8.37818e-21
8.44567e-21
8.50755e-21
3.74456e-19
3.72679e-19
3.7244e-19
3.72675e-19
3.7236e-19
3.78108e-19
8.34967e-18
8.35977e-18
8.32397e-18
8.31014e-18
8.12546e-18
8.5482e-18
1.19035e-16
1.19968e-16
1.19518e-16
1.18056e-16
1.11466e-16
1.25372e-16
4.56804e-15
4.66013e-15
4.60369e-15
4.55216e-15
4.13916e-15
4.87951e-15
9.44548e-14
9.55892e-14
9.48256e-14
9.42214e-14
8.96623e-14
9.88284e-14
2.63027e-13
2.64878e-13
2.63519e-13
2.64696e-13
2.63025e-13
2.71068e-13
4.50874e-12
4.61258e-12
4.65239e-12
4.41896e-12
4.32466e-12
4.86954e-12
9.87811e-12
8.60715e-12
8.47258e-12
8.94002e-12
1.36054e-11
8.5602e-12
0
0
0
0
0
0
0
0
0
0
0
0
0
0
0
0
0
0
)
;
    }
}


// ************************************************************************* //
