/*--------------------------------*- C++ -*----------------------------------*\
| =========                 |                                                 |
| \\      /  F ield         | OpenFOAM: The Open Source CFD Toolbox           |
|  \\    /   O peration     | Version:  v1612+                                |
|   \\  /    A nd           | Web:      www.OpenFOAM.com                      |
|    \\/     M anipulation  |                                                 |
\*---------------------------------------------------------------------------*/
FoamFile
{
    version     2.0;
    format      ascii;
    class       volScalarField;
    location    "4.35";
    object      p;
}
// * * * * * * * * * * * * * * * * * * * * * * * * * * * * * * * * * * * * * //

dimensions      [1 -1 -2 0 0 0 0];

internalField   nonuniform List<scalar> 
1116
(
2246.29
2246.31
2246.32
2246.32
2246.32
2246.3
2289.77
2289.79
2289.8
2289.79
2289.8
2289.79
2450.29
2450.3
2450.31
2450.3
2450.31
2450.31
2711.35
2711.36
2711.36
2711.36
2711.37
2711.37
3134.25
3134.26
3134.26
3134.26
3134.27
3134.28
4281.94
4281.96
4281.96
4281.96
4281.97
4281.99
6961.02
6960.99
6960.99
6961
6961.01
6961.07
11882.5
11882.5
11882.5
11882.5
11882.5
11882.5
16056.2
16056.3
16056.2
16056.2
16056.2
16056.2
19474.9
19474.8
19474.8
19474.8
19474.7
19474.7
23050.7
23050.6
23050.6
23050.6
23050.6
23050.7
25549.6
25549.6
25549.6
25549.6
25549.6
25549.7
-19.3783
-19.3775
-19.3773
-19.3771
-19.3772
-19.3778
-16.7471
-16.7462
-16.746
-16.746
-16.7463
-16.7472
-11.4934
-11.4923
-11.4921
-11.4923
-11.4929
-11.4943
-10.677
-10.6763
-10.677
-10.6761
-10.676
-10.678
55.4592
55.4591
55.4588
55.4581
55.4577
55.459
239.138
239.133
239.137
239.13
239.127
239.142
503.293
503.229
503.259
503.27
503.252
503.325
3359.01
3358.94
3358.97
3358.94
3358.91
3358.98
6697.82
6697.78
6697.81
6697.79
6697.76
6697.71
8635.5
8635.69
8635.73
8635.71
8635.8
8635.49
12447.5
12447
12447.2
12447.3
12447.3
12447.3
15309.6
15309.4
15309.5
15309.4
15309.4
15309.6
-14.689
-14.6884
-14.6883
-14.6883
-14.6886
-14.689
-16.0004
-15.9999
-16
-16.0003
-16.0007
-16.0015
-15.4124
-15.4122
-15.4125
-15.413
-15.4137
-15.4144
-41.7607
-41.7609
-41.761
-41.7615
-41.7624
-41.762
-60.7467
-60.7491
-60.7492
-60.7502
-60.7516
-60.7503
-30.1974
-30.2099
-30.2046
-30.2053
-30.21
-30.2036
48.252
48.2546
48.2553
48.2546
48.2558
48.2569
291.466
291.554
291.521
291.511
291.532
291.52
2086.65
2086.36
2086.51
2086.51
2086.41
2086.55
4773.62
4772.25
4772.93
4773.03
4772.74
4773.23
6883.41
6881.22
6882.11
6882.58
6882.35
6882.53
7115.07
7115.24
7115.1
7115.36
7115.53
7115.03
-33.2259
-33.2252
-33.2251
-33.2252
-33.2253
-33.2259
-34.447
-34.4457
-34.4456
-34.4458
-34.4462
-34.4476
-32.1425
-32.1433
-32.1439
-32.1443
-32.1444
-32.1442
-46.8545
-46.8549
-46.8552
-46.8555
-46.8559
-46.8559
-57.2704
-57.2705
-57.2707
-57.2714
-57.2721
-57.2717
-43.1811
-43.1849
-43.1829
-43.1836
-43.1849
-43.1824
24.8461
24.8544
24.8538
24.8541
24.8562
24.851
24.8671
24.901
24.8939
24.8971
24.9043
24.9003
330.882
331.75
331.452
331.296
331.453
331.205
1582.13
1584.72
1583.69
1583.46
1584.11
1583.01
2045.92
2047.63
2046.9
2047.17
2048.01
2046.33
1162.38
1163.43
1162.77
1163.48
1164.73
1161.48
20.8522
20.8525
20.8532
20.8539
20.8546
20.8549
22.244
22.2448
22.2464
22.248
22.2494
22.25
25.1852
25.1876
25.1923
25.1969
25.2011
25.2007
30.5699
30.5741
30.5921
30.6073
30.6225
30.6105
39.3709
39.3728
39.4254
39.4636
39.5242
39.4734
45.0667
45.1207
45.1887
45.2077
45.3862
45.3038
52.7625
52.8379
53.0165
53.9948
54.7759
52.8589
139.762
139.487
138.323
147.519
150.604
137.911
424.919
424.461
428.346
418.967
412.539
445.936
-2.07328
-1.31298
-0.785592
-6.34121
-10.018
7.14594
-172.475
-172.502
-172.822
-171.174
-170.506
-173.466
-162.348
-162.349
-162.595
-162.136
-161.801
-163.369
9.2654
9.26571
9.26622
9.26676
9.26722
9.26743
10.4308
10.4314
10.4326
10.4337
10.4348
10.4351
12.7696
12.7713
12.7747
12.7779
12.7809
12.7802
16.4205
16.4242
16.4352
16.4436
16.4538
16.446
21.0638
21.0703
21.0926
21.1278
21.1653
21.1095
17.3658
17.4095
17.3913
17.5458
17.6377
17.4096
-15.8054
-15.665
-15.8619
-15.6013
-15.4973
-15.898
-53.1815
-53.1413
-53.2768
-54.7162
-55.503
-53.2686
-53.6327
-53.0343
-52.1804
-56.5195
-57.1369
-49.9363
-269.225
-269.546
-270.824
-267.675
-269.095
-268.722
-288.546
-288.694
-288.635
-285.74
-284.095
-287.402
-200.207
-200.222
-200.328
-200.834
-201.243
-201.602
-4.14202
-4.14183
-4.14154
-4.14125
-4.14102
-4.14093
-3.54269
-3.54238
-3.5418
-3.54122
-3.54072
-3.54063
-2.58271
-2.58202
-2.58065
-2.57928
-2.57796
-2.57856
-1.94068
-1.93916
-1.93635
-1.93414
-1.93052
-1.93386
-3.25017
-3.24721
-3.24699
-3.24218
-3.23213
-3.25212
-12.5706
-12.5482
-12.5877
-12.6015
-12.6177
-12.6262
-43.7013
-43.5705
-43.657
-44.1598
-44.4658
-43.699
-85.6131
-85.3344
-85.0439
-86.7731
-87.0984
-85.0555
-96.4196
-96.6425
-96.6441
-96.7444
-96.8835
-96.8411
-53.8082
-55.9932
-56.1389
-54.832
-60.7098
-55.7866
-361.894
-361.787
-361.528
-363.181
-364.246
-366.991
-196.897
-197.009
-197.123
-197.701
-198.242
-198.291
-18.4438
-18.4437
-18.4435
-18.4435
-18.4434
-18.4434
-18.3337
-18.3336
-18.3334
-18.3333
-18.3332
-18.3332
-18.4235
-18.4233
-18.4231
-18.423
-18.4227
-18.423
-19.4298
-19.4298
-19.4301
-19.4309
-19.4306
-19.4316
-22.7308
-22.7313
-22.7356
-22.7412
-22.7427
-22.7452
-31.7469
-31.7466
-31.7676
-31.7929
-31.8124
-31.8007
-49.7332
-49.7163
-49.7681
-49.9378
-50.0742
-49.7922
-73.8117
-73.7796
-73.7905
-74.1505
-74.4351
-73.7784
-76.7492
-76.9106
-76.9869
-76.7883
-77.0268
-77.2089
-61.7647
-61.8165
-61.8002
-61.9807
-62.2468
-61.9041
-131.893
-132.927
-132.306
-132.06
-132.488
-131.603
-1128.67
-1127.53
-1138.95
-1115.71
-1093.51
-1160.34
-41.273
-41.2728
-41.2727
-41.2728
-41.2729
-41.2731
-53.3206
-53.3205
-53.3205
-53.3206
-53.3207
-53.3208
-64.9427
-64.9428
-64.9428
-64.9428
-64.9428
-64.9427
-41.3925
-41.3924
-41.3924
-41.3925
-41.3928
-41.3933
-52.8086
-52.8086
-52.8087
-52.8087
-52.8089
-52.8091
-64.5413
-64.5414
-64.5414
-64.5414
-64.5414
-64.5412
-40.2021
-40.2023
-40.2027
-40.2028
-40.203
-40.2033
-51.4707
-51.4708
-51.471
-51.471
-51.4711
-51.4711
-63.6031
-63.6032
-63.6032
-63.6031
-63.6031
-63.6029
-46.4774
-46.4774
-46.4779
-46.4779
-46.4779
-46.4781
-50.9965
-50.9965
-50.9968
-50.9967
-50.9965
-50.9964
-62.0499
-62.0499
-62.0498
-62.0498
-62.0497
-62.0496
-53.2364
-53.2351
-53.2353
-53.2352
-53.2351
-53.2354
-49.4557
-49.4551
-49.4555
-49.4553
-49.4552
-49.4554
-60.2068
-60.2068
-60.2068
-60.2067
-60.2067
-60.2067
-39.019
-39.0199
-39.0186
-39.0181
-39.0177
-39.0168
-44.249
-44.248
-44.2483
-44.248
-44.2476
-44.248
-58.1069
-58.1059
-58.1064
-58.1063
-58.1062
-58.1064
-20.8169
-20.8071
-20.8099
-20.8095
-20.8057
-20.8085
-47.7679
-47.7632
-47.7639
-47.7637
-47.7621
-47.7633
-63.174
-63.1734
-63.1735
-63.1733
-63.1731
-63.1734
-77.8788
-77.8797
-77.8789
-77.8745
-77.8716
-77.8665
-92.556
-92.5602
-92.5613
-92.557
-92.5568
-92.5579
-79.1495
-79.1519
-79.1517
-79.1506
-79.1515
-79.1537
-129.385
-129.389
-129.385
-129.384
-129.386
-129.378
-142.417
-142.465
-142.453
-142.445
-142.454
-142.448
-90.6779
-90.6813
-90.6787
-90.6801
-90.6805
-90.6823
-101.863
-101.852
-101.852
-101.854
-101.86
-101.837
-104.972
-104.972
-104.969
-104.969
-104.966
-104.959
-81.1818
-81.1833
-81.1797
-81.1832
-81.1795
-81.1849
-83.5545
-83.5325
-83.5272
-83.4995
-83.4739
-83.5389
-85.5409
-85.535
-85.536
-85.5426
-85.5456
-85.5236
-73.1707
-73.1658
-73.166
-73.1705
-73.1701
-73.1695
-45.5143
-45.5036
-45.5056
-45.3873
-45.2801
-45.6743
-55.308
-55.3087
-55.315
-55.3591
-55.4175
-55.2422
-71.9325
-71.9346
-71.9347
-71.9374
-71.9432
-71.9256
1985.02
1984.72
1984.89
1985.01
1985.36
1984.4
-46.9253
-46.9883
-46.9535
-46.9098
-46.8132
-47.0915
-68.4251
-68.4027
-68.395
-68.4681
-68.5382
-68.377
2027.37
2027.45
2027.54
2027.45
2027.58
2027.66
-46.1631
-46.1424
-46.1163
-46.1959
-46.2064
-46.1282
-66.7892
-66.7949
-66.7994
-66.7948
-66.8094
-66.8083
2080.81
2081.04
2081.03
2082.07
2084
2079.49
-43.4524
-43.4254
-43.388
-43.4061
-43.3546
-43.4131
-69.1648
-69.1569
-69.1493
-69.1291
-69.1201
-69.1478
2200.98
2200.93
2200.82
2201.75
2202.95
2199.44
-26.2877
-26.1119
-26.1753
-25.6947
-24.8461
-27.0019
-69.0915
-69.0645
-69.0683
-69.0316
-68.9769
-69.1411
2392.76
2391.31
2392.55
2388.06
2381.35
2398.65
-25.3701
-25.3131
-25.3172
-25.274
-24.8061
-25.5408
-71.0188
-70.978
-70.9883
-70.8857
-70.7513
-71.1753
1572.41
1572.03
1572.41
1572.3
1572.2
1572.7
-56.9875
-57.0299
-56.9984
-57.1375
-57.2442
-56.7462
-73.5672
-73.5581
-73.5551
-73.5349
-73.4975
-73.5886
-32.9339
-32.9338
-32.9338
-32.9338
-32.9339
-32.9339
-47.3486
-47.3486
-47.3486
-47.3486
-47.3486
-47.3487
-61.6106
-61.6106
-61.6106
-61.6106
-61.6107
-61.6107
-33.062
-33.062
-33.062
-33.062
-33.0621
-33.0621
-47.4968
-47.4968
-47.4968
-47.4969
-47.4969
-47.497
-61.6761
-61.6761
-61.6761
-61.6761
-61.6762
-61.6762
-33.5486
-33.5487
-33.5488
-33.549
-33.549
-33.5492
-47.9128
-47.9129
-47.913
-47.9131
-47.9132
-47.9133
-61.8418
-61.8418
-61.8419
-61.8419
-61.842
-61.842
-34.8509
-34.8512
-34.8518
-34.8527
-34.8532
-34.8535
-48.836
-48.8362
-48.8365
-48.8369
-48.8371
-48.8373
-62.1946
-62.1946
-62.1947
-62.1948
-62.1949
-62.1949
-37.5067
-37.5079
-37.5102
-37.5138
-37.5158
-37.5158
-50.2616
-50.2621
-50.2628
-50.2638
-50.2643
-50.2647
-62.6047
-62.6049
-62.605
-62.6052
-62.6054
-62.6056
-43.7207
-43.7227
-43.7303
-43.7382
-43.7455
-43.7457
-54.0431
-54.0441
-54.047
-54.0494
-54.0521
-54.0533
-63.9396
-63.9398
-63.9404
-63.9409
-63.9414
-63.9418
-51.6051
-51.6061
-51.6246
-51.6502
-51.6749
-51.6495
-57.8847
-57.8866
-57.8916
-57.8963
-57.8999
-57.9028
-65.0478
-65.0481
-65.0486
-65.0492
-65.0487
-65.0509
-61.2387
-61.2322
-61.2495
-61.2776
-61.3274
-61.2352
-63.6672
-63.6668
-63.6744
-63.6796
-63.688
-63.6756
-67.0173
-67.0169
-67.0177
-67.0188
-67.0184
-67.0189
-63.3462
-63.3596
-63.3636
-63.3545
-63.3834
-63.3101
-67.8742
-67.89
-67.8945
-67.8829
-67.8863
-67.9194
-67.9996
-67.9997
-67.9953
-67.9922
-67.9786
-68.0021
-63.1377
-63.1355
-63.1572
-63.0978
-63.0928
-63.1604
-69.6972
-69.6984
-69.6994
-69.6872
-69.6702
-69.7491
-67.6636
-67.6606
-67.6565
-67.6627
-67.6367
-67.6953
-64.4326
-64.337
-64.5337
-64.0197
-63.4982
-64.8379
-63.2912
-63.2881
-63.3142
-63.1407
-63.1159
-63.288
-68.9017
-68.9171
-68.9175
-68.8518
-68.8335
-68.9352
888.285
890.804
891.086
885.044
881.334
893.848
-55.8564
-55.8321
-55.838
-55.7912
-55.8219
-55.815
-82.0145
-82.0445
-82.0564
-82.0158
-82.1199
-82.0801
)
;

boundaryField
{
    seabed_topleft_surface
    {
        type            calculated;
        value           nonuniform List<scalar> 
72
(
4485.76
4485.81
4485.82
4485.82
4485.83
4485.79
4557.05
4557.09
4557.11
4557.1
4557.11
4557.1
4862.51
4862.54
4862.56
4862.55
4862.56
4862.56
5407.66
5407.68
5407.69
5407.69
5407.7
5407.71
6314.54
6314.57
6314.58
6314.58
6314.6
6314.61
8151.62
8151.65
8151.65
8151.65
8151.66
8151.7
11657.7
11657.6
11657.6
11657.6
11657.6
11657.7
16673.4
16673.4
16673.4
16673.4
16673.4
16673.4
20847.1
20847.2
20847.1
20847.1
20847.1
20847.1
24265.7
24265.7
24265.7
24265.6
24265.6
24265.6
27841.5
27841.4
27841.4
27841.4
27841.4
27841.5
30340.3
30340.3
30340.3
30340.3
30340.3
30340.4
)
;
    }
    seabed_topright_surface
    {
        type            calculated;
        value           nonuniform List<scalar> 
72
(
25.774
25.7744
25.7751
25.7758
25.7764
25.7767
27.1658
27.1667
27.1683
27.1699
27.1713
27.1719
30.107
30.1094
30.1142
30.1187
30.123
30.1226
35.4918
35.496
35.514
35.5292
35.5443
35.5324
44.2928
44.2947
44.3473
44.3855
44.4461
44.3953
49.9904
50.0443
50.1124
50.1313
50.3098
50.2275
57.7272
57.8019
57.9816
58.9583
59.7396
57.825
155.97
155.512
154.496
163.634
166.761
154.293
461.386
460.754
465.778
453.996
446.439
485.074
14.5795
15.7356
17.3633
8.73608
3.6163
28.1807
-166.377
-166.347
-166.577
-165.263
-164.827
-167.019
-157.366
-157.368
-157.615
-157.155
-156.821
-158.389
)
;
    }
    breakwater_top_surface
    {
        type            calculated;
        value           nonuniform List<scalar> 
36
(
4035.16
4034.75
4035.07
4035.06
4035.25
4034.91
4090.81
4090.9
4091.04
4090.86
4090.95
4091.3
4146.67
4146.9
4146.9
4147.96
4149.9
4145.39
4266.84
4266.79
4266.68
4267.62
4268.83
4265.35
4458.17
4456.73
4457.97
4453.5
4446.82
4464.07
3291.72
3291.39
3291.66
3292.42
3293.92
3290.56
)
;
    }
    breakwater_left_surface
    {
        type            calculated;
        value           nonuniform List<scalar> 
24
(
25566
25566
25566
25566
25566
25566.1
15325.7
15325.5
15325.5
15325.5
15325.4
15325.7
7130.68
7130.85
7130.71
7130.98
7131.14
7130.64
1169.13
1170.18
1169.51
1170.23
1171.49
1168.23
)
;
    }
    breakwater_right_surface
    {
        type            calculated;
        value           nonuniform List<scalar> 
24
(
-162.331
-162.332
-162.578
-162.119
-161.784
-163.352
-200.19
-200.206
-200.311
-200.817
-201.226
-201.585
-196.881
-196.993
-197.107
-197.685
-198.226
-198.275
-1125.57
-1124.44
-1135.82
-1112.66
-1090.54
-1157.13
)
;
    }
    water_front_surface
    {
        type            calculated;
        value           nonuniform List<scalar> 
186
(
2246.29
2289.77
2450.29
2711.35
3134.25
4281.94
6961.02
11882.5
16056.2
19474.9
23050.7
25549.6
-19.3783
-16.7471
-11.4934
-10.677
55.4592
239.138
503.293
3359.01
6697.82
8635.5
12447.5
15309.6
-14.689
-16.0004
-15.4124
-41.7607
-60.7467
-30.1974
48.252
291.466
2086.65
4773.62
6883.41
7115.07
-33.2259
-34.447
-32.1425
-46.8545
-57.2704
-43.1811
24.8461
24.8671
330.882
1582.13
2045.92
1162.38
20.8522
22.244
25.1852
30.5699
39.3709
45.0667
52.7625
139.762
424.919
-2.07328
-172.475
-162.348
9.2654
10.4308
12.7696
16.4205
21.0638
17.3658
-15.8054
-53.1815
-53.6327
-269.225
-288.546
-200.207
-4.14202
-3.54269
-2.58271
-1.94068
-3.25017
-12.5706
-43.7013
-85.6131
-96.4196
-53.8082
-361.894
-196.897
-18.4438
-18.3337
-18.4235
-19.4298
-22.7308
-31.7469
-49.7332
-73.8117
-76.7492
-61.7647
-131.893
-1128.67
-41.273
-53.3206
-64.9427
-41.3925
-52.8086
-64.5413
-40.2021
-51.4707
-63.6031
-46.4774
-50.9965
-62.0499
-53.2364
-49.4557
-60.2068
-39.019
-44.249
-58.1069
-20.8169
-47.7679
-63.174
-77.8788
-92.556
-79.1495
-129.385
-142.417
-90.6779
-101.863
-104.972
-81.1818
-83.5545
-85.5409
-73.1707
-45.5143
-55.308
-71.9325
1985.02
-46.9253
-68.4251
2027.37
-46.1631
-66.7892
2080.81
-43.4524
-69.1648
2200.98
-26.2877
-69.0915
2392.76
-25.3701
-71.0188
1572.41
-56.9875
-73.5672
-32.9339
-47.3486
-61.6106
-33.062
-47.4968
-61.6761
-33.5486
-47.9128
-61.8418
-34.8509
-48.836
-62.1946
-37.5067
-50.2616
-62.6047
-43.7207
-54.0431
-63.9396
-51.6051
-57.8847
-65.0478
-61.2387
-63.6672
-67.0173
-63.3462
-67.8742
-67.9996
-63.1377
-69.6972
-67.6636
-64.4326
-63.2912
-68.9017
888.285
-55.8564
-82.0145
)
;
    }
    water_back_surface
    {
        type            calculated;
        value           nonuniform List<scalar> 
186
(
2246.3
2289.79
2450.31
2711.37
3134.28
4281.99
6961.07
11882.5
16056.2
19474.7
23050.7
25549.7
-19.3778
-16.7472
-11.4943
-10.678
55.459
239.142
503.325
3358.98
6697.71
8635.49
12447.3
15309.6
-14.689
-16.0015
-15.4144
-41.762
-60.7503
-30.2036
48.2569
291.52
2086.55
4773.23
6882.53
7115.03
-33.2259
-34.4476
-32.1442
-46.8559
-57.2717
-43.1824
24.851
24.9003
331.205
1583.01
2046.33
1161.48
20.8549
22.25
25.2007
30.6105
39.4734
45.3038
52.8589
137.911
445.936
7.14594
-173.466
-163.369
9.26743
10.4351
12.7802
16.446
21.1095
17.4096
-15.898
-53.2686
-49.9363
-268.722
-287.402
-201.602
-4.14093
-3.54063
-2.57856
-1.93386
-3.25212
-12.6262
-43.699
-85.0555
-96.8411
-55.7866
-366.991
-198.291
-18.4434
-18.3332
-18.423
-19.4316
-22.7452
-31.8007
-49.7922
-73.7784
-77.2089
-61.9041
-131.603
-1160.34
-41.2731
-53.3208
-64.9427
-41.3933
-52.8091
-64.5412
-40.2033
-51.4711
-63.6029
-46.4781
-50.9964
-62.0496
-53.2354
-49.4554
-60.2067
-39.0168
-44.248
-58.1064
-20.8085
-47.7633
-63.1734
-77.8665
-92.5579
-79.1537
-129.378
-142.448
-90.6823
-101.837
-104.959
-81.1849
-83.5389
-85.5236
-73.1695
-45.6743
-55.2422
-71.9256
1984.4
-47.0915
-68.377
2027.66
-46.1282
-66.8083
2079.49
-43.4131
-69.1478
2199.44
-27.0019
-69.1411
2398.65
-25.5408
-71.1753
1572.7
-56.7462
-73.5886
-32.9339
-47.3487
-61.6107
-33.0621
-47.497
-61.6762
-33.5492
-47.9133
-61.842
-34.8535
-48.8373
-62.1949
-37.5158
-50.2647
-62.6056
-43.7457
-54.0533
-63.9418
-51.6495
-57.9028
-65.0509
-61.2352
-63.6756
-67.0189
-63.3101
-67.9194
-68.0021
-63.1604
-69.7491
-67.6953
-64.8379
-63.288
-68.9352
893.848
-55.815
-82.0801
)
;
    }
    water_left_surface
    {
        type            calculated;
        value           nonuniform List<scalar> 
42
(
2253.96
2253.98
2253.99
2253.99
2253.99
2253.97
-19.3618
-19.361
-19.3607
-19.3606
-19.3607
-19.3613
-14.6728
-14.6722
-14.6721
-14.6721
-14.6724
-14.6728
-33.21
-33.2094
-33.2092
-33.2093
-33.2094
-33.21
-41.273
-41.2728
-41.2727
-41.2728
-41.2729
-41.2731
-53.3206
-53.3205
-53.3205
-53.3206
-53.3207
-53.3208
-64.9427
-64.9428
-64.9428
-64.9428
-64.9428
-64.9427
)
;
    }
    water_right_surface
    {
        type            calculated;
        value           nonuniform List<scalar> 
42
(
20.869
20.8694
20.8701
20.8708
20.8714
20.8717
9.28192
9.28223
9.28274
9.28328
9.28373
9.28394
-4.12583
-4.12564
-4.12535
-4.12506
-4.12483
-4.12475
-18.4279
-18.4278
-18.4277
-18.4276
-18.4275
-18.4275
-32.9339
-32.9338
-32.9338
-32.9338
-32.9339
-32.9339
-47.3486
-47.3486
-47.3486
-47.3486
-47.3486
-47.3487
-61.6106
-61.6106
-61.6106
-61.6106
-61.6107
-61.6107
)
;
    }
    water_top_surface
    {
        type            calculated;
        value           nonuniform List<scalar> 
180
(
-71.3468
-71.3473
-71.3473
-71.3473
-71.3473
-71.3468
-71.0494
-71.0498
-71.0498
-71.0498
-71.0497
-71.0492
-70.2525
-70.2527
-70.2526
-70.2525
-70.2525
-70.252
-69.1099
-69.1098
-69.1098
-69.1098
-69.1098
-69.1097
-68.67
-68.67
-68.67
-68.67
-68.67
-68.67
-68.67
-68.67
-68.67
-68.67
-68.67
-68.67
-68.6704
-68.6704
-68.6704
-68.6704
-68.6704
-68.6704
-68.7085
-68.7087
-68.7086
-68.7086
-68.7086
-68.7086
-68.841
-68.8409
-68.8412
-68.8408
-68.8399
-68.8409
-68.8827
-68.8815
-68.8828
-68.8831
-68.8831
-68.8837
-70.8903
-70.8941
-70.8925
-70.8957
-70.9053
-70.8801
-79.9388
-79.972
-79.9574
-79.9667
-79.9992
-79.9181
-74.8044
-74.9689
-74.9608
-74.8295
-74.9243
-75.0075
-71.4205
-71.3981
-71.3842
-71.4548
-71.5022
-71.3253
-68.9838
-68.9928
-68.9854
-69.0078
-69.0371
-68.9691
-78.0034
-78.0501
-77.9383
-78.1931
-78.4992
-77.6699
-86.9388
-87.0568
-86.8893
-87.2055
-87.7243
-86.3852
-78.0682
-78.1036
-78.0711
-78.1254
-78.1984
-77.978
-68.67
-68.67
-68.67
-68.67
-68.67
-68.67
-68.67
-68.67
-68.67
-68.67
-68.67
-68.67
-68.67
-68.67
-68.67
-68.67
-68.67
-68.67
-68.67
-68.67
-68.67
-68.67
-68.67
-68.67
-68.67
-68.67
-68.67
-68.67
-68.67
-68.67
-68.67
-68.67
-68.67
-68.67
-68.67
-68.67
-68.67
-68.67
-68.67
-68.67
-68.67
-68.67
-68.67
-68.67
-68.67
-68.67
-68.67
-68.67
-68.67
-68.67
-68.67
-68.67
-68.67
-68.67
-73.7894
-73.8118
-73.8084
-73.7771
-73.7529
-73.8321
-74.4003
-74.456
-74.4717
-74.3649
-74.4309
-74.4637
-69.3708
-69.3251
-69.3776
-69.2173
-68.8879
-69.4578
)
;
    }
}


// ************************************************************************* //
