/*--------------------------------*- C++ -*----------------------------------*\
| =========                 |                                                 |
| \\      /  F ield         | OpenFOAM: The Open Source CFD Toolbox           |
|  \\    /   O peration     | Version:  v1612+                                |
|   \\  /    A nd           | Web:      www.OpenFOAM.com                      |
|    \\/     M anipulation  |                                                 |
\*---------------------------------------------------------------------------*/
FoamFile
{
    version     2.0;
    format      ascii;
    class       surfaceScalarField;
    location    "3.05";
    object      alphaPhi;
}
// * * * * * * * * * * * * * * * * * * * * * * * * * * * * * * * * * * * * * //

dimensions      [0 3 -1 0 0 0 0];

internalField   nonuniform List<scalar> 
816
(
-2.63815e-06
-9.90521e-07
2.07598e-06
6.84355e-07
5.51898e-07
3.43017e-07
7.05838e-08
1.99915e-06
-1.03758e-06
4.36378e-06
-7.94429e-06
-1.99439e-06
2.85636e-06
1.93225e-06
2.65901e-06
-6.32359e-06
-2.27864e-06
1.79779e-06
9.76828e-08
-1.55401e-06
1.94624e-09
-6.16783e-10
1.16725e-06
4.00913e-10
4.77488e-10
3.03629e-10
-2.43073e-06
4.85601e-10
-6.47129e-10
-3.76176e-10
-2.97299e-07
-3.75027e-10
-2.97263e-10
-2.58384e-10
2.15832e-06
-1.10275e-09
1.07412e-09
-5.52665e-10
-1.72136e-06
4.76464e-10
-1.8517e-10
-3.90669e-10
-2.05062e-06
3.17727e-10
8.22901e-10
-2.40388e-10
1.15303e-07
-3.73441e-10
2.24744e-09
-3.464e-11
2.38228e-06
-6.62561e-10
1.08515e-09
1.43129e-09
-3.29608e-06
-5.71704e-10
5.8169e-10
1.36651e-09
1.18972e-06
-1.39042e-09
1.55118e-09
1.19979e-09
-3.86902e-06
-6.8641e-10
4.1692e-10
2.78324e-06
1.37106e-09
-4.34721e-12
3.62047e-06
5.01855e-06
-1.24615e-05
6.10524e-07
9.53207e-06
6.78066e-06
-1.4913e-05
1.15951e-06
7.34878e-06
2.6736e-06
-5.63855e-06
-2.06443e-06
5.32443e-06
1.54133e-06
5.17439e-06
1.46975e-06
1.2659e-07
-4.01017e-06
5.21129e-06
-6.86538e-06
1.7016e-06
2.60432e-06
-1.03635e-05
-7.57598e-06
3.65676e-07
-9.82404e-07
-1.87767e-06
-3.7097e-06
6.17175e-06
9.87544e-07
2.22891e-06
-2.99108e-06
5.55689e-06
2.24834e-06
-1.92609e-05
1.73225e-06
8.16055e-06
4.62638e-06
-5.8674e-06
4.86012e-07
6.5077e-06
2.31831e-06
-3.54349e-06
1.81108e-06
-1.45622e-06
1.1969e-05
5.23286e-06
2.77232e-06
1.3135e-06
-5.33692e-06
-6.33766e-06
7.68037e-08
-3.6618e-06
-5.76811e-06
-2.20681e-06
-8.57296e-07
-2.18989e-06
-2.41199e-06
-3.85321e-06
5.81957e-07
1.9337e-06
7.21386e-07
1.91289e-06
1.52245e-06
8.79657e-08
1.72324e-06
-5.00637e-06
-3.75778e-06
-1.41138e-06
2.86755e-06
-1.60384e-06
4.15764e-07
3.63043e-06
3.10175e-07
4.00277e-06
-2.53739e-06
-8.9734e-06
-1.36121e-06
-2.7621e-06
-4.9281e-06
-2.31701e-06
7.57879e-07
-5.36016e-06
-1.84708e-06
-4.62112e-07
4.92019e-06
-3.03863e-06
-6.24375e-07
-1.8438e-06
-1.66308e-08
1.20373e-06
1.06396e-06
1.7589e-07
7.81688e-07
6.34279e-07
-1.52584e-07
1.23463e-06
-1.00462e-06
2.06405e-06
1.25645e-06
3.37568e-07
-1.64912e-06
1.15322e-06
3.91206e-07
7.04194e-08
-2.75649e-06
-5.80798e-07
-1.92204e-06
-2.0523e-06
-1.54272e-06
-1.44066e-06
5.49123e-08
-1.74531e-06
-1.88044e-06
-6.63625e-07
7.07817e-07
6.42444e-07
4.93473e-07
8.74327e-07
-6.28299e-07
3.61124e-07
1.70156e-06
-3.33715e-06
-1.14279e-06
-1.34553e-06
1.73643e-06
-2.88036e-07
-1.97164e-07
2.14403e-06
2.28575e-06
-3.23332e-07
-1.56534e-06
-7.3581e-07
-1.61351e-06
-2.92184e-06
-2.58178e-06
7.2102e-07
-7.58087e-07
-3.23252e-06
4.32313e-07
-5.86632e-07
-2.08725e-06
-5.01628e-07
1.52625e-06
-2.06649e-11
3.0329e-11
3.66804e-06
1.299e-09
6.92218e-10
-1.72223e-06
9.27609e-10
-9.75176e-10
1.27223e-06
6.63618e-10
-2.53488e-10
7e-06
1.97049e-10
-1.48039e-10
5.70693e-10
-1.11323e-09
-1.23838e-09
-8.79229e-10
3.1844e-11
-1.38929e-09
3.31549e-11
2.41835e-06
-1.2451e-09
-1.63043e-09
2.98021e-11
-2.66124e-10
-4.29904e-10
4.9656e-05
1.35343e-10
-6.03965e-10
4.29954e-06
9.23892e-10
2.77485e-11
-4.3625e-10
2.07659e-06
7.96143e-10
-1.05994e-09
-1.98064e-06
-1.78886e-10
-5.88819e-10
-3.73405e-06
2.83107e-10
-4.83743e-11
2.66968e-07
-1.95624e-09
1.87445e-10
-3.27645e-06
-5.19595e-10
8.54444e-12
3.17696e-10
-7.53767e-06
4.68781e-10
2.62419e-10
7.38844e-07
-1.52857e-09
6.52752e-10
1.33438e-06
-1.12934e-09
8.25174e-10
2.26656e-06
2.39011e-10
-6.66781e-06
6.88718e-10
-1.0356e-10
-1.36968e-06
-5.70253e-06
1.72309e-05
6.29684e-06
-6.9634e-07
-3.01266e-06
2.80357e-06
-4.2899e-07
-1.29245e-06
3.68576e-06
-1.50816e-06
6.6168e-06
1.74663e-06
3.87886e-06
9.98876e-06
-4.44869e-06
-9.17618e-06
1.99603e-06
9.03445e-06
2.94659e-07
-2.63168e-06
6.71401e-06
-1.22835e-07
-1.42799e-05
2.0678e-05
-1.51706e-05
-1.45671e-05
1.55642e-05
-1.28247e-05
8.05955e-06
-9.17483e-06
4.75035e-06
-4.20565e-06
7.08253e-06
3.08973e-06
5.01591e-06
-4.20898e-06
7.16226e-06
-6.38455e-06
-2.18258e-06
-1.55135e-05
1.46505e-06
-2.52713e-07
2.13333e-06
-1.65441e-07
8.92251e-06
-8.28104e-07
-8.77029e-06
-1.26266e-06
2.34985e-06
-4.46529e-06
4.92524e-06
-2.5674e-06
4.34202e-06
6.93006e-07
-7.81182e-06
1.53527e-05
-3.34308e-06
-5.79059e-06
1.03129e-05
1.03556e-06
-1.62175e-06
-1.5055e-06
-9.29086e-06
1.47133e-06
4.34732e-06
7.25477e-06
1.16405e-06
-4.77909e-07
-1.51282e-06
5.63367e-07
-2.01415e-06
3.96298e-07
-2.35595e-06
1.57135e-06
3.65188e-06
-2.98489e-06
-2.15838e-06
5.56099e-06
2.88326e-06
5.29215e-06
-1.32817e-06
4.0311e-06
3.1964e-07
-1.27779e-06
2.54825e-06
4.86006e-06
3.01018e-06
9.13916e-06
7.29986e-06
5.4669e-06
7.74524e-06
1.66465e-06
1.4541e-06
-4.15142e-06
-4.86814e-06
3.87576e-06
1.86757e-06
1.41366e-06
-1.22149e-07
4.62683e-06
3.06024e-06
1.76139e-06
-3.57886e-07
-7.31653e-06
7.89865e-07
-1.13401e-06
8.0665e-07
7.54791e-07
-1.12308e-06
-3.65295e-07
-1.45405e-07
-3.33065e-07
-3.44137e-06
-2.24191e-06
-2.67077e-06
-3.43135e-06
1.45765e-06
3.63461e-06
1.09237e-06
6.15287e-06
4.23066e-06
3.19843e-06
4.20761e-06
3.38459e-06
-8.77599e-07
1.93052e-06
4.85905e-06
2.72505e-07
2.45183e-06
2.29693e-06
1.92751e-07
-8.48358e-07
-4.29638e-07
-5.79074e-07
-1.27751e-06
7.08765e-07
-1.42083e-06
1.12334e-06
1.00894e-06
-1.4482e-06
-6.77852e-07
1.63367e-06
2.19401e-06
3.56159e-06
-4.32003e-07
1.29645e-06
6.25767e-07
-1.13865e-06
1.29595e-06
2.57395e-06
1.18488e-06
2.63947e-06
3.538e-06
3.32622e-06
2.38748e-06
-6.72185e-08
1.45763e-06
-5.3539e-07
-3.68089e-06
1.95832e-06
1.31229e-06
6.46066e-07
-2.09065e-07
3.03385e-06
8.80392e-07
1.85829e-07
-8.49366e-08
-2.20334e-06
2.86167e-07
-8.19758e-07
1.12621e-07
7.15996e-07
-1.52855e-07
-1.65758e-07
-2.74692e-07
-5.82081e-07
-1.82208e-06
-5.35885e-07
-1.64267e-06
-2.02083e-06
3.85551e-07
1.97442e-06
-1.55523e-08
1.73629e-06
2.84208e-06
9.62465e-07
1.30204e-06
1.45187e-06
-1.25788e-07
2.08392e-07
2.45717e-06
-1.19231e-06
2.70847e-07
3.14626e-07
7.6417e-07
5.52778e-07
-7.90545e-08
-4.23552e-07
-1.09215e-06
1.01876e-06
6.78093e-07
-1.02696e-06
8.98248e-07
-2.88965e-07
-1.06322e-06
-2.57208e-07
-9.43969e-07
-8.48022e-07
-6.03448e-08
-6.46549e-07
-8.85293e-07
1.61523e-07
-1.15238e-07
2.40082e-07
-7.13354e-07
1.21287e-06
-1.76964e-06
-5.27523e-07
1.59828e-06
3.292e-07
1.36411e-06
9.35049e-07
-1.17502e-06
3.40625e-08
-4.15215e-07
-1.60058e-06
3.47298e-07
-1.80536e-06
3.82525e-07
-1.25134e-06
-8.72376e-08
-1.06949e-07
1.30498e-06
-1.67123e-07
-7.13381e-07
-7.34357e-08
-4.20407e-07
-4.22309e-07
4.29721e-07
-4.6633e-07
-4.09446e-07
8.79288e-07
1.61756e-06
-3.18111e-07
3.5408e-07
-2.97921e-07
1.19267e-06
5.73349e-07
1.08212e-06
1.23953e-06
-1.89471e-08
1.2068e-06
-1.47615e-06
9.85453e-07
1.27554e-06
6.43694e-08
1.92204e-06
5.6173e-07
3.27423e-07
3.25361e-07
-6.82718e-08
5.53509e-07
-3.83921e-07
1.93052e-07
-3.39093e-08
-1.03732e-06
-2.77313e-07
-1.15978e-06
8.62985e-07
-3.2657e-07
1.28707e-06
2.10315e-07
6.75578e-07
1.41099e-07
1.24065e-06
1.51191e-10
8.58271e-11
-7.2866e-06
1.09746e-10
-5.24632e-06
3.49108e-10
-5.68769e-06
-1.18604e-09
3.33578e-11
-1.71087e-09
4.59505e-05
-4.09524e-10
-1.46878e-06
-4.11065e-11
-4.04846e-06
-1.28502e-10
1.09865e-06
-3.58768e-10
1.13321e-06
1.1863e-09
-1.66959e-06
1.82811e-10
1.93506e-06
1.04072e-09
1.1486e-05
5.62458e-10
9.34063e-11
-5.53241e-10
-3.36875e-06
-5.72914e-10
9.28226e-07
-6.5543e-10
-2.54174e-06
-1.51596e-09
9.34035e-07
-1.83248e-09
-6.29499e-06
-9.1037e-11
-5.25527e-06
-5.58426e-10
1.6732e-06
1.74971e-09
4.93613e-06
3.00535e-10
-1.98103e-06
-7.68945e-10
-2.82258e-06
1.43613e-09
-5.13238e-06
2.04022e-09
-2.44264e-07
1.4155e-09
-4.04964e-06
7.68215e-10
-2.97178e-08
5.6003e-11
6.06422e-06
-8.55897e-06
-2.62641e-06
-9.168e-07
4.53208e-06
2.13299e-07
-7.56339e-06
7.27349e-08
7.94067e-06
-4.3553e-06
1.59403e-05
-5.12466e-06
-5.53146e-06
3.02627e-06
-1.42223e-05
8.87126e-06
-1.11524e-05
-7.55239e-07
6.57142e-06
-1.51195e-05
-9.91245e-06
-6.08795e-06
-2.40397e-05
1.15124e-05
-1.83781e-06
5.14622e-06
2.19039e-05
-2.67078e-06
5.06176e-06
7.21742e-06
-9.32112e-06
2.933e-06
8.14041e-07
-6.66277e-07
1.96333e-06
-2.61673e-06
-7.91709e-06
-6.05718e-06
-7.5477e-06
-7.54881e-06
3.25779e-06
1.50251e-05
-2.44745e-06
9.67262e-06
4.59245e-06
-1.32559e-06
8.68984e-06
-4.77185e-06
-1.39285e-05
-3.56988e-06
-9.30325e-06
-8.19137e-06
-2.65395e-06
-2.34806e-06
-9.20204e-06
-2.17563e-06
-2.04065e-06
1.99191e-06
-6.40036e-07
1.31813e-06
2.36733e-06
-3.26276e-06
-2.42309e-06
-1.52451e-06
3.80725e-06
4.79723e-06
6.64847e-06
5.34526e-06
-3.17023e-06
-2.54033e-06
-6.33845e-06
-3.09486e-06
-5.276e-06
1.88825e-06
1.9385e-06
1.69725e-06
-4.83172e-06
-5.42759e-06
-9.62597e-06
-5.97194e-06
3.93071e-07
6.3055e-07
1.04654e-05
2.70864e-06
2.97787e-06
1.01626e-06
-3.72956e-06
1.74521e-06
-2.34941e-08
3.61833e-06
1.81845e-06
4.92743e-07
-4.00128e-06
-1.70162e-06
-4.59363e-06
8.56654e-08
1.34439e-06
-1.76279e-06
-6.00117e-07
2.26089e-07
2.27081e-06
2.68296e-06
3.56359e-06
-1.11183e-06
-6.49452e-06
-1.21128e-06
-4.95137e-06
5.0052e-07
-9.60555e-07
-4.02105e-07
-3.44158e-06
-5.8859e-07
-1.0508e-06
8.17276e-07
-2.41464e-07
2.86087e-07
1.2178e-06
-1.66196e-06
-1.04087e-06
-2.57369e-07
1.00598e-06
3.17931e-06
1.79646e-06
2.79221e-06
-5.6358e-07
-1.40898e-06
-2.13258e-06
-1.45038e-06
-1.669e-06
7.46529e-07
2.98897e-07
-6.91736e-08
-1.42499e-06
-3.96074e-06
-2.16401e-06
-3.45108e-06
-1.77625e-07
2.60316e-07
3.09054e-06
2.19719e-06
1.05299e-06
1.27774e-06
-8.3848e-07
1.08676e-06
-7.93868e-08
3.031e-06
9.24975e-08
8.16969e-07
-1.49921e-06
-1.47124e-06
-1.59743e-06
-4.79167e-07
8.80178e-08
-6.66775e-07
-4.05538e-07
5.62727e-07
4.78286e-07
2.04895e-06
4.37148e-07
-5.88922e-07
-1.88052e-06
-1.39352e-06
-1.30682e-06
-7.72139e-07
-1.22901e-07
-6.36931e-07
-1.126e-06
-4.197e-07
-7.59481e-07
6.46066e-07
2.79594e-07
-8.24737e-07
-2.36177e-07
1.09539e-06
1.41922e-06
-6.9748e-07
-7.26671e-07
-6.38711e-08
-2.82477e-07
-1.35562e-06
-1.56009e-06
5.61713e-08
1.10576e-06
1.25635e-06
1.23549e-06
1.88296e-06
7.10038e-07
-3.34678e-07
-4.82546e-08
-4.49845e-07
1.66047e-08
1.76207e-07
-8.3755e-07
-8.69411e-07
-3.25633e-07
-2.20183e-07
8.72909e-10
5.79661e-10
2.20442e-08
-1.80147e-09
-6.93989e-06
6.04272e-10
-9.0485e-06
-6.38612e-06
3.92332e-06
7.39255e-06
3.15438e-06
4.0462e-06
)
;

boundaryField
{
    top_fluid_surface
    {
        type            calculated;
        value           nonuniform List<scalar> 
64
(
0
1.36462e-09
1.20909e-09
0
1.00023e-11
0
0
0
0
0
4.65528e-10
0
0
0
9.68424e-10
0
1.0541e-09
1.17e-09
0
1.73052e-09
0
0
0
4.49057e-10
0
2.92139e-10
3.06212e-10
2.1417e-10
0
0
0
5.11296e-11
8.08212e-10
1.46326e-09
6.74089e-10
1.70499e-09
0
0
0
0
0
0
0
0
1.10453e-09
1.13692e-09
0
9.72909e-10
5.4948e-10
2.45436e-10
0
0
0
1.06227e-09
1.33346e-09
0
0
6.73571e-10
7.29052e-10
7.50279e-10
0
2.4414e-09
2.45099e-09
7.97531e-10
)
;
    }
    bottom_fluid_surface
    {
        type            calculated;
        value           uniform 0;
    }
    lateral_surface_1
    {
        type            calculated;
        value           uniform 0;
    }
    lateral_surface_2
    {
        type            calculated;
        value           uniform 0;
    }
    lateral_surface_3
    {
        type            calculated;
        value           uniform 0;
    }
    lateral_surface_4
    {
        type            calculated;
        value           uniform 0;
    }
}


// ************************************************************************* //
