/*--------------------------------*- C++ -*----------------------------------*\
| =========                 |                                                 |
| \\      /  F ield         | OpenFOAM: The Open Source CFD Toolbox           |
|  \\    /   O peration     | Version:  v1612+                                |
|   \\  /    A nd           | Web:      www.OpenFOAM.com                      |
|    \\/     M anipulation  |                                                 |
\*---------------------------------------------------------------------------*/
FoamFile
{
    version     2.0;
    format      ascii;
    class       volScalarField;
    location    "3.05";
    object      alpha.water;
}
// * * * * * * * * * * * * * * * * * * * * * * * * * * * * * * * * * * * * * //

dimensions      [0 0 0 0 0 0 0];

internalField   nonuniform List<scalar> 
320
(
1
1
1
1
8.72793e-06
6.29776e-06
6.65276e-06
7.81468e-06
7.8002e-06
8.5964e-06
9.03264e-06
8.23913e-06
8.68444e-06
7.94078e-06
7.54654e-06
7.86239e-06
0.999989
0.999989
0.99999
0.999993
0.999997
0.999989
0.999994
0.999993
0.999987
0.999988
0.999995
0.999996
1
1
1
1
1
1
1
1
1
1
1
1
1
1
1
1
1
1
1
1
1
1
1
1
1
1
1
1
7.51495e-06
8.31118e-06
6.54961e-06
8.39054e-06
6.5103e-06
6.5103e-06
8.52615e-06
6.03802e-06
7.74135e-06
7.76714e-06
7.68062e-06
7.59002e-06
8.60293e-06
7.47746e-06
7.41951e-06
8.08274e-06
8.0478e-06
7.83834e-06
7.76862e-06
7.27932e-06
0.999998
0.99999
0.999988
0.999988
0.999993
0.999997
0.999995
1
0.999991
0.99999
0.999993
0.999997
0.999987
0.999995
0.999993
0.999995
0.999996
0.999997
0.999996
0.999994
1
1
1
1
1
1
1
1
1
1
1
1
1
1
1
1
1
1
1
1
1
1
1
1
1
1
1
1
1
1
1
1
1
1
1
1
1
1
1
1
1
1
1
1
1
1
1
1
1
1
1
1
1
1
1
1
1
1
1
1
1
1
1
1
1
1
1
1
1
1
1
1
1
1
1
1
6.97658e-06
6.77797e-06
7.16268e-06
5.86761e-06
7.04256e-06
8.70236e-06
7.82083e-06
8.13829e-06
8.48429e-06
9.68786e-06
7.2876e-06
7.59354e-06
6.33227e-06
6.47253e-06
7.20619e-06
7.06053e-06
7.14813e-06
7.83304e-06
9.9045e-06
7.46031e-06
8.60098e-06
6.75972e-06
7.12782e-06
1.01034e-05
9.06628e-06
7.35778e-06
6.7482e-06
6.7155e-06
0.999988
0.999997
0.999986
0.999996
0.999997
0.999992
0.999988
0.999989
0.999995
0.999991
0.999986
0.999989
0.999995
0.999993
0.99999
0.999993
0.999988
0.999993
0.999991
0.999993
0.99999
0.999993
0.999996
0.999988
0.999993
0.999994
0.99999
0.999989
1
1
1
1
1
1
1
1
1
1
1
1
1
1
1
1
1
1
1
1
1
1
1
1
1
1
1
1
1
1
1
1
1
1
1
1
1
1
1
1
1
1
1
1
1
1
1
1
1
1
1
1
1
1
1
1
1
1
1
1
1
1
1
1
1
1
1
1
1
1
1
1
1
1
1
1
1
1
1
1
1
1
1
1
8.17848e-06
5.70179e-06
6.25675e-06
7.62253e-06
0.999986
0.999994
0.999996
0.999996
)
;

boundaryField
{
    top_fluid_surface
    {
        type            inletOutlet;
        inletValue      uniform 0;
        value           nonuniform List<scalar> 
64
(
0
6.29776e-06
6.65276e-06
0
7.8002e-06
0
0
0
0
0
7.54654e-06
0
0
0
6.54961e-06
0
6.5103e-06
6.5103e-06
0
6.03802e-06
0
0
0
7.59002e-06
0
7.47746e-06
7.41951e-06
8.08274e-06
0
0
0
7.27932e-06
6.97658e-06
6.77797e-06
7.16268e-06
5.86761e-06
0
0
0
0
0
0
0
0
6.33227e-06
6.47253e-06
0
7.06053e-06
7.14813e-06
7.83304e-06
0
0
0
6.75972e-06
7.12782e-06
0
0
7.35778e-06
6.7482e-06
6.7155e-06
0
5.70179e-06
6.25675e-06
7.62253e-06
)
;
    }
    bottom_fluid_surface
    {
        type            zeroGradient;
    }
    lateral_surface_1
    {
        type            zeroGradient;
    }
    lateral_surface_2
    {
        type            zeroGradient;
    }
    lateral_surface_3
    {
        type            zeroGradient;
    }
    lateral_surface_4
    {
        type            zeroGradient;
    }
}


// ************************************************************************* //
