/*--------------------------------*- C++ -*----------------------------------*\
| =========                 |                                                 |
| \\      /  F ield         | OpenFOAM: The Open Source CFD Toolbox           |
|  \\    /   O peration     | Version:  v1612+                                |
|   \\  /    A nd           | Web:      www.OpenFOAM.com                      |
|    \\/     M anipulation  |                                                 |
\*---------------------------------------------------------------------------*/
FoamFile
{
    version     2.0;
    format      ascii;
    class       volScalarField;
    location    "3.05";
    object      p_rgh;
}
// * * * * * * * * * * * * * * * * * * * * * * * * * * * * * * * * * * * * * //

dimensions      [1 -1 -2 0 0 0 0];

internalField   nonuniform List<scalar> 
320
(
-9800.21
-9800.21
-9800.2
-9800.2
-0.00568289
0.00591458
0.0051208
-7.56691e-05
-0.000284163
-0.00371161
-0.00565931
-0.00179568
-0.00361941
-0.000388413
0.000819329
-0.00181516
-9799.99
-9800.06
-9800.07
-9800.04
-9800.12
-9800
-9800.04
-9800.04
-9799.98
-9799.99
-9800.1
-9800.07
-9800.21
-9800.22
-9800.21
-9800.2
-9800.2
-9800.21
-9800.2
-9800.2
-9800.21
-9800.21
-9800.2
-9800.2
-9800.21
-9800.21
-9800.21
-9800.21
-9800.21
-9800.22
-9800.22
-9800.21
-9800.2
-9800.21
-9800.2
-9800.2
-9800.21
-9800.21
-9800.2
-9800.2
0.000135795
-0.00339062
0.00497595
-0.00222779
0.00571877
0.00539843
-0.00260201
0.00803441
0.0021683
-0.00239909
-0.000571999
0.00065699
-0.00392198
0.00130393
0.000870388
-0.000678402
-0.000566723
-0.000422674
-0.00129814
0.000887242
-9800.1
-9800.01
-9800.05
-9799.99
-9800.09
-9800.14
-9800.05
-9800.17
-9799.99
-9800.02
-9800.04
-9800.12
-9799.97
-9800.1
-9800.09
-9800.1
-9800.07
-9800.09
-9800.07
-9800.1
-9800.19
-9800.21
-9800.22
-9800.21
-9800.21
-9800.2
-9800.19
-9800.19
-9800.2
-9800.21
-9800.2
-9800.2
-9800.21
-9800.2
-9800.21
-9800.2
-9800.19
-9800.19
-9800.2
-9800.21
-9800.2
-9800.21
-9800.22
-9800.21
-9800.21
-9800.2
-9800.2
-9800.2
-9800.2
-9800.21
-9800.21
-9800.2
-9800.21
-9800.2
-9800.21
-9800.2
-9800.2
-9800.2
-9800.2
-9800.21
-9800.21
-9800.21
-9800.21
-9800.21
-9800.21
-9800.21
-9800.21
-9800.21
-9800.21
-9800.21
-9800.21
-9800.21
-9800.21
-9800.2
-9800.2
-9800.2
-9800.2
-9800.21
-9800.21
-9800.21
-9800.21
-9800.21
-9800.2
-9800.21
-9800.21
-9800.21
-9800.21
-9800.21
-9800.21
-9800.2
-9800.21
-9800.2
-9800.2
-9800.2
-9800.2
-9800.21
0.00201438
0.00365898
0.00199948
0.00871761
0.00630305
-0.00698461
-0.00146155
-0.00271594
-0.00401925
-0.0076073
0.0025522
-0.000291782
0.00424261
0.00381646
0.000902363
0.00260508
0.00252424
-0.000298411
-0.00983946
9.10081e-05
-0.00537932
0.00405534
0.00390854
-0.00995192
-0.00577344
0.00140186
0.00337404
0.00370608
-9800.05
-9800.13
-9800.02
-9800.14
-9800.06
-9800.02
-9800
-9800
-9800.06
-9800
-9799.98
-9800
-9800.12
-9800.1
-9800.02
-9800.09
-9800.03
-9800.08
-9800
-9800.05
-9800
-9800.09
-9800.12
-9799.97
-9800.03
-9800.1
-9800.06
-9800.06
-9800.23
-9800.2
-9800.23
-9800.21
-9800.19
-9800.2
-9800.21
-9800.21
-9800.2
-9800.2
-9800.21
-9800.21
-9800.21
-9800.22
-9800.22
-9800.21
-9800.21
-9800.21
-9800.2
-9800.2
-9800.21
-9800.21
-9800.2
-9800.2
-9800.19
-9800.21
-9800.22
-9800.23
-9800.22
-9800.21
-9800.23
-9800.21
-9800.21
-9800.21
-9800.21
-9800.21
-9800.2
-9800.21
-9800.21
-9800.21
-9800.21
-9800.21
-9800.21
-9800.22
-9800.21
-9800.21
-9800.2
-9800.2
-9800.2
-9800.21
-9800.2
-9800.2
-9800.2
-9800.21
-9800.21
-9800.22
-9800.21
-9800.21
-9800.22
-9800.21
-9800.21
-9800.21
-9800.21
-9800.21
-9800.21
-9800.21
-9800.21
-9800.21
-9800.21
-9800.21
-9800.21
-9800.21
-9800.21
-9800.21
-9800.21
-9800.21
-9800.21
-9800.21
-9800.2
-9800.2
-9800.2
-9800.21
-9800.21
-9800.21
-0.00209977
0.00879893
0.00672329
0.000770702
-9799.97
-9800.12
-9800.14
-9800.11
)
;

boundaryField
{
    top_fluid_surface
    {
        type            totalPressure;
        rho             rho;
        psi             none;
        gamma           1;
        p0              uniform 0;
        value           nonuniform List<scalar> 
64
(
-1.04084e-08
0
0
-1.97544e-10
-2.40687e-11
-2.58452e-09
-6.38709e-09
-1.52754e-09
-3.00923e-09
-3.15424e-10
0
-1.30392e-09
-1.15428e-10
-2.54867e-09
0
-3.65825e-09
0
0
-2.15692e-09
0
-1.25313e-09
-4.81402e-09
-4.00158e-10
0
-2.7142e-09
0
0
0
-8.6726e-11
-8.4441e-12
-7.58897e-10
0
0
0
0
0
-5.9668e-11
-7.25329e-09
-2.97787e-10
-3.29105e-09
-2.39767e-09
-6.46268e-09
-2.47154e-10
-6.90273e-09
0
0
0
0
0
0
-1.56509e-08
-2.1453e-10
-1.31763e-08
0
0
-1.47315e-08
-7.14971e-09
0
0
0
-6.3427e-10
0
0
0
)
;
    }
    bottom_fluid_surface
    {
        type            fixedFluxPressure;
        gradient        uniform 0;
        value           nonuniform List<scalar> 
64
(
-9800.21
-9800.21
-9800.21
-9800.21
-9800.21
-9800.21
-9800.21
-9800.21
-9800.21
-9800.21
-9800.21
-9800.21
-9800.21
-9800.2
-9800.2
-9800.2
-9800.2
-9800.21
-9800.21
-9800.21
-9800.21
-9800.21
-9800.2
-9800.21
-9800.21
-9800.21
-9800.21
-9800.21
-9800.21
-9800.2
-9800.21
-9800.2
-9800.2
-9800.2
-9800.2
-9800.21
-9800.21
-9800.21
-9800.22
-9800.21
-9800.21
-9800.21
-9800.21
-9800.21
-9800.21
-9800.21
-9800.21
-9800.21
-9800.21
-9800.21
-9800.21
-9800.21
-9800.21
-9800.21
-9800.21
-9800.21
-9800.21
-9800.21
-9800.2
-9800.2
-9800.2
-9800.21
-9800.21
-9800.21
)
;
    }
    lateral_surface_1
    {
        type            fixedFluxPressure;
        gradient        uniform 0;
        value           nonuniform List<scalar> 
40
(
0.00201438
0.00365898
0.00199948
0.00871761
0.00630305
-0.00698461
-0.00146155
0.00370608
-9800.05
-9800.13
-9800.02
-9800.14
-9800.06
-9800.02
-9800
-9800.06
-9800.23
-9800.2
-9800.23
-9800.21
-9800.19
-9800.2
-9800.21
-9800.23
-9800.22
-9800.21
-9800.23
-9800.21
-9800.21
-9800.21
-9800.21
-9800.22
-9800.21
-9800.21
-9800.22
-9800.21
-9800.21
-9800.21
-9800.21
-9800.21
)
;
    }
    lateral_surface_2
    {
        type            fixedFluxPressure;
        gradient        uniform 0;
        value           nonuniform List<scalar> 
40
(
0.00381646
0.000902363
0.00260508
0.00252424
-0.000298411
-0.00983946
9.10081e-05
-0.00537932
-9800.1
-9800.02
-9800.09
-9800.03
-9800.08
-9800
-9800.05
-9800
-9800.22
-9800.22
-9800.21
-9800.21
-9800.21
-9800.2
-9800.2
-9800.21
-9800.21
-9800.21
-9800.22
-9800.21
-9800.21
-9800.2
-9800.2
-9800.2
-9800.21
-9800.21
-9800.21
-9800.21
-9800.21
-9800.21
-9800.21
-9800.21
)
;
    }
    lateral_surface_3
    {
        type            fixedFluxPressure;
        gradient        uniform 0;
        value           nonuniform List<scalar> 
40
(
-0.00146155
-0.00271594
-0.00401925
-0.0076073
0.0025522
-0.000291782
0.00424261
0.00381646
-9800
-9800
-9800.06
-9800
-9799.98
-9800
-9800.12
-9800.1
-9800.21
-9800.21
-9800.2
-9800.2
-9800.21
-9800.21
-9800.21
-9800.22
-9800.21
-9800.21
-9800.2
-9800.21
-9800.21
-9800.21
-9800.21
-9800.21
-9800.21
-9800.21
-9800.21
-9800.21
-9800.21
-9800.21
-9800.21
-9800.21
)
;
    }
    lateral_surface_4
    {
        type            fixedFluxPressure;
        gradient        uniform 0;
        value           nonuniform List<scalar> 
40
(
-0.00537932
0.00405534
0.00390854
-0.00995192
-0.00577344
0.00140186
0.00337404
0.00370608
-9800
-9800.09
-9800.12
-9799.97
-9800.03
-9800.1
-9800.06
-9800.06
-9800.21
-9800.21
-9800.2
-9800.2
-9800.19
-9800.21
-9800.22
-9800.23
-9800.2
-9800.21
-9800.2
-9800.2
-9800.2
-9800.21
-9800.21
-9800.22
-9800.21
-9800.21
-9800.2
-9800.2
-9800.2
-9800.21
-9800.21
-9800.21
)
;
    }
}


// ************************************************************************* //
