/*--------------------------------*- C++ -*----------------------------------*\
| =========                 |                                                 |
| \\      /  F ield         | OpenFOAM: The Open Source CFD Toolbox           |
|  \\    /   O peration     | Version:  v1612+                                |
|   \\  /    A nd           | Web:      www.OpenFOAM.com                      |
|    \\/     M anipulation  |                                                 |
\*---------------------------------------------------------------------------*/
FoamFile
{
    version     2.0;
    format      ascii;
    class       volVectorField;
    location    "3.05";
    object      U;
}
// * * * * * * * * * * * * * * * * * * * * * * * * * * * * * * * * * * * * * //

dimensions      [0 1 -1 0 0 0 0];

internalField   nonuniform List<vector> 
320
(
(-3.90419e-06 -3.44826e-06 -2.91591e-07)
(-1.02184e-06 -3.17211e-06 -5.96883e-06)
(-3.17721e-06 1.61623e-06 -4.04484e-06)
(-9.16884e-07 3.21864e-06 8.53502e-07)
(0.000199839 -2.5974e-05 -0.00014428)
(0.000187849 -5.96126e-05 0.000108054)
(-7.15319e-05 -2.81297e-05 9.76875e-05)
(-0.000254027 -3.73776e-05 -1.98768e-05)
(7.26735e-05 -4.21601e-05 6.91124e-06)
(4.28827e-05 -5.28028e-05 -7.1896e-05)
(1.38699e-05 -0.000140147 -0.000113023)
(6.83591e-05 -0.000207372 -5.52728e-05)
(-6.47332e-05 -6.58895e-05 -7.75788e-05)
(0.00020055 -0.000226961 -2.51167e-05)
(-3.1964e-05 -0.000148403 2.95844e-05)
(-3.34898e-05 -0.000137671 -5.10671e-05)
(-2.18501e-06 2.6284e-06 1.6074e-05)
(8.2839e-06 3.99281e-06 1.46958e-05)
(7.25762e-06 2.70967e-06 4.80108e-06)
(-6.00789e-07 4.63195e-06 -4.9302e-06)
(-1.55824e-06 -3.07105e-06 -6.37844e-06)
(-3.79791e-06 -4.69434e-06 1.08611e-05)
(-2.52738e-06 -4.63652e-06 2.58468e-06)
(4.93259e-06 -8.51464e-06 -2.21797e-06)
(-6.84362e-06 5.90081e-07 2.02516e-05)
(1.56816e-06 -5.17153e-06 5.75633e-06)
(-6.85211e-06 -2.24767e-06 3.01236e-06)
(-7.09314e-06 -3.53105e-06 -1.1884e-05)
(4.75503e-06 -1.0884e-06 1.03041e-05)
(-2.30019e-06 -4.22757e-07 1.16355e-05)
(-5.07546e-06 5.639e-07 4.6442e-06)
(-1.15701e-06 -2.06493e-06 -4.0769e-06)
(-3.98093e-06 3.3777e-06 -2.92275e-06)
(-4.79472e-06 -2.34736e-07 8.81297e-06)
(7.39538e-07 3.60365e-07 2.17299e-06)
(-5.97795e-06 4.56624e-06 -1.43192e-06)
(-4.36671e-07 -5.63771e-07 1.57159e-05)
(6.70742e-08 5.29263e-06 4.66131e-06)
(2.61292e-06 4.7601e-06 3.39763e-06)
(5.09008e-06 5.58423e-06 -9.18366e-06)
(-2.94969e-06 -1.97453e-06 -6.86069e-08)
(-2.74101e-07 -1.27173e-06 -1.67306e-06)
(-1.6772e-06 1.92219e-06 -5.78512e-07)
(-4.67898e-07 2.55378e-06 -1.05726e-06)
(2.12791e-06 -7.96891e-07 2.38518e-06)
(-1.84005e-06 9.03183e-08 1.85688e-06)
(-2.69706e-06 7.29598e-07 8.94707e-07)
(-1.47196e-07 -6.02375e-07 -6.17367e-07)
(-2.72995e-06 1.89902e-06 -8.32605e-07)
(-3.66232e-06 -5.11103e-07 1.7682e-06)
(-2.97271e-07 -7.00903e-08 -7.4867e-08)
(-3.36742e-06 2.67494e-06 3.78995e-07)
(-3.03629e-07 -2.46301e-07 3.83514e-06)
(-4.94079e-07 2.97151e-06 8.65013e-07)
(4.98947e-07 2.53339e-06 5.87966e-07)
(2.74744e-06 3.49067e-06 -2.38564e-06)
(-0.000101682 -0.000228801 -1.51939e-05)
(0.00010529 -0.000110186 -7.13957e-05)
(-1.1078e-05 -0.000105143 8.0557e-05)
(-0.000144358 9.09953e-05 -8.55366e-05)
(1.46766e-05 0.000123931 0.000102275)
(-5.81562e-05 -0.000168948 0.000100533)
(-4.83698e-05 1.42186e-05 -6.56798e-05)
(4.53857e-05 -4.55535e-05 0.000159147)
(5.96734e-05 -0.000222224 -5.00626e-05)
(0.000155707 6.19135e-05 -9.81226e-05)
(-9.82779e-06 0.000203938 -2.82898e-05)
(0.000129781 3.86621e-05 3.55234e-05)
(0.00014459 5.57362e-05 -7.36777e-05)
(-1.18628e-06 -0.000134756 2.2619e-05)
(9.88832e-06 -6.41637e-05 2.32611e-05)
(-7.80866e-05 -4.9144e-06 1.8921e-05)
(0.000171291 -3.69326e-05 -1.31701e-05)
(0.000185793 -5.92132e-05 -4.10953e-06)
(4.64408e-05 -9.48496e-05 -3.89589e-05)
(9.44207e-05 -0.000140339 1.12212e-05)
(-9.14991e-07 -7.0563e-06 -1.77505e-05)
(-2.10363e-06 -4.58992e-06 4.35629e-06)
(3.27545e-07 -6.08551e-06 8.53047e-07)
(-2.04201e-07 2.62454e-07 -7.18891e-06)
(-4.52711e-06 5.37814e-06 -1.25464e-05)
(3.70318e-06 3.59549e-06 -1.06597e-05)
(3.3904e-06 1.67634e-06 -7.60054e-06)
(-1.32101e-05 -8.85621e-06 -2.3459e-05)
(-1.09182e-05 -1.79628e-05 -1.67833e-05)
(-5.19611e-07 -8.44097e-06 1.34172e-05)
(-1.48835e-05 5.94455e-06 -2.78896e-06)
(2.38009e-06 -4.23547e-06 -8.89452e-06)
(5.32774e-06 9.25732e-07 1.52772e-05)
(-1.53987e-06 1.60996e-06 -2.1356e-06)
(1.94085e-06 -1.12707e-05 9.09305e-07)
(-9.76843e-06 -5.40742e-06 3.54589e-06)
(-2.75119e-06 -1.42693e-07 -4.79069e-06)
(2.19991e-06 5.69521e-06 -1.68114e-05)
(6.34117e-07 8.5651e-06 -1.00172e-05)
(1.31007e-05 2.71285e-06 2.83625e-06)
(1.3141e-07 -1.7212e-07 -1.31571e-05)
(2.10294e-06 7.77629e-07 2.32756e-06)
(-2.67413e-06 4.33066e-06 1.19979e-06)
(-1.11976e-06 4.11388e-06 -6.39144e-06)
(4.31823e-06 -3.2383e-06 -8.79782e-06)
(-2.00289e-06 -4.59825e-07 -6.54321e-06)
(2.90306e-06 -2.07744e-06 -3.94127e-06)
(4.31168e-06 -4.18691e-07 -1.58417e-05)
(-1.79503e-06 5.79163e-06 -1.36145e-05)
(-4.18739e-06 6.03733e-06 6.71739e-06)
(1.44984e-06 -1.87932e-06 -2.48977e-06)
(-5.71788e-06 7.44169e-07 -5.131e-06)
(-2.25293e-06 2.50311e-06 1.33895e-05)
(2.60756e-06 -1.90897e-06 -1.7263e-06)
(2.14261e-08 -4.87872e-08 4.86283e-07)
(5.19049e-06 2.02583e-06 4.45833e-06)
(-2.1045e-06 4.66588e-06 -2.78439e-06)
(-1.77277e-06 1.57475e-06 -1.10662e-05)
(-3.65701e-06 -3.57015e-06 -8.12132e-06)
(-7.68284e-06 -2.96328e-06 1.09876e-06)
(-6.63013e-08 4.83599e-07 -3.50055e-06)
(4.50661e-07 1.71258e-06 6.6999e-07)
(-1.8006e-06 2.81334e-06 -1.05009e-06)
(-5.5148e-07 2.34178e-06 -1.01378e-06)
(2.89277e-06 -1.78179e-06 -2.0563e-06)
(-5.96712e-07 4.94592e-07 -2.16576e-06)
(1.67398e-06 -1.30462e-06 -2.4033e-06)
(1.75873e-06 -9.61348e-07 -3.94008e-06)
(-2.10796e-06 3.27834e-06 -2.97498e-06)
(-3.2428e-06 3.42291e-06 6.02089e-07)
(6.18458e-07 -1.17256e-06 -9.83992e-07)
(-3.65395e-06 -3.50695e-07 -1.37276e-06)
(-1.50099e-06 1.20348e-06 2.7432e-06)
(1.54958e-06 -8.95773e-07 -1.34938e-07)
(4.31834e-07 -3.31104e-07 3.83793e-07)
(3.01946e-06 6.31279e-07 5.07828e-07)
(-1.32438e-06 2.72477e-06 -9.26226e-07)
(-1.44728e-06 1.26699e-06 -2.78159e-06)
(-1.56688e-06 -1.36215e-06 -1.82872e-06)
(-3.98985e-06 -6.04538e-07 2.82851e-07)
(-1.7084e-06 -5.40609e-07 -3.88729e-07)
(-3.62193e-07 -2.39981e-07 -6.80714e-07)
(-1.17906e-06 1.16332e-06 -2.25005e-07)
(-8.45069e-07 1.30805e-06 1.16975e-07)
(6.23887e-07 -2.17311e-07 1.23321e-06)
(-1.00096e-06 4.10245e-07 1.13115e-06)
(-1.12502e-06 2.70588e-07 2.90784e-07)
(-6.1416e-07 -3.84713e-07 -2.60646e-07)
(-1.38609e-06 7.41709e-07 4.41023e-08)
(-1.99222e-06 -3.99095e-07 7.50899e-07)
(-7.8381e-07 3.75793e-07 3.91144e-07)
(-2.2074e-06 9.77674e-07 3.49701e-07)
(-2.56039e-07 2.93696e-07 1.60248e-06)
(-1.80097e-07 1.80704e-06 5.89719e-07)
(-2.75589e-08 1.56297e-06 5.7482e-07)
(1.19195e-06 1.87174e-06 -4.37595e-07)
(-6.97426e-08 4.87839e-07 -1.25496e-06)
(-2.4691e-07 6.19594e-07 7.16653e-08)
(-8.50094e-07 1.13745e-06 -4.87461e-07)
(-1.0268e-07 8.83003e-07 -7.82395e-07)
(1.09401e-06 -6.82126e-07 -9.22601e-07)
(-3.93598e-07 -1.01236e-07 -4.75809e-07)
(4.46687e-07 -5.0105e-07 -3.31103e-07)
(2.15118e-07 -7.00188e-08 -1.38568e-06)
(-1.02646e-06 1.12879e-06 -1.34829e-06)
(-1.52784e-06 1.50241e-06 6.84391e-07)
(-6.33095e-07 -3.96491e-07 -2.41449e-07)
(-2.22184e-06 3.95716e-07 -4.96829e-07)
(-1.09696e-06 6.64675e-07 1.31281e-06)
(2.4123e-07 -1.78704e-07 -4.45754e-08)
(-4.72139e-08 2.42727e-07 2.29592e-08)
(9.32134e-07 5.56347e-07 3.74259e-07)
(-6.70226e-07 1.39181e-06 7.91202e-09)
(-7.72476e-07 8.31442e-07 -9.84201e-07)
(-9.2517e-07 -2.59495e-07 -5.39642e-07)
(-2.04237e-06 -2.35898e-07 -1.77432e-08)
(0.000121504 -4.71078e-05 5.67287e-05)
(-6.36164e-05 -0.000131072 0.000107568)
(7.75414e-05 -8.51811e-05 4.98338e-05)
(-1.32788e-05 -0.000102983 0.000153578)
(-0.00030097 -8.29751e-05 1.09241e-05)
(-3.00163e-06 5.2729e-05 -0.000120443)
(-0.00011842 -6.52659e-05 -2.44044e-05)
(-0.000236751 3.53032e-05 -8.11301e-05)
(-0.000206378 -9.0695e-05 -6.92484e-05)
(-0.000158839 6.65866e-05 -0.00011369)
(-0.000154242 6.70021e-05 -2.22331e-05)
(-4.78896e-05 5.7545e-05 -0.000117497)
(0.000125634 0.00021852 8.5747e-05)
(0.000107909 -3.10612e-05 9.1308e-05)
(7.43403e-05 -1.36568e-05 -7.95296e-06)
(6.70673e-05 5.06807e-05 7.18327e-05)
(0.00016225 -8.97148e-05 4.17789e-05)
(0.000241626 1.80384e-05 1.84891e-05)
(5.50963e-05 -0.000186592 -0.000176923)
(-1.78423e-05 -3.78913e-05 -2.07137e-05)
(0.000106862 -0.000158898 -0.000162335)
(-1.44354e-05 -0.000194863 8.49988e-05)
(-2.41712e-05 9.55239e-05 0.000104374)
(8.5596e-05 3.66794e-05 -0.000171648)
(4.91214e-05 -0.00027347 -0.00011958)
(-0.000128595 -0.000229385 4.66847e-05)
(-8.492e-05 -0.000152256 4.68607e-05)
(-0.000140865 -0.000102706 5.03031e-05)
(1.44139e-05 1.17162e-06 2.86493e-06)
(2.09941e-07 -3.44954e-06 -7.55965e-06)
(-3.15714e-06 4.66011e-08 8.33461e-06)
(3.43122e-06 -2.39631e-06 -1.04328e-05)
(-4.20527e-06 -3.05698e-06 -1.59194e-05)
(-4.85759e-06 1.60537e-06 6.63659e-06)
(-6.64093e-06 -2.72615e-06 1.4934e-05)
(-1.09723e-05 8.82354e-06 1.45979e-05)
(-3.19582e-06 1.06269e-05 -7.32984e-06)
(-3.94085e-06 -1.22816e-05 9.67729e-06)
(-1.71529e-05 -1.73804e-05 2.75719e-05)
(-1.24645e-05 7.99535e-06 6.17185e-06)
(8.80468e-06 1.24631e-05 -2.3116e-05)
(8.43993e-06 -1.55428e-06 -6.04485e-06)
(-4.40025e-06 -1.18913e-06 1.36761e-05)
(-8.00465e-06 2.32618e-06 -2.25468e-06)
(2.49148e-06 -8.06913e-06 -2.55583e-06)
(-9.12701e-07 2.21497e-06 7.49987e-06)
(5.35279e-06 -1.8281e-06 9.27146e-06)
(9.12001e-06 -4.67818e-06 -2.16657e-06)
(5.19866e-06 -9.00747e-06 6.47475e-06)
(8.69587e-07 -1.72789e-05 -5.70979e-06)
(-8.08698e-07 -4.10229e-06 -1.17584e-05)
(2.17506e-06 6.79686e-06 1.42588e-05)
(6.13116e-06 1.1381e-06 1.12419e-05)
(-2.38251e-06 7.37013e-06 2.4401e-06)
(4.93603e-06 6.72198e-06 1.16334e-05)
(1.62704e-06 -2.13781e-06 2.66873e-06)
(-4.38074e-06 -4.75922e-07 1.41317e-06)
(1.34919e-06 -1.68008e-06 -2.3192e-06)
(2.52163e-07 -1.69373e-06 4.47866e-06)
(-5.63655e-06 1.70758e-07 -6.32854e-06)
(2.49357e-06 1.26859e-06 -1.31665e-05)
(6.61508e-06 -3.44261e-06 5.68019e-06)
(3.66904e-06 -1.02836e-06 1.12745e-05)
(6.0833e-06 -4.50406e-06 8.57258e-06)
(2.40345e-06 -8.51239e-07 -4.08568e-06)
(5.69188e-06 4.24932e-06 8.70419e-06)
(8.73002e-06 -1.32056e-06 1.76125e-05)
(4.79031e-06 -8.73334e-06 -1.8859e-06)
(-5.79457e-06 -2.37763e-06 -1.87461e-05)
(-3.62428e-06 3.41063e-06 -5.16576e-06)
(-2.29327e-06 1.24037e-06 5.64274e-06)
(4.98743e-07 1.51651e-06 1.00421e-07)
(-3.64285e-06 2.19172e-06 -2.45599e-06)
(-3.32493e-06 -5.58574e-07 6.81624e-06)
(2.11523e-06 3.26361e-06 7.04217e-06)
(1.22427e-06 -6.62145e-08 -3.42441e-06)
(-1.40542e-06 2.06076e-06 -4.89165e-07)
(7.21532e-07 2.05741e-06 -4.36881e-06)
(7.00487e-07 -2.68947e-06 -6.62127e-06)
(-3.99395e-06 -1.67051e-06 1.19586e-05)
(-5.63589e-06 3.20751e-06 8.70938e-06)
(-2.3612e-06 -3.26091e-07 2.13131e-06)
(-2.39189e-06 -8.95904e-07 5.60065e-06)
(-2.93849e-07 1.62212e-06 9.12219e-07)
(-1.8796e-06 1.67325e-07 6.94533e-07)
(4.30328e-07 -7.89766e-07 -2.08776e-06)
(-2.01821e-07 -3.29301e-07 1.90028e-06)
(-2.46926e-06 -1.37283e-07 -1.51248e-06)
(1.89806e-06 3.39357e-07 -2.3629e-06)
(3.87437e-06 -2.58681e-06 3.27607e-07)
(1.84026e-06 -6.42259e-07 2.7528e-06)
(3.78481e-06 -2.1293e-06 2.22382e-06)
(1.49274e-06 -4.89188e-07 -8.00749e-07)
(2.80103e-06 1.75302e-06 1.60935e-06)
(4.55037e-06 -1.88293e-06 3.1233e-06)
(1.87945e-06 -5.51259e-06 9.08469e-07)
(-4.24056e-06 -1.22884e-06 -3.63603e-06)
(-2.77228e-06 1.64569e-06 -8.4429e-07)
(-2.16424e-06 1.77436e-07 1.3909e-06)
(1.11292e-07 5.67126e-07 1.74223e-07)
(-2.6733e-06 6.84596e-07 2.32429e-07)
(-2.82234e-06 -4.1351e-07 2.05222e-06)
(1.23096e-06 2.00595e-06 2.00776e-06)
(1.49934e-06 -9.48903e-08 1.05292e-07)
(-3.77396e-07 9.38434e-07 1.23374e-06)
(6.5593e-07 6.2435e-07 -2.04418e-07)
(5.78055e-07 -2.00252e-06 -4.82465e-07)
(-1.97786e-06 -1.49523e-06 2.17323e-06)
(-3.64193e-06 2.2909e-06 1.2148e-06)
(-9.5396e-07 9.48081e-07 1.28636e-07)
(-1.33171e-06 1.70863e-07 1.949e-06)
(-1.78558e-07 1.32048e-06 9.31322e-07)
(-1.44594e-06 -4.80375e-08 -2.52583e-07)
(3.36464e-07 -6.22844e-08 -6.19246e-07)
(-2.57211e-08 -4.54242e-07 -2.2205e-08)
(-1.26437e-06 -2.83473e-07 -6.23901e-07)
(6.94556e-07 -3.99624e-08 -1.17905e-06)
(1.45966e-06 -1.08071e-06 5.85303e-07)
(1.19808e-06 -4.05613e-07 1.19657e-06)
(1.87318e-06 -9.70259e-07 1.00376e-06)
(9.09949e-07 -3.7674e-07 3.78406e-08)
(1.59767e-06 2.23999e-07 8.29457e-07)
(1.635e-06 -7.31445e-07 1.50676e-06)
(9.36248e-07 -2.14205e-06 -4.02646e-07)
(-1.63584e-06 -6.44312e-07 -1.94427e-06)
(-1.21047e-06 7.30202e-07 -9.66576e-07)
(-1.27428e-06 3.04843e-07 5.12014e-07)
(-8.85528e-07 4.76648e-07 -7.68966e-08)
(-1.84497e-06 5.57272e-07 -3.68895e-07)
(-1.63297e-06 9.97886e-08 7.98206e-07)
(1.65908e-07 1.09329e-06 8.50296e-07)
(4.51865e-07 1.75108e-07 -2.61336e-07)
(-3.2376e-07 5.94204e-07 -1.92653e-07)
(9.53366e-08 3.01563e-07 -5.21643e-07)
(-2.64922e-07 -3.29316e-07 -4.86516e-07)
(-7.90325e-07 1.02432e-07 1.1473e-06)
(-1.55429e-06 1.30802e-06 1.04979e-06)
(-3.13742e-07 6.01838e-07 7.81532e-08)
(-6.92963e-07 -3.29325e-08 6.23633e-07)
(-1.10775e-07 5.34147e-07 -1.25249e-07)
(0.000182304 0.000174032 -3.56166e-05)
(-1.3321e-05 -0.000130792 0.000209201)
(0.000218924 -6.93011e-05 0.000187548)
(-2.47549e-05 -0.000342636 5.46982e-05)
(5.42142e-06 1.43571e-05 9.35462e-07)
(4.09025e-07 1.0493e-05 -1.21808e-05)
(1.0555e-05 -1.34583e-07 -1.02597e-05)
(-1.44043e-06 -5.65851e-06 -4.42702e-06)
)
;

boundaryField
{
    top_fluid_surface
    {
        type            pressureInletOutletVelocity;
        value           nonuniform List<vector> 
64
(
(0 0 -0.00014428)
(0.000187849 -5.96126e-05 0.000108054)
(-7.15319e-05 -2.81297e-05 9.76875e-05)
(0 0 -1.98768e-05)
(0 0 6.91124e-06)
(0 0 -7.1896e-05)
(0 0 -0.000113023)
(0 0 -5.52728e-05)
(0 0 -7.75788e-05)
(0 0 -2.51167e-05)
(-3.1964e-05 -0.000148403 2.95844e-05)
(0 0 -5.10671e-05)
(0 0 -1.51939e-05)
(0 0 -7.13957e-05)
(-1.1078e-05 -0.000105143 8.0557e-05)
(0 0 -8.55366e-05)
(1.46766e-05 0.000123931 0.000102275)
(-5.81562e-05 -0.000168948 0.000100533)
(0 0 -6.56798e-05)
(4.53857e-05 -4.55535e-05 0.000159147)
(0 0 -5.00626e-05)
(0 0 -9.81226e-05)
(0 0 -2.82898e-05)
(0.000129781 3.86621e-05 3.55234e-05)
(0 0 -7.36777e-05)
(-1.18628e-06 -0.000134756 2.2619e-05)
(9.88832e-06 -6.41637e-05 2.32611e-05)
(-7.80866e-05 -4.9144e-06 1.8921e-05)
(0 0 -1.31701e-05)
(0 0 -4.10953e-06)
(0 0 -3.89589e-05)
(9.44207e-05 -0.000140339 1.12212e-05)
(0.000121504 -4.71078e-05 5.67287e-05)
(-6.36164e-05 -0.000131072 0.000107568)
(7.75414e-05 -8.51811e-05 4.98338e-05)
(-1.32788e-05 -0.000102983 0.000153578)
(0 0 1.09241e-05)
(0 0 -0.000120443)
(0 0 -2.44044e-05)
(0 0 -8.11301e-05)
(0 0 -6.92484e-05)
(0 0 -0.00011369)
(0 0 -2.22331e-05)
(0 0 -0.000117497)
(0.000125634 0.00021852 8.5747e-05)
(0.000107909 -3.10612e-05 9.1308e-05)
(7.43403e-05 -1.36568e-05 -7.95296e-06)
(6.70673e-05 5.06807e-05 7.18327e-05)
(0.00016225 -8.97148e-05 4.17789e-05)
(0.000241626 1.80384e-05 1.84891e-05)
(0 0 -0.000176923)
(0 0 -2.07137e-05)
(0 0 -0.000162335)
(-1.44354e-05 -0.000194863 8.49988e-05)
(-2.41712e-05 9.55239e-05 0.000104374)
(0 0 -0.000171648)
(0 0 -0.00011958)
(-0.000128595 -0.000229385 4.66847e-05)
(-8.492e-05 -0.000152256 4.68607e-05)
(-0.000140865 -0.000102706 5.03031e-05)
(0 0 -3.56166e-05)
(-1.3321e-05 -0.000130792 0.000209201)
(0.000218924 -6.93011e-05 0.000187548)
(-2.47549e-05 -0.000342636 5.46982e-05)
)
;
    }
    bottom_fluid_surface
    {
        type            noSlip;
    }
    lateral_surface_1
    {
        type            noSlip;
    }
    lateral_surface_2
    {
        type            noSlip;
    }
    lateral_surface_3
    {
        type            noSlip;
    }
    lateral_surface_4
    {
        type            noSlip;
    }
}


// ************************************************************************* //
