/*--------------------------------*- C++ -*----------------------------------*\
| =========                 |                                                 |
| \\      /  F ield         | OpenFOAM: The Open Source CFD Toolbox           |
|  \\    /   O peration     | Version:  v1612+                                |
|   \\  /    A nd           | Web:      www.OpenFOAM.com                      |
|    \\/     M anipulation  |                                                 |
\*---------------------------------------------------------------------------*/
FoamFile
{
    version     2.0;
    format      ascii;
    class       volScalarField;
    location    "3.4";
    object      p_rgh;
}
// * * * * * * * * * * * * * * * * * * * * * * * * * * * * * * * * * * * * * //

dimensions      [1 -1 -2 0 0 0 0];

internalField   nonuniform List<scalar> 
320
(
-9800.21
-9800.2
-9800.2
-9800.2
0.000781347
-0.00157347
-0.00766128
0.000249493
0.00234641
-0.00439394
0.000856459
0.000397494
-0.0100232
-0.00752831
-0.00026553
-0.00468426
-9800.01
-9800.01
-9800.01
-9800.01
-9800.01
-9799.99
-9800.03
-9800.06
-9799.96
-9799.95
-9800.1
-9800.04
-9800.22
-9800.2
-9800.2
-9800.21
-9800.2
-9800.21
-9800.21
-9800.2
-9800.19
-9800.2
-9800.2
-9800.23
-9800.21
-9800.21
-9800.2
-9800.2
-9800.21
-9800.21
-9800.21
-9800.21
-9800.2
-9800.21
-9800.2
-9800.2
-9800.2
-9800.2
-9800.2
-9800.21
0.00789661
-0.000869455
-9.08609e-05
0.000635368
0.00392213
0.00726234
0.00304485
0.0109143
0.00337821
0.00398584
0.0025093
0.00323563
-0.00708432
0.00238067
-0.000594922
-2.49319e-05
0.00133816
0.000592013
0.00185853
0.00469278
-9800.09
-9799.98
-9800.04
-9800.02
-9800.09
-9800.14
-9800.08
-9800.16
-9800.03
-9800.05
-9800.07
-9800.12
-9799.96
-9800.1
-9800.04
-9800.05
-9800.1
-9800.02
-9800
-9800.09
-9800.21
-9800.22
-9800.22
-9800.22
-9800.22
-9800.2
-9800.22
-9800.2
-9800.23
-9800.23
-9800.21
-9800.2
-9800.2
-9800.2
-9800.19
-9800.18
-9800.2
-9800.2
-9800.21
-9800.21
-9800.21
-9800.21
-9800.22
-9800.22
-9800.22
-9800.21
-9800.21
-9800.21
-9800.22
-9800.22
-9800.21
-9800.2
-9800.2
-9800.2
-9800.2
-9800.19
-9800.2
-9800.2
-9800.2
-9800.21
-9800.21
-9800.21
-9800.2
-9800.2
-9800.21
-9800.21
-9800.21
-9800.21
-9800.21
-9800.21
-9800.21
-9800.2
-9800.2
-9800.2
-9800.2
-9800.21
-9800.21
-9800.21
-9800.21
-9800.22
-9800.21
-9800.21
-9800.21
-9800.21
-9800.22
-9800.22
-9800.21
-9800.2
-9800.2
-9800.2
-9800.2
-9800.19
-9800.2
-9800.2
-9800.21
-9800.21
-0.000743097
0.00453888
-0.00611168
0.0105194
0.00750853
0.00120827
-0.00572169
0.000130467
0.00317875
-0.0147179
-0.00860371
0.00607851
0.00965673
0.0037654
-0.00015402
-0.000484682
-0.00425247
-0.000455377
-0.00726779
0.000690264
-0.00181167
0.00138024
-0.00229912
-0.0138911
-0.00262433
-0.00026698
0.00138416
0.00695096
-9800
-9800.12
-9799.97
-9800.12
-9800.07
-9800.01
-9799.98
-9800.03
-9800.08
-9799.99
-9799.94
-9800.03
-9800.09
-9800.09
-9799.97
-9800.05
-9799.99
-9800.04
-9799.99
-9799.99
-9799.95
-9800.07
-9800.07
-9799.95
-9800.03
-9800.05
-9800.05
-9800.04
-9800.21
-9800.2
-9800.21
-9800.21
-9800.23
-9800.21
-9800.21
-9800.22
-9800.22
-9800.22
-9800.22
-9800.23
-9800.23
-9800.22
-9800.23
-9800.2
-9800.2
-9800.2
-9800.2
-9800.2
-9800.21
-9800.2
-9800.18
-9800.2
-9800.2
-9800.2
-9800.21
-9800.21
-9800.21
-9800.2
-9800.21
-9800.21
-9800.22
-9800.21
-9800.21
-9800.22
-9800.21
-9800.2
-9800.22
-9800.23
-9800.22
-9800.22
-9800.22
-9800.2
-9800.21
-9800.2
-9800.2
-9800.2
-9800.2
-9800.2
-9800.19
-9800.2
-9800.19
-9800.2
-9800.21
-9800.21
-9800.21
-9800.21
-9800.21
-9800.21
-9800.21
-9800.21
-9800.21
-9800.22
-9800.21
-9800.21
-9800.21
-9800.22
-9800.22
-9800.22
-9800.22
-9800.21
-9800.2
-9800.2
-9800.2
-9800.2
-9800.2
-9800.2
-9800.19
-9800.2
-9800.2
-9800.2
-9800.21
-9800.21
-0.00301322
0.000546297
-0.000131088
0.00131003
-9799.97
-9800.09
-9800.12
-9800.09
)
;

boundaryField
{
    top_fluid_surface
    {
        type            totalPressure;
        rho             rho;
        psi             none;
        gamma           1;
        p0              uniform 0;
        value           nonuniform List<scalar> 
64
(
0
-2.24484e-10
-7.9541e-09
-1.03612e-10
-1.42275e-09
-7.74662e-09
-5.05949e-10
0
-2.14412e-08
-9.7836e-09
0
0
0
-6.13455e-10
0
0
0
0
0
0
0
0
0
0
-1.14578e-08
0
-8.04499e-11
-2.15457e-10
0
-5.69873e-10
0
0
-1.11702e-10
0
-6.405e-09
0
0
-1.70933e-10
-6.74989e-09
0
0
-5.42416e-08
-1.94504e-08
0
0
0
-9.14395e-10
-9.74655e-13
-1.93854e-09
-2.18716e-10
-1.64201e-08
-1.87702e-11
-1.14063e-09
0
-3.9146e-10
-4.40126e-08
-2.12341e-09
-1.03784e-10
0
0
-8.74769e-10
0
0
0
)
;
    }
    bottom_fluid_surface
    {
        type            fixedFluxPressure;
        gradient        uniform 0;
        value           nonuniform List<scalar> 
64
(
-9800.21
-9800.21
-9800.2
-9800.2
-9800.21
-9800.21
-9800.21
-9800.21
-9800.21
-9800.21
-9800.21
-9800.2
-9800.2
-9800.2
-9800.2
-9800.21
-9800.21
-9800.21
-9800.21
-9800.22
-9800.21
-9800.21
-9800.21
-9800.21
-9800.22
-9800.22
-9800.21
-9800.2
-9800.2
-9800.2
-9800.2
-9800.19
-9800.2
-9800.2
-9800.21
-9800.21
-9800.21
-9800.21
-9800.21
-9800.21
-9800.21
-9800.21
-9800.21
-9800.22
-9800.21
-9800.21
-9800.21
-9800.22
-9800.22
-9800.22
-9800.22
-9800.21
-9800.2
-9800.2
-9800.2
-9800.2
-9800.2
-9800.2
-9800.19
-9800.2
-9800.2
-9800.2
-9800.21
-9800.21
)
;
    }
    lateral_surface_1
    {
        type            fixedFluxPressure;
        gradient        uniform 0;
        value           nonuniform List<scalar> 
40
(
-0.000743097
0.00453888
-0.00611168
0.0105194
0.00750853
0.00120827
-0.00572169
0.00695096
-9800
-9800.12
-9799.97
-9800.12
-9800.07
-9800.01
-9799.98
-9800.04
-9800.21
-9800.2
-9800.21
-9800.21
-9800.23
-9800.21
-9800.21
-9800.21
-9800.21
-9800.2
-9800.21
-9800.21
-9800.22
-9800.21
-9800.21
-9800.21
-9800.21
-9800.21
-9800.21
-9800.21
-9800.21
-9800.21
-9800.21
-9800.21
)
;
    }
    lateral_surface_2
    {
        type            fixedFluxPressure;
        gradient        uniform 0;
        value           nonuniform List<scalar> 
40
(
0.0037654
-0.00015402
-0.000484682
-0.00425247
-0.000455377
-0.00726779
0.000690264
-0.00181167
-9800.09
-9799.97
-9800.05
-9799.99
-9800.04
-9799.99
-9799.99
-9799.95
-9800.22
-9800.23
-9800.2
-9800.2
-9800.2
-9800.2
-9800.2
-9800.21
-9800.22
-9800.22
-9800.2
-9800.21
-9800.2
-9800.2
-9800.2
-9800.2
-9800.22
-9800.22
-9800.21
-9800.2
-9800.2
-9800.2
-9800.2
-9800.2
)
;
    }
    lateral_surface_3
    {
        type            fixedFluxPressure;
        gradient        uniform 0;
        value           nonuniform List<scalar> 
40
(
-0.00572169
0.000130467
0.00317875
-0.0147179
-0.00860371
0.00607851
0.00965673
0.0037654
-9799.98
-9800.03
-9800.08
-9799.99
-9799.94
-9800.03
-9800.09
-9800.09
-9800.21
-9800.22
-9800.22
-9800.22
-9800.22
-9800.23
-9800.23
-9800.22
-9800.21
-9800.22
-9800.21
-9800.2
-9800.22
-9800.23
-9800.22
-9800.22
-9800.21
-9800.22
-9800.21
-9800.21
-9800.21
-9800.22
-9800.22
-9800.22
)
;
    }
    lateral_surface_4
    {
        type            fixedFluxPressure;
        gradient        uniform 0;
        value           nonuniform List<scalar> 
40
(
-0.00181167
0.00138024
-0.00229912
-0.0138911
-0.00262433
-0.00026698
0.00138416
0.00695096
-9799.95
-9800.07
-9800.07
-9799.95
-9800.03
-9800.05
-9800.05
-9800.04
-9800.21
-9800.2
-9800.18
-9800.2
-9800.2
-9800.2
-9800.21
-9800.21
-9800.2
-9800.2
-9800.19
-9800.2
-9800.19
-9800.2
-9800.21
-9800.21
-9800.2
-9800.2
-9800.19
-9800.2
-9800.2
-9800.2
-9800.21
-9800.21
)
;
    }
}


// ************************************************************************* //
