/*--------------------------------*- C++ -*----------------------------------*\
| =========                 |                                                 |
| \\      /  F ield         | OpenFOAM: The Open Source CFD Toolbox           |
|  \\    /   O peration     | Version:  v1612+                                |
|   \\  /    A nd           | Web:      www.OpenFOAM.com                      |
|    \\/     M anipulation  |                                                 |
\*---------------------------------------------------------------------------*/
FoamFile
{
    version     2.0;
    format      ascii;
    class       volVectorField;
    location    "3.4";
    object      U;
}
// * * * * * * * * * * * * * * * * * * * * * * * * * * * * * * * * * * * * * //

dimensions      [0 1 -1 0 0 0 0];

internalField   nonuniform List<vector> 
320
(
(-3.46943e-06 -7.05662e-06 4.58216e-06)
(-1.84257e-06 -6.32324e-06 -3.4619e-06)
(-4.97367e-06 -7.73949e-08 -7.41334e-06)
(-8.2494e-07 2.46635e-06 -6.4542e-06)
(9.30868e-05 -0.000133177 1.74023e-05)
(4.42802e-05 -0.000192536 -2.11889e-05)
(0.000159649 -0.000155525 -0.000126128)
(-6.35101e-05 6.8692e-05 -1.43952e-05)
(0.000299309 2.86519e-05 -5.33433e-05)
(0.000176123 8.7661e-05 -0.000124472)
(6.99561e-05 -5.96285e-05 -3.18103e-05)
(0.000299544 -0.000136751 3.07485e-05)
(5.31213e-05 4.47526e-05 -0.000207081)
(0.000107825 -0.000365925 -0.000139883)
(-6.88133e-05 -0.000359757 1.4555e-05)
(-1.09488e-05 -0.000337063 -9.17039e-06)
(4.85665e-06 4.285e-06 2.02358e-05)
(8.46681e-06 7.7727e-07 2.00504e-05)
(4.05717e-06 -3.48935e-06 6.53483e-06)
(-9.85626e-06 -2.69793e-06 -6.14459e-06)
(4.73351e-06 -4.56829e-06 -1.34233e-05)
(4.9804e-06 3.79457e-06 1.02305e-05)
(-6.95665e-06 -4.29234e-07 -2.70309e-06)
(2.38666e-06 -1.13652e-05 -1.53615e-06)
(1.85556e-07 2.4391e-06 2.32179e-05)
(4.2177e-06 -9.17993e-06 1.11534e-05)
(-7.0399e-07 -1.08105e-06 9.31229e-07)
(-2.02294e-06 -4.29716e-06 -1.39068e-05)
(5.57676e-06 -2.11526e-06 1.46283e-05)
(-3.93811e-06 -3.04006e-06 1.77979e-05)
(-6.6598e-06 -1.59967e-06 5.9322e-06)
(-1.80515e-06 -3.94339e-06 -5.8898e-06)
(-2.81736e-06 3.65888e-06 -1.0958e-05)
(-1.54386e-06 2.39212e-06 5.89248e-06)
(1.89364e-06 1.05782e-06 -4.32221e-06)
(-6.01953e-06 6.06006e-06 -7.37438e-07)
(1.80186e-06 -1.26e-06 1.58441e-05)
(5.94228e-07 5.01656e-06 8.80774e-06)
(5.42297e-06 4.22689e-06 1.24546e-06)
(7.28787e-06 4.53127e-06 -1.06582e-05)
(-2.19473e-06 -3.68705e-06 4.72502e-07)
(-1.07879e-06 -3.62362e-06 -2.04727e-06)
(-2.51787e-06 2.74321e-07 -1.7984e-06)
(-7.60568e-07 1.09976e-06 -2.59789e-06)
(3.83423e-06 -1.35104e-06 3.60037e-06)
(-1.97058e-06 -1.6455e-06 2.32354e-06)
(-4.20934e-06 -7.43754e-07 5.96933e-07)
(-1.40132e-06 -2.47703e-06 -8.79928e-07)
(-2.23358e-06 2.48648e-06 -2.26089e-06)
(-1.71702e-06 9.79757e-07 1.4348e-06)
(1.13337e-06 1.90003e-07 -7.56899e-07)
(-4.01471e-06 3.42885e-06 -1.24962e-08)
(9.443e-07 -9.31468e-07 3.42923e-06)
(7.00625e-07 2.91974e-06 1.06725e-06)
(2.88221e-06 2.72849e-06 1.83194e-07)
(4.38582e-06 3.11105e-06 -2.14073e-06)
(-0.000149336 -0.000228583 0.000120381)
(2.15547e-05 1.65931e-05 -3.50273e-05)
(6.01057e-05 -0.000252188 4.23912e-05)
(-5.48719e-05 -0.000150366 3.4536e-05)
(4.97572e-05 0.00012341 0.000100821)
(0.000192868 -0.000201226 0.000159061)
(-8.90946e-05 1.45257e-05 3.35621e-05)
(5.90207e-05 5.56321e-06 0.000217238)
(0.000247859 -0.000135594 8.14202e-05)
(0.000258541 -1.73327e-05 7.49325e-05)
(0.000223271 0.000152514 6.70064e-05)
(0.000349175 -5.95764e-05 6.84435e-05)
(0.000223427 9.98932e-06 -0.000151379)
(2.47957e-05 -2.62245e-05 6.3271e-05)
(9.73708e-05 2.18859e-06 -1.26846e-05)
(-6.0578e-05 -5.26373e-05 -2.07584e-05)
(0.000209951 -0.000126357 4.42164e-05)
(0.00014259 -0.000130601 -3.37601e-05)
(0.000150807 -0.000212409 -5.68648e-06)
(0.000169773 -0.000103544 8.86815e-05)
(-4.15735e-06 -8.59662e-06 -2.1471e-05)
(4.77336e-06 -4.73193e-06 4.87308e-06)
(4.65974e-06 -5.47981e-06 7.86854e-06)
(-3.1869e-06 1.76081e-06 -1.64489e-06)
(-6.03674e-06 1.14101e-05 -1.15351e-05)
(-2.56676e-06 -5.89294e-06 -1.43548e-05)
(-4.49278e-06 6.47861e-07 -1.27524e-05)
(-6.59746e-06 -1.80364e-06 -3.08129e-05)
(2.53824e-06 -1.42095e-05 -1.34148e-05)
(2.80289e-06 -1.06397e-05 1.75081e-05)
(-9.04589e-06 1.07314e-05 -1.81633e-06)
(7.74803e-06 6.63427e-06 -1.3217e-05)
(3.04078e-06 -3.96175e-06 1.88423e-05)
(-5.14986e-06 -2.49965e-06 -3.129e-06)
(-5.31724e-07 -4.94221e-06 1.10687e-06)
(-1.05111e-05 -1.99853e-06 -2.28419e-06)
(4.95665e-06 -1.61525e-06 -8.06003e-06)
(8.94445e-06 6.94045e-06 -2.21488e-05)
(1.50079e-06 8.30983e-07 -1.28802e-05)
(7.18505e-06 -6.42711e-06 1.1051e-06)
(7.65916e-07 8.13942e-07 -1.53587e-05)
(4.10179e-06 6.59918e-07 2.75014e-06)
(-2.35819e-06 4.45282e-06 9.85438e-06)
(-2.03705e-06 3.23758e-06 -3.92301e-07)
(4.07742e-06 -4.15812e-06 -5.7088e-06)
(-2.88306e-06 -2.80781e-06 -8.38513e-06)
(2.08672e-06 -2.48063e-06 -9.58453e-06)
(7.60148e-06 2.72796e-06 -2.06167e-05)
(1.8486e-06 9.47838e-06 -8.97966e-06)
(-2.1245e-06 6.35621e-06 1.29118e-05)
(5.60277e-06 -2.0214e-06 -4.61387e-07)
(-4.49303e-06 2.49568e-06 -9.67406e-06)
(-2.65559e-06 1.68717e-06 1.45782e-05)
(3.26561e-06 -1.90992e-06 -2.03191e-06)
(-7.48514e-07 2.75758e-06 6.84779e-07)
(7.28292e-06 3.38873e-06 -3.01867e-06)
(-6.73382e-07 3.5438e-06 -6.30014e-06)
(-5.30729e-07 -3.62691e-07 -1.72535e-05)
(-2.86581e-06 -6.7725e-06 -1.13539e-05)
(-9.37492e-06 -5.88144e-06 5.2723e-07)
(3.77185e-07 2.07946e-08 -3.41431e-06)
(2.56181e-06 5.79567e-07 1.38863e-06)
(-1.68609e-06 3.12232e-06 2.78493e-07)
(-1.60596e-06 2.77973e-06 5.6954e-08)
(2.52119e-06 -2.36554e-06 -1.4256e-06)
(-2.07271e-06 -1.44086e-06 -2.78704e-06)
(9.57936e-07 -1.64785e-06 -3.19792e-06)
(3.88216e-06 7.84066e-07 -4.84431e-06)
(-3.52728e-07 5.06865e-06 -1.59503e-06)
(-2.04165e-06 4.1258e-06 2.34258e-06)
(2.64503e-06 -9.40521e-07 -5.60535e-07)
(-3.20968e-06 1.67271e-06 -2.35657e-06)
(-1.39639e-06 1.36161e-06 2.6907e-06)
(2.31515e-06 -1.43719e-06 -4.19469e-07)
(-2.83525e-07 9.94998e-07 2.15398e-07)
(4.37341e-06 1.81433e-06 -1.29028e-06)
(-5.61358e-07 2.21224e-06 -1.94132e-06)
(-2.9007e-07 -1.87119e-09 -3.89211e-06)
(-1.7442e-06 -3.8561e-06 -2.07091e-06)
(-5.47001e-06 -3.47523e-06 6.42149e-07)
(-1.31971e-06 -1.72701e-06 1.45419e-07)
(-3.74058e-07 -1.39375e-06 -4.20989e-07)
(-1.23491e-06 3.89423e-07 -3.82374e-07)
(-5.69315e-07 8.23603e-07 -3.29032e-07)
(1.22883e-06 -1.05471e-06 1.60846e-06)
(-1.15494e-06 -4.87759e-07 1.88715e-06)
(-1.62585e-06 -5.55889e-07 6.75106e-07)
(-8.59787e-07 -1.14138e-06 -5.17307e-07)
(-8.79555e-07 1.06878e-06 -6.93326e-07)
(-8.04624e-07 3.45844e-07 7.37627e-07)
(3.05302e-07 4.90196e-07 -3.36237e-07)
(-1.99987e-06 1.27378e-06 2.25904e-09)
(5.75593e-07 6.20259e-08 1.73623e-06)
(5.57267e-07 1.50377e-06 9.30877e-07)
(1.13559e-06 1.07e-06 4.74909e-07)
(1.96251e-06 1.35003e-06 -7.88558e-07)
(2.22589e-07 1.92317e-07 -1.52099e-06)
(5.18082e-07 -7.3441e-08 3.07815e-07)
(-8.72881e-07 9.46445e-07 5.99363e-07)
(-3.20163e-07 6.69936e-07 -3.9838e-07)
(8.12505e-07 -1.12832e-06 -6.70301e-07)
(-8.37276e-07 -1.02738e-06 -7.3404e-07)
(2.66659e-07 -6.47452e-07 -1.0914e-06)
(1.17558e-06 8.78763e-07 -1.85391e-06)
(-2.86887e-08 2.16157e-06 -1.32437e-06)
(-5.71412e-07 1.91778e-06 9.64636e-07)
(7.91816e-07 -2.93939e-07 -2.5086e-07)
(-1.49725e-06 9.22907e-07 -8.13432e-07)
(-8.06744e-07 7.21476e-07 1.59378e-06)
(7.77393e-07 -2.32654e-07 -1.71296e-07)
(-2.66324e-07 9.53002e-07 8.08598e-08)
(1.59963e-06 1.05365e-06 -3.92094e-07)
(-3.36003e-07 9.49416e-07 -6.15477e-07)
(-1.24379e-07 -3.21761e-07 -1.67929e-06)
(-9.41162e-07 -1.96771e-06 -1.05923e-06)
(-2.72032e-06 -1.72811e-06 6.2871e-08)
(0.000120347 2.52548e-05 -1.49467e-05)
(-0.000131128 -6.21473e-05 8.15876e-05)
(0.000118001 7.12128e-06 -0.000113181)
(0.000212006 -0.00015868 0.000224416)
(-0.000215819 -0.000144365 0.000130761)
(-7.73639e-05 1.90858e-06 -1.84896e-05)
(-0.000233034 -1.7221e-05 -0.000116189)
(-0.000252751 0.000118992 6.26166e-06)
(-0.00023708 -0.000294131 3.72533e-05)
(-0.000345337 -6.40943e-05 -0.000329368)
(-0.000315709 0.000366144 -0.000197233)
(1.363e-05 0.000287556 0.000132347)
(0.000106892 0.000138583 0.000199763)
(0.000168779 -0.000149122 9.05934e-05)
(0.00023386 -0.000211034 -4.27644e-05)
(0.00021932 -0.000124263 -1.39618e-06)
(0.000212367 -0.000206374 -6.22662e-05)
(0.000266046 1.18593e-05 -2.09149e-05)
(6.1025e-05 -0.000248824 -0.000181219)
(-5.99308e-05 -2.39686e-05 -6.12702e-06)
(8.61138e-05 -9.13555e-05 -4.77625e-05)
(1.84317e-05 -2.63934e-05 4.47155e-05)
(5.70912e-05 0.000157306 -2.79807e-05)
(0.00022757 -0.000163123 -0.00029669)
(1.94516e-05 -0.00041884 -6.51676e-05)
(-5.99489e-05 -0.000311088 -1.44072e-05)
(-7.84846e-05 -0.000257409 4.34272e-05)
(-0.000214343 -0.000110157 0.000136744)
(5.61946e-06 -2.00254e-06 7.82516e-06)
(-3.71789e-06 -2.4668e-06 -1.23205e-05)
(1.73886e-06 -2.44189e-06 1.21506e-05)
(1.974e-06 5.67324e-07 -1.25128e-05)
(-1.2833e-05 2.43685e-07 -1.87678e-05)
(-6.71112e-06 1.02133e-05 4.32867e-06)
(-4.6261e-06 9.18763e-07 1.6712e-05)
(-1.39206e-05 5.90527e-06 1.78196e-05)
(-1.01317e-05 -1.94609e-06 -1.2779e-05)
(-9.97332e-06 -6.72885e-06 4.26223e-06)
(-1.75067e-05 2.46135e-06 3.40541e-05)
(-5.70808e-06 1.3194e-05 1.46926e-05)
(9.89563e-06 7.85978e-06 -2.37224e-05)
(1.27915e-05 -3.07707e-06 -6.5933e-06)
(-3.34575e-07 -5.97288e-06 1.62303e-05)
(-1.22949e-05 6.02695e-08 -3.55319e-06)
(7.73639e-06 -2.72475e-06 4.31461e-06)
(1.15207e-05 7.18885e-08 3.81533e-06)
(1.16589e-06 -1.12042e-05 6.58717e-06)
(-2.2637e-07 -6.2444e-06 -1.21785e-06)
(3.2237e-06 -1.151e-05 1.20719e-05)
(-2.04162e-06 -1.2785e-05 -3.73863e-06)
(-4.61836e-06 7.92703e-06 -1.63141e-05)
(7.88421e-06 1.02754e-05 1.52785e-05)
(7.27262e-06 -4.53688e-06 7.58895e-06)
(-3.59372e-06 -6.0549e-06 -1.66377e-06)
(3.8591e-07 -4.47852e-06 1.70782e-05)
(-1.64474e-06 -4.03362e-06 9.38072e-06)
(-8.16034e-06 -1.94863e-06 7.1342e-06)
(7.46675e-07 -6.69895e-07 -6.94731e-06)
(1.93751e-06 -1.92952e-06 7.58221e-06)
(-6.51589e-06 1.49447e-06 -5.39385e-06)
(1.95154e-06 2.22819e-06 -1.48419e-05)
(5.8714e-06 -2.4939e-06 2.25506e-06)
(3.70027e-06 4.34033e-07 1.17127e-05)
(6.62821e-06 -5.51683e-06 1.23932e-05)
(2.34186e-06 -3.59021e-06 -1.01937e-05)
(5.84571e-06 6.541e-06 -1.42714e-06)
(1.13632e-05 3.42094e-06 2.29035e-05)
(6.53895e-06 -7.33362e-06 9.71909e-06)
(-5.44852e-06 -3.81942e-06 -1.55388e-05)
(-3.63613e-06 2.75507e-06 -3.58798e-06)
(5.1044e-08 9.42751e-07 8.37216e-06)
(2.31693e-06 5.79492e-07 -1.48386e-06)
(-1.81485e-06 4.22884e-06 4.44296e-06)
(-1.61401e-06 -2.09857e-06 1.71734e-06)
(7.31442e-07 3.18717e-06 9.10467e-07)
(-8.0478e-07 4.35625e-07 -2.04722e-06)
(-2.70573e-06 3.24347e-06 5.5142e-06)
(1.02093e-07 6.17797e-06 -1.06995e-06)
(7.1436e-07 -1.18468e-06 -1.2199e-05)
(-4.47135e-06 -2.79673e-06 7.45521e-06)
(-5.62609e-06 2.03436e-06 2.99749e-06)
(-2.07408e-06 -4.3137e-06 -2.40044e-06)
(-3.16712e-06 -4.48105e-06 1.29569e-05)
(-6.73712e-07 5.44769e-07 1.00251e-05)
(-4.31509e-06 -1.27993e-06 1.85368e-06)
(3.31013e-07 -9.91175e-07 -3.16392e-06)
(7.32701e-07 -1.23375e-06 2.50472e-06)
(-4.17075e-06 8.37933e-07 -1.37423e-06)
(1.27852e-06 1.25091e-06 -1.98956e-06)
(4.10961e-06 -2.04653e-06 1.868e-07)
(2.18545e-06 -3.37539e-07 2.55449e-06)
(3.89444e-06 -3.40259e-06 3.34238e-06)
(1.1484e-06 -2.30701e-06 -1.54126e-06)
(3.0283e-06 3.47777e-06 6.91604e-07)
(6.27398e-06 1.17579e-06 4.01931e-06)
(3.42002e-06 -4.944e-06 3.22269e-06)
(-3.73866e-06 -1.57725e-06 -2.09772e-06)
(-2.28299e-06 1.82287e-06 -7.52014e-08)
(-9.89453e-07 3.67243e-07 2.65487e-06)
(7.36088e-07 7.70671e-07 -4.11206e-07)
(-1.16875e-06 2.27618e-06 7.7626e-07)
(-9.04809e-07 -1.27024e-06 7.74879e-07)
(1.31091e-06 1.7846e-06 1.64689e-06)
(4.44964e-07 -2.6601e-07 3.92003e-07)
(-1.15944e-06 1.05611e-06 2.49936e-06)
(1.62678e-07 2.49126e-06 7.81518e-08)
(3.36815e-07 -1.20931e-06 -2.31891e-06)
(-2.86095e-06 -1.74373e-06 1.26788e-06)
(-3.61913e-06 1.54565e-06 1.68609e-07)
(-1.31343e-06 -2.06894e-06 -4.56084e-07)
(-1.832e-06 -2.55012e-06 3.02684e-06)
(-3.88319e-07 1.63745e-07 2.51229e-06)
(-2.58742e-06 -7.17772e-07 6.00803e-07)
(3.07843e-07 -1.916e-07 -8.22344e-07)
(4.74705e-07 -8.03024e-07 7.75658e-07)
(-1.89831e-06 -1.48221e-07 -3.75632e-07)
(4.48918e-07 2.22411e-07 -1.444e-06)
(1.27857e-06 -9.17303e-07 4.65648e-07)
(1.26959e-06 -2.43658e-07 1.34174e-06)
(1.94323e-06 -1.44591e-06 1.2981e-06)
(9.52001e-07 -1.10173e-06 -6.16388e-07)
(1.86888e-06 8.71466e-07 2.23259e-08)
(2.47092e-06 7.73434e-07 1.92548e-06)
(1.76355e-06 -1.40114e-06 3.36611e-07)
(-1.09179e-06 -5.49451e-07 -1.7066e-06)
(-7.03674e-07 8.54183e-07 -6.70023e-07)
(-2.84198e-07 4.66071e-07 8.16452e-07)
(1.90248e-07 5.66972e-07 3.51899e-08)
(-7.1011e-07 1.06764e-06 3.97269e-07)
(-8.44309e-07 -2.20165e-07 5.43076e-07)
(3.44067e-07 1.10521e-06 4.94107e-07)
(4.84045e-08 2.13158e-07 -4.16065e-07)
(-6.59088e-07 7.90474e-07 1.02631e-07)
(-8.17713e-08 1.31857e-06 -1.47386e-07)
(-2.93519e-07 -7.65417e-09 -1.03758e-06)
(-1.14308e-06 -2.20241e-07 1.05102e-06)
(-1.46317e-06 4.64838e-07 4.15483e-07)
(-3.56477e-07 -1.24591e-06 -1.25287e-07)
(-7.41378e-07 -1.45395e-06 1.15173e-06)
(-8.23099e-08 -5.87077e-08 9.74224e-07)
(0.000165437 -1.24012e-05 -4.18275e-05)
(3.74236e-05 -0.000125979 6.83588e-05)
(0.000327888 -3.7279e-06 2.80777e-05)
(0.000124484 -0.000234506 1.18773e-05)
(9.84817e-06 1.31819e-05 6.27173e-06)
(-3.11452e-06 -2.71297e-08 -1.16234e-05)
(5.90985e-06 -7.26096e-07 -1.39138e-05)
(-7.41197e-06 -1.66395e-05 -1.04283e-05)
)
;

boundaryField
{
    top_fluid_surface
    {
        type            pressureInletOutletVelocity;
        value           nonuniform List<vector> 
64
(
(9.30868e-05 -0.000133177 1.74023e-05)
(0 0 -2.11889e-05)
(0 0 -0.000126128)
(0 0 -1.43952e-05)
(0 0 -5.33433e-05)
(0 0 -0.000124472)
(0 0 -3.18103e-05)
(0.000299544 -0.000136751 3.07485e-05)
(0 0 -0.000207081)
(0 0 -0.000139883)
(-6.88133e-05 -0.000359757 1.4555e-05)
(-1.09488e-05 -0.000337063 -9.17039e-06)
(-0.000149336 -0.000228583 0.000120381)
(0 0 -3.50273e-05)
(6.01057e-05 -0.000252188 4.23912e-05)
(-5.48719e-05 -0.000150366 3.4536e-05)
(4.97572e-05 0.00012341 0.000100821)
(0.000192868 -0.000201226 0.000159061)
(-8.90946e-05 1.45257e-05 3.35621e-05)
(5.90207e-05 5.56321e-06 0.000217238)
(0.000247859 -0.000135594 8.14202e-05)
(0.000258541 -1.73327e-05 7.49325e-05)
(0.000223271 0.000152514 6.70064e-05)
(0.000349175 -5.95764e-05 6.84435e-05)
(0 0 -0.000151379)
(2.47957e-05 -2.62245e-05 6.3271e-05)
(0 0 -1.26846e-05)
(0 0 -2.07584e-05)
(0.000209951 -0.000126357 4.42164e-05)
(0 0 -3.37601e-05)
(0.000150807 -0.000212409 -5.68648e-06)
(0.000169773 -0.000103544 8.86815e-05)
(0 0 -1.49467e-05)
(-0.000131128 -6.21473e-05 8.15876e-05)
(0 0 -0.000113181)
(0.000212006 -0.00015868 0.000224416)
(-0.000215819 -0.000144365 0.000130761)
(0 0 -1.84896e-05)
(0 0 -0.000116189)
(-0.000252751 0.000118992 6.26166e-06)
(-0.00023708 -0.000294131 3.72533e-05)
(0 0 -0.000329368)
(0 0 -0.000197233)
(1.363e-05 0.000287556 0.000132347)
(0.000106892 0.000138583 0.000199763)
(0.000168779 -0.000149122 9.05934e-05)
(0 0 -4.27644e-05)
(0 0 -1.39618e-06)
(0 0 -6.22662e-05)
(0 0 -2.09149e-05)
(0 0 -0.000181219)
(0 0 -6.12702e-06)
(0 0 -4.77625e-05)
(1.84317e-05 -2.63934e-05 4.47155e-05)
(0 0 -2.79807e-05)
(0 0 -0.00029669)
(0 0 -6.51676e-05)
(0 0 -1.44072e-05)
(-7.84846e-05 -0.000257409 4.34272e-05)
(-0.000214343 -0.000110157 0.000136744)
(0 0 -4.18275e-05)
(3.74236e-05 -0.000125979 6.83588e-05)
(0.000327888 -3.7279e-06 2.80777e-05)
(0.000124484 -0.000234506 1.18773e-05)
)
;
    }
    bottom_fluid_surface
    {
        type            noSlip;
    }
    lateral_surface_1
    {
        type            noSlip;
    }
    lateral_surface_2
    {
        type            noSlip;
    }
    lateral_surface_3
    {
        type            noSlip;
    }
    lateral_surface_4
    {
        type            noSlip;
    }
}


// ************************************************************************* //
