/*--------------------------------*- C++ -*----------------------------------*\
| =========                 |                                                 |
| \\      /  F ield         | OpenFOAM: The Open Source CFD Toolbox           |
|  \\    /   O peration     | Version:  v1612+                                |
|   \\  /    A nd           | Web:      www.OpenFOAM.com                      |
|    \\/     M anipulation  |                                                 |
\*---------------------------------------------------------------------------*/
FoamFile
{
    version     2.0;
    format      ascii;
    class       surfaceScalarField;
    location    "5";
    object      alphaPhi;
}
// * * * * * * * * * * * * * * * * * * * * * * * * * * * * * * * * * * * * * //

dimensions      [0 3 -1 0 0 0 0];

internalField   nonuniform List<scalar> 
816
(
-4.24177e-06
-6.64772e-06
2.66891e-06
-3.72418e-06
-8.45824e-06
2.04027e-05
3.33128e-06
3.61866e-06
-1.08237e-06
7.89278e-06
-1.80008e-05
-5.78247e-06
4.10551e-06
4.80811e-06
6.6531e-06
-1.64328e-05
-2.7956e-06
7.07742e-06
6.14883e-06
-1.28852e-05
1.27424e-09
1.91085e-09
-1.65154e-06
1.15389e-09
7.81416e-10
1.06371e-09
2.50067e-06
1.16879e-09
5.01921e-10
-1.26746e-09
2.97826e-06
9.73043e-10
1.85471e-09
1.30171e-09
3.8175e-07
-3.25659e-09
2.94386e-09
2.46057e-09
-3.86075e-06
-5.13215e-10
1.67393e-09
3.19501e-09
-1.82073e-06
-9.29997e-10
3.76991e-09
2.56643e-09
-2.731e-06
1.68376e-09
1.54658e-09
3.70421e-09
-4.38296e-06
4.74682e-10
-2.21842e-09
-3.4729e-10
4.97857e-07
4.17178e-09
2.76279e-09
2.52882e-09
2.05052e-07
1.78414e-09
8.07904e-11
-2.69976e-10
-4.3023e-06
2.38641e-09
-5.67014e-09
-3.34349e-06
-3.6887e-11
1.88048e-09
5.95037e-06
3.27867e-06
-2.11013e-05
-3.91705e-06
1.36653e-05
1.45735e-05
-1.77936e-05
2.04203e-06
1.69603e-05
2.54757e-06
-2.92237e-06
7.10183e-06
2.01301e-05
-3.94744e-07
9.9543e-06
-6.91392e-06
2.33421e-06
-3.15475e-06
3.5496e-06
-5.17076e-06
-3.29465e-07
6.61912e-06
-1.92614e-05
7.0915e-07
6.6598e-06
4.43111e-06
-1.36679e-05
-1.96154e-06
1.48712e-05
-4.04305e-07
7.25554e-06
-8.54389e-06
-2.96062e-08
3.31832e-06
-2.79138e-05
1.06058e-05
1.58318e-05
1.48914e-05
-2.07256e-05
7.91925e-07
8.92326e-06
1.3274e-06
1.10242e-05
3.79234e-07
-1.54176e-06
-6.2645e-06
5.09067e-06
1.2065e-06
-3.88058e-06
-2.06795e-06
-1.10461e-05
-1.43968e-06
-7.30541e-06
-8.62736e-06
-2.12365e-06
-1.30405e-06
-1.25291e-06
4.13181e-07
-8.07075e-06
1.94349e-06
3.57989e-06
2.04246e-06
1.83085e-06
2.10858e-06
-1.24843e-06
5.1106e-09
-8.96455e-06
-3.85312e-06
-4.61964e-06
-5.8793e-07
-6.43643e-06
4.3327e-07
-1.03964e-07
2.6455e-06
8.2248e-06
-3.76117e-06
-1.35054e-05
-2.46335e-06
-8.29131e-06
-9.16255e-06
-1.02765e-05
-2.47747e-07
-4.62143e-06
5.00529e-06
-2.2453e-06
-2.73443e-06
-7.57057e-06
-2.6329e-06
-1.86424e-06
-3.40595e-06
1.56165e-06
-2.47065e-06
-2.27905e-06
1.47571e-06
2.35482e-06
-4.44888e-07
2.64354e-06
-3.50525e-06
2.64544e-06
2.58025e-06
1.52065e-06
-1.78739e-06
3.64736e-06
2.24589e-06
-1.64124e-06
-2.65415e-06
-1.72417e-06
-3.45878e-06
-4.58485e-06
-1.83335e-06
-1.48712e-06
-6.80439e-07
-3.75076e-07
-4.58019e-06
-2.01894e-07
9.90287e-07
1.27354e-06
1.82429e-07
1.06019e-06
-1.85638e-07
4.31481e-07
2.12069e-07
-2.48744e-06
-2.86502e-06
-2.76438e-06
-1.91652e-07
-1.27092e-07
-2.2661e-06
-2.35067e-08
4.94841e-06
1.68036e-07
-2.02639e-06
-2.23218e-06
-5.09804e-06
-4.17554e-06
-5.97632e-06
-7.32175e-07
-3.01788e-06
-3.27342e-06
-1.54213e-06
1.3796e-06
-5.17461e-06
-2.70951e-06
-7.71701e-07
-3.15282e-09
1.13231e-09
2.20588e-07
-1.77458e-10
-7.80584e-10
2.66715e-06
2.11458e-10
-1.30509e-09
2.98975e-06
1.22546e-09
-9.24132e-10
-9.01451e-06
7.52899e-10
-5.5841e-10
-4.6285e-06
-7.22478e-10
-4.94564e-09
-1.95816e-09
-1.68849e-06
-2.44805e-09
-4.43304e-10
-2.21273e-06
-7.05899e-09
-1.4706e-09
1.50255e-11
-5.1846e-09
6.97895e-10
-5.94498e-07
-1.848e-09
1.82033e-09
-1.32037e-06
-2.54711e-09
5.638e-11
1.77078e-09
1.74828e-06
4.49319e-11
-7.02553e-10
-3.11034e-06
-3.04553e-09
2.31762e-09
-1.2066e-05
-6.47623e-10
-3.01484e-10
-7.47433e-06
-1.90631e-10
-1.61248e-10
-1.89332e-06
-8.07769e-10
-2.95175e-09
-9.37242e-10
-6.25778e-06
7.01075e-10
-1.83074e-09
-5.47135e-06
-5.26722e-10
-8.95087e-10
2.97927e-06
8.38859e-10
-7.6796e-10
9.25171e-07
3.89813e-10
1.27591e-10
-2.68154e-09
-4.86558e-10
-1.04351e-05
-4.46383e-06
1.61466e-05
1.86364e-06
2.92622e-06
-4.43678e-06
-4.459e-06
1.05596e-05
-1.03262e-05
1.48988e-05
6.53355e-07
-3.61988e-06
9.22017e-06
7.36097e-06
1.90741e-05
-1.19269e-05
-1.89762e-05
-1.19816e-06
2.80243e-05
-1.38868e-06
-6.39845e-06
1.819e-05
-2.12441e-05
-2.30137e-05
4.4165e-05
-3.10123e-05
-1.84314e-05
4.13289e-06
-5.65116e-06
8.27376e-06
-1.74971e-05
2.39639e-06
-1.48951e-05
5.58507e-06
1.55705e-05
1.18573e-08
-9.32226e-06
2.43654e-05
-1.39609e-05
2.08336e-06
-3.22376e-05
-3.51434e-06
-4.37421e-07
1.36473e-05
-7.03039e-06
1.17383e-05
5.26563e-06
-1.04159e-05
-7.32499e-06
3.46623e-07
1.13029e-05
8.87853e-06
-1.24714e-05
2.22081e-05
-1.39596e-05
-9.14074e-06
1.68019e-05
-6.57584e-06
-3.38411e-06
1.89165e-06
-3.95913e-06
1.83612e-05
-4.13503e-06
-1.34088e-05
4.75695e-06
2.07238e-06
9.21051e-06
-7.46156e-06
1.51471e-06
-2.36329e-06
-2.6356e-07
-6.47867e-07
-4.26748e-06
-6.0205e-06
5.34288e-07
-1.86571e-06
-2.52075e-06
-6.6534e-06
9.27384e-06
8.69655e-06
8.28852e-06
-1.13704e-06
1.27541e-05
1.68299e-06
1.75293e-06
8.07177e-06
9.26548e-06
1.14701e-05
1.99103e-05
1.32891e-05
8.70786e-06
1.98215e-06
1.0637e-06
-1.72834e-06
-7.3977e-06
-4.62861e-06
4.97051e-06
2.85999e-06
7.28945e-06
-9.26572e-07
9.35325e-06
1.15155e-05
6.78896e-06
-8.0567e-07
-1.48771e-05
1.02276e-06
-2.08584e-06
6.19025e-06
6.2716e-06
-7.35732e-06
2.38666e-06
7.06723e-06
1.08004e-06
-3.84537e-06
4.81569e-06
-5.31725e-06
1.62978e-06
9.72754e-06
6.75881e-06
3.47353e-06
8.38212e-06
4.33623e-06
1.46888e-06
1.65592e-06
-3.7763e-07
8.43321e-06
4.21762e-06
9.27244e-06
3.72936e-06
1.09556e-06
3.41685e-06
-4.19453e-06
1.55863e-06
-8.23544e-07
-1.06814e-06
-3.79252e-07
2.21903e-07
-4.3865e-06
4.84291e-07
-8.18851e-07
-2.29598e-06
-3.35827e-06
2.56902e-06
5.06147e-06
5.48072e-06
-5.82218e-07
4.41592e-06
9.72544e-07
6.8013e-07
2.92963e-06
5.14894e-06
6.0836e-06
6.16751e-06
8.15055e-06
4.65918e-06
3.95412e-07
5.28823e-07
-8.11143e-07
-9.09562e-07
-3.39156e-06
2.38326e-06
1.79167e-06
2.32761e-06
-5.08026e-07
5.7984e-06
3.57843e-06
3.80156e-06
-7.76083e-07
-4.12772e-06
7.72973e-07
-1.24358e-06
1.47443e-06
2.94782e-06
-3.87178e-06
5.29662e-07
3.66645e-06
8.1707e-07
-2.64214e-06
1.98702e-06
-3.50082e-06
-9.30297e-09
2.86949e-06
3.50478e-06
1.37995e-06
2.781e-06
2.67867e-06
7.22394e-07
3.47089e-07
-7.28924e-07
2.20352e-06
2.64676e-06
5.40467e-06
-8.11233e-07
-9.76785e-07
5.39201e-07
-1.03181e-06
1.69465e-06
-1.73568e-07
3.03276e-07
-2.50218e-06
1.52202e-06
1.51659e-06
-1.34858e-06
2.7771e-06
-1.64578e-06
-7.10658e-07
-5.65051e-07
-1.9176e-06
-1.39391e-06
-1.55964e-07
8.00163e-08
-2.05058e-06
9.24157e-08
2.20434e-07
3.00797e-07
-1.12991e-06
4.60124e-07
-1.5289e-06
-1.39763e-06
4.30269e-07
5.36983e-07
2.69425e-08
2.09171e-06
-2.11537e-06
1.91641e-07
-2.22613e-06
-3.64714e-06
2.9484e-08
-2.41695e-06
-8.80498e-07
-3.37157e-06
-5.21671e-07
1.65984e-06
6.65065e-07
-2.26333e-06
4.22649e-07
-1.37076e-07
8.78822e-07
-1.63284e-06
5.80926e-07
-4.53233e-07
-1.55521e-06
1.9246e-06
2.7749e-06
-8.06541e-08
8.73908e-07
6.93735e-07
2.37099e-06
3.08368e-06
2.64467e-06
1.81096e-06
1.43763e-07
6.64353e-07
-1.31909e-06
1.55792e-06
1.69106e-06
-9.61331e-08
3.47291e-06
2.33612e-06
5.94788e-07
8.43891e-07
-5.04327e-09
2.26395e-06
-2.51949e-06
2.27896e-06
7.59319e-07
-1.7415e-06
-1.02402e-06
-5.49519e-07
1.71416e-06
4.17676e-07
9.46477e-07
8.68784e-08
1.77668e-07
8.60141e-07
2.11666e-06
1.21092e-09
-1.72729e-09
-6.54723e-06
-1.59971e-10
7.2598e-06
8.92472e-10
4.1714e-06
-7.39601e-10
-7.6797e-06
-1.24547e-09
-1.18271e-05
-3.77123e-09
-7.97179e-06
2.51594e-10
1.84732e-06
-7.26995e-10
1.41552e-07
-3.58722e-09
-6.15178e-06
1.74214e-09
1.29685e-06
3.39895e-09
2.40199e-06
3.81466e-09
7.77609e-07
1.87155e-09
6.17555e-07
1.70978e-10
9.77439e-11
-3.42953e-10
2.68163e-06
8.40641e-10
1.70362e-06
1.65648e-09
-4.73903e-06
4.60367e-09
-2.68462e-06
1.11925e-09
-9.69237e-06
-9.62603e-10
-2.35854e-06
3.00769e-10
-3.05986e-06
-3.38435e-10
2.29141e-06
3.81395e-10
-3.20849e-06
7.32854e-10
-1.78698e-06
-6.44818e-10
-8.99113e-07
-2.25987e-09
1.45693e-10
-3.74017e-09
1.30169e-07
-7.40057e-06
1.16722e-06
-4.737e-06
-8.24241e-06
-2.04862e-07
3.00905e-05
1.84649e-05
-6.25186e-06
6.0985e-06
2.0282e-05
-1.45562e-05
1.47656e-05
-2.31753e-05
-1.41384e-05
1.23355e-05
-2.78208e-05
1.04736e-05
-1.762e-05
-1.48585e-05
1.78719e-05
-1.03171e-05
-2.04158e-05
1.07353e-05
-4.01893e-05
1.60867e-05
-1.08664e-05
3.28526e-06
2.28783e-05
-8.56511e-06
2.08184e-05
3.02824e-06
-1.67358e-05
6.14235e-06
3.81853e-06
-1.61436e-06
-1.23095e-05
-4.78839e-07
-8.04739e-06
-4.30857e-06
-1.53322e-05
-9.22203e-06
-7.3014e-06
1.65278e-05
-2.8183e-05
8.38989e-06
1.11466e-05
-1.09356e-05
2.43112e-05
-2.64802e-06
-2.35209e-05
-2.90297e-06
-7.47683e-06
-3.24305e-06
9.5337e-06
2.34769e-06
-1.93384e-05
-1.19968e-05
-5.91478e-06
5.71568e-06
-3.82043e-06
2.22586e-06
1.44661e-05
-1.93362e-06
-2.33226e-06
2.30113e-06
1.00312e-05
7.61871e-06
6.92586e-06
8.32713e-06
-6.15168e-06
-6.61935e-06
-1.28783e-05
-6.71519e-06
-9.23577e-06
5.2652e-06
7.58041e-06
3.07137e-06
-8.95845e-06
-5.75817e-06
-1.80716e-05
-9.90141e-06
-5.65659e-06
-3.31591e-06
1.16828e-05
7.16952e-06
1.03303e-05
2.53815e-06
-7.14087e-06
3.94635e-06
1.48661e-06
4.3662e-06
-5.94132e-06
2.33356e-06
-4.99366e-06
4.29974e-07
-7.15718e-06
3.46172e-06
-3.26772e-06
-1.27308e-05
-1.19896e-05
-4.25278e-06
3.75532e-06
4.14801e-06
1.05902e-05
-2.11428e-06
-1.0493e-05
-1.947e-06
-3.30037e-06
2.30059e-06
4.91529e-06
3.24119e-07
-8.09919e-06
-5.9423e-06
-3.75632e-06
3.56053e-06
-9.75134e-07
1.40892e-06
5.1134e-06
-6.83163e-07
-1.30125e-06
1.76077e-06
3.19565e-06
5.16621e-06
1.21655e-06
5.37376e-06
-1.30206e-06
-3.49686e-06
-4.01159e-06
-3.98892e-06
-3.27581e-06
2.85094e-06
1.71513e-06
1.83593e-06
-2.79273e-06
-4.01106e-06
-4.07226e-06
-7.27588e-06
-1.87313e-06
-2.42807e-06
3.45501e-06
4.96003e-06
2.95573e-06
2.15353e-06
-1.95538e-06
2.69819e-06
4.36187e-07
2.67676e-06
-2.1172e-06
5.78742e-07
-2.12397e-06
-3.1081e-07
-3.32013e-06
1.56148e-06
-1.48083e-06
-6.44156e-06
-3.9916e-06
-2.4418e-06
5.72199e-07
2.1603e-06
2.49008e-06
-1.72404e-06
-3.09132e-06
-1.9895e-06
-3.38148e-07
1.46011e-06
7.48756e-07
7.02008e-07
-1.94175e-06
-1.65429e-06
-1.78401e-06
1.68582e-06
1.08096e-06
-3.61265e-07
1.19291e-06
1.9484e-06
2.56835e-06
-1.43923e-06
-1.95182e-06
6.33906e-07
2.1221e-07
-1.21047e-06
-2.94204e-06
-8.0825e-07
2.15189e-06
1.75706e-06
2.10035e-06
2.31816e-06
1.03434e-06
-2.33363e-08
7.789e-07
-3.21637e-06
-1.89103e-06
-4.23221e-07
-1.79053e-06
-1.16127e-06
-2.15399e-07
-3.82859e-08
-2.11969e-09
3.89006e-09
-9.4725e-06
-2.59187e-10
-7.96188e-06
1.18651e-09
1.39779e-06
-1.15093e-05
6.95239e-06
1.29502e-05
-1.78339e-06
1.15205e-05
)
;

boundaryField
{
    top_fluid_surface
    {
        type            calculated;
        value           nonuniform List<scalar> 
64
(
0
0
0
0
0
0
0
5.51857e-10
0
0
3.84967e-09
0
1.83018e-09
0
1.63908e-10
5.1954e-10
4.14913e-09
4.60601e-09
6.58966e-10
4.06428e-09
0
1.15585e-09
2.88114e-09
5.42303e-09
0
5.34089e-09
3.08718e-09
2.65474e-09
2.82471e-09
7.7574e-10
1.33946e-09
2.8742e-09
0
9.47164e-11
0
3.02131e-09
1.46622e-09
1.46907e-09
0
0
0
0
0
0
0
1.39253e-09
5.26491e-10
0
0
0
2.61919e-09
1.31412e-09
0
0
1.5294e-10
0
2.14621e-09
1.70693e-09
1.6607e-10
0
0
1.47322e-09
0
3.56648e-09
)
;
    }
    bottom_fluid_surface
    {
        type            calculated;
        value           uniform 0;
    }
    lateral_surface_1
    {
        type            calculated;
        value           uniform 0;
    }
    lateral_surface_2
    {
        type            calculated;
        value           uniform 0;
    }
    lateral_surface_3
    {
        type            calculated;
        value           uniform 0;
    }
    lateral_surface_4
    {
        type            calculated;
        value           uniform 0;
    }
}


// ************************************************************************* //
