/*--------------------------------*- C++ -*----------------------------------*\
| =========                 |                                                 |
| \\      /  F ield         | OpenFOAM: The Open Source CFD Toolbox           |
|  \\    /   O peration     | Version:  v1612+                                |
|   \\  /    A nd           | Web:      www.OpenFOAM.com                      |
|    \\/     M anipulation  |                                                 |
\*---------------------------------------------------------------------------*/
FoamFile
{
    version     2.0;
    format      ascii;
    class       volScalarField;
    location    "5";
    object      alpha.water;
}
// * * * * * * * * * * * * * * * * * * * * * * * * * * * * * * * * * * * * * //

dimensions      [0 0 0 0 0 0 0];

internalField   nonuniform List<scalar> 
320
(
1
1
1
1
1.40893e-05
1.26258e-05
1.2329e-05
1.3179e-05
1.33574e-05
1.37264e-05
1.35036e-05
1.25763e-05
1.33441e-05
1.40204e-05
1.05752e-05
1.24534e-05
0.999988
0.999989
0.999988
0.999989
0.999983
0.999983
0.999983
0.999991
0.999986
0.999986
0.999993
0.999984
1
1
1
1
1
1
1
1
1
1
1
1
1
1
1
1
1
1
1
1
1
1
1
1
1
1
1
1
1.13173e-05
1.259e-05
1.18456e-05
1.24194e-05
1.04582e-05
1.01744e-05
1.21173e-05
1.04939e-05
1.27714e-05
1.16779e-05
1.10148e-05
9.69503e-06
1.35781e-05
1.00403e-05
1.11958e-05
1.16865e-05
1.1391e-05
1.17643e-05
1.1401e-05
1.07314e-05
0.999985
0.999985
0.999988
0.999987
0.999993
0.999997
0.999994
0.999997
0.999985
0.999988
0.999993
0.999993
0.999983
0.999992
0.999991
0.999994
0.999994
0.999984
0.999984
0.999992
1
1
1
1
1
1
1
1
1
1
1
1
1
1
1
1
1
1
1
1
1
1
1
1
1
1
1
1
1
1
1
1
1
1
1
1
1
1
1
1
1
1
1
1
1
1
1
1
1
1
1
1
1
1
1
1
1
1
1
1
1
1
1
1
1
1
1
1
1
1
1
1
1
1
1
1
1.26136e-05
1.19421e-05
1.21822e-05
1.12743e-05
1.22529e-05
1.18556e-05
1.34736e-05
1.36646e-05
1.25643e-05
1.60162e-05
1.43727e-05
1.33536e-05
1.23836e-05
1.14953e-05
1.15449e-05
1.28148e-05
1.3894e-05
1.41478e-05
1.16102e-05
1.2003e-05
1.30149e-05
1.33996e-05
1.27358e-05
1.25943e-05
1.1205e-05
1.11091e-05
1.19177e-05
1.4564e-05
0.999986
0.999986
0.999984
0.999992
0.999989
0.999989
0.999981
0.999986
0.999995
0.999982
0.999985
0.999988
0.999983
0.999987
0.999985
0.999987
0.999983
0.999986
0.999984
0.99998
0.999979
0.999989
0.999993
0.999985
0.99999
0.999986
0.999984
0.999986
1
1
1
1
1
1
1
1
1
1
1
1
1
1
1
1
1
1
1
1
1
1
1
1
1
1
1
1
1
1
1
1
1
1
1
1
1
1
1
1
1
1
1
1
1
1
1
1
1
1
1
1
1
1
1
1
1
1
1
1
1
1
1
1
1
1
1
1
1
1
1
1
1
1
1
1
1
1
1
1
1
1
1
1
1.47017e-05
1.21946e-05
1.25172e-05
1.11597e-05
0.999981
0.999994
0.999989
0.999994
)
;

boundaryField
{
    top_fluid_surface
    {
        type            inletOutlet;
        inletValue      uniform 0;
        value           nonuniform List<scalar> 
64
(
0
0
0
0
0
0
0
1.25763e-05
0
0
1.05752e-05
0
1.13173e-05
0
1.18456e-05
1.24194e-05
1.04582e-05
1.01744e-05
1.21173e-05
1.04939e-05
0
1.16779e-05
1.10148e-05
9.69503e-06
0
1.00403e-05
1.11958e-05
1.16865e-05
1.1391e-05
1.17643e-05
1.1401e-05
1.07314e-05
0
1.19421e-05
0
1.12743e-05
1.22529e-05
1.18556e-05
0
0
0
0
0
0
0
1.14953e-05
1.15449e-05
0
0
0
1.16102e-05
1.2003e-05
0
0
1.27358e-05
0
1.1205e-05
1.11091e-05
1.19177e-05
0
0
1.21946e-05
0
1.11597e-05
)
;
    }
    bottom_fluid_surface
    {
        type            zeroGradient;
    }
    lateral_surface_1
    {
        type            zeroGradient;
    }
    lateral_surface_2
    {
        type            zeroGradient;
    }
    lateral_surface_3
    {
        type            zeroGradient;
    }
    lateral_surface_4
    {
        type            zeroGradient;
    }
}


// ************************************************************************* //
