/*--------------------------------*- C++ -*----------------------------------*\
| =========                 |                                                 |
| \\      /  F ield         | OpenFOAM: The Open Source CFD Toolbox           |
|  \\    /   O peration     | Version:  v1612+                                |
|   \\  /    A nd           | Web:      www.OpenFOAM.com                      |
|    \\/     M anipulation  |                                                 |
\*---------------------------------------------------------------------------*/
FoamFile
{
    version     2.0;
    format      ascii;
    class       volScalarField;
    location    "5";
    object      p;
}
// * * * * * * * * * * * * * * * * * * * * * * * * * * * * * * * * * * * * * //

dimensions      [1 -1 -2 0 0 0 0];

internalField   nonuniform List<scalar> 
320
(
14724.8
14724.8
14724.8
14724.8
4.96525
4.96463
4.96512
4.96576
4.9662
4.96641
4.96659
4.96718
4.9665
4.96598
4.96542
4.96494
4914.89
4914.88
4914.87
4914.89
4914.86
4914.86
4914.86
4914.85
4914.88
4914.89
4914.84
4914.86
14724.8
14724.8
14724.8
14724.8
14724.8
14724.8
14724.8
14724.8
14724.8
14724.8
14724.8
14724.8
24534.8
24534.8
24534.8
24534.8
24534.8
24534.8
24534.8
24534.8
24534.8
24534.8
24534.8
24534.8
24534.8
24534.8
24534.8
24534.8
4.96435
4.96425
4.96428
4.96627
4.96537
4.96494
4.96489
4.96498
4.965
4.96407
4.96528
4.96567
4.96816
4.9669
4.96612
4.96695
4.96611
4.96455
4.96371
4.96531
4914.81
4914.86
4914.83
4914.83
4914.83
4914.85
4914.86
4914.85
4914.86
4914.83
4914.84
4914.82
4914.86
4914.82
4914.83
4914.86
4914.85
4914.81
4914.81
4914.84
14724.8
14724.8
14724.8
14724.8
14724.8
14724.8
14724.8
14724.8
14724.8
14724.8
14724.8
14724.8
14724.8
14724.8
14724.8
14724.8
14724.8
14724.8
14724.8
14724.8
24534.8
24534.8
24534.8
24534.8
24534.8
24534.8
24534.8
24534.8
24534.8
24534.8
24534.8
24534.8
24534.8
24534.8
24534.8
24534.8
24534.8
24534.8
24534.8
24534.8
34344.8
34344.8
34344.8
34344.8
34344.8
34344.8
34344.8
34344.8
34344.8
34344.8
34344.8
34344.8
34344.8
34344.8
34344.8
34344.8
34344.8
34344.8
34344.8
34344.8
34344.8
34344.8
34344.8
34344.8
34344.8
34344.8
34344.8
34344.8
34344.8
34344.8
34344.8
34344.8
34344.8
34344.8
34344.8
34344.8
4.96841
4.9649
4.96502
4.966
4.96658
4.96578
4.96472
4.96499
4.96574
4.9637
4.9645
4.96449
4.96557
4.96187
4.96367
4.96626
4.96632
4.9679
4.96745
4.96638
4.96641
4.9657
4.96613
4.96551
4.96429
4.96383
4.9641
4.96596
4914.9
4914.82
4914.86
4914.84
4914.84
4914.83
4914.86
4914.88
4914.91
4914.89
4914.89
4914.88
4914.85
4914.81
4914.81
4914.87
4914.87
4914.88
4914.81
4914.79
4914.83
4914.89
4914.86
4914.86
4914.83
4914.81
4914.81
4914.9
14724.8
14724.8
14724.8
14724.8
14724.8
14724.8
14724.8
14724.8
14724.8
14724.8
14724.8
14724.8
14724.8
14724.8
14724.8
14724.8
14724.8
14724.8
14724.8
14724.8
14724.8
14724.8
14724.8
14724.8
14724.8
14724.8
14724.8
14724.8
24534.8
24534.8
24534.8
24534.8
24534.8
24534.8
24534.8
24534.8
24534.8
24534.8
24534.8
24534.8
24534.8
24534.8
24534.8
24534.8
24534.8
24534.8
24534.8
24534.8
24534.8
24534.8
24534.8
24534.8
24534.8
24534.8
24534.8
24534.8
34344.8
34344.8
34344.8
34344.8
34344.8
34344.8
34344.8
34344.8
34344.8
34344.8
34344.8
34344.8
34344.8
34344.8
34344.8
34344.8
34344.8
34344.8
34344.8
34344.8
34344.8
34344.8
34344.8
34344.8
34344.8
34344.8
34344.8
34344.8
4.96617
4.96643
4.96632
4.96651
4914.87
4914.86
4914.88
4914.84
)
;

boundaryField
{
    top_fluid_surface
    {
        type            calculated;
        value           nonuniform List<scalar> 
64
(
-1.95668e-08
-3.91643e-09
-8.31653e-10
-2.49634e-09
-2.40793e-09
-8.91475e-09
-4.89228e-09
0
-6.72738e-09
-1.6217e-08
0
-1.95376e-10
0
-3.14665e-09
0
0
0
0
0
0
-1.10057e-09
0
0
0
-2.57907e-09
0
0
0
0
0
0
0
-7.37783e-09
0
-1.39484e-09
0
0
0
-1.54615e-08
-1.29737e-08
-1.47496e-10
-9.36397e-08
-4.26151e-08
-9.79093e-09
-1.55605e-10
0
0
-9.12387e-10
-9.37092e-09
-8.46755e-09
0
0
-2.67437e-09
-5.81756e-09
-2.95487e-11
-1.21856e-09
0
0
0
-2.07385e-08
-2.33255e-08
0
0
0
)
;
    }
    bottom_fluid_surface
    {
        type            calculated;
        value           nonuniform List<scalar> 
64
(
39249.8
39249.8
39249.8
39249.8
39249.8
39249.8
39249.8
39249.8
39249.8
39249.8
39249.8
39249.8
39249.8
39249.8
39249.8
39249.8
39249.8
39249.8
39249.8
39249.8
39249.8
39249.8
39249.8
39249.8
39249.8
39249.8
39249.8
39249.8
39249.8
39249.8
39249.8
39249.8
39249.8
39249.8
39249.8
39249.8
39249.8
39249.8
39249.8
39249.8
39249.8
39249.8
39249.8
39249.8
39249.8
39249.8
39249.8
39249.8
39249.8
39249.8
39249.8
39249.8
39249.8
39249.8
39249.8
39249.8
39249.8
39249.8
39249.8
39249.8
39249.8
39249.8
39249.8
39249.8
)
;
    }
    lateral_surface_1
    {
        type            calculated;
        value           nonuniform List<scalar> 
40
(
4.96841
4.9649
4.96502
4.966
4.96658
4.96578
4.96472
4.96596
4914.9
4914.82
4914.86
4914.84
4914.84
4914.83
4914.86
4914.9
14724.8
14724.8
14724.8
14724.8
14724.8
14724.8
14724.8
14724.8
24534.8
24534.8
24534.8
24534.8
24534.8
24534.8
24534.8
24534.8
34344.8
34344.8
34344.8
34344.8
34344.8
34344.8
34344.8
34344.8
)
;
    }
    lateral_surface_2
    {
        type            calculated;
        value           nonuniform List<scalar> 
40
(
4.96187
4.96367
4.96626
4.96632
4.9679
4.96745
4.96638
4.96641
4914.81
4914.81
4914.87
4914.87
4914.88
4914.81
4914.79
4914.83
14724.8
14724.8
14724.8
14724.8
14724.8
14724.8
14724.8
14724.8
24534.8
24534.8
24534.8
24534.8
24534.8
24534.8
24534.8
24534.8
34344.8
34344.8
34344.8
34344.8
34344.8
34344.8
34344.8
34344.8
)
;
    }
    lateral_surface_3
    {
        type            calculated;
        value           nonuniform List<scalar> 
40
(
4.96472
4.96499
4.96574
4.9637
4.9645
4.96449
4.96557
4.96187
4914.86
4914.88
4914.91
4914.89
4914.89
4914.88
4914.85
4914.81
14724.8
14724.8
14724.8
14724.8
14724.8
14724.8
14724.8
14724.8
24534.8
24534.8
24534.8
24534.8
24534.8
24534.8
24534.8
24534.8
34344.8
34344.8
34344.8
34344.8
34344.8
34344.8
34344.8
34344.8
)
;
    }
    lateral_surface_4
    {
        type            calculated;
        value           nonuniform List<scalar> 
40
(
4.96641
4.9657
4.96613
4.96551
4.96429
4.96383
4.9641
4.96596
4914.83
4914.89
4914.86
4914.86
4914.83
4914.81
4914.81
4914.9
14724.8
14724.8
14724.8
14724.8
14724.8
14724.8
14724.8
14724.8
24534.8
24534.8
24534.8
24534.8
24534.8
24534.8
24534.8
24534.8
34344.8
34344.8
34344.8
34344.8
34344.8
34344.8
34344.8
34344.8
)
;
    }
}


// ************************************************************************* //
