/*--------------------------------*- C++ -*----------------------------------*\
| =========                 |                                                 |
| \\      /  F ield         | OpenFOAM: The Open Source CFD Toolbox           |
|  \\    /   O peration     | Version:  v1612+                                |
|   \\  /    A nd           | Web:      www.OpenFOAM.com                      |
|    \\/     M anipulation  |                                                 |
\*---------------------------------------------------------------------------*/
FoamFile
{
    version     2.0;
    format      ascii;
    class       volScalarField;
    location    "5";
    object      p_rgh;
}
// * * * * * * * * * * * * * * * * * * * * * * * * * * * * * * * * * * * * * //

dimensions      [1 -1 -2 0 0 0 0];

internalField   nonuniform List<scalar> 
320
(
-9800.21
-9800.19
-9800.2
-9800.19
-0.00879364
-0.00223939
-0.000289813
-0.00381877
-0.00425639
-0.00585028
-0.00458277
0.000559607
-0.00388684
-0.00772533
0.00859567
-0.00107944
-9799.92
-9799.95
-9799.95
-9799.95
-9799.89
-9799.88
-9799.88
-9800.02
-9799.91
-9799.91
-9800.06
-9799.91
-9800.2
-9800.19
-9800.2
-9800.2
-9800.2
-9800.21
-9800.21
-9800.2
-9800.2
-9800.2
-9800.2
-9800.21
-9800.21
-9800.2
-9800.2
-9800.2
-9800.2
-9800.2
-9800.2
-9800.2
-9800.2
-9800.21
-9800.21
-9800.2
-9800.21
-9800.2
-9800.2
-9800.21
0.00389082
-0.00244654
0.00123352
0.00041159
0.00912234
0.0100816
0.000510712
0.00856319
-0.00257628
0.00184767
0.00630458
0.0131665
-0.00336896
0.0127026
0.00625498
0.0046887
0.00529308
0.00190855
0.00284861
0.00772284
-9799.97
-9799.92
-9799.99
-9799.97
-9800.06
-9800.11
-9800.05
-9800.1
-9799.91
-9800
-9800.06
-9800.08
-9799.89
-9800.06
-9800.03
-9800.06
-9800.07
-9799.95
-9799.96
-9800.05
-9800.22
-9800.22
-9800.21
-9800.21
-9800.2
-9800.18
-9800.19
-9800.19
-9800.21
-9800.22
-9800.21
-9800.2
-9800.21
-9800.21
-9800.21
-9800.2
-9800.2
-9800.22
-9800.23
-9800.21
-9800.21
-9800.21
-9800.2
-9800.21
-9800.2
-9800.19
-9800.19
-9800.19
-9800.21
-9800.21
-9800.2
-9800.2
-9800.21
-9800.21
-9800.21
-9800.2
-9800.2
-9800.21
-9800.22
-9800.21
-9800.21
-9800.2
-9800.2
-9800.2
-9800.2
-9800.2
-9800.2
-9800.2
-9800.2
-9800.21
-9800.21
-9800.2
-9800.21
-9800.2
-9800.2
-9800.21
-9800.21
-9800.21
-9800.2
-9800.21
-9800.2
-9800.19
-9800.2
-9800.2
-9800.21
-9800.21
-9800.21
-9800.21
-9800.21
-9800.21
-9800.21
-9800.21
-9800.21
-9800.21
-9800.21
-9800.21
0.00160517
0.00137958
0.000321192
0.00575814
0.00153546
0.00269138
-0.00630559
-0.00696825
-0.000827667
-0.019776
-0.0109268
-0.00594802
-0.000108575
0.000539543
0.00210173
-0.00153673
-0.00676369
-0.00642517
0.00556355
0.00256092
-0.00236789
-0.00496287
-0.00127227
-0.00120766
0.00438465
0.00439496
0.000699835
-0.0104001
-9799.9
-9799.97
-9799.91
-9800.04
-9800
-9800
-9799.86
-9799.92
-9800.01
-9799.84
-9799.89
-9799.94
-9799.89
-9799.99
-9799.97
-9799.93
-9799.88
-9799.9
-9799.96
-9799.92
-9799.86
-9799.94
-9800.03
-9799.92
-9800.02
-9799.98
-9799.96
-9799.9
-9800.21
-9800.22
-9800.22
-9800.2
-9800.21
-9800.2
-9800.21
-9800.2
-9800.17
-9800.2
-9800.2
-9800.21
-9800.22
-9800.23
-9800.23
-9800.21
-9800.21
-9800.2
-9800.22
-9800.23
-9800.23
-9800.2
-9800.2
-9800.21
-9800.22
-9800.23
-9800.23
-9800.2
-9800.21
-9800.21
-9800.21
-9800.2
-9800.21
-9800.2
-9800.2
-9800.2
-9800.19
-9800.2
-9800.2
-9800.21
-9800.21
-9800.21
-9800.22
-9800.21
-9800.21
-9800.21
-9800.22
-9800.22
-9800.22
-9800.21
-9800.2
-9800.21
-9800.21
-9800.22
-9800.22
-9800.21
-9800.21
-9800.21
-9800.21
-9800.2
-9800.21
-9800.2
-9800.2
-9800.2
-9800.19
-9800.2
-9800.2
-9800.21
-9800.21
-9800.21
-9800.21
-9800.21
-9800.21
-9800.21
-9800.21
-9800.21
-9800.22
-9800.21
-9800.21
-9800.21
-9800.21
-9800.22
-9800.22
-9800.21
-0.0108733
0.00167471
-1.24368e-05
0.00682432
-9799.85
-9800.05
-9799.95
-9800.06
)
;

boundaryField
{
    top_fluid_surface
    {
        type            totalPressure;
        rho             rho;
        psi             none;
        gamma           1;
        p0              uniform 0;
        value           nonuniform List<scalar> 
64
(
-1.95668e-08
-3.91643e-09
-8.31653e-10
-2.49634e-09
-2.40793e-09
-8.91475e-09
-4.89228e-09
0
-6.72738e-09
-1.6217e-08
0
-1.95376e-10
0
-3.14665e-09
0
0
0
0
0
0
-1.10057e-09
0
0
0
-2.57907e-09
0
0
0
0
0
0
0
-7.37783e-09
0
-1.39484e-09
0
0
0
-1.54615e-08
-1.29737e-08
-1.47496e-10
-9.36397e-08
-4.26151e-08
-9.79093e-09
-1.55605e-10
0
0
-9.12387e-10
-9.37092e-09
-8.46755e-09
0
0
-2.67437e-09
-5.81756e-09
-2.95487e-11
-1.21856e-09
0
0
0
-2.07385e-08
-2.33255e-08
0
0
0
)
;
    }
    bottom_fluid_surface
    {
        type            fixedFluxPressure;
        gradient        uniform 0;
        value           nonuniform List<scalar> 
64
(
-9800.21
-9800.2
-9800.2
-9800.2
-9800.2
-9800.2
-9800.2
-9800.2
-9800.2
-9800.21
-9800.21
-9800.2
-9800.21
-9800.2
-9800.2
-9800.21
-9800.21
-9800.21
-9800.2
-9800.21
-9800.2
-9800.19
-9800.2
-9800.2
-9800.21
-9800.21
-9800.21
-9800.21
-9800.21
-9800.21
-9800.21
-9800.21
-9800.21
-9800.21
-9800.21
-9800.21
-9800.21
-9800.21
-9800.21
-9800.2
-9800.21
-9800.2
-9800.2
-9800.2
-9800.19
-9800.2
-9800.2
-9800.21
-9800.21
-9800.21
-9800.21
-9800.21
-9800.21
-9800.21
-9800.21
-9800.21
-9800.22
-9800.21
-9800.21
-9800.21
-9800.21
-9800.22
-9800.22
-9800.21
)
;
    }
    lateral_surface_1
    {
        type            fixedFluxPressure;
        gradient        uniform 0;
        value           nonuniform List<scalar> 
40
(
0.00160517
0.00137958
0.000321192
0.00575814
0.00153546
0.00269138
-0.00630559
-0.0104001
-9799.9
-9799.97
-9799.91
-9800.04
-9800
-9800
-9799.86
-9799.9
-9800.21
-9800.22
-9800.22
-9800.2
-9800.21
-9800.2
-9800.21
-9800.2
-9800.21
-9800.21
-9800.21
-9800.2
-9800.21
-9800.2
-9800.2
-9800.21
-9800.21
-9800.21
-9800.21
-9800.2
-9800.21
-9800.2
-9800.2
-9800.21
)
;
    }
    lateral_surface_2
    {
        type            fixedFluxPressure;
        gradient        uniform 0;
        value           nonuniform List<scalar> 
40
(
0.000539543
0.00210173
-0.00153673
-0.00676369
-0.00642517
0.00556355
0.00256092
-0.00236789
-9799.99
-9799.97
-9799.93
-9799.88
-9799.9
-9799.96
-9799.92
-9799.86
-9800.23
-9800.23
-9800.21
-9800.21
-9800.2
-9800.22
-9800.23
-9800.23
-9800.21
-9800.22
-9800.21
-9800.21
-9800.21
-9800.22
-9800.22
-9800.22
-9800.21
-9800.21
-9800.21
-9800.21
-9800.21
-9800.21
-9800.21
-9800.22
)
;
    }
    lateral_surface_3
    {
        type            fixedFluxPressure;
        gradient        uniform 0;
        value           nonuniform List<scalar> 
40
(
-0.00630559
-0.00696825
-0.000827667
-0.019776
-0.0109268
-0.00594802
-0.000108575
0.000539543
-9799.86
-9799.92
-9800.01
-9799.84
-9799.89
-9799.94
-9799.89
-9799.99
-9800.21
-9800.2
-9800.17
-9800.2
-9800.2
-9800.21
-9800.22
-9800.23
-9800.2
-9800.2
-9800.19
-9800.2
-9800.2
-9800.21
-9800.21
-9800.21
-9800.2
-9800.2
-9800.19
-9800.2
-9800.2
-9800.21
-9800.21
-9800.21
)
;
    }
    lateral_surface_4
    {
        type            fixedFluxPressure;
        gradient        uniform 0;
        value           nonuniform List<scalar> 
40
(
-0.00236789
-0.00496287
-0.00127227
-0.00120766
0.00438465
0.00439496
0.000699835
-0.0104001
-9799.86
-9799.94
-9800.03
-9799.92
-9800.02
-9799.98
-9799.96
-9799.9
-9800.23
-9800.2
-9800.2
-9800.21
-9800.22
-9800.23
-9800.23
-9800.2
-9800.22
-9800.21
-9800.2
-9800.21
-9800.21
-9800.22
-9800.22
-9800.21
-9800.22
-9800.21
-9800.21
-9800.21
-9800.21
-9800.22
-9800.22
-9800.21
)
;
    }
}


// ************************************************************************* //
