/*--------------------------------*- C++ -*----------------------------------*\
| =========                 |                                                 |
| \\      /  F ield         | OpenFOAM: The Open Source CFD Toolbox           |
|  \\    /   O peration     | Version:  v1612+                                |
|   \\  /    A nd           | Web:      www.OpenFOAM.com                      |
|    \\/     M anipulation  |                                                 |
\*---------------------------------------------------------------------------*/
FoamFile
{
    version     2.0;
    format      ascii;
    class       surfaceScalarField;
    location    "5";
    object      phi;
}
// * * * * * * * * * * * * * * * * * * * * * * * * * * * * * * * * * * * * * //

dimensions      [0 3 -1 0 0 0 0];

internalField   nonuniform List<scalar> 
816
(
-4.31736e-06
-6.67361e-06
2.69074e-06
-3.65767e-06
-8.51571e-06
2.04755e-05
3.37287e-06
3.67972e-06
-1.10039e-06
7.97053e-06
-1.82391e-05
-5.80159e-06
4.10515e-06
4.82615e-06
6.71961e-06
-1.65243e-05
-2.79017e-06
7.1636e-06
6.18729e-06
-1.29795e-05
9.16265e-05
0.000136178
4.87011e-07
9.11809e-05
4.35847e-05
8.39955e-05
1.08023e-05
9.57958e-05
2.86565e-05
-0.000100052
1.05215e-05
6.98685e-05
0.000150958
9.20568e-05
1.07638e-06
-0.000262203
0.000216713
0.00018326
-4.39995e-06
-4.21777e-05
0.000119467
0.000225998
-2.05911e-06
-6.61021e-05
0.000280546
0.000190897
-4.05524e-06
0.000127273
0.000111253
0.000295472
-4.21018e-06
2.79254e-05
-0.000169528
-2.07127e-05
-3.92929e-08
0.000306173
0.000207125
0.000185241
-5.94522e-07
0.000127352
6.24216e-06
-1.52486e-05
-1.92368e-06
0.000234065
-0.000390615
-2.7334e-06
-5.99842e-07
0.000170475
5.97729e-06
3.59242e-06
-2.08959e-05
-3.80943e-06
1.3682e-05
1.47193e-05
-1.77107e-05
2.40701e-06
1.70029e-05
2.35527e-06
-2.90984e-06
7.33731e-06
2.0128e-05
-3.38969e-07
1.01286e-05
-6.93171e-06
2.38718e-06
-3.04044e-06
3.44406e-06
-5.25683e-06
-4.02005e-07
6.67008e-06
-1.93467e-05
6.61841e-07
6.72788e-06
4.40974e-06
-1.37773e-05
-1.93306e-06
1.47996e-05
-4.5536e-07
7.35495e-06
-8.64202e-06
-1.0055e-07
3.22568e-06
-2.78504e-05
1.09617e-05
1.58368e-05
1.50848e-05
-2.05906e-05
9.57846e-07
9.02411e-06
1.44157e-06
1.11171e-05
6.17635e-07
-1.78144e-06
-6.30491e-06
5.24243e-06
1.61635e-06
-3.91192e-06
-1.9345e-06
-1.09826e-05
-1.37762e-06
-7.3415e-06
-8.58566e-06
-2.02792e-06
-1.33075e-06
-1.22443e-06
4.8997e-07
-8.16297e-06
1.98004e-06
3.66788e-06
2.05876e-06
1.87004e-06
2.04578e-06
-1.27894e-06
-1.97724e-08
-9.00664e-06
-3.85525e-06
-4.59204e-06
-6.31979e-07
-6.47406e-06
4.7346e-07
-1.09512e-07
2.6929e-06
8.23972e-06
-3.78795e-06
-1.347e-05
-2.39544e-06
-8.3137e-06
-9.11511e-06
-1.02226e-05
-2.10189e-07
-4.53334e-06
5.03293e-06
-2.15533e-06
-2.77674e-06
-7.47463e-06
-2.51643e-06
-1.9173e-06
-3.42738e-06
1.56428e-06
-2.43852e-06
-2.29713e-06
1.50531e-06
2.3668e-06
-4.7144e-07
2.67119e-06
-3.51745e-06
2.66489e-06
2.6034e-06
1.54083e-06
-1.79625e-06
3.6939e-06
2.26895e-06
-1.69495e-06
-2.57768e-06
-1.69607e-06
-3.44217e-06
-4.62012e-06
-1.80039e-06
-1.46927e-06
-6.90391e-07
-3.30288e-07
-4.61557e-06
-1.94851e-07
1.0344e-06
1.27071e-06
2.06661e-07
1.08395e-06
-2.17666e-07
4.29853e-07
2.12175e-07
-2.48929e-06
-2.85457e-06
-2.77144e-06
-2.07491e-07
-8.92391e-08
-2.27315e-06
-2.77281e-08
4.9829e-06
1.86331e-07
-2.043e-06
-2.18967e-06
-5.10157e-06
-4.16131e-06
-5.95099e-06
-7.11666e-07
-2.99752e-06
-3.24214e-06
-1.4971e-06
1.37734e-06
-5.1509e-06
-2.64193e-06
-7.93135e-07
-0.000247972
9.40989e-05
-3.57797e-06
-1.6004e-05
-6.67727e-05
1.08933e-05
1.11154e-05
-0.000119131
1.41803e-05
9.23688e-05
-8.54172e-05
-5.23695e-06
5.84264e-05
-4.93909e-05
-4.65645e-06
-6.33426e-05
-0.000355666
-0.000161289
1.82625e-06
-0.000201147
-4.40682e-05
4.60396e-07
-0.000427067
-0.000113098
1.15549e-06
-0.00035242
6.31944e-05
-7.20936e-07
-0.00012747
0.000155323
8.25613e-06
-0.000216197
8.80746e-06
0.00014647
1.09088e-05
-3.97052e-07
-6.55811e-05
-1.55982e-06
-0.000219839
0.000171367
-9.89421e-06
-4.32922e-05
-1.77405e-05
-4.76746e-06
-2.05347e-05
-1.66728e-05
3.36047e-06
-6.85593e-05
-0.000213293
-7.75283e-05
-3.0939e-06
6.57666e-05
-0.00014007
-2.60002e-06
-3.75499e-05
-6.9581e-05
1.38338e-05
7.50213e-05
-8.73321e-05
6.37738e-06
3.32745e-05
7.99891e-06
-0.000237025
-2.98525e-05
-1.06128e-05
-4.3996e-06
1.59074e-05
1.90152e-06
3.23267e-06
-4.42899e-06
-4.34572e-06
1.04051e-05
-1.05995e-05
1.47097e-05
6.04048e-07
-3.74469e-06
9.28758e-06
7.22301e-06
1.90804e-05
-1.1901e-05
-1.92434e-05
-1.29426e-06
2.81746e-05
-1.72167e-06
-6.41305e-06
1.83431e-05
-2.13093e-05
-2.29414e-05
4.43803e-05
-3.11531e-05
-1.82745e-05
4.0839e-06
-5.76753e-06
8.31462e-06
-1.76101e-05
2.30573e-06
-1.46193e-05
5.53823e-06
1.56552e-05
-8.8275e-08
-9.48226e-06
2.43467e-05
-1.41253e-05
2.1829e-06
-3.22439e-05
-3.63251e-06
-5.23994e-07
1.36643e-05
-6.80642e-06
1.14947e-05
5.24176e-06
-1.01414e-05
-7.64842e-06
3.67653e-07
1.15389e-05
8.91872e-06
-1.19997e-05
2.2463e-05
-1.38903e-05
-9.21318e-06
1.63504e-05
-6.7734e-06
-3.59451e-06
1.68825e-06
-3.84528e-06
1.8429e-05
-4.76323e-06
-1.31661e-05
4.69756e-06
2.06321e-06
9.09223e-06
-7.42355e-06
1.4895e-06
-2.37964e-06
-2.08532e-07
-6.81309e-07
-4.31797e-06
-6.07619e-06
4.79033e-07
-1.94398e-06
-2.50951e-06
-6.72773e-06
9.28648e-06
8.75422e-06
8.25167e-06
-1.13642e-06
1.28443e-05
1.57532e-06
1.79538e-06
8.141e-06
9.30677e-06
1.15865e-05
1.99993e-05
1.33144e-05
8.83132e-06
1.9701e-06
1.05145e-06
-1.78847e-06
-7.46425e-06
-4.62886e-06
5.10377e-06
2.83778e-06
7.33081e-06
-9.17185e-07
9.32607e-06
1.1522e-05
6.82146e-06
-7.87353e-07
-1.49127e-05
1.03185e-06
-2.07715e-06
6.20322e-06
6.36416e-06
-7.47807e-06
2.38614e-06
7.2023e-06
1.05429e-06
-3.82113e-06
4.89084e-06
-5.31603e-06
1.81195e-06
9.79859e-06
6.81354e-06
3.46807e-06
8.27346e-06
4.29017e-06
1.40819e-06
1.53132e-06
-3.03155e-07
8.47962e-06
4.10223e-06
9.36444e-06
3.68242e-06
1.11363e-06
3.37487e-06
-4.18829e-06
1.53789e-06
-8.44349e-07
-1.04926e-06
-3.83808e-07
2.11851e-07
-4.37988e-06
4.56489e-07
-8.49375e-07
-2.27905e-06
-3.40204e-06
2.56659e-06
5.10341e-06
5.46798e-06
-5.82413e-07
4.44945e-06
9.3992e-07
7.15958e-07
2.9532e-06
5.15379e-06
6.14592e-06
6.19442e-06
8.1456e-06
4.7206e-06
3.86061e-07
5.37044e-07
-8.4143e-07
-9.3418e-07
-3.3864e-06
2.43042e-06
1.80119e-06
2.33559e-06
-4.97146e-07
5.81189e-06
3.58355e-06
3.82698e-06
-7.67362e-07
-4.13771e-06
7.84911e-07
-1.24539e-06
1.47468e-06
3.01004e-06
-3.93022e-06
5.22418e-07
3.75302e-06
7.91758e-07
-2.63797e-06
2.01391e-06
-3.50499e-06
3.38311e-08
2.88741e-06
3.5272e-06
1.40335e-06
2.73433e-06
2.6832e-06
7.04004e-07
2.97164e-07
-6.95869e-07
2.20699e-06
2.62968e-06
5.4606e-06
-8.4571e-07
-9.88582e-07
5.48258e-07
-1.00436e-06
1.71554e-06
-1.68978e-07
2.84932e-07
-2.52103e-06
1.53742e-06
1.53987e-06
-1.357e-06
2.81382e-06
-1.68973e-06
-6.52688e-07
-5.4219e-07
-1.94047e-06
-1.37604e-06
-1.60171e-07
1.22615e-07
-2.0828e-06
1.06012e-07
2.10624e-07
3.26624e-07
-1.14843e-06
4.58704e-07
-1.53068e-06
-1.37113e-06
4.27119e-07
5.60971e-07
3.0312e-08
2.11569e-06
-2.12567e-06
2.13012e-07
-2.22227e-06
-3.63589e-06
4.49174e-08
-2.39404e-06
-8.53797e-07
-3.34917e-06
-4.8003e-07
1.61866e-06
6.85864e-07
-2.25936e-06
3.96676e-07
-1.17132e-07
8.61967e-07
-1.61691e-06
5.5966e-07
-4.37303e-07
-1.57495e-06
1.94215e-06
2.76807e-06
-7.77082e-08
8.57328e-07
7.20046e-07
2.36749e-06
3.13194e-06
2.63856e-06
1.85919e-06
1.524e-07
6.52073e-07
-1.30893e-06
1.59096e-06
1.69226e-06
-8.07539e-08
3.47879e-06
2.35682e-06
6.01366e-07
8.55439e-07
-7.58204e-10
2.29611e-06
-2.54707e-06
2.3116e-06
7.58748e-07
-1.73984e-06
-1.02426e-06
-5.09282e-07
1.7252e-06
4.48025e-07
9.5475e-07
8.83598e-08
2.01967e-07
8.56392e-07
2.14394e-06
0.000126336
-9.5594e-05
-0.000134894
-1.16728e-05
1.9815e-05
6.71809e-05
1.06043e-05
-6.54414e-05
-4.26551e-06
-9.96009e-05
-9.88232e-06
-0.00026927
-6.02198e-06
1.65135e-05
7.34348e-06
-6.51897e-05
3.61762e-06
-0.000204697
-1.04242e-05
9.96727e-05
1.63266e-05
0.000252006
1.29159e-05
0.000283563
1.94246e-05
0.00018727
-1.19466e-05
-7.41622e-06
3.61622e-05
-5.01437e-05
1.45965e-05
5.0357e-05
3.9542e-06
0.000113468
-4.71293e-06
0.000320807
-1.75958e-06
0.000107017
-1.0716e-05
-7.1366e-05
4.41609e-08
2.96655e-05
4.22329e-06
-2.86294e-05
1.92881e-05
3.50328e-05
5.20558e-06
7.11811e-05
-1.37501e-07
-5.60899e-05
4.92193e-06
-0.000192205
1.84828e-05
-0.000269279
2.47062e-06
-1.14372e-05
1.79225e-06
-4.62753e-06
-7.83224e-06
-1.42645e-07
2.98372e-05
1.8464e-05
-6.33554e-06
6.16768e-06
2.03561e-05
-1.4579e-05
1.47494e-05
-2.32555e-05
-1.42279e-05
1.21462e-05
-2.80877e-05
1.01651e-05
-1.75462e-05
-1.46552e-05
1.83421e-05
-1.02916e-05
-2.05034e-05
1.0812e-05
-4.02053e-05
1.63107e-05
-1.07382e-05
3.65712e-06
2.27489e-05
-8.55611e-06
2.0565e-05
2.7552e-06
-1.70772e-05
5.9651e-06
3.89702e-06
-1.43436e-06
-1.23053e-05
-2.33421e-07
-7.9127e-06
-4.1004e-06
-1.55823e-05
-9.48499e-06
-7.74175e-06
1.63496e-05
-2.84463e-05
8.35545e-06
1.1301e-05
-1.07742e-05
2.44893e-05
-2.45376e-06
-2.35344e-05
-2.71694e-06
-7.47446e-06
-3.28181e-06
9.24904e-06
1.99209e-06
-1.9638e-05
-1.17734e-05
-5.71844e-06
5.69456e-06
-3.75416e-06
2.1475e-06
1.4404e-05
-2.00516e-06
-2.35842e-06
2.26876e-06
1.00322e-05
7.63044e-06
6.8797e-06
8.3754e-06
-6.22031e-06
-6.7551e-06
-1.2958e-05
-6.83743e-06
-9.20063e-06
5.37015e-06
7.74862e-06
3.13164e-06
-8.96037e-06
-5.69991e-06
-1.80595e-05
-9.80003e-06
-5.59233e-06
-3.17672e-06
1.16219e-05
7.17595e-06
1.0199e-05
2.42448e-06
-7.28075e-06
3.88737e-06
1.52438e-06
4.36808e-06
-5.96299e-06
2.42623e-06
-4.93524e-06
5.13907e-07
-7.30029e-06
3.446e-06
-3.48217e-06
-1.28747e-05
-1.21145e-05
-4.30585e-06
3.85744e-06
4.21548e-06
1.06579e-05
-2.00646e-06
-1.05017e-05
-1.8517e-06
-3.34642e-06
2.26924e-06
4.81423e-06
2.45567e-07
-8.20256e-06
-5.82572e-06
-3.73195e-06
3.54901e-06
-9.64837e-07
1.36193e-06
5.07484e-06
-7.15902e-07
-1.32103e-06
1.75143e-06
3.19238e-06
5.15856e-06
1.19615e-06
5.38083e-06
-1.32459e-06
-3.5454e-06
-4.04621e-06
-4.05102e-06
-3.27169e-06
2.87898e-06
1.77366e-06
1.88097e-06
-2.78562e-06
-3.95847e-06
-4.06965e-06
-7.23204e-06
-1.87645e-06
-2.39121e-06
3.43338e-06
4.9666e-06
2.91654e-06
2.11411e-06
-2.00513e-06
2.69772e-06
4.4046e-07
2.68287e-06
-2.12498e-06
6.36311e-07
-2.10565e-06
-2.63205e-07
-3.37342e-06
1.55661e-06
-1.55578e-06
-6.54997e-06
-4.05668e-06
-2.46421e-06
5.992e-07
2.18761e-06
2.51653e-06
-1.66692e-06
-3.09362e-06
-1.92965e-06
-3.6973e-07
1.45061e-06
6.91156e-07
6.24114e-07
-1.98038e-06
-1.61276e-06
-1.78843e-06
1.68252e-06
1.04411e-06
-4.01725e-07
1.16896e-06
1.92863e-06
2.56769e-06
-1.45853e-06
-1.98034e-06
6.45807e-07
2.3832e-07
-1.16403e-06
-2.8914e-06
-7.85778e-07
2.1459e-06
1.73342e-06
2.09352e-06
2.31424e-06
1.0573e-06
3.01366e-09
7.95105e-07
-3.26328e-06
-1.91456e-06
-4.14973e-07
-1.75497e-06
-1.12069e-06
-2.14109e-07
-7.08312e-08
-0.000176212
0.000262538
-5.74905e-06
-2.82136e-05
-5.65131e-06
9.18428e-05
2.47047e-06
-4.32718e-06
6.82116e-06
1.30676e-05
-1.69214e-06
1.16465e-05
)
;

boundaryField
{
    top_fluid_surface
    {
        type            calculated;
        value           nonuniform List<scalar> 
64
(
-0.0003665
-0.000133536
-5.01718e-05
-0.000147882
-0.000153213
-0.000248819
-0.000191259
4.3281e-05
-0.000197382
-0.000335383
0.000364133
-3.86137e-05
0.000168109
-0.0001287
1.33327e-05
3.98235e-05
0.00039749
0.000447134
5.06715e-05
0.000389712
-9.93213e-05
7.82533e-05
0.000256346
0.000559918
-0.000129834
0.000534773
0.000267332
0.00022193
0.000247819
6.8823e-05
0.000112508
0.000284158
-1.70059e-05
3.04947e-05
-6.75481e-05
0.000269337
0.000115928
0.000119421
-0.000302117
-0.00029209
-6.90717e-06
-0.000800957
-0.000504132
-0.000224122
-1.63605e-05
7.44527e-05
4.19306e-05
-8.05466e-05
-0.000268663
-0.000254184
0.000227671
0.000105546
-0.000104834
-0.000188487
-2.13141e-06
-6.98271e-05
0.000179929
0.000155584
9.28081e-06
-0.000414345
-0.000419422
0.000116593
4.26429e-08
0.000316549
)
;
    }
    bottom_fluid_surface
    {
        type            calculated;
        value           uniform 0;
    }
    lateral_surface_1
    {
        type            calculated;
        value           uniform 0;
    }
    lateral_surface_2
    {
        type            calculated;
        value           uniform 0;
    }
    lateral_surface_3
    {
        type            calculated;
        value           uniform 0;
    }
    lateral_surface_4
    {
        type            calculated;
        value           uniform 0;
    }
}


// ************************************************************************* //
