/*--------------------------------*- C++ -*----------------------------------*\
| =========                 |                                                 |
| \\      /  F ield         | OpenFOAM: The Open Source CFD Toolbox           |
|  \\    /   O peration     | Version:  v1612+                                |
|   \\  /    A nd           | Web:      www.OpenFOAM.com                      |
|    \\/     M anipulation  |                                                 |
\*---------------------------------------------------------------------------*/
FoamFile
{
    version     2.0;
    format      ascii;
    class       volVectorField;
    location    "5";
    object      U;
}
// * * * * * * * * * * * * * * * * * * * * * * * * * * * * * * * * * * * * * //

dimensions      [0 1 -1 0 0 0 0];

internalField   nonuniform List<vector> 
320
(
(-3.69565e-06 -8.51685e-06 1.48054e-05)
(-3.42023e-06 -4.96815e-06 -1.10025e-05)
(-1.14326e-05 -3.15221e-06 -1.1707e-05)
(8.41845e-07 1.2316e-05 -7.25339e-06)
(8.4654e-05 -0.000125839 -0.000197822)
(5.63218e-05 -8.42812e-05 -8.85034e-05)
(0.000146818 -0.00017365 -4.07837e-05)
(-0.00031883 1.32024e-05 -7.06589e-05)
(-7.05829e-05 0.000151223 -6.93964e-05)
(-0.000123009 0.000261178 -0.000133527)
(-0.000262758 6.98607e-05 -9.8917e-05)
(-0.000176287 6.58829e-05 3.03917e-05)
(-0.000332489 0.000358038 -0.000115995)
(-0.000285698 -0.000307872 -0.000180094)
(-0.000498536 -4.18314e-05 0.000191765)
(-0.000325807 6.24684e-05 -1.97674e-05)
(1.75699e-06 5.31921e-06 2.79311e-05)
(8.48784e-06 1.28261e-05 2.17507e-05)
(2.2681e-05 -1.46496e-06 4.93031e-06)
(-6.24488e-06 6.28466e-06 -8.93422e-06)
(5.00285e-06 -7.50605e-06 -5.55972e-06)
(1.19563e-06 2.78414e-06 2.23548e-05)
(-1.53161e-05 -3.39911e-06 1.47206e-05)
(7.78471e-06 -1.08274e-05 -9.02073e-06)
(-7.41199e-06 1.4633e-05 3.46072e-05)
(-5.67018e-06 -2.17241e-05 2.58267e-05)
(-1.1168e-05 -4.08128e-06 -1.54914e-05)
(-7.86195e-06 -1.30507e-07 6.42112e-06)
(-1.29339e-06 1.90977e-06 1.70263e-05)
(-6.12455e-06 -2.85778e-06 1.63515e-05)
(-1.01656e-05 -1.40377e-06 1.82285e-06)
(5.3085e-07 -1.55033e-06 -8.61283e-06)
(-7.55926e-06 5.26382e-06 -2.48728e-06)
(-4.95456e-06 -2.01291e-06 1.47418e-05)
(4.9951e-06 5.00488e-07 1.10725e-05)
(-4.02029e-06 1.0686e-05 -5.21327e-06)
(4.37732e-06 -5.29389e-06 2.19756e-05)
(2.01924e-06 1.26402e-05 1.73401e-05)
(9.57748e-06 5.1687e-06 -7.90196e-06)
(5.64325e-06 4.52116e-06 5.18008e-06)
(-1.55543e-06 -4.94621e-06 3.45542e-06)
(-1.5878e-06 -3.42643e-06 -4.62908e-06)
(-6.5841e-06 -1.10017e-06 -2.32717e-06)
(1.12497e-07 6.76286e-06 -4.11796e-06)
(5.26153e-07 1.25581e-06 4.46011e-06)
(-3.64873e-06 -1.59631e-06 4.84414e-07)
(-6.23686e-06 -5.08923e-07 1.17413e-07)
(3.59663e-07 -1.18501e-06 1.90927e-07)
(-4.34448e-06 3.24638e-06 -8.48784e-07)
(-3.10176e-06 -1.34182e-06 4.11073e-06)
(2.75872e-06 -2.28464e-07 2.99864e-06)
(-2.48234e-06 6.23444e-06 -2.82635e-08)
(2.5879e-06 -3.65077e-06 5.68287e-06)
(1.56564e-06 7.68963e-06 3.52902e-06)
(5.65064e-06 3.68381e-06 -2.04805e-06)
(4.54992e-06 3.37766e-06 8.17169e-07)
(-0.000373245 -5.49629e-05 9.87471e-05)
(-8.7066e-05 -2.08855e-05 -7.93303e-05)
(-6.7173e-05 -9.71919e-05 -1.35621e-05)
(-0.00011013 -1.51929e-06 2.65323e-05)
(-0.000111622 0.000206889 0.000215993)
(0.000124815 -0.000293679 0.000241329)
(-0.00024886 -4.0821e-05 3.53954e-05)
(-4.3358e-05 -5.65362e-05 0.000221815)
(-5.09788e-05 -0.00013772 -4.69163e-05)
(-0.000101251 0.000245924 2.13369e-05)
(-0.000279095 0.000217542 0.000125286)
(6.09413e-05 0.000128495 0.000297907)
(1.573e-05 -7.27187e-07 -7.18203e-05)
(-0.000272448 0.000203157 0.000282018)
(0.000297876 -3.92973e-05 0.000133598)
(-0.000146171 5.24362e-05 0.000121572)
(7.65256e-07 0.000134624 0.000140301)
(4.30383e-05 0.000163872 3.05656e-05)
(1.67238e-05 -5.0176e-07 5.09422e-05)
(0.000139407 0.000172749 0.000143467)
(-1.26555e-05 -7.87948e-06 -2.20041e-05)
(-4.54616e-06 4.03209e-06 8.09542e-06)
(9.69246e-06 -1.61626e-05 1.22325e-05)
(9.0962e-06 -1.09533e-05 3.31561e-06)
(-8.0953e-06 1.68268e-05 -2.50784e-05)
(1.32227e-05 -2.51582e-06 -3.91419e-05)
(-1.04534e-05 4.35738e-07 -2.11561e-05)
(-1.73549e-05 -1.4911e-05 -5.626e-05)
(-2.70978e-07 -2.70163e-05 -4.05719e-06)
(-6.2398e-07 -1.34475e-05 1.91845e-05)
(-1.8614e-05 8.57871e-06 -1.60577e-05)
(9.87057e-06 -2.14956e-06 -3.26086e-05)
(5.9197e-06 -7.18989e-06 3.36449e-05)
(-8.67814e-06 4.56278e-06 -1.9553e-05)
(9.68934e-06 -1.47862e-05 -6.49612e-06)
(-2.07998e-05 -7.82027e-06 -1.5093e-05)
(4.57752e-06 6.96481e-06 -2.7655e-05)
(1.02915e-05 1.63249e-05 -1.97304e-05)
(5.41736e-06 3.83225e-06 -1.87258e-06)
(1.9015e-05 2.33756e-06 -1.87737e-05)
(6.08915e-06 1.08293e-05 -1.29727e-05)
(3.683e-06 1.70782e-06 2.06066e-06)
(-1.06727e-07 7.59877e-06 9.80387e-06)
(-1.71781e-06 7.61755e-07 2.88121e-06)
(3.11324e-06 -1.13826e-05 -1.46601e-05)
(-4.53816e-06 -6.08058e-07 -1.7945e-05)
(4.37012e-06 -2.36088e-06 -1.28069e-05)
(5.83966e-06 6.83219e-06 -3.07536e-05)
(-2.28648e-06 1.4133e-05 -3.64157e-06)
(-2.98085e-06 4.75214e-06 1.42216e-05)
(6.07328e-06 -6.19488e-06 -1.30455e-05)
(-1.1857e-05 7.94296e-07 -1.84112e-05)
(-5.63624e-06 4.53415e-06 2.6659e-05)
(6.96318e-06 1.02841e-06 -1.02361e-05)
(-2.23999e-06 8.58869e-06 -4.49808e-06)
(1.13287e-05 5.74222e-06 -7.21637e-06)
(-1.7568e-06 2.04752e-06 -1.67628e-05)
(-4.1553e-06 -4.8936e-06 -1.34506e-05)
(-2.50642e-07 -1.57915e-06 -2.81681e-06)
(-1.11501e-05 -1.87175e-06 -1.60083e-05)
(3.86544e-06 6.56472e-06 -4.46734e-06)
(3.41855e-06 2.51793e-06 1.87981e-06)
(1.76918e-07 5.51956e-06 -1.41815e-06)
(-1.29942e-06 1.5136e-06 1.63667e-06)
(2.61414e-06 -6.2201e-06 -3.94631e-06)
(-2.38475e-06 6.27655e-08 -7.48804e-06)
(2.61757e-06 -1.53397e-06 -4.6816e-06)
(4.13529e-06 3.30146e-06 -9.73355e-06)
(-1.60706e-06 7.80449e-06 -4.26424e-07)
(-2.26107e-06 2.39484e-06 8.11643e-07)
(3.68849e-06 -3.7175e-06 -2.96619e-06)
(-7.46386e-06 2.09395e-07 -4.84713e-06)
(-3.16165e-06 2.92534e-06 5.40082e-06)
(4.35985e-06 -2.60137e-07 -1.59896e-06)
(-1.528e-06 4.48077e-06 -3.5335e-07)
(7.03592e-06 3.44024e-06 -2.82878e-06)
(-3.6651e-07 1.9626e-06 -3.75555e-06)
(-2.15713e-06 -1.96201e-06 -3.25901e-06)
(6.7845e-07 -5.29445e-07 3.41358e-07)
(-6.49996e-06 -1.25244e-06 -2.32277e-06)
(-1.28872e-06 -1.89847e-06 1.00033e-06)
(-1.22856e-08 -4.35849e-07 -1.06805e-06)
(-3.76112e-06 2.51482e-07 -1.00089e-06)
(-8.61014e-07 4.20767e-06 -7.8373e-07)
(-8.65843e-07 5.66389e-07 2.13244e-06)
(-2.10449e-06 6.91137e-07 2.20982e-06)
(-2.2961e-06 1.91377e-07 4.08857e-07)
(3.37439e-07 -6.54992e-07 -5.15828e-07)
(-2.28269e-06 9.54776e-07 -1.57361e-07)
(-1.69519e-06 -4.71672e-07 1.52308e-06)
(6.91005e-07 8.22714e-07 1.2256e-06)
(-1.61302e-06 2.55582e-06 -4.01438e-07)
(1.57875e-06 -4.21e-07 2.18873e-06)
(6.27055e-07 4.53196e-06 2.04794e-06)
(2.90429e-06 2.45944e-06 -7.32718e-07)
(1.97447e-06 2.70172e-06 7.39891e-07)
(2.15169e-06 3.70896e-06 -1.77001e-06)
(7.21869e-07 7.12265e-07 9.41126e-08)
(3.62719e-07 2.3026e-06 1.02064e-06)
(8.62398e-07 -3.08159e-07 6.87931e-08)
(6.42389e-07 -2.90952e-06 -1.10416e-06)
(-1.37742e-06 1.66177e-07 -1.77323e-06)
(2.70051e-07 -4.22431e-07 -1.20667e-06)
(3.92767e-07 2.17503e-06 -3.06176e-06)
(-1.1286e-06 3.35324e-06 -2.96372e-07)
(-1.4875e-06 7.94867e-07 1.23922e-06)
(2.47852e-07 -1.90242e-06 -1.32901e-06)
(-3.88851e-06 5.40307e-07 -2.09441e-06)
(-2.5174e-06 1.41738e-06 2.42591e-06)
(1.12946e-06 9.21573e-07 -1.36849e-06)
(-1.11078e-06 2.85676e-06 -7.31169e-07)
(2.62879e-06 2.05342e-06 -1.44684e-06)
(-7.27636e-07 1.57702e-06 -2.02075e-06)
(-9.08052e-07 -5.51063e-07 -1.84048e-06)
(-8.41375e-07 -1.86223e-07 -8.00464e-07)
(-3.44638e-06 -7.75994e-08 -1.72422e-06)
(0.000296336 0.00021955 0.000121473)
(-0.000131785 7.12151e-05 1.98435e-05)
(0.000128578 -2.10573e-05 -5.28173e-05)
(3.81708e-05 -0.000144589 0.000152774)
(-0.000155587 -0.000125809 7.79238e-05)
(-7.63083e-05 -9.89269e-05 5.94021e-05)
(-0.00048016 -0.000160748 -0.000175849)
(-0.000543848 0.000198067 -0.000161082)
(-0.00048913 -0.000310535 1.71753e-05)
(-0.000559373 -0.000152756 -0.000432758)
(-0.000601206 0.000349478 -0.000291942)
(-0.000157227 0.000203986 -0.000139935)
(-0.000259595 0.000343905 1.76411e-05)
(-5.92837e-05 -2.5975e-05 1.27546e-05)
(7.64139e-05 -0.000227231 -5.37061e-06)
(-5.1527e-06 -0.00020306 -4.27174e-05)
(-4.48165e-05 -0.000498959 -0.000136901)
(-0.000250286 -9.80739e-05 -0.000130135)
(-0.000294739 -0.000234073 0.000116572)
(8.31656e-05 -7.49976e-05 4.96229e-05)
(3.05839e-05 -1.89627e-05 -7.31351e-05)
(8.58761e-05 -2.56792e-05 -0.000107866)
(4.37242e-05 6.14711e-05 7.63904e-06)
(9.44883e-05 -0.000118973 -4.93672e-05)
(-0.000210762 -2.55262e-05 8.13114e-05)
(-9.59021e-05 0.000156914 6.42089e-05)
(-5.22487e-05 0.000226426 -8.91392e-06)
(-4.1764e-05 0.000229781 -0.000203659)
(1.17102e-05 7.04813e-06 9.48613e-06)
(-9.55752e-06 2.91329e-06 -3.42782e-05)
(1.004e-05 3.95048e-06 1.24528e-05)
(2.34734e-05 -1.16739e-05 -2.76383e-05)
(-1.03086e-05 -9.8306e-06 -2.00744e-05)
(-2.09718e-05 7.73005e-06 1.28109e-05)
(-2.16588e-05 3.04731e-06 3.49624e-05)
(-2.63404e-05 2.32394e-05 2.27144e-05)
(-1.52457e-05 -3.82389e-06 -2.07103e-05)
(-2.76494e-05 -2.4291e-05 3.16948e-05)
(-3.99676e-05 2.67398e-06 5.37549e-05)
(-1.00657e-05 1.95127e-05 1.67362e-05)
(6.55649e-06 1.14181e-05 -2.77092e-05)
(1.47988e-05 -5.14932e-06 -2.31971e-05)
(2.56522e-06 -1.33888e-05 2.3675e-05)
(-1.01039e-05 -8.33846e-06 -3.13862e-06)
(4.52097e-07 -2.18996e-05 1.45031e-05)
(1.07241e-06 1.08005e-06 9.46485e-06)
(1.83526e-07 -1.70512e-05 1.62742e-05)
(6.9579e-06 -7.78189e-06 6.62209e-06)
(9.52387e-06 -1.432e-05 3.32005e-05)
(2.98629e-06 -2.31965e-05 -1.15258e-05)
(1.11577e-06 9.52094e-06 -2.79332e-05)
(2.0327e-05 9.36482e-06 2.91819e-05)
(3.51729e-06 -3.24106e-06 7.5395e-06)
(7.63114e-07 8.59618e-06 -9.60271e-06)
(8.27968e-06 -1.58596e-06 2.23632e-05)
(-3.16004e-06 -4.39226e-06 1.55949e-05)
(-1.30093e-05 -5.54292e-06 5.86558e-06)
(2.06455e-06 2.9215e-06 -2.34272e-05)
(1.93622e-06 -1.51876e-06 1.20261e-06)
(-5.17913e-06 4.66885e-06 -1.47904e-05)
(8.81513e-06 3.55357e-06 -1.17828e-05)
(7.8902e-06 -5.86433e-06 1.28162e-05)
(7.6623e-06 -1.22336e-06 2.13934e-05)
(1.23033e-05 -1.16653e-05 1.42818e-05)
(7.37998e-06 -1.46809e-07 -1.30007e-05)
(1.27646e-05 8.82731e-06 1.28329e-05)
(1.85672e-05 -1.3922e-06 3.12596e-05)
(4.54186e-06 -1.08344e-05 7.25572e-06)
(-6.39856e-06 -8.75627e-06 -1.91264e-05)
(-8.96489e-06 2.15422e-06 -1.8301e-05)
(-4.84706e-06 4.7192e-06 1.06312e-05)
(-9.96855e-07 4.02017e-06 -3.34217e-06)
(-5.7336e-06 1.17889e-05 9.36928e-06)
(-4.25447e-06 -2.10351e-06 7.35983e-06)
(3.22702e-07 1.0407e-05 1.08134e-05)
(-1.43281e-06 4.53691e-06 5.69138e-06)
(-5.3911e-06 9.60011e-06 1.91845e-05)
(-3.28179e-07 1.37903e-05 -8.3181e-06)
(-1.90596e-07 -4.81025e-06 -1.86923e-05)
(-1.08806e-05 -2.84298e-06 1.73381e-05)
(-5.08143e-06 6.67476e-06 6.25363e-06)
(6.87083e-07 -2.47528e-06 -9.82172e-06)
(-5.97724e-06 -1.93065e-06 1.43985e-05)
(6.28005e-07 1.06224e-06 9.9026e-06)
(-7.62629e-06 -3.44865e-06 1.77394e-06)
(7.79591e-07 1.32067e-06 -6.94111e-06)
(1.57122e-06 -3.62822e-07 2.9276e-06)
(-2.64449e-06 3.16801e-06 -5.07209e-06)
(5.50278e-06 2.45857e-06 -9.59382e-07)
(5.74345e-06 -3.63416e-06 9.24857e-07)
(4.47773e-06 -6.70856e-07 5.3304e-06)
(7.44104e-06 -6.61456e-06 4.18495e-06)
(4.08325e-06 -5.0551e-07 -3.16516e-06)
(6.87278e-06 5.33472e-06 3.98565e-06)
(1.09518e-05 -9.78323e-07 4.38115e-06)
(2.59307e-06 -7.73792e-06 2.83985e-06)
(-4.59064e-06 -5.98436e-06 -4.35078e-06)
(-5.78601e-06 8.78931e-07 -3.09398e-06)
(-3.87391e-06 2.07436e-06 3.24632e-06)
(-9.16289e-07 2.49174e-06 -3.36017e-07)
(-3.88408e-06 6.67908e-06 3.16782e-06)
(-2.01279e-06 -1.08794e-06 2.86228e-06)
(1.03246e-06 5.53023e-06 5.64323e-06)
(-5.98626e-07 2.2394e-06 2.72382e-06)
(-2.5881e-06 4.60083e-06 6.8973e-06)
(-2.26686e-07 7.3744e-06 -3.65808e-07)
(3.05488e-07 -2.48937e-06 -3.09397e-06)
(-6.15617e-06 -1.50328e-06 4.40578e-06)
(-3.16035e-06 4.72871e-06 5.90182e-07)
(5.34473e-07 -9.6523e-07 -1.43562e-07)
(-3.59619e-06 -1.74016e-06 2.92887e-06)
(4.67345e-08 1.9426e-07 1.90384e-06)
(-4.36079e-06 -1.43644e-06 2.50636e-07)
(1.1846e-06 8.0721e-07 -2.4376e-06)
(5.40511e-07 -4.69365e-07 5.75191e-08)
(-1.08407e-06 9.88567e-07 -1.12678e-06)
(2.91602e-06 9.77436e-07 -1.41499e-06)
(1.52065e-06 -1.06506e-06 1.47854e-06)
(3.16558e-06 9.91602e-08 2.72769e-06)
(4.3298e-06 -3.20623e-06 2.0497e-06)
(2.86887e-06 -1.80962e-07 -6.71088e-07)
(3.98266e-06 1.11517e-06 1.62018e-06)
(4.40646e-06 -4.43887e-07 3.44314e-06)
(1.36374e-06 -2.35191e-06 9.35809e-07)
(-1.2987e-06 -2.86767e-06 -2.06086e-06)
(-2.29878e-06 1.04963e-06 -2.14408e-06)
(-2.09385e-06 2.04973e-06 1.19997e-06)
(-1.44064e-06 1.65598e-06 -3.68617e-07)
(-2.62879e-06 3.7382e-06 8.49759e-07)
(-1.99428e-06 3.96272e-07 9.48543e-07)
(1.39368e-07 3.21508e-06 9.54534e-07)
(-1.70834e-07 1.38635e-06 9.76313e-08)
(-1.32124e-06 2.27513e-06 1.38492e-06)
(-4.32463e-07 3.72119e-06 -9.20112e-07)
(-4.56811e-07 -3.78722e-08 -2.21056e-06)
(-2.52374e-06 9.95135e-07 1.53558e-06)
(-1.0387e-06 2.3457e-06 1.74994e-07)
(3.73013e-07 1.63386e-07 -9.97246e-07)
(-6.89102e-07 1.89516e-07 1.17825e-06)
(6.40123e-07 -1.07225e-07 9.44419e-07)
(-0.000233884 0.000203222 -0.000215988)
(-0.00011526 0.000176508 7.65755e-05)
(0.000303031 0.000299664 5.74109e-06)
(-0.000135286 -0.000252803 0.000172936)
(8.41037e-06 1.85148e-05 2.40216e-05)
(2.90894e-06 1.81163e-05 -2.53504e-05)
(2.39565e-05 1.07196e-05 -1.89715e-05)
(-3.74126e-06 -2.23489e-05 -2.0601e-05)
)
;

boundaryField
{
    top_fluid_surface
    {
        type            pressureInletOutletVelocity;
        value           nonuniform List<vector> 
64
(
(0 0 -0.000197822)
(0 0 -8.85034e-05)
(0 0 -4.07837e-05)
(0 0 -7.06589e-05)
(0 0 -6.93964e-05)
(0 0 -0.000133527)
(0 0 -9.8917e-05)
(-0.000176287 6.58829e-05 3.03917e-05)
(0 0 -0.000115995)
(0 0 -0.000180094)
(-0.000498536 -4.18314e-05 0.000191765)
(0 0 -1.97674e-05)
(-0.000373245 -5.49629e-05 9.87471e-05)
(0 0 -7.93303e-05)
(-6.7173e-05 -9.71919e-05 -1.35621e-05)
(-0.00011013 -1.51929e-06 2.65323e-05)
(-0.000111622 0.000206889 0.000215993)
(0.000124815 -0.000293679 0.000241329)
(-0.00024886 -4.0821e-05 3.53954e-05)
(-4.3358e-05 -5.65362e-05 0.000221815)
(0 0 -4.69163e-05)
(-0.000101251 0.000245924 2.13369e-05)
(-0.000279095 0.000217542 0.000125286)
(6.09413e-05 0.000128495 0.000297907)
(0 0 -7.18203e-05)
(-0.000272448 0.000203157 0.000282018)
(0.000297876 -3.92973e-05 0.000133598)
(-0.000146171 5.24362e-05 0.000121572)
(7.65256e-07 0.000134624 0.000140301)
(4.30383e-05 0.000163872 3.05656e-05)
(1.67238e-05 -5.0176e-07 5.09422e-05)
(0.000139407 0.000172749 0.000143467)
(0 0 0.000121473)
(-0.000131785 7.12151e-05 1.98435e-05)
(0 0 -5.28173e-05)
(3.81708e-05 -0.000144589 0.000152774)
(-0.000155587 -0.000125809 7.79238e-05)
(-7.63083e-05 -9.89269e-05 5.94021e-05)
(0 0 -0.000175849)
(0 0 -0.000161082)
(0 0 1.71753e-05)
(0 0 -0.000432758)
(0 0 -0.000291942)
(0 0 -0.000139935)
(0 0 1.76411e-05)
(-5.92837e-05 -2.5975e-05 1.27546e-05)
(7.64139e-05 -0.000227231 -5.37061e-06)
(0 0 -4.27174e-05)
(0 0 -0.000136901)
(0 0 -0.000130135)
(-0.000294739 -0.000234073 0.000116572)
(8.31656e-05 -7.49976e-05 4.96229e-05)
(0 0 -7.31351e-05)
(0 0 -0.000107866)
(0 0 7.63904e-06)
(0 0 -4.93672e-05)
(-0.000210762 -2.55262e-05 8.13114e-05)
(-9.59021e-05 0.000156914 6.42089e-05)
(-5.22487e-05 0.000226426 -8.91392e-06)
(0 0 -0.000203659)
(0 0 -0.000215988)
(-0.00011526 0.000176508 7.65755e-05)
(0.000303031 0.000299664 5.74109e-06)
(-0.000135286 -0.000252803 0.000172936)
)
;
    }
    bottom_fluid_surface
    {
        type            noSlip;
    }
    lateral_surface_1
    {
        type            noSlip;
    }
    lateral_surface_2
    {
        type            noSlip;
    }
    lateral_surface_3
    {
        type            noSlip;
    }
    lateral_surface_4
    {
        type            noSlip;
    }
}


// ************************************************************************* //
