/*--------------------------------*- C++ -*----------------------------------*\
| =========                 |                                                 |
| \\      /  F ield         | OpenFOAM: The Open Source CFD Toolbox           |
|  \\    /   O peration     | Version:  v1612+                                |
|   \\  /    A nd           | Web:      www.OpenFOAM.com                      |
|    \\/     M anipulation  |                                                 |
\*---------------------------------------------------------------------------*/
FoamFile
{
    version     2.0;
    format      ascii;
    class       volScalarField;
    location    "6.25";
    object      p;
}
// * * * * * * * * * * * * * * * * * * * * * * * * * * * * * * * * * * * * * //

dimensions      [1 -1 -2 0 0 0 0];

internalField   nonuniform List<scalar> 
320
(
14724.8
14724.8
14724.8
14724.8
4.97879
4.97849
4.97804
4.97938
4.97957
4.97904
4.97911
4.97953
4.97983
4.97996
4.97984
4.97989
4914.89
4914.84
4914.82
4914.89
4914.84
4914.87
4914.86
4914.81
4914.9
4914.89
4914.85
4914.9
14724.8
14724.8
14724.8
14724.8
14724.8
14724.8
14724.8
14724.8
14724.8
14724.8
14724.8
14724.8
24534.8
24534.8
24534.8
24534.8
24534.8
24534.8
24534.8
24534.8
24534.8
24534.8
24534.8
24534.8
24534.8
24534.8
24534.8
24534.8
4.97938
4.97876
4.97817
4.97822
4.97633
4.97733
4.97871
4.97889
4.97874
4.97824
4.97801
4.97869
4.98135
4.97837
4.97852
4.98021
4.97985
4.98051
4.98034
4.98035
4914.89
4914.9
4914.85
4914.82
4914.82
4914.82
4914.83
4914.84
4914.88
4914.89
4914.87
4914.85
4914.89
4914.85
4914.87
4914.88
4914.86
4914.85
4914.86
4914.88
14724.8
14724.8
14724.8
14724.8
14724.8
14724.8
14724.8
14724.8
14724.8
14724.8
14724.8
14724.8
14724.8
14724.8
14724.8
14724.8
14724.8
14724.8
14724.8
14724.8
24534.8
24534.8
24534.8
24534.8
24534.8
24534.8
24534.8
24534.8
24534.8
24534.8
24534.8
24534.8
24534.8
24534.8
24534.8
24534.8
24534.8
24534.8
24534.8
24534.8
34344.8
34344.8
34344.8
34344.8
34344.8
34344.8
34344.8
34344.8
34344.8
34344.8
34344.8
34344.8
34344.8
34344.8
34344.8
34344.8
34344.8
34344.8
34344.8
34344.8
34344.8
34344.8
34344.8
34344.8
34344.8
34344.8
34344.8
34344.8
34344.8
34344.8
34344.8
34344.8
34344.8
34344.8
34344.8
34344.8
4.98064
4.97903
4.97822
4.9789
4.97633
4.97887
4.97529
4.97612
4.97804
4.9783
4.97909
4.9786
4.9795
4.97934
4.97916
4.97774
4.97792
4.97795
4.97856
4.97817
4.97838
4.97861
4.98059
4.97911
4.97895
4.98244
4.98061
4.98245
4914.91
4914.89
4914.87
4914.86
4914.89
4914.89
4914.85
4914.86
4914.9
4914.87
4914.86
4914.88
4914.91
4914.89
4914.89
4914.9
4914.91
4914.88
4914.83
4914.87
4914.9
4914.91
4914.93
4914.89
4914.84
4914.89
4914.88
4914.89
14724.8
14724.8
14724.8
14724.8
14724.8
14724.8
14724.8
14724.8
14724.8
14724.8
14724.8
14724.8
14724.8
14724.8
14724.8
14724.8
14724.8
14724.8
14724.8
14724.8
14724.8
14724.8
14724.8
14724.8
14724.8
14724.8
14724.8
14724.8
24534.8
24534.8
24534.8
24534.8
24534.8
24534.8
24534.8
24534.8
24534.8
24534.8
24534.8
24534.8
24534.8
24534.8
24534.8
24534.8
24534.8
24534.8
24534.8
24534.8
24534.8
24534.8
24534.8
24534.8
24534.8
24534.8
24534.8
24534.8
34344.8
34344.8
34344.8
34344.8
34344.8
34344.8
34344.8
34344.8
34344.8
34344.8
34344.8
34344.8
34344.8
34344.8
34344.8
34344.8
34344.8
34344.8
34344.8
34344.8
34344.8
34344.8
34344.8
34344.8
34344.8
34344.8
34344.8
34344.8
4.97942
4.97974
4.97999
4.97908
4914.86
4914.84
4914.85
4914.82
)
;

boundaryField
{
    top_fluid_surface
    {
        type            calculated;
        value           nonuniform List<scalar> 
64
(
-6.71005e-09
0
0
-1.1443e-12
0
-5.06951e-09
-1.34402e-09
0
-3.07694e-08
-2.43857e-09
0
-1.72075e-08
-2.95275e-09
-3.2545e-08
0
0
0
0
0
0
-2.7722e-09
-2.0369e-09
0
0
-2.88412e-10
0
0
0
0
0
-1.18368e-11
0
-1.66021e-08
-5.31853e-09
-1.16088e-10
0
-5.20674e-10
-2.15531e-12
-1.38072e-08
-1.94694e-09
-1.73492e-11
-1.08426e-08
-2.96787e-09
-1.4579e-09
-3.20134e-08
-8.41103e-10
-3.65894e-09
-2.69662e-09
-4.24912e-08
-1.27025e-09
0
-1.48986e-08
-5.30901e-08
-4.61047e-09
-1.10662e-10
-4.35768e-10
0
-1.24174e-08
-5.3259e-09
-2.57873e-08
-2.45012e-09
0
0
0
)
;
    }
    bottom_fluid_surface
    {
        type            calculated;
        value           nonuniform List<scalar> 
64
(
39249.8
39249.8
39249.8
39249.8
39249.8
39249.8
39249.8
39249.8
39249.8
39249.8
39249.8
39249.8
39249.8
39249.8
39249.8
39249.8
39249.8
39249.8
39249.8
39249.8
39249.8
39249.8
39249.8
39249.8
39249.8
39249.8
39249.8
39249.8
39249.8
39249.8
39249.8
39249.8
39249.8
39249.8
39249.8
39249.8
39249.8
39249.8
39249.8
39249.8
39249.8
39249.8
39249.8
39249.8
39249.8
39249.8
39249.8
39249.8
39249.8
39249.8
39249.8
39249.8
39249.8
39249.8
39249.8
39249.8
39249.8
39249.8
39249.8
39249.8
39249.8
39249.8
39249.8
39249.8
)
;
    }
    lateral_surface_1
    {
        type            calculated;
        value           nonuniform List<scalar> 
40
(
4.98064
4.97903
4.97822
4.9789
4.97633
4.97887
4.97529
4.98245
4914.91
4914.89
4914.87
4914.86
4914.89
4914.89
4914.85
4914.89
14724.8
14724.8
14724.8
14724.8
14724.8
14724.8
14724.8
14724.8
24534.8
24534.8
24534.8
24534.8
24534.8
24534.8
24534.8
24534.8
34344.8
34344.8
34344.8
34344.8
34344.8
34344.8
34344.8
34344.8
)
;
    }
    lateral_surface_2
    {
        type            calculated;
        value           nonuniform List<scalar> 
40
(
4.97934
4.97916
4.97774
4.97792
4.97795
4.97856
4.97817
4.97838
4914.89
4914.89
4914.9
4914.91
4914.88
4914.83
4914.87
4914.9
14724.8
14724.8
14724.8
14724.8
14724.8
14724.8
14724.8
14724.8
24534.8
24534.8
24534.8
24534.8
24534.8
24534.8
24534.8
24534.8
34344.8
34344.8
34344.8
34344.8
34344.8
34344.8
34344.8
34344.8
)
;
    }
    lateral_surface_3
    {
        type            calculated;
        value           nonuniform List<scalar> 
40
(
4.97529
4.97612
4.97804
4.9783
4.97909
4.9786
4.9795
4.97934
4914.85
4914.86
4914.9
4914.87
4914.86
4914.88
4914.91
4914.89
14724.8
14724.8
14724.8
14724.8
14724.8
14724.8
14724.8
14724.8
24534.8
24534.8
24534.8
24534.8
24534.8
24534.8
24534.8
24534.8
34344.8
34344.8
34344.8
34344.8
34344.8
34344.8
34344.8
34344.8
)
;
    }
    lateral_surface_4
    {
        type            calculated;
        value           nonuniform List<scalar> 
40
(
4.97838
4.97861
4.98059
4.97911
4.97895
4.98244
4.98061
4.98245
4914.9
4914.91
4914.93
4914.89
4914.84
4914.89
4914.88
4914.89
14724.8
14724.8
14724.8
14724.8
14724.8
14724.8
14724.8
14724.8
24534.8
24534.8
24534.8
24534.8
24534.8
24534.8
24534.8
24534.8
34344.8
34344.8
34344.8
34344.8
34344.8
34344.8
34344.8
34344.8
)
;
    }
}


// ************************************************************************* //
