/*--------------------------------*- C++ -*----------------------------------*\
| =========                 |                                                 |
| \\      /  F ield         | OpenFOAM: The Open Source CFD Toolbox           |
|  \\    /   O peration     | Version:  v1612+                                |
|   \\  /    A nd           | Web:      www.OpenFOAM.com                      |
|    \\/     M anipulation  |                                                 |
\*---------------------------------------------------------------------------*/
FoamFile
{
    version     2.0;
    format      ascii;
    class       volScalarField;
    location    "4.1";
    object      alpha.water;
}
// * * * * * * * * * * * * * * * * * * * * * * * * * * * * * * * * * * * * * //

dimensions      [0 0 0 0 0 0 0];

internalField   nonuniform List<scalar> 
320
(
1
1
1
1
1.13726e-05
8.99937e-06
8.83784e-06
1.02376e-05
1.08274e-05
1.09679e-05
1.07525e-05
9.42805e-06
1.03073e-05
1.07065e-05
8.92279e-06
1.19094e-05
0.999988
0.999988
0.999987
0.99999
0.99999
0.999985
0.999984
0.999991
0.999986
0.999986
0.999995
0.999986
1
1
1
1
1
1
1
1
1
1
1
1
1
1
1
1
1
1
1
1
1
1
1
1
1
1
1
1
1.08902e-05
1.11046e-05
9.98941e-06
1.11993e-05
9.96147e-06
7.38159e-06
9.46856e-06
7.34203e-06
1.15056e-05
1.0587e-05
1.00003e-05
8.78594e-06
1.08821e-05
9.16965e-06
9.40821e-06
8.80492e-06
8.92602e-06
1.05026e-05
1.18044e-05
1.01626e-05
0.999993
0.999989
0.999988
0.999987
0.999994
0.999996
0.999993
0.999996
0.999987
0.999991
0.999994
0.999996
0.999988
0.999994
0.999991
0.999994
0.999995
0.99999
0.999988
0.999995
1
1
1
1
1
1
1
1
1
1
1
1
1
1
1
1
1
1
1
1
1
1
1
1
1
1
1
1
1
1
1
1
1
1
1
1
1
1
1
1
1
1
1
1
1
1
1
1
1
1
1
1
1
1
1
1
1
1
1
1
1
1
1
1
1
1
1
1
1
1
1
1
1
1
1
1
1.11339e-05
8.1181e-06
1.0083e-05
1.02054e-05
1.21026e-05
1.13525e-05
9.93799e-06
1.15277e-05
9.95298e-06
1.02553e-05
9.81034e-06
1.15889e-05
1.21154e-05
1.04508e-05
1.215e-05
9.95056e-06
9.80454e-06
1.0605e-05
1.14998e-05
1.06536e-05
1.31062e-05
9.33637e-06
8.76019e-06
9.90258e-06
9.95829e-06
9.54384e-06
1.03555e-05
1.19221e-05
0.999988
0.999995
0.999987
0.999997
0.999993
0.999991
0.999984
0.999987
0.999993
0.999979
0.999983
0.999989
0.999994
0.999994
0.999989
0.999986
0.999986
0.999987
0.999988
0.99999
0.999986
0.99999
0.999991
0.999984
0.999991
0.99999
0.999988
0.999991
1
1
1
1
1
1
1
1
1
1
1
1
1
1
1
1
1
1
1
1
1
1
1
1
1
1
1
1
1
1
1
1
1
1
1
1
1
1
1
1
1
1
1
1
1
1
1
1
1
1
1
1
1
1
1
1
1
1
1
1
1
1
1
1
1
1
1
1
1
1
1
1
1
1
1
1
1
1
1
1
1
1
1
1
1.05682e-05
8.86417e-06
9.22351e-06
9.03874e-06
0.999987
0.999993
0.999987
0.999994
)
;

boundaryField
{
    top_fluid_surface
    {
        type            inletOutlet;
        inletValue      uniform 0;
        value           nonuniform List<scalar> 
64
(
0
8.99937e-06
8.83784e-06
1.02376e-05
0
0
0
9.42805e-06
0
0
8.92279e-06
0
1.08902e-05
0
0
0
9.96147e-06
7.38159e-06
9.46856e-06
7.34203e-06
0
0
1.00003e-05
8.78594e-06
0
9.16965e-06
9.40821e-06
8.80492e-06
8.92602e-06
1.05026e-05
0
1.01626e-05
0
8.1181e-06
1.0083e-05
1.02054e-05
0
0
0
0
9.95298e-06
1.02553e-05
9.81034e-06
0
0
1.04508e-05
0
0
0
0
0
0
0
9.33637e-06
8.76019e-06
0
9.95829e-06
9.54384e-06
0
0
0
8.86417e-06
9.22351e-06
9.03874e-06
)
;
    }
    bottom_fluid_surface
    {
        type            zeroGradient;
    }
    lateral_surface_1
    {
        type            zeroGradient;
    }
    lateral_surface_2
    {
        type            zeroGradient;
    }
    lateral_surface_3
    {
        type            zeroGradient;
    }
    lateral_surface_4
    {
        type            zeroGradient;
    }
}


// ************************************************************************* //
