/*--------------------------------*- C++ -*----------------------------------*\
| =========                 |                                                 |
| \\      /  F ield         | OpenFOAM: The Open Source CFD Toolbox           |
|  \\    /   O peration     | Version:  v1612+                                |
|   \\  /    A nd           | Web:      www.OpenFOAM.com                      |
|    \\/     M anipulation  |                                                 |
\*---------------------------------------------------------------------------*/
FoamFile
{
    version     2.0;
    format      ascii;
    class       surfaceScalarField;
    location    "7.3";
    object      phi;
}
// * * * * * * * * * * * * * * * * * * * * * * * * * * * * * * * * * * * * * //

dimensions      [0 3 -1 0 0 0 0];

internalField   nonuniform List<scalar> 
816
(
-1.63495e-06
-1.18155e-05
7.09974e-06
-1.04767e-05
-1.40298e-05
3.08573e-05
4.73147e-06
6.65336e-06
-3.22986e-06
1.06104e-05
-2.03711e-05
-6.62227e-06
2.01754e-06
3.72243e-06
9.42416e-06
-2.03359e-05
-2.02237e-06
9.7372e-06
1.14937e-05
-2.10824e-05
0.000304925
-0.000152666
6.21852e-06
-6.7247e-05
0.000201054
0.000325281
9.85773e-06
0.000176853
-1.13256e-05
8.01511e-05
0.000199868
-0.0001498
0.000376912
7.95894e-05
8.47498e-06
0.000262296
-0.000266971
0.000292626
9.54461e-06
0.000420377
-0.00020202
-0.000212557
3.79378e-06
0.000259454
0.000291196
-8.28768e-05
1.01735e-05
0.000211893
-8.81058e-06
0.000237627
5.82931e-06
0.000154185
-7.46011e-05
7.49877e-05
4.54217e-06
0.000209096
0.000251802
-1.53072e-05
1.97863e-06
5.44176e-05
-1.4939e-06
-0.000271259
9.29162e-07
3.60687e-05
-0.000202987
-2.01512e-06
-9.9874e-05
-9.36446e-05
1.62457e-05
-9.57104e-07
-2.87947e-05
2.90245e-06
7.48878e-06
3.06358e-05
-1.90337e-05
1.73801e-05
6.44501e-06
-3.95504e-06
4.46706e-06
6.71351e-06
3.35027e-05
-5.24884e-06
2.04822e-05
9.67954e-07
-1.01635e-05
7.34219e-06
-4.11836e-06
8.12797e-06
-1.03979e-05
-2.31242e-06
-2.56436e-05
1.43838e-05
2.25663e-05
5.22354e-06
-2.27999e-05
9.56319e-06
1.50913e-05
1.4386e-05
3.54834e-06
-1.01579e-05
2.25086e-06
1.03308e-05
-3.79834e-05
1.52803e-05
3.16278e-05
2.51449e-05
-2.82536e-05
9.3459e-06
5.23448e-06
-3.50996e-06
4.18046e-05
4.07366e-06
-2.05953e-05
-2.09823e-05
3.32595e-06
3.40953e-06
-1.01522e-05
3.9755e-07
-1.38357e-05
1.90256e-06
-1.23987e-05
-8.04412e-06
-1.95408e-06
-1.34273e-06
2.67268e-06
3.08324e-06
-1.23552e-05
3.08449e-06
8.38937e-06
4.36578e-06
-1.46957e-06
-2.20679e-06
5.90123e-07
-3.23833e-06
-1.30121e-05
-1.05814e-06
-9.82128e-06
-4.71161e-06
-1.12119e-05
-4.54744e-07
-8.32101e-06
2.17429e-06
7.04462e-06
-3.87033e-06
-1.76494e-05
-8.33417e-06
-1.64499e-05
-1.11276e-05
-1.2849e-05
-4.38652e-06
4.59659e-06
1.85298e-05
-2.89778e-06
-1.00976e-05
-1.58379e-06
-4.36918e-06
-1.04125e-06
-6.87091e-06
4.2431e-06
-6.02294e-06
-4.31717e-06
2.27077e-06
4.55321e-06
-1.62197e-06
4.3519e-06
-3.19224e-06
1.36149e-06
1.84111e-06
2.58872e-06
-1.7741e-07
5.52902e-06
5.11224e-06
-4.94504e-06
-1.07226e-06
7.74455e-07
-4.38875e-06
-6.6562e-06
-1.05276e-06
-6.47494e-07
-9.38177e-07
2.06698e-06
-6.01574e-06
8.82715e-07
2.53584e-06
2.81593e-06
5.26228e-07
-4.82128e-07
1.13558e-06
-5.11533e-07
-2.67028e-06
-8.88933e-07
-5.99481e-06
-3.94435e-06
-3.62604e-06
-7.31669e-07
-3.99823e-06
-4.6685e-06
4.64458e-06
-4.67084e-08
-1.67775e-06
-5.6191e-06
-1.03526e-05
-4.68962e-06
-6.09977e-06
-3.21845e-06
-3.33432e-06
2.69938e-06
-2.09914e-06
5.83238e-06
-1.0801e-06
-3.91813e-06
-3.51304e-06
-4.96147e-05
5.3214e-05
5.08144e-07
-7.69677e-05
0.000310091
8.98597e-07
4.55454e-05
0.000125819
9.95217e-06
6.76413e-05
0.000260592
-0.000136875
-2.2306e-05
0.000137773
-1.27966e-06
-0.000317873
-0.000167686
6.39676e-05
-5.17279e-06
-0.000147083
-7.5529e-05
2.27103e-06
-0.000197153
-0.000257008
3.54134e-06
-0.000174079
-6.80199e-05
-8.51368e-06
3.86412e-05
8.29828e-05
-1.31786e-06
-0.000166489
-0.000161255
-0.000135098
-1.32569e-06
-0.000132262
-0.000320649
-4.22012e-07
-0.000228646
-4.01494e-05
2.17169e-07
-3.76326e-05
-3.13124e-05
8.30445e-06
-7.21643e-05
5.667e-05
2.11074e-06
-0.000318869
-0.000247351
-9.71581e-05
-2.11293e-06
-8.229e-05
-0.000359904
1.29582e-05
-0.000200536
-0.000248368
-5.26955e-06
-0.000134815
-8.80123e-05
-3.08651e-06
-0.000274256
6.52844e-06
-0.000147294
-0.000198233
-1.05147e-05
-1.32894e-06
1.21967e-05
5.80907e-06
1.12691e-05
-2.38522e-05
2.37502e-06
1.21502e-05
-9.64846e-06
2.17064e-05
5.63941e-06
-7.23773e-06
1.00754e-05
1.15762e-05
4.23443e-05
-2.59914e-05
-3.05966e-05
-4.63395e-06
5.63433e-05
-7.77181e-06
-1.59986e-05
5.00832e-05
-3.39998e-05
-3.67195e-05
7.34572e-05
-4.19953e-05
-2.25747e-05
-9.05027e-06
-1.25976e-06
2.11794e-05
-1.74581e-05
-1.20218e-05
-1.45136e-05
-5.90847e-06
5.07132e-05
-2.27746e-06
-2.98559e-05
5.58641e-05
-2.50413e-05
5.55952e-06
-4.06157e-05
-4.46168e-06
5.24717e-06
4.23305e-05
-1.73311e-05
2.26505e-05
3.49171e-05
-3.55945e-05
-1.5253e-05
-6.4724e-07
4.65428e-05
7.61784e-06
-2.05207e-05
5.4722e-05
-1.76885e-05
-1.3618e-05
7.26502e-06
-1.69111e-05
-5.38593e-06
-5.14156e-07
-9.00715e-06
4.56005e-05
-1.99173e-05
-3.05456e-05
1.04189e-05
-2.50439e-06
5.79533e-06
-3.12366e-06
-1.93087e-06
-1.1553e-05
1.89818e-06
-3.40823e-06
-3.51025e-06
-6.56068e-06
-8.53052e-07
-4.05102e-06
-2.67487e-06
-1.21409e-05
1.96146e-05
1.78302e-05
1.62125e-05
-1.09566e-06
2.50015e-05
7.88696e-06
8.1039e-06
2.19269e-05
2.33584e-05
2.36377e-05
3.27363e-05
2.57325e-05
1.40552e-05
-4.37494e-06
3.83778e-06
-1.5034e-05
-7.49669e-06
9.14369e-06
9.93405e-06
-8.83189e-07
2.25709e-05
4.15958e-06
1.22197e-05
2.50991e-05
1.71998e-05
-5.1352e-06
-1.81619e-05
1.9369e-06
-1.58434e-06
1.92427e-05
1.11862e-05
-1.33823e-05
1.59331e-05
1.99813e-05
1.0799e-05
7.11641e-08
2.06815e-05
-4.07364e-06
1.24055e-05
2.46808e-05
1.33069e-05
7.77034e-06
4.04031e-06
4.97153e-06
1.60267e-06
6.85166e-07
7.42259e-07
2.09173e-05
1.01068e-05
1.37169e-05
6.63182e-06
-2.11169e-06
2.29578e-06
-2.09109e-06
-4.20004e-07
-3.98796e-06
2.44763e-07
-1.63475e-06
1.01466e-06
-4.41395e-06
1.07894e-07
-1.86688e-06
-1.92098e-06
-6.55883e-06
5.87666e-06
1.06997e-05
9.71286e-06
-1.01401e-06
9.0832e-06
4.34687e-06
4.27238e-06
7.09951e-06
1.23415e-05
1.28315e-05
1.06468e-05
1.45892e-05
7.55119e-06
-1.58951e-06
1.54114e-06
-8.94527e-06
-8.04963e-07
4.72536e-06
5.03388e-06
-7.19137e-07
6.34393e-06
1.99745e-06
6.4219e-06
8.3524e-06
8.87048e-06
-4.08817e-06
-4.0504e-06
1.03114e-06
-1.91415e-06
6.11347e-06
5.31267e-06
-7.20991e-06
4.72699e-06
1.09234e-05
5.55647e-06
1.24095e-07
6.92979e-06
-3.9754e-06
6.767e-06
7.98995e-06
6.79692e-06
3.89196e-06
2.33408e-06
2.45848e-06
8.36e-07
2.61767e-07
-3.97549e-07
5.56179e-06
5.92239e-06
8.17742e-06
3.49956e-07
-3.62819e-06
2.64128e-06
-3.65175e-06
2.04138e-06
1.24225e-06
1.43401e-06
-2.4025e-06
2.2598e-07
1.1628e-06
2.46776e-07
4.5027e-06
-3.56932e-06
3.46697e-07
1.45435e-06
-2.52914e-06
-4.47207e-07
-5.52126e-07
1.7367e-06
-2.83724e-06
-5.99877e-08
1.46231e-06
-5.27837e-07
1.7961e-07
-2.09454e-06
3.26842e-07
-2.72109e-06
-2.15906e-06
5.4822e-07
-3.52016e-06
1.54043e-06
-1.8287e-06
-1.31993e-06
-5.07414e-06
-2.89212e-06
-1.12769e-06
1.21977e-06
-1.94199e-06
-8.39286e-07
-1.09837e-06
3.07425e-06
-9.09619e-07
-6.92085e-07
-4.41571e-07
9.8509e-07
1.03494e-06
-9.13783e-07
6.98888e-07
2.09011e-07
-3.24394e-06
4.41091e-06
5.41872e-06
-3.48057e-08
3.03889e-06
2.40708e-06
6.08458e-06
6.86475e-06
6.32722e-06
3.66496e-06
1.90269e-06
-3.61055e-06
2.85796e-06
3.58029e-06
-9.77437e-07
9.69259e-07
2.73994e-06
5.16316e-06
-1.13685e-06
1.34602e-06
-2.18545e-07
3.85181e-06
-3.53805e-06
5.28479e-06
2.74951e-06
-3.24342e-07
-1.37776e-06
3.27355e-06
3.25748e-06
3.00177e-06
6.73883e-07
1.40329e-06
7.60429e-07
3.00227e-06
3.06814e-06
0.000191863
-0.000292902
6.36026e-06
0.000213472
2.4182e-06
0.000339982
-1.38123e-05
2.75453e-05
-1.65914e-06
2.60229e-05
7.95966e-07
-0.000186344
-1.48034e-05
0.000244026
7.24944e-06
0.000133457
1.53078e-06
7.79734e-05
-2.44934e-06
9.22036e-05
-1.08008e-05
0.000120856
-0.000129886
0.000111857
-8.94661e-06
-2.24163e-05
-3.15661e-06
-6.62749e-05
-1.00274e-06
-0.000166591
-5.99575e-06
-0.000188843
-6.38519e-06
-8.22704e-05
-5.08377e-06
5.03527e-05
8.36614e-06
-9.62954e-05
-5.15255e-07
-0.000146207
2.2813e-06
0.00017509
1.88697e-08
5.45882e-07
-4.57534e-06
-4.22935e-05
2.23559e-06
-0.000223291
-5.48017e-06
-0.000339759
9.18026e-06
-0.000158716
1.5863e-05
-0.000186561
4.23298e-06
5.14282e-06
1.8236e-05
-2.36214e-05
-8.63856e-06
1.47526e-05
1.39835e-05
2.76459e-05
-2.00967e-05
2.40362e-06
3.46563e-05
-1.88053e-05
2.55373e-05
-3.16747e-05
-2.32029e-05
1.96316e-05
-6.37087e-05
1.15392e-05
-2.40625e-05
-2.08537e-05
2.39341e-05
-1.20788e-05
-5.13519e-05
1.46407e-05
-6.64958e-05
1.87685e-05
-1.30162e-05
1.05188e-05
-9.68718e-06
-1.32714e-05
1.88395e-05
-5.72339e-06
-2.74457e-05
-1.09059e-05
-7.84086e-06
-1.08631e-05
-3.26934e-05
-1.5065e-06
-4.6248e-06
-7.29624e-06
-1.25123e-05
-1.01619e-05
-2.95704e-05
3.52003e-05
-4.67829e-05
1.25658e-05
1.2263e-06
-8.01089e-06
3.24174e-05
-5.70456e-06
-3.11152e-05
-9.85843e-06
6.16384e-07
-1.42371e-05
4.95548e-06
-1.33089e-05
-2.86086e-05
-3.09863e-05
-5.23461e-06
1.1193e-05
-4.49462e-06
-7.48578e-07
6.39494e-06
-1.00606e-05
-8.88366e-06
1.56051e-06
1.64244e-05
1.39754e-05
1.04576e-05
1.95418e-05
-1.09002e-05
-1.52036e-05
-2.89624e-05
-1.04144e-05
-1.26897e-05
1.16245e-05
9.77204e-06
5.12257e-06
-2.14893e-05
-6.46462e-06
-2.92393e-05
-9.01099e-06
-6.65616e-06
-5.62042e-06
-3.98145e-06
5.20933e-06
8.00569e-06
6.60202e-07
-1.29816e-05
2.23143e-07
-3.2528e-06
-6.8066e-07
-1.45995e-05
-4.55258e-07
-2.92186e-06
3.62998e-06
-5.43009e-06
6.88432e-06
-1.28627e-05
-1.88364e-05
-2.10589e-05
-7.20228e-06
4.00679e-07
4.32944e-06
1.67973e-05
4.7406e-08
-1.3575e-05
4.61335e-06
1.02567e-06
8.32042e-06
1.99271e-06
7.02623e-06
-1.35954e-05
-1.27638e-05
-2.22842e-06
5.17336e-06
-1.51217e-06
-1.28586e-07
2.21503e-06
-4.95379e-06
-3.80317e-06
2.15056e-06
4.89664e-06
9.16953e-06
1.47249e-06
1.0925e-05
-1.94162e-06
-8.59091e-06
-9.40856e-06
-6.40745e-06
-5.1353e-06
5.46984e-06
2.19998e-06
3.23937e-06
-6.96703e-06
-3.77826e-06
-7.72106e-06
-5.51203e-06
-3.42567e-06
-3.45585e-06
-1.34506e-06
3.43161e-06
1.09282e-06
1.2957e-07
-4.64648e-06
-2.66367e-07
-8.61295e-07
-1.00674e-06
-4.99542e-06
-1.08084e-06
-1.8228e-06
1.70496e-06
-2.90504e-06
3.59345e-06
-3.85145e-06
-1.06129e-05
-6.89154e-06
-4.78163e-06
1.22639e-07
3.73654e-06
4.30078e-06
5.17003e-07
-3.56077e-06
2.62626e-06
1.37581e-06
4.94238e-06
-7.1146e-07
2.92425e-06
-3.38981e-06
-4.6557e-06
-1.22576e-06
2.7246e-06
3.04007e-07
-2.50734e-06
1.49765e-06
3.18724e-06
5.65222e-06
-3.76029e-06
-3.46113e-06
1.74747e-06
8.34586e-07
-5.87369e-07
-2.11396e-06
-6.01533e-07
4.71409e-07
-6.12402e-07
-5.09952e-07
-3.50245e-07
-8.35275e-07
1.11598e-07
1.55398e-06
-5.34979e-06
-2.49052e-06
4.35075e-07
1.39694e-07
2.19625e-06
2.24698e-06
1.92521e-06
3.05907e-05
0.000176198
4.08431e-06
-3.32577e-05
2.20214e-05
0.000156828
2.30515e-05
1.29995e-05
3.15113e-06
1.6866e-05
-9.96293e-06
1.75477e-05
)
;

boundaryField
{
    top_fluid_surface
    {
        type            calculated;
        value           nonuniform List<scalar> 
64
(
-0.000306618
-0.000140671
-7.47596e-05
6.81848e-06
-0.000439119
-6.57439e-05
-0.000341004
-0.000408321
-0.000297308
2.88871e-05
0.000429445
-0.000212403
-2.32647e-05
-0.000465788
0.000228068
5.278e-05
0.000517864
0.000626696
0.000590708
0.000771063
4.98516e-05
0.000168639
0.000648027
0.000623205
-8.29155e-05
0.000263932
0.000470413
0.000493635
0.000485465
8.98858e-05
2.3468e-05
0.000283959
-5.25441e-05
-0.000100338
-3.13846e-05
0.000397802
-0.000104621
-4.53583e-05
-0.000472869
-6.08179e-05
-9.32306e-05
-0.000176701
8.36796e-06
-1.10818e-06
-7.97696e-05
4.57275e-05
-4.30524e-05
-9.62251e-05
-0.000320786
-0.000183136
6.61489e-05
-0.000270884
-0.000325271
-5.61592e-05
-4.56557e-05
6.61843e-06
-3.30057e-05
-0.000498481
-0.000169091
-0.000487054
-0.000210328
-0.000257873
-0.00010035
-8.93734e-05
)
;
    }
    bottom_fluid_surface
    {
        type            calculated;
        value           uniform 0;
    }
    lateral_surface_1
    {
        type            calculated;
        value           uniform 0;
    }
    lateral_surface_2
    {
        type            calculated;
        value           uniform 0;
    }
    lateral_surface_3
    {
        type            calculated;
        value           uniform 0;
    }
    lateral_surface_4
    {
        type            calculated;
        value           uniform 0;
    }
}


// ************************************************************************* //
