/*--------------------------------*- C++ -*----------------------------------*\
| =========                 |                                                 |
| \\      /  F ield         | OpenFOAM: The Open Source CFD Toolbox           |
|  \\    /   O peration     | Version:  v1612+                                |
|   \\  /    A nd           | Web:      www.OpenFOAM.com                      |
|    \\/     M anipulation  |                                                 |
\*---------------------------------------------------------------------------*/
FoamFile
{
    version     2.0;
    format      ascii;
    class       volScalarField;
    location    "5.75";
    object      alpha.water;
}
// * * * * * * * * * * * * * * * * * * * * * * * * * * * * * * * * * * * * * //

dimensions      [0 0 0 0 0 0 0];

internalField   nonuniform List<scalar> 
320
(
1
1
1
1
1.41513e-05
1.39579e-05
1.41702e-05
1.3687e-05
1.41486e-05
1.4677e-05
1.52639e-05
1.40263e-05
1.37591e-05
1.38649e-05
1.21793e-05
1.39398e-05
0.999983
0.999987
0.999989
0.999984
0.999983
0.999983
0.999983
0.999985
0.999984
0.999983
0.999993
0.999981
1
1
1
1
1
1
1
1
1
1
1
1
1
1
1
1
1
1
1
1
1
1
1
1
1
1
1
1
1.45615e-05
1.4678e-05
1.38855e-05
1.4142e-05
1.276e-05
1.07708e-05
1.19488e-05
1.05956e-05
1.40951e-05
1.36314e-05
1.2364e-05
1.22236e-05
1.48375e-05
1.3263e-05
1.3674e-05
1.1685e-05
1.16211e-05
1.49803e-05
1.46968e-05
1.31253e-05
0.999987
0.99998
0.999988
0.999986
0.999994
0.999995
0.999993
0.999993
0.999982
0.999989
0.999993
0.999994
0.999983
0.999994
0.999992
0.999992
0.999992
0.999985
0.999986
0.999991
1
1
1
1
1
1
1
1
1
1
1
1
1
1
1
1
1
1
1
1
1
1
1
1
1
1
1
1
1
1
1
1
1
1
1
1
1
1
1
1
1
1
1
1
1
1
1
1
1
1
1
1
1
1
1
1
1
1
1
1
1
1
1
1
1
1
1
1
1
1
1
1
1
1
1
1
1.40876e-05
1.62095e-05
1.57709e-05
1.24647e-05
1.32363e-05
1.35078e-05
1.73189e-05
1.52695e-05
1.17136e-05
1.4962e-05
1.37767e-05
1.43085e-05
1.45568e-05
1.48846e-05
1.57056e-05
1.48608e-05
1.49236e-05
1.39442e-05
1.52775e-05
1.75198e-05
1.70068e-05
1.43062e-05
1.16839e-05
1.41608e-05
1.4164e-05
1.56751e-05
1.42237e-05
1.49819e-05
0.999982
0.999984
0.999985
0.999991
0.999985
0.999985
0.999983
0.999983
0.999986
0.999978
0.999979
0.999985
0.999979
0.999986
0.999986
0.999987
0.999982
0.999984
0.999986
0.999982
0.999981
0.999986
0.999989
0.999985
0.99999
0.999988
0.999983
0.999976
1
1
1
1
1
1
1
1
1
1
1
1
1
1
1
1
1
1
1
1
1
1
1
1
1
1
1
1
1
1
1
1
1
1
1
1
1
1
1
1
1
1
1
1
1
1
1
1
1
1
1
1
1
1
1
1
1
1
1
1
1
1
1
1
1
1
1
1
1
1
1
1
1
1
1
1
1
1
1
1
1
1
1
1
1.53238e-05
1.29174e-05
1.33303e-05
1.29174e-05
0.99998
0.999984
0.999984
0.999991
)
;

boundaryField
{
    top_fluid_surface
    {
        type            inletOutlet;
        inletValue      uniform 0;
        value           nonuniform List<scalar> 
64
(
1.41513e-05
0
0
0
0
0
0
0
0
1.38649e-05
1.21793e-05
1.39398e-05
0
0
0
0
1.276e-05
1.07708e-05
1.19488e-05
1.05956e-05
0
1.36314e-05
1.2364e-05
1.22236e-05
0
1.3263e-05
1.3674e-05
1.1685e-05
1.16211e-05
0
0
1.31253e-05
1.40876e-05
0
0
1.24647e-05
1.32363e-05
0
0
0
1.17136e-05
0
0
0
0
0
0
0
0
0
0
0
0
1.43062e-05
1.16839e-05
1.41608e-05
1.4164e-05
0
0
0
0
1.29174e-05
1.33303e-05
1.29174e-05
)
;
    }
    bottom_fluid_surface
    {
        type            zeroGradient;
    }
    lateral_surface_1
    {
        type            zeroGradient;
    }
    lateral_surface_2
    {
        type            zeroGradient;
    }
    lateral_surface_3
    {
        type            zeroGradient;
    }
    lateral_surface_4
    {
        type            zeroGradient;
    }
}


// ************************************************************************* //
