/*--------------------------------*- C++ -*----------------------------------*\
| =========                 |                                                 |
| \\      /  F ield         | OpenFOAM: The Open Source CFD Toolbox           |
|  \\    /   O peration     | Version:  v1612+                                |
|   \\  /    A nd           | Web:      www.OpenFOAM.com                      |
|    \\/     M anipulation  |                                                 |
\*---------------------------------------------------------------------------*/
FoamFile
{
    version     2.0;
    format      ascii;
    class       volScalarField;
    location    "5.75";
    object      p;
}
// * * * * * * * * * * * * * * * * * * * * * * * * * * * * * * * * * * * * * //

dimensions      [1 -1 -2 0 0 0 0];

internalField   nonuniform List<scalar> 
320
(
14724.8
14724.8
14724.8
14724.8
4.97452
4.97303
4.9721
4.97194
4.97219
4.97287
4.97286
4.97271
4.97426
4.97363
4.9733
4.97397
4914.83
4914.88
4914.9
4914.87
4914.87
4914.87
4914.88
4914.87
4914.87
4914.83
4914.85
4914.82
14724.8
14724.8
14724.8
14724.8
14724.8
14724.8
14724.8
14724.8
14724.8
14724.8
14724.8
14724.8
24534.8
24534.8
24534.8
24534.8
24534.8
24534.8
24534.8
24534.8
24534.8
24534.8
24534.8
24534.8
24534.8
24534.8
24534.8
24534.8
4.97463
4.97485
4.97331
4.97198
4.97164
4.97128
4.97207
4.9723
4.97304
4.97414
4.97401
4.97353
4.97324
4.97346
4.97402
4.97391
4.97355
4.97399
4.97381
4.97513
4914.89
4914.86
4914.89
4914.88
4914.86
4914.84
4914.85
4914.83
4914.86
4914.85
4914.85
4914.86
4914.88
4914.87
4914.87
4914.84
4914.84
4914.89
4914.89
4914.85
14724.8
14724.8
14724.8
14724.8
14724.8
14724.8
14724.8
14724.8
14724.8
14724.8
14724.8
14724.8
14724.8
14724.8
14724.8
14724.8
14724.8
14724.8
14724.8
14724.8
24534.8
24534.8
24534.8
24534.8
24534.8
24534.8
24534.8
24534.8
24534.8
24534.8
24534.8
24534.8
24534.8
24534.8
24534.8
24534.8
24534.8
24534.8
24534.8
24534.8
34344.8
34344.8
34344.8
34344.8
34344.8
34344.8
34344.8
34344.8
34344.8
34344.8
34344.8
34344.8
34344.8
34344.8
34344.8
34344.8
34344.8
34344.8
34344.8
34344.8
34344.8
34344.8
34344.8
34344.8
34344.8
34344.8
34344.8
34344.8
34344.8
34344.8
34344.8
34344.8
34344.8
34344.8
34344.8
34344.8
4.97576
4.97577
4.97434
4.974
4.97172
4.97095
4.97203
4.97468
4.96998
4.97199
4.97237
4.9743
4.97422
4.97472
4.97489
4.97512
4.97552
4.97221
4.97349
4.97379
4.97493
4.97542
4.97418
4.97491
4.97505
4.97478
4.97436
4.97707
4914.82
4914.9
4914.9
4914.85
4914.83
4914.87
4914.91
4914.88
4914.81
4914.85
4914.84
4914.84
4914.85
4914.89
4914.9
4914.89
4914.83
4914.83
4914.9
4914.91
4914.9
4914.85
4914.82
4914.84
4914.86
4914.91
4914.86
4914.84
14724.8
14724.8
14724.8
14724.8
14724.8
14724.8
14724.8
14724.8
14724.8
14724.8
14724.8
14724.8
14724.8
14724.8
14724.8
14724.8
14724.8
14724.8
14724.8
14724.8
14724.8
14724.8
14724.8
14724.8
14724.8
14724.8
14724.8
14724.8
24534.8
24534.8
24534.8
24534.8
24534.8
24534.8
24534.8
24534.8
24534.8
24534.8
24534.8
24534.8
24534.8
24534.8
24534.8
24534.8
24534.8
24534.8
24534.8
24534.8
24534.8
24534.8
24534.8
24534.8
24534.8
24534.8
24534.8
24534.8
34344.8
34344.8
34344.8
34344.8
34344.8
34344.8
34344.8
34344.8
34344.8
34344.8
34344.8
34344.8
34344.8
34344.8
34344.8
34344.8
34344.8
34344.8
34344.8
34344.8
34344.8
34344.8
34344.8
34344.8
34344.8
34344.8
34344.8
34344.8
4.97279
4.97215
4.97253
4.97222
4914.87
4914.82
4914.83
4914.85
)
;

boundaryField
{
    top_fluid_surface
    {
        type            calculated;
        value           nonuniform List<scalar> 
64
(
0
-4.77994e-10
-1.83746e-09
-2.05903e-12
-1.12943e-09
-6.84935e-09
-1.47113e-08
-1.01393e-09
0
0
0
0
-7.7144e-11
-4.86514e-10
-1.69299e-10
-1.9235e-09
0
0
0
0
-3.30842e-10
0
0
0
-1.05053e-08
0
0
0
0
-3.33508e-09
-2.77507e-09
0
0
-8.04915e-09
-1.60623e-08
0
0
-1.03837e-09
-8.59799e-08
-7.02257e-09
0
-1.63323e-08
-2.25285e-09
-1.64993e-08
-1.48355e-10
-8.4634e-10
-1.34512e-08
-9.50625e-10
-2.57519e-08
-2.00348e-08
-1.38925e-08
-6.70094e-08
-4.42642e-08
0
0
0
0
-8.65386e-09
-1.64481e-09
-3.32506e-09
-1.81266e-08
0
0
0
)
;
    }
    bottom_fluid_surface
    {
        type            calculated;
        value           nonuniform List<scalar> 
64
(
39249.8
39249.8
39249.8
39249.8
39249.8
39249.8
39249.8
39249.8
39249.8
39249.8
39249.8
39249.8
39249.8
39249.8
39249.8
39249.8
39249.8
39249.8
39249.8
39249.8
39249.8
39249.8
39249.8
39249.8
39249.8
39249.8
39249.8
39249.8
39249.8
39249.8
39249.8
39249.8
39249.8
39249.8
39249.8
39249.8
39249.8
39249.8
39249.8
39249.8
39249.8
39249.8
39249.8
39249.8
39249.8
39249.8
39249.8
39249.8
39249.8
39249.8
39249.8
39249.8
39249.8
39249.8
39249.8
39249.8
39249.8
39249.8
39249.8
39249.8
39249.8
39249.8
39249.8
39249.8
)
;
    }
    lateral_surface_1
    {
        type            calculated;
        value           nonuniform List<scalar> 
40
(
4.97576
4.97577
4.97434
4.974
4.97172
4.97095
4.97203
4.97707
4914.82
4914.9
4914.9
4914.85
4914.83
4914.87
4914.91
4914.84
14724.8
14724.8
14724.8
14724.8
14724.8
14724.8
14724.8
14724.8
24534.8
24534.8
24534.8
24534.8
24534.8
24534.8
24534.8
24534.8
34344.8
34344.8
34344.8
34344.8
34344.8
34344.8
34344.8
34344.8
)
;
    }
    lateral_surface_2
    {
        type            calculated;
        value           nonuniform List<scalar> 
40
(
4.97472
4.97489
4.97512
4.97552
4.97221
4.97349
4.97379
4.97493
4914.89
4914.9
4914.89
4914.83
4914.83
4914.9
4914.91
4914.9
14724.8
14724.8
14724.8
14724.8
14724.8
14724.8
14724.8
14724.8
24534.8
24534.8
24534.8
24534.8
24534.8
24534.8
24534.8
24534.8
34344.8
34344.8
34344.8
34344.8
34344.8
34344.8
34344.8
34344.8
)
;
    }
    lateral_surface_3
    {
        type            calculated;
        value           nonuniform List<scalar> 
40
(
4.97203
4.97468
4.96998
4.97199
4.97237
4.9743
4.97422
4.97472
4914.91
4914.88
4914.81
4914.85
4914.84
4914.84
4914.85
4914.89
14724.8
14724.8
14724.8
14724.8
14724.8
14724.8
14724.8
14724.8
24534.8
24534.8
24534.8
24534.8
24534.8
24534.8
24534.8
24534.8
34344.8
34344.8
34344.8
34344.8
34344.8
34344.8
34344.8
34344.8
)
;
    }
    lateral_surface_4
    {
        type            calculated;
        value           nonuniform List<scalar> 
40
(
4.97493
4.97542
4.97418
4.97491
4.97505
4.97478
4.97436
4.97707
4914.9
4914.85
4914.82
4914.84
4914.86
4914.91
4914.86
4914.84
14724.8
14724.8
14724.8
14724.8
14724.8
14724.8
14724.8
14724.8
24534.8
24534.8
24534.8
24534.8
24534.8
24534.8
24534.8
24534.8
34344.8
34344.8
34344.8
34344.8
34344.8
34344.8
34344.8
34344.8
)
;
    }
}


// ************************************************************************* //
